                         Program Version 6.0.0  -   RELEASE  -
|  1> ! pbe def2-sv(p) def2/J RI DEFGRID1 loosescf d4 GCP(DFT/SV(P)) printgap
|  2> %output
|  3>     printlevel normal
|  4> end
|  5> * xyz 0 1
|  6> C 3.5651145825 -2.4918526957 -1.7657568587
|  7> C 4.1823077001 -1.6854512244 -0.6399268799
|  8> O 3.2051761152 -0.8997298009 0.0697180668
|  9> P 2.5047835531 0.3567761287 -0.6083379168
| 10> S 3.6066607973 1.375203084 -1.8654801267
| 11> O 2.1035231688 1.0963431339 0.7412666645
| 12> C 1.9515692232 2.524356562 0.8035824082
| 13> C 0.8240227504 3.0271364535 -0.0751603107
| 14> S 0.6728471173 -0.4194471426 -1.3334546493
| 15> C 0.2780346759 -1.4322377242 0.1456105993
| 16> S -1.4718654005 -1.821597563 0.2112854361
| 17> P -2.1304843798 0.0953884714 0.8778030256
| 18> S -1.0644533222 0.7834780802 2.3722612157
| 19> O -3.6827964792 -0.0765969297 1.1559339732
| 20> C -4.1902341639 -0.7710812537 2.3116647562
| 21> C -4.5072196473 -2.2169296233 1.9844262997
| 22> O -2.1166504085 1.0887250419 -0.3445899287
| 23> C -3.080507415 1.1314189398 -1.4268440558
| 24> C -3.0750177763 -0.1294769157 -2.2645061841
| 25> H 4.3360804233 -3.0952897405 -2.2342847982
| 26> H 2.7814166948 -3.1449098812 -1.3904526244
| 27> H 3.1410466386 -1.8213270054 -2.5129857345
| 28> H 4.9497363494 -1.0107502879 -1.0319162104
| 29> H 4.6114807278 -2.3266911207 0.1311386009
| 30> H 1.7512341712 2.7178408471 1.8588128375
| 31> H 2.8995498441 2.9846134127 0.5087943097
| 32> H 0.7324661656 4.1022151688 0.0405423746
| 33> H 1.0355683885 2.7981447577 -1.1198641441
| 34> H -0.1162450902 2.5574654458 0.2061150125
| 35> H 0.5604808476 -0.8720875636 1.0395105285
| 36> H 0.8090305717 -2.3781194148 0.0835486894
| 37> H -3.4581909552 -0.6931226028 3.1218147145
| 38> H -5.0923038724 -0.2213032285 2.586944088
| 39> H -5.2158135642 -2.2656719543 1.1626278413
| 40> H -3.6040810958 -2.7529671325 1.7015573628
| 41> H -4.9422517561 -2.6895101507 2.8591935707
| 42> H -4.0660023533 1.3150598614 -0.9957199573
| 43> H -2.7582007671 1.9974160729 -2.0070200598
| 44> H -3.7085434347 0.0240014729 -3.1325544164
| 45> H -2.0639734847 -0.3570426296 -2.5969409595
| 46> H -3.4572725849 -0.9716506785 -1.6920693241
| 47> *
| 48>
| 49>                          ****END OF INPUT****

CARTESIAN COORDINATES (ANGSTROEM)
---------------------------------
  C      3.565115   -2.491853   -1.765757
  C      4.182308   -1.685451   -0.639927
  O      3.205176   -0.899730    0.069718
  P      2.504784    0.356776   -0.608338
  S      3.606661    1.375203   -1.865480
  O      2.103523    1.096343    0.741267
  C      1.951569    2.524357    0.803582
  C      0.824023    3.027136   -0.075160
  S      0.672847   -0.419447   -1.333455
  C      0.278035   -1.432238    0.145611
  S     -1.471865   -1.821598    0.211285
  P     -2.130484    0.095388    0.877803
  S     -1.064453    0.783478    2.372261
  O     -3.682796   -0.076597    1.155934
  C     -4.190234   -0.771081    2.311665
  C     -4.507220   -2.216930    1.984426
  O     -2.116650    1.088725   -0.344590
  C     -3.080507    1.131419   -1.426844
  C     -3.075018   -0.129477   -2.264506
  H      4.336080   -3.095290   -2.234285
  H      2.781417   -3.144910   -1.390453
  H      3.141047   -1.821327   -2.512986
  H      4.949736   -1.010750   -1.031916
  H      4.611481   -2.326691    0.131139
  H      1.751234    2.717841    1.858813
  H      2.899550    2.984613    0.508794
  H      0.732466    4.102215    0.040542
  H      1.035568    2.798145   -1.119864
  H     -0.116245    2.557465    0.206115
  H      0.560481   -0.872088    1.039511
  H      0.809031   -2.378119    0.083549
  H     -3.458191   -0.693123    3.121815
  H     -5.092304   -0.221303    2.586944
  H     -5.215814   -2.265672    1.162628
  H     -3.604081   -2.752967    1.701557
  H     -4.942252   -2.689510    2.859194
  H     -4.066002    1.315060   -0.995720
  H     -2.758201    1.997416   -2.007020
  H     -3.708543    0.024001   -3.132554
  H     -2.063973   -0.357043   -2.596941
  H     -3.457273   -0.971651   -1.692069

 Total Charge           Charge          ....    0
 Multiplicity           Mult            ....    1
 Number of Electrons    NEL             ....  202
 Basis Dimension        Dim             ....  334

ORBITAL ENERGIES
----------------

  NO   OCC          E(Eh)            E(eV)
   0   2.0000     -88.052110     -2396.0197
   1   2.0000     -88.038506     -2395.6495
   2   2.0000     -87.988635     -2394.2925
   3   2.0000     -87.985351     -2394.2031
   4   2.0000     -76.433332     -2079.8567
   5   2.0000     -76.421906     -2079.5458
   6   2.0000     -18.806213      -511.7431
   7   2.0000     -18.797250      -511.4992
   8   2.0000     -18.786723      -511.2127
   9   2.0000     -18.779054      -511.0040
  10   2.0000      -9.963043      -271.1082
  11   2.0000      -9.960947      -271.0512
  12   2.0000      -9.955578      -270.9050
  13   2.0000      -9.951013      -270.7808
  14   2.0000      -9.938251      -270.4336
  15   2.0000      -9.895191      -269.2618
  16   2.0000      -9.890413      -269.1318
  17   2.0000      -9.884551      -268.9723
  18   2.0000      -9.863573      -268.4015
  19   2.0000      -7.696908      -209.4435
  20   2.0000      -7.683369      -209.0751
  21   2.0000      -7.633499      -207.7181
  22   2.0000      -7.630480      -207.6359
  23   2.0000      -6.430707      -174.9884
  24   2.0000      -6.419322      -174.6786
  25   2.0000      -5.724678      -155.7764
  26   2.0000      -5.721444      -155.6884
  27   2.0000      -5.713988      -155.4855
  28   2.0000      -5.711597      -155.4205
  29   2.0000      -5.707882      -155.3194
  30   2.0000      -5.700057      -155.1064
  31   2.0000      -5.662474      -154.0837
  32   2.0000      -5.659452      -154.0015
  33   2.0000      -5.654217      -153.8591
  34   2.0000      -5.653502      -153.8396
  35   2.0000      -5.650934      -153.7697
  36   2.0000      -5.650771      -153.7653
  37   2.0000      -4.653809      -126.6366
  38   2.0000      -4.652354      -126.5970
  39   2.0000      -4.650773      -126.5540
  40   2.0000      -4.641657      -126.3059
  41   2.0000      -4.641387      -126.2986
  42   2.0000      -4.639768      -126.2545
  43   2.0000      -0.997763       -27.1505
  44   2.0000      -0.980797       -26.6888
  45   2.0000      -0.953287       -25.9403
  46   2.0000      -0.937259       -25.5041
  47   2.0000      -0.765622       -20.8336
  48   2.0000      -0.724101       -19.7038
  49   2.0000      -0.709309       -19.3013
  50   2.0000      -0.698908       -19.0183
  51   2.0000      -0.681360       -18.5407
  52   2.0000      -0.670852       -18.2548
  53   2.0000      -0.654527       -17.8106
  54   2.0000      -0.637721       -17.3533
  55   2.0000      -0.602668       -16.3994
  56   2.0000      -0.591031       -16.0828
  57   2.0000      -0.584702       -15.9105
  58   2.0000      -0.563869       -15.3437
  59   2.0000      -0.559335       -15.2203
  60   2.0000      -0.507522       -13.8104
  61   2.0000      -0.488018       -13.2797
  62   2.0000      -0.481386       -13.0992
  63   2.0000      -0.460326       -12.5261
  64   2.0000      -0.457102       -12.4384
  65   2.0000      -0.448607       -12.2072
  66   2.0000      -0.445093       -12.1116
  67   2.0000      -0.436406       -11.8752
  68   2.0000      -0.432916       -11.7802
  69   2.0000      -0.417052       -11.3486
  70   2.0000      -0.413074       -11.2403
  71   2.0000      -0.402440       -10.9509
  72   2.0000      -0.395289       -10.7564
  73   2.0000      -0.390071       -10.6144
  74   2.0000      -0.380966       -10.3666
  75   2.0000      -0.378497       -10.2994
  76   2.0000      -0.369148       -10.0450
  77   2.0000      -0.363139        -9.8815
  78   2.0000      -0.357366        -9.7244
  79   2.0000      -0.350747        -9.5443
  80   2.0000      -0.347571        -9.4579
  81   2.0000      -0.341849        -9.3022
  82   2.0000      -0.338495        -9.2109
  83   2.0000      -0.332429        -9.0459
  84   2.0000      -0.329229        -8.9588
  85   2.0000      -0.324803        -8.8383
  86   2.0000      -0.312559        -8.5052
  87   2.0000      -0.303151        -8.2491
  88   2.0000      -0.299310        -8.1446
  89   2.0000      -0.295051        -8.0287
  90   2.0000      -0.281876        -7.6702
  91   2.0000      -0.278957        -7.5908
  92   2.0000      -0.269890        -7.3441
  93   2.0000      -0.260296        -7.0830
  94   2.0000      -0.254249        -6.9185
  95   2.0000      -0.236384        -6.4323
  96   2.0000      -0.215686        -5.8691
  97   2.0000      -0.210640        -5.7318
  98   2.0000      -0.205501        -5.5920
  99   2.0000      -0.200285        -5.4500
 100   2.0000      -0.199384        -5.4255
 101   0.0000      -0.045978        -1.2511
 102   0.0000      -0.027721        -0.7543
 103   0.0000      -0.021057        -0.5730
 104   0.0000      -0.001509        -0.0411
 105   0.0000       0.012953         0.3525

MULLIKEN ATOMIC CHARGES
-----------------------
   0 C :   -0.319791
   1 C :   -0.002053
   2 O :   -0.373941
   3 P :    0.586843
   4 S :   -0.316672
   5 O :   -0.363117
   6 C :    0.012571
   7 C :   -0.341896
   8 S :   -0.088230
   9 C :   -0.367779
  10 S :   -0.108774
  11 P :    0.621317
  12 S :   -0.305827
  13 O :   -0.380650
  14 C :   -0.008431
  15 C :   -0.310005
  16 O :   -0.351277
  17 C :    0.007338
  18 C :   -0.328171
  19 H :    0.112696
  20 H :    0.114277
  21 H :    0.130712
  22 H :    0.114002
  23 H :    0.106148
  24 H :    0.105892
  25 H :    0.105300
  26 H :    0.101979
  27 H :    0.112353
  28 H :    0.146898
  29 H :    0.215445
  30 H :    0.186664
  31 H :    0.109777
  32 H :    0.111846
  33 H :    0.116962
  34 H :    0.131034
  35 H :    0.117411
  36 H :    0.111193
  37 H :    0.114365
  38 H :    0.115267
  39 H :    0.137180
  40 H :    0.121144
Sum of atomic charges:   -0.0000000

LOEWDIN ATOMIC CHARGES
----------------------
   0 C :   -0.367939
   1 C :   -0.118059
   2 O :   -0.243756
   3 P :    0.574650
   4 S :   -0.317317
   5 O :   -0.236367
   6 C :   -0.115289
   7 C :   -0.379619
   8 S :    0.068301
   9 C :   -0.480748
  10 S :    0.088759
  11 P :    0.576207
  12 S :   -0.299365
  13 O :   -0.244056
  14 C :   -0.116705
  15 C :   -0.364884
  16 O :   -0.227724
  17 C :   -0.106325
  18 C :   -0.371588
  19 H :    0.131348
  20 H :    0.120850
  21 H :    0.123285
  22 H :    0.111746
  23 H :    0.118964
  24 H :    0.119668
  25 H :    0.107939
  26 H :    0.127275
  27 H :    0.114260
  28 H :    0.121674
  29 H :    0.127791
  30 H :    0.130282
  31 H :    0.111309
  32 H :    0.121958
  33 H :    0.126092
  34 H :    0.119338
  35 H :    0.134042
  36 H :    0.115067
  37 H :    0.124998
  38 H :    0.132292
  39 H :    0.125215
  40 H :    0.116429

  Mayer bond orders larger than 0.100000
B(  0-C ,  1-C ) :   1.1606 B(  0-C , 19-H ) :   0.9378 B(  0-C , 20-H ) :   0.9433
B(  0-C , 21-H ) :   0.9341 B(  1-C ,  2-O ) :   0.9141 B(  1-C , 22-H ) :   0.9154
B(  1-C , 23-H ) :   0.9345 B(  2-O ,  3-P ) :   1.0788 B(  3-P ,  4-S ) :   1.6222
B(  3-P ,  5-O ) :   1.1134 B(  3-P ,  8-S ) :   0.9737 B(  5-O ,  6-C ) :   0.9011
B(  6-C ,  7-C ) :   1.1668 B(  6-C , 24-H ) :   0.9296 B(  6-C , 25-H ) :   0.9223
B(  7-C , 26-H ) :   0.9371 B(  7-C , 27-H ) :   0.9322 B(  7-C , 28-H ) :   0.9219
B(  8-S ,  9-C ) :   0.9595 B(  9-C , 10-S ) :   1.0208 B(  9-C , 29-H ) :   0.8511
B(  9-C , 30-H ) :   0.8993 B( 10-S , 11-P ) :   0.9303 B( 10-S , 12-S ) :   0.1085
B( 11-P , 12-S ) :   1.6496 B( 11-P , 13-O ) :   1.0891 B( 11-P , 16-O ) :   1.1348
B( 13-O , 14-C ) :   0.8997 B( 14-C , 15-C ) :   1.1670 B( 14-C , 31-H ) :   0.9065
B( 14-C , 32-H ) :   0.9342 B( 15-C , 33-H ) :   0.9473 B( 15-C , 34-H ) :   0.9329
B( 15-C , 35-H ) :   0.9393 B( 16-O , 17-C ) :   0.8918 B( 17-C , 18-C ) :   1.1704
B( 17-C , 36-H ) :   0.9284 B( 17-C , 37-H ) :   0.9331 B( 18-C , 38-H ) :   0.9347
B( 18-C , 39-H ) :   0.9369 B( 18-C , 40-H ) :   0.9393

Dispersion correction           -0.066343260
FINAL SINGLE POINT ENERGY     -2929.516818514032

DIPOLE MOMENT
-------------

Method             : SCF
Type of density    : Electron Density
Multiplicity       :   1
Irrep              :   0
Energy             : -2929.6377739502977420 Eh
Relativity type    :
Basis              : AO
                                X                 Y                 Z
Electronic contribution:      9.053521585       5.042610567       3.376583632
Nuclear contribution   :    -10.594586452      -6.110031905      -3.401103560
                        -----------------------------------------
Total Dipole Moment    :     -1.541064868      -1.067421339      -0.024519928
                        -----------------------------------------
Magnitude (a.u.)       :      1.874798781
Magnitude (Debye)      :      4.765359791

Rotational constants in cm-1:             0.013266             0.004812             0.004520
Rotational constants in MHz :           397.700420           144.263827           135.491929

                             ****ORCA TERMINATED NORMALLY****
TOTAL RUN TIME: 0 days 0 hours 0 minutes 21 seconds 403 msec
