                         Program Version 6.0.0  -   RELEASE  -
|  1> ! pbe def2-sv(p) def2/J RI DEFGRID1 loosescf d4 GCP(DFT/SV(P)) printgap
|  2> %output
|  3>     printlevel normal
|  4> end
|  5> * xyz 0 1
|  6> C 2.9330586222 -0.2827982523 -2.6446669182
|  7> C 1.6789102599 0.3162295867 -2.0462510181
|  8> O 1.1913112389 -0.4597526024 -0.9342886054
|  9> P 1.9830870076 -0.5076875753 0.447424194
| 10> S 3.0028155797 1.100229963 0.9307220931
| 11> O 2.8705823675 -1.8110326845 0.2452974716
| 12> C 4.0087196363 -2.1060202124 1.0745075501
| 13> C 3.6050843767 -2.4683531635 2.4891566584
| 14> S 0.4689733479 -1.1934689706 1.7324060844
| 15> C -0.4040809318 0.3733316556 2.0773471327
| 16> S -0.4894263111 1.5291077161 0.6854057055
| 17> P -1.9347082029 0.5913258783 -0.5511025484
| 18> S -1.9419956971 1.1401045122 -2.4301992577
| 19> O -3.326612014 0.7810906435 0.2088519133
| 20> C -4.180075019 1.9102034716 -0.0289146072
| 21> C -3.5847429862 3.1973196037 0.5060978777
| 22> O -1.6404394632 -0.930117769 -0.24217999
| 23> C -1.9810388628 -1.9817480334 -1.1661511927
| 24> C -3.4780908683 -2.1922142507 -1.2429701799
| 25> H 3.7518434357 -0.2159078349 -1.929181418
| 26> H 2.7664890939 -1.3270257499 -2.8958627818
| 27> H 3.1994658637 0.2691642274 -3.5405387309
| 28> H 0.8490856762 0.3209418215 -2.7564197001
| 29> H 1.8611317126 1.3398923877 -1.6998490186
| 30> H 4.4934566103 -2.9404046884 0.5659395975
| 31> H 4.6700863384 -1.2334643133 1.0759494898
| 32> H 3.1819216979 -1.5982714204 2.9891196849
| 33> H 2.8619112465 -3.261611091 2.4788922446
| 34> H 4.4807521529 -2.7992312761 3.0382862069
| 35> H 0.1304819522 0.9117279011 2.8576866369
| 36> H -1.4065469775 0.099853163 2.3978246672
| 37> H -4.355565368 1.9899780224 -1.1066719696
| 38> H -5.1093104503 1.652379372 0.4810184831
| 39> H -3.3494280768 3.0993468596 1.5626654712
| 40> H -2.6690575518 3.4364404897 -0.0351311039
| 41> H -4.2952520056 4.0061576708 0.3692030842
| 42> H -1.5723520387 -1.7272731906 -2.149201656
| 43> H -1.4639111795 -2.8549709354 -0.7652083127
| 44> H -3.688207576 -3.0526280695 -1.8704398974
| 45> H -3.8851208859 -2.3591045767 -0.2492999748
| 46> H -3.9523796663 -1.3128672161 -1.6770893502
| 47> *
| 48>
| 49>                          ****END OF INPUT****

CARTESIAN COORDINATES (ANGSTROEM)
---------------------------------
  C      2.933059   -0.282798   -2.644667
  C      1.678910    0.316230   -2.046251
  O      1.191311   -0.459753   -0.934289
  P      1.983087   -0.507688    0.447424
  S      3.002816    1.100230    0.930722
  O      2.870582   -1.811033    0.245297
  C      4.008720   -2.106020    1.074508
  C      3.605084   -2.468353    2.489157
  S      0.468973   -1.193469    1.732406
  C     -0.404081    0.373332    2.077347
  S     -0.489426    1.529108    0.685406
  P     -1.934708    0.591326   -0.551103
  S     -1.941996    1.140105   -2.430199
  O     -3.326612    0.781091    0.208852
  C     -4.180075    1.910203   -0.028915
  C     -3.584743    3.197320    0.506098
  O     -1.640439   -0.930118   -0.242180
  C     -1.981039   -1.981748   -1.166151
  C     -3.478091   -2.192214   -1.242970
  H      3.751843   -0.215908   -1.929181
  H      2.766489   -1.327026   -2.895863
  H      3.199466    0.269164   -3.540539
  H      0.849086    0.320942   -2.756420
  H      1.861132    1.339892   -1.699849
  H      4.493457   -2.940405    0.565940
  H      4.670086   -1.233464    1.075949
  H      3.181922   -1.598271    2.989120
  H      2.861911   -3.261611    2.478892
  H      4.480752   -2.799231    3.038286
  H      0.130482    0.911728    2.857687
  H     -1.406547    0.099853    2.397825
  H     -4.355565    1.989978   -1.106672
  H     -5.109310    1.652379    0.481018
  H     -3.349428    3.099347    1.562665
  H     -2.669058    3.436440   -0.035131
  H     -4.295252    4.006158    0.369203
  H     -1.572352   -1.727273   -2.149202
  H     -1.463911   -2.854971   -0.765208
  H     -3.688208   -3.052628   -1.870440
  H     -3.885121   -2.359105   -0.249300
  H     -3.952380   -1.312867   -1.677089

 Total Charge           Charge          ....    0
 Multiplicity           Mult            ....    1
 Number of Electrons    NEL             ....  202
 Basis Dimension        Dim             ....  334

ORBITAL ENERGIES
----------------

  NO   OCC          E(Eh)            E(eV)
   0   2.0000     -88.044414     -2395.8103
   1   2.0000     -88.039261     -2395.6701
   2   2.0000     -87.993169     -2394.4159
   3   2.0000     -87.983292     -2394.1471
   4   2.0000     -76.427869     -2079.7080
   5   2.0000     -76.423509     -2079.5894
   6   2.0000     -18.793072      -511.3855
   7   2.0000     -18.790987      -511.3288
   8   2.0000     -18.790048      -511.3032
   9   2.0000     -18.781862      -511.0805
  10   2.0000      -9.962111      -271.0828
  11   2.0000      -9.953274      -270.8423
  12   2.0000      -9.951432      -270.7922
  13   2.0000      -9.950266      -270.7605
  14   2.0000      -9.935926      -270.3703
  15   2.0000      -9.885368      -268.9945
  16   2.0000      -9.884359      -268.9671
  17   2.0000      -9.882898      -268.9273
  18   2.0000      -9.874588      -268.7012
  19   2.0000      -7.688991      -209.2281
  20   2.0000      -7.684507      -209.1061
  21   2.0000      -7.638107      -207.8435
  22   2.0000      -7.628267      -207.5757
  23   2.0000      -6.425506      -174.8469
  24   2.0000      -6.420583      -174.7129
  25   2.0000      -5.717373      -155.5776
  26   2.0000      -5.713317      -155.4673
  27   2.0000      -5.712603      -155.4478
  28   2.0000      -5.709100      -155.3525
  29   2.0000      -5.705625      -155.2580
  30   2.0000      -5.701087      -155.1345
  31   2.0000      -5.666948      -154.2055
  32   2.0000      -5.658877      -153.9859
  33   2.0000      -5.658209      -153.9677
  34   2.0000      -5.657106      -153.9377
  35   2.0000      -5.648935      -153.7153
  36   2.0000      -5.648523      -153.7041
  37   2.0000      -4.647843      -126.4742
  38   2.0000      -4.647433      -126.4631
  39   2.0000      -4.646059      -126.4257
  40   2.0000      -4.642973      -126.3417
  41   2.0000      -4.642399      -126.3261
  42   2.0000      -4.641261      -126.2951
  43   2.0000      -0.988087       -26.8872
  44   2.0000      -0.981316       -26.7030
  45   2.0000      -0.946491       -25.7553
  46   2.0000      -0.939283       -25.5592
  47   2.0000      -0.763903       -20.7869
  48   2.0000      -0.719649       -19.5827
  49   2.0000      -0.704529       -19.1712
  50   2.0000      -0.687205       -18.6998
  51   2.0000      -0.681724       -18.5507
  52   2.0000      -0.672581       -18.3019
  53   2.0000      -0.655118       -17.8267
  54   2.0000      -0.638762       -17.3816
  55   2.0000      -0.602153       -16.3854
  56   2.0000      -0.593509       -16.1502
  57   2.0000      -0.572364       -15.5748
  58   2.0000      -0.567535       -15.4434
  59   2.0000      -0.562908       -15.3175
  60   2.0000      -0.495935       -13.4951
  61   2.0000      -0.487148       -13.2560
  62   2.0000      -0.473835       -12.8937
  63   2.0000      -0.467258       -12.7147
  64   2.0000      -0.458746       -12.4831
  65   2.0000      -0.441776       -12.0213
  66   2.0000      -0.437667       -11.9095
  67   2.0000      -0.434129       -11.8132
  68   2.0000      -0.425095       -11.5674
  69   2.0000      -0.416455       -11.3323
  70   2.0000      -0.410299       -11.1648
  71   2.0000      -0.395666       -10.7666
  72   2.0000      -0.392961       -10.6930
  73   2.0000      -0.384723       -10.4688
  74   2.0000      -0.383534       -10.4365
  75   2.0000      -0.374799       -10.1988
  76   2.0000      -0.371887       -10.1196
  77   2.0000      -0.357526        -9.7288
  78   2.0000      -0.353850        -9.6288
  79   2.0000      -0.349441        -9.5088
  80   2.0000      -0.347932        -9.4677
  81   2.0000      -0.343654        -9.3513
  82   2.0000      -0.339251        -9.2315
  83   2.0000      -0.336173        -9.1477
  84   2.0000      -0.329134        -8.9562
  85   2.0000      -0.319739        -8.7005
  86   2.0000      -0.308656        -8.3989
  87   2.0000      -0.296475        -8.0675
  88   2.0000      -0.292661        -7.9637
  89   2.0000      -0.290773        -7.9123
  90   2.0000      -0.279209        -7.5977
  91   2.0000      -0.272367        -7.4115
  92   2.0000      -0.264907        -7.2085
  93   2.0000      -0.262878        -7.1533
  94   2.0000      -0.258652        -7.0383
  95   2.0000      -0.227015        -6.1774
  96   2.0000      -0.220714        -6.0059
  97   2.0000      -0.214997        -5.8504
  98   2.0000      -0.207694        -5.6516
  99   2.0000      -0.196808        -5.3554
 100   2.0000      -0.195045        -5.3074
 101   0.0000      -0.046416        -1.2630
 102   0.0000      -0.027284        -0.7424
 103   0.0000      -0.010692        -0.2909
 104   0.0000       0.000636         0.0173
 105   0.0000       0.018462         0.5024

MULLIKEN ATOMIC CHARGES
-----------------------
   0 C :   -0.299088
   1 C :   -0.018314
   2 O :   -0.366004
   3 P :    0.608497
   4 S :   -0.334007
   5 O :   -0.371244
   6 C :   -0.004752
   7 C :   -0.314593
   8 S :   -0.085728
   9 C :   -0.321084
  10 S :   -0.072906
  11 P :    0.627415
  12 S :   -0.324061
  13 O :   -0.376356
  14 C :   -0.007887
  15 C :   -0.308339
  16 O :   -0.366415
  17 C :    0.002909
  18 C :   -0.305650
  19 H :    0.116687
  20 H :    0.110836
  21 H :    0.109855
  22 H :    0.114679
  23 H :    0.110722
  24 H :    0.104635
  25 H :    0.111141
  26 H :    0.126034
  27 H :    0.116751
  28 H :    0.112465
  29 H :    0.190749
  30 H :    0.180605
  31 H :    0.110256
  32 H :    0.104340
  33 H :    0.113847
  34 H :    0.125868
  35 H :    0.113231
  36 H :    0.112026
  37 H :    0.104727
  38 H :    0.112085
  39 H :    0.114888
  40 H :    0.121181
Sum of atomic charges:   -0.0000000

LOEWDIN ATOMIC CHARGES
----------------------
   0 C :   -0.364509
   1 C :   -0.128370
   2 O :   -0.242016
   3 P :    0.567961
   4 S :   -0.332138
   5 O :   -0.244253
   6 C :   -0.120397
   7 C :   -0.369944
   8 S :    0.092984
   9 C :   -0.467085
  10 S :    0.114197
  11 P :    0.575301
  12 S :   -0.309841
  13 O :   -0.251447
  14 C :   -0.121836
  15 C :   -0.366817
  16 O :   -0.234622
  17 C :   -0.112975
  18 C :   -0.364363
  19 H :    0.119229
  20 H :    0.123661
  21 H :    0.129441
  22 H :    0.111256
  23 H :    0.109135
  24 H :    0.118265
  25 H :    0.110046
  26 H :    0.121073
  27 H :    0.123535
  28 H :    0.130752
  29 H :    0.139245
  30 H :    0.134613
  31 H :    0.109124
  32 H :    0.117996
  33 H :    0.123457
  34 H :    0.120368
  35 H :    0.130855
  36 H :    0.111470
  37 H :    0.118524
  38 H :    0.130318
  39 H :    0.125774
  40 H :    0.122032

  Mayer bond orders larger than 0.100000
B(  0-C ,  1-C ) :   1.1613 B(  0-C , 19-H ) :   0.9368 B(  0-C , 20-H ) :   0.9463
B(  0-C , 21-H ) :   0.9403 B(  1-C ,  2-O ) :   0.8981 B(  1-C , 22-H ) :   0.9178
B(  1-C , 23-H ) :   0.9167 B(  2-O ,  3-P ) :   1.1134 B(  3-P ,  4-S ) :   1.5918
B(  3-P ,  5-O ) :   1.1059 B(  3-P ,  8-S ) :   0.9822 B(  4-S ,  8-S ) :   0.1124
B(  5-O ,  6-C ) :   0.9085 B(  6-C ,  7-C ) :   1.1668 B(  6-C , 24-H ) :   0.9338
B(  6-C , 25-H ) :   0.9139 B(  7-C , 26-H ) :   0.9353 B(  7-C , 27-H ) :   0.9445
B(  7-C , 28-H ) :   0.9379 B(  8-S ,  9-C ) :   0.9742 B(  9-C , 10-S ) :   1.0074
B(  9-C , 29-H ) :   0.9044 B(  9-C , 30-H ) :   0.9064 B( 10-S , 11-P ) :   0.9539
B( 11-P , 12-S ) :   1.6158 B( 11-P , 13-O ) :   1.0750 B( 11-P , 16-O ) :   1.1261
B( 13-O , 14-C ) :   0.9171 B( 14-C , 15-C ) :   1.1642 B( 14-C , 31-H ) :   0.9153
B( 14-C , 32-H ) :   0.9339 B( 15-C , 33-H ) :   0.9453 B( 15-C , 34-H ) :   0.9369
B( 15-C , 35-H ) :   0.9385 B( 16-O , 17-C ) :   0.8997 B( 17-C , 18-C ) :   1.1623
B( 17-C , 36-H ) :   0.9193 B( 17-C , 37-H ) :   0.9321 B( 18-C , 38-H ) :   0.9395
B( 18-C , 39-H ) :   0.9461 B( 18-C , 40-H ) :   0.9375

Dispersion correction           -0.068455811
FINAL SINGLE POINT ENERGY     -2929.519939508212

DIPOLE MOMENT
-------------

Method             : SCF
Type of density    : Electron Density
Multiplicity       :   1
Irrep              :   0
Energy             : -2929.6374747497766293 Eh
Relativity type    :
Basis              : AO
                                X                 Y                 Z
Electronic contribution:      2.643556829       6.400871848       3.097373852
Nuclear contribution   :     -3.370823996      -7.274786663      -2.626228150
                        -----------------------------------------
Total Dipole Moment    :     -0.727267168      -0.873914815       0.471145702
                        -----------------------------------------
Magnitude (a.u.)       :      1.230700171
Magnitude (Debye)      :      3.128191232

Rotational constants in cm-1:             0.012988             0.005218             0.005130
Rotational constants in MHz :           389.380084           156.440340           153.793181

                             ****ORCA TERMINATED NORMALLY****
TOTAL RUN TIME: 0 days 0 hours 0 minutes 21 seconds 858 msec
