                         Program Version 6.0.0  -   RELEASE  -
|  1> ! wb97x-v def2-tzvp def2/J RIJCOSX DEFGRID2 scfconv7 GCP(DFT/TZ) printgap
|  2> %output
|  3>     printlevel normal
|  4> end
|  5> * xyz 0 1
|  6> C 2.9601269556185454 -1.941742453552779 0.27553394199414627
|  7> C 1.709460299008144 -1.160696459097056 0.10247663145765809
|  8> C 1.5564589166774254 0.18394649039388927 0.21282931630748914
|  9> C 0.2801547434243506 0.8339686780809603 -0.01639415039059922
| 10> O 0.16578463383977354 2.050500772679842 -0.1459722130813426
| 11> N -0.8390319346996737 -0.03286812149561728 -0.07043764752182893
| 12> C -0.668167773617986 -1.3637037621926607 -0.4430132439809002
| 13> O -1.540181252250276 -2.076893574573797 -0.9332200493091217
| 14> N 0.5932748855066826 -1.8809269151223957 -0.225518311222623
| 15> C -2.256257491567955 0.5374636773420349 0.051806228124840925
| 16> C -3.2048332027100104 -0.5329338885024346 0.6205145931290021
| 17> C -2.2689914404911247 1.6937778246506017 1.0674286793093264
| 18> C -2.728511821968398 1.006935417467426 -1.321786865429634
| 19> Cl 2.906876640256381 1.2308820712174247 0.5526959641824448
| 20> H 3.8370368620674578 -1.2978116232422914 0.3039165505224248
| 21> H 3.067412131724851 -2.6634368524938683 -0.540199154038182
| 22> H 2.907532959770427 -2.506269066168501 1.2138963462825092
| 23> H 0.7013037149893048 -2.857649458197969 -0.4720683195372419
| 24> H -2.770088444387308 -1.021087584361468 1.4989432695822955
| 25> H -4.116495990222214 -0.02165835703617327 0.938427657354714
| 26> H -3.4804966082031283 -1.2918682789501394 -0.10665131446637117
| 27> H -1.8352586123145898 2.6118088383923044 0.6803721837243406
| 28> H -1.7491263453023176 1.415029568105177 1.989887093670213
| 29> H -3.313480507837534 1.892107063956932 1.3196069801339845
| 30> H -2.7377020998428714 0.17776257812586216 -2.0349790649085193
| 31> H -3.7469253732923877 1.3988220960484048 -1.2357693160844248
| 32> H -2.0845099482883334 1.801413417901529 -1.7085047128428932
| 33> *
| 34>
| 35>                          ****END OF INPUT****

CARTESIAN COORDINATES (ANGSTROEM)
---------------------------------
  C      2.960127   -1.941742    0.275534
  C      1.709460   -1.160696    0.102477
  C      1.556459    0.183946    0.212829
  C      0.280155    0.833969   -0.016394
  O      0.165785    2.050501   -0.145972
  N     -0.839032   -0.032868   -0.070438
  C     -0.668168   -1.363704   -0.443013
  O     -1.540181   -2.076894   -0.933220
  N      0.593275   -1.880927   -0.225518
  C     -2.256257    0.537464    0.051806
  C     -3.204833   -0.532934    0.620515
  C     -2.268991    1.693778    1.067429
  C     -2.728512    1.006935   -1.321787
  Cl     2.906877    1.230882    0.552696
  H      3.837037   -1.297812    0.303917
  H      3.067412   -2.663437   -0.540199
  H      2.907533   -2.506269    1.213896
  H      0.701304   -2.857649   -0.472068
  H     -2.770088   -1.021088    1.498943
  H     -4.116496   -0.021658    0.938428
  H     -3.480497   -1.291868   -0.106651
  H     -1.835259    2.611809    0.680372
  H     -1.749126    1.415030    1.989887
  H     -3.313481    1.892107    1.319607
  H     -2.737702    0.177763   -2.034979
  H     -3.746925    1.398822   -1.235769
  H     -2.084510    1.801413   -1.708505

 Total Charge           Charge          ....    0
 Multiplicity           Mult            ....    1
 Number of Electrons    NEL             ....  114
 Basis Dimension        Dim             ....  518

ORBITAL ENERGIES
----------------

  NO   OCC          E(Eh)            E(eV)
   0   2.0000    -107.150540     -2915.7144
   1   2.0000     -21.655268      -589.2698
   2   2.0000     -21.652837      -589.2036
   3   2.0000     -16.600254      -451.7159
   4   2.0000     -16.588963      -451.4086
   5   2.0000     -12.206189      -332.1473
   6   2.0000     -12.176952      -331.3517
   7   2.0000     -12.148242      -330.5705
   8   2.0000     -12.117461      -329.7329
   9   2.0000     -12.112410      -329.5954
  10   2.0000     -12.085610      -328.8662
  11   2.0000     -12.034383      -327.4722
  12   2.0000     -12.034007      -327.4620
  13   2.0000     -12.032653      -327.4251
  14   2.0000     -11.303294      -307.5783
  15   2.0000      -9.095022      -247.4881
  16   2.0000      -9.092138      -247.4097
  17   2.0000      -9.092088      -247.4083
  18   2.0000      -1.724898       -46.9369
  19   2.0000      -1.710031       -46.5323
  20   2.0000      -1.592558       -43.3357
  21   2.0000      -1.534773       -41.7633
  22   2.0000      -1.435189       -39.0535
  23   2.0000      -1.348361       -36.6908
  24   2.0000      -1.332029       -36.2464
  25   2.0000      -1.267300       -34.4850
  26   2.0000      -1.221295       -33.2331
  27   2.0000      -1.195909       -32.5423
  28   2.0000      -1.187238       -32.3064
  29   2.0000      -1.177573       -32.0434
  30   2.0000      -1.112816       -30.2813
  31   2.0000      -1.103530       -30.0286
  32   2.0000      -1.062833       -28.9212
  33   2.0000      -1.058291       -28.7976
  34   2.0000      -1.029227       -28.0067
  35   2.0000      -0.970412       -26.4062
  36   2.0000      -0.952900       -25.9297
  37   2.0000      -0.944548       -25.7025
  38   2.0000      -0.935335       -25.4518
  39   2.0000      -0.917317       -24.9615
  40   2.0000      -0.900802       -24.5121
  41   2.0000      -0.894062       -24.3287
  42   2.0000      -0.882879       -24.0244
  43   2.0000      -0.875517       -23.8240
  44   2.0000      -0.871564       -23.7165
  45   2.0000      -0.860712       -23.4212
  46   2.0000      -0.848886       -23.0994
  47   2.0000      -0.829505       -22.5720
  48   2.0000      -0.819207       -22.2918
  49   2.0000      -0.818148       -22.2629
  50   2.0000      -0.811644       -22.0860
  51   2.0000      -0.802725       -21.8432
  52   2.0000      -0.797042       -21.6886
  53   2.0000      -0.795826       -21.6555
  54   2.0000      -0.776381       -21.1264
  55   2.0000      -0.772988       -21.0341
  56   2.0000      -0.688903       -18.7460
  57   0.0000      -0.350359        -9.5337
  58   0.0000      -0.312589        -8.5060
  59   0.0000      -0.279362        -7.6018
  60   0.0000      -0.198158        -5.3922
  61   0.0000      -0.176862        -4.8127

MULLIKEN ATOMIC CHARGES
-----------------------
   0 C :   -0.368007
   1 C :    0.182844
   2 C :   -0.089268
   3 C :    0.225682
   4 O :   -0.350934
   5 N :   -0.052101
   6 C :    0.291011
   7 O :   -0.383963
   8 N :   -0.244000
   9 C :    0.137025
  10 C :   -0.362937
  11 C :   -0.365940
  12 C :   -0.402772
  13 Cl:   -0.062232
  14 H :    0.153978
  15 H :    0.131960
  16 H :    0.150481
  17 H :    0.244393
  18 H :    0.111724
  19 H :    0.112368
  20 H :    0.160132
  21 H :    0.162973
  22 H :    0.113946
  23 H :    0.111016
  24 H :    0.138100
  25 H :    0.112203
  26 H :    0.142319
Sum of atomic charges:    0.0000000

LOEWDIN ATOMIC CHARGES
----------------------
   0 C :   -0.241521
   1 C :   -0.228511
   2 C :   -0.418495
   3 C :   -0.385804
   4 O :    0.090887
   5 N :    0.278845
   6 C :   -0.450690
   7 O :    0.055266
   8 N :    0.202402
   9 C :   -0.305048
  10 C :   -0.256519
  11 C :   -0.255592
  12 C :   -0.250412
  13 Cl:    0.411624
  14 H :    0.135343
  15 H :    0.134381
  16 H :    0.142112
  17 H :    0.208239
  18 H :    0.123432
  19 H :    0.124405
  20 H :    0.127022
  21 H :    0.127818
  22 H :    0.124291
  23 H :    0.124105
  24 H :    0.127297
  25 H :    0.127020
  26 H :    0.128106

  Mayer bond orders larger than 0.100000
B(  0-C ,  1-C ) :   0.9426 B(  0-C , 14-H ) :   0.9772 B(  0-C , 15-H ) :   0.9659
B(  0-C , 16-H ) :   0.9603 B(  1-C ,  2-C ) :   1.6316 B(  1-C ,  8-N ) :   1.1289
B(  2-C ,  3-C ) :   1.0405 B(  2-C , 13-Cl) :   1.1397 B(  3-C ,  4-O ) :   2.0566
B(  3-C ,  5-N ) :   1.1013 B(  5-N ,  6-C ) :   1.1528 B(  5-N ,  9-C ) :   0.8352
B(  6-C ,  7-O ) :   2.0223 B(  6-C ,  8-N ) :   1.1440 B(  8-N , 17-H ) :   0.9025
B(  9-C , 10-C ) :   0.9563 B(  9-C , 11-C ) :   0.9621 B(  9-C , 12-C ) :   0.9746
B( 10-C , 18-H ) :   0.9773 B( 10-C , 19-H ) :   0.9717 B( 10-C , 20-H ) :   0.9733
B( 11-C , 21-H ) :   0.9734 B( 11-C , 22-H ) :   0.9759 B( 11-C , 23-H ) :   0.9703
B( 12-C , 24-H ) :   0.9745 B( 12-C , 25-H ) :   0.9729 B( 12-C , 26-H ) :   0.9745

FINAL SINGLE POINT ENERGY     -1070.963939769419

DIPOLE MOMENT
-------------

Method             : SCF
Type of density    : Electron Density
Multiplicity       :   1
Irrep              :   0
Energy             : -1070.9828989731188358 Eh
Relativity type    :
Basis              : AO
                                X                 Y                 Z
Electronic contribution:     19.252838557       2.743877737      -0.254033799
Nuclear contribution   :    -18.633077792      -4.136427564       0.639209936
                        -----------------------------------------
Total Dipole Moment    :      0.619760765      -1.392549827       0.385176137
                        -----------------------------------------
Magnitude (a.u.)       :      1.572151101
Magnitude (Debye)      :      3.996090524

Rotational constants in cm-1:             0.033061             0.015939             0.011824
Rotational constants in MHz :           991.156561           477.838865           354.486529

                             ****ORCA TERMINATED NORMALLY****
TOTAL RUN TIME: 0 days 0 hours 8 minutes 14 seconds 380 msec
