                         Program Version 6.0.0  -   RELEASE  -
|  1> ! wb97x-v def2-tzvp def2/J RIJCOSX DEFGRID2 scfconv7 GCP(DFT/TZ) printgap
|  2> %output
|  3>     printlevel normal
|  4> end
|  5> %cpcm
|  6>     smd true
|  7>     smdsolvent "water"
|  8> end
|  9> * xyz 0 1
| 10> C 2.9601269556185454 -1.941742453552779 0.27553394199414627
| 11> C 1.709460299008144 -1.160696459097056 0.10247663145765809
| 12> C 1.5564589166774254 0.18394649039388927 0.21282931630748914
| 13> C 0.2801547434243506 0.8339686780809603 -0.01639415039059922
| 14> O 0.16578463383977354 2.050500772679842 -0.1459722130813426
| 15> N -0.8390319346996737 -0.03286812149561728 -0.07043764752182893
| 16> C -0.668167773617986 -1.3637037621926607 -0.4430132439809002
| 17> O -1.540181252250276 -2.076893574573797 -0.9332200493091217
| 18> N 0.5932748855066826 -1.8809269151223957 -0.225518311222623
| 19> C -2.256257491567955 0.5374636773420349 0.051806228124840925
| 20> C -3.2048332027100104 -0.5329338885024346 0.6205145931290021
| 21> C -2.2689914404911247 1.6937778246506017 1.0674286793093264
| 22> C -2.728511821968398 1.006935417467426 -1.321786865429634
| 23> Cl 2.906876640256381 1.2308820712174247 0.5526959641824448
| 24> H 3.8370368620674578 -1.2978116232422914 0.3039165505224248
| 25> H 3.067412131724851 -2.6634368524938683 -0.540199154038182
| 26> H 2.907532959770427 -2.506269066168501 1.2138963462825092
| 27> H 0.7013037149893048 -2.857649458197969 -0.4720683195372419
| 28> H -2.770088444387308 -1.021087584361468 1.4989432695822955
| 29> H -4.116495990222214 -0.02165835703617327 0.938427657354714
| 30> H -3.4804966082031283 -1.2918682789501394 -0.10665131446637117
| 31> H -1.8352586123145898 2.6118088383923044 0.6803721837243406
| 32> H -1.7491263453023176 1.415029568105177 1.989887093670213
| 33> H -3.313480507837534 1.892107063956932 1.3196069801339845
| 34> H -2.7377020998428714 0.17776257812586216 -2.0349790649085193
| 35> H -3.7469253732923877 1.3988220960484048 -1.2357693160844248
| 36> H -2.0845099482883334 1.801413417901529 -1.7085047128428932
| 37> *
| 38>
| 39>                          ****END OF INPUT****

CARTESIAN COORDINATES (ANGSTROEM)
---------------------------------
  C      2.960127   -1.941742    0.275534
  C      1.709460   -1.160696    0.102477
  C      1.556459    0.183946    0.212829
  C      0.280155    0.833969   -0.016394
  O      0.165785    2.050501   -0.145972
  N     -0.839032   -0.032868   -0.070438
  C     -0.668168   -1.363704   -0.443013
  O     -1.540181   -2.076894   -0.933220
  N      0.593275   -1.880927   -0.225518
  C     -2.256257    0.537464    0.051806
  C     -3.204833   -0.532934    0.620515
  C     -2.268991    1.693778    1.067429
  C     -2.728512    1.006935   -1.321787
  Cl     2.906877    1.230882    0.552696
  H      3.837037   -1.297812    0.303917
  H      3.067412   -2.663437   -0.540199
  H      2.907533   -2.506269    1.213896
  H      0.701304   -2.857649   -0.472068
  H     -2.770088   -1.021088    1.498943
  H     -4.116496   -0.021658    0.938428
  H     -3.480497   -1.291868   -0.106651
  H     -1.835259    2.611809    0.680372
  H     -1.749126    1.415030    1.989887
  H     -3.313481    1.892107    1.319607
  H     -2.737702    0.177763   -2.034979
  H     -3.746925    1.398822   -1.235769
  H     -2.084510    1.801413   -1.708505

 Total Charge           Charge          ....    0
 Multiplicity           Mult            ....    1
 Number of Electrons    NEL             ....  114
 Basis Dimension        Dim             ....  518

ORBITAL ENERGIES
----------------

  NO   OCC          E(Eh)            E(eV)
   0   2.0000    -107.151972     -2915.7534
   1   2.0000     -21.660890      -589.4228
   2   2.0000     -21.660573      -589.4142
   3   2.0000     -16.590395      -451.4476
   4   2.0000     -16.588060      -451.3841
   5   2.0000     -12.208150      -332.2006
   6   2.0000     -12.183334      -331.5254
   7   2.0000     -12.139597      -330.3352
   8   2.0000     -12.110054      -329.5313
   9   2.0000     -12.109325      -329.5115
  10   2.0000     -12.055162      -328.0376
  11   2.0000     -12.030708      -327.3722
  12   2.0000     -12.028437      -327.3104
  13   2.0000     -12.028025      -327.2992
  14   2.0000     -11.304853      -307.6207
  15   2.0000      -9.096563      -247.5301
  16   2.0000      -9.093766      -247.4540
  17   2.0000      -9.093697      -247.4521
  18   2.0000      -1.730965       -47.1020
  19   2.0000      -1.720841       -46.8265
  20   2.0000      -1.584421       -43.1143
  21   2.0000      -1.531256       -41.6676
  22   2.0000      -1.434522       -39.0353
  23   2.0000      -1.338935       -36.4343
  24   2.0000      -1.328231       -36.1430
  25   2.0000      -1.254517       -34.1372
  26   2.0000      -1.218373       -33.1536
  27   2.0000      -1.183837       -32.2139
  28   2.0000      -1.182907       -32.1885
  29   2.0000      -1.172758       -31.9124
  30   2.0000      -1.108294       -30.1582
  31   2.0000      -1.101834       -29.9824
  32   2.0000      -1.070562       -29.1315
  33   2.0000      -1.059601       -28.8332
  34   2.0000      -1.029682       -28.0191
  35   2.0000      -0.970353       -26.4046
  36   2.0000      -0.949368       -25.8336
  37   2.0000      -0.937702       -25.5162
  38   2.0000      -0.931439       -25.3458
  39   2.0000      -0.928031       -25.2530
  40   2.0000      -0.894150       -24.3311
  41   2.0000      -0.885807       -24.1040
  42   2.0000      -0.882465       -24.0131
  43   2.0000      -0.876743       -23.8574
  44   2.0000      -0.867983       -23.6190
  45   2.0000      -0.836681       -22.7672
  46   2.0000      -0.832272       -22.6473
  47   2.0000      -0.823882       -22.4190
  48   2.0000      -0.819472       -22.2990
  49   2.0000      -0.814638       -22.1674
  50   2.0000      -0.805734       -21.9251
  51   2.0000      -0.800334       -21.7782
  52   2.0000      -0.797144       -21.6914
  53   2.0000      -0.792840       -21.5743
  54   2.0000      -0.773450       -21.0466
  55   2.0000      -0.769620       -20.9424
  56   2.0000      -0.683217       -18.5913
  57   0.0000      -0.344724        -9.3804
  58   0.0000      -0.310351        -8.4451
  59   0.0000      -0.276840        -7.5332
  60   0.0000      -0.192117        -5.2278
  61   0.0000      -0.173044        -4.7088

MULLIKEN ATOMIC CHARGES
-----------------------
   0 C :   -0.383887
   1 C :    0.203089
   2 C :   -0.102748
   3 C :    0.276289
   4 O :   -0.467627
   5 N :   -0.040673
   6 C :    0.340292
   7 O :   -0.488200
   8 N :   -0.223773
   9 C :    0.160527
  10 C :   -0.411101
  11 C :   -0.413229
  12 C :   -0.420722
  13 Cl:   -0.095309
  14 H :    0.155326
  15 H :    0.168965
  16 H :    0.175667
  17 H :    0.298098
  18 H :    0.141758
  19 H :    0.142014
  20 H :    0.143480
  21 H :    0.143933
  22 H :    0.140614
  23 H :    0.141793
  24 H :    0.137313
  25 H :    0.141574
  26 H :    0.136539
Sum of atomic charges:    0.0000000

LOEWDIN ATOMIC CHARGES
----------------------
   0 C :   -0.229174
   1 C :   -0.199652
   2 C :   -0.425040
   3 C :   -0.377798
   4 O :    0.021443
   5 N :    0.287157
   6 C :   -0.433912
   7 O :   -0.000862
   8 N :    0.228071
   9 C :   -0.304142
  10 C :   -0.259526
  11 C :   -0.259560
  12 C :   -0.253352
  13 Cl:    0.388940
  14 H :    0.135252
  15 H :    0.148676
  16 H :    0.153367
  17 H :    0.229969
  18 H :    0.129677
  19 H :    0.131946
  20 H :    0.121008
  21 H :    0.120891
  22 H :    0.129595
  23 H :    0.131823
  24 H :    0.126024
  25 H :    0.133782
  26 H :    0.125394

  Mayer bond orders larger than 0.100000
B(  0-C ,  1-C ) :   0.9580 B(  0-C , 14-H ) :   0.9788 B(  0-C , 15-H ) :   0.9521
B(  0-C , 16-H ) :   0.9439 B(  1-C ,  2-C ) :   1.5957 B(  1-C ,  8-N ) :   1.1662
B(  2-C ,  3-C ) :   1.0742 B(  2-C , 13-Cl) :   1.0826 B(  3-C ,  4-O ) :   1.9622
B(  3-C ,  5-N ) :   1.1172 B(  5-N ,  6-C ) :   1.1582 B(  5-N ,  9-C ) :   0.8374
B(  6-C ,  7-O ) :   1.9309 B(  6-C ,  8-N ) :   1.1809 B(  8-N , 17-H ) :   0.8725
B(  9-C , 10-C ) :   0.9450 B(  9-C , 11-C ) :   0.9477 B(  9-C , 12-C ) :   0.9841
B( 10-C , 18-H ) :   0.9764 B( 10-C , 19-H ) :   0.9697 B( 10-C , 20-H ) :   0.9735
B( 11-C , 21-H ) :   0.9744 B( 11-C , 22-H ) :   0.9758 B( 11-C , 23-H ) :   0.9689
B( 12-C , 24-H ) :   0.9697 B( 12-C , 25-H ) :   0.9730 B( 12-C , 26-H ) :   0.9702

FINAL SINGLE POINT ENERGY     -1070.981048748084

DIPOLE MOMENT
-------------

Method             : SCF
Type of density    : Electron Density
Multiplicity       :   1
Irrep              :   0
Energy             : -1071.0000079517835729 Eh
Relativity type    :
Basis              : AO
                                X                 Y                 Z
Electronic contribution:     19.485388412       1.933942446      -0.031835464
Nuclear contribution   :    -18.633077792      -4.136427564       0.639209936
                        -----------------------------------------
Total Dipole Moment    :      0.852310620      -2.202485118       0.607374472
                        -----------------------------------------
Magnitude (a.u.)       :      2.438499096
Magnitude (Debye)      :      6.198172124

Rotational constants in cm-1:             0.033061             0.015939             0.011824
Rotational constants in MHz :           991.156561           477.838865           354.486529

                             ****ORCA TERMINATED NORMALLY****
TOTAL RUN TIME: 0 days 0 hours 9 minutes 46 seconds 497 msec
