                         Program Version 6.0.0  -   RELEASE  -
|  1> ! pbe def2-sv(p) def2/J RI DEFGRID1 loosescf d4 GCP(DFT/SV(P)) printgap
|  2> %output
|  3>     printlevel normal
|  4> end
|  5> * xyz 0 1
|  6> C 2.0587375354 2.4950119413 -0.9854091494
|  7> C 1.9953855448 1.0854133701 -1.532544005
|  8> O 1.3203466775 0.1687558078 -0.644579642
|  9> P 1.807347152 -0.0963449333 0.8645068516
| 10> S 1.1394462604 1.1382477321 2.2227838767
| 11> O 3.3892329847 -0.0625579692 0.8707345611
| 12> C 4.2507204442 -1.0167300405 0.1968892875
| 13> C 4.7977908009 -2.020678063 1.1910585443
| 14> S 1.3168105491 -2.147062079 1.0369776802
| 15> C -0.3076985913 -2.193065265 0.2275861703
| 16> S -1.4951129131 -0.996242631 0.8895474249
| 17> P -1.7412289355 0.2615040967 -0.821915787
| 18> S -1.0666071812 -0.4078657527 -2.5283815886
| 19> O -1.1713656287 1.6757805164 -0.4164027828
| 20> C -1.7323043755 2.4542254986 0.6706566974
| 21> C -2.6120285294 3.560293156 0.1274705271
| 22> O -3.3095026074 0.5486515993 -0.8102137776
| 23> C -4.2614368271 -0.2921636616 -1.4844919344
| 24> C -4.3323477156 -1.6878273208 -0.899348481
| 25> H 2.5454214221 3.1385015734 -1.7117114348
| 26> H 1.0551281421 2.8646830551 -0.7903616882
| 27> H 2.6232838524 2.511100232 -0.0531611753
| 28> H 2.9986002984 0.6999971462 -1.7297885527
| 29> H 1.3977570433 1.035181532 -2.4457114004
| 30> H 3.6930333814 -1.5170036798 -0.5988893939
| 31> H 5.0505753511 -0.4090827316 -0.23059041
| 32> H 5.4991975055 -2.6758536379 0.684303333
| 33> H 5.3065808128 -1.5028922161 1.9992236019
| 34> H 3.9900574326 -2.6173593518 1.6100580817
| 35> H -0.6902022207 -3.1917990846 0.4248200722
| 36> H -0.1923338951 -2.0154361664 -0.8451400202
| 37> H -2.2890590172 1.7895134155 1.3362770083
| 38> H -0.8689379877 2.8498145989 1.2108102526
| 39> H -2.9630842012 4.1678871747 0.9554243743
| 40> H -2.0464447984 4.1831857794 -0.5601241246
| 41> H -3.4652203181 3.1393956411 -0.3980624371
| 42> H -5.2060978984 0.2402398165 -1.3645603529
| 43> H -3.9903072259 -0.3344389759 -2.543911019
| 44> H -5.1582997881 -2.2227885212 -1.3569912456
| 45> H -3.4081756347 -2.2258891384 -1.1047115855
| 46> H -4.4829871734 -1.642409474 0.176361885
| 47> *
| 48>
| 49>                          ****END OF INPUT****

CARTESIAN COORDINATES (ANGSTROEM)
---------------------------------
  C      2.058738    2.495012   -0.985409
  C      1.995386    1.085413   -1.532544
  O      1.320347    0.168756   -0.644580
  P      1.807347   -0.096345    0.864507
  S      1.139446    1.138248    2.222784
  O      3.389233   -0.062558    0.870735
  C      4.250720   -1.016730    0.196889
  C      4.797791   -2.020678    1.191059
  S      1.316811   -2.147062    1.036978
  C     -0.307699   -2.193065    0.227586
  S     -1.495113   -0.996243    0.889547
  P     -1.741229    0.261504   -0.821916
  S     -1.066607   -0.407866   -2.528382
  O     -1.171366    1.675781   -0.416403
  C     -1.732304    2.454225    0.670657
  C     -2.612029    3.560293    0.127471
  O     -3.309503    0.548652   -0.810214
  C     -4.261437   -0.292164   -1.484492
  C     -4.332348   -1.687827   -0.899348
  H      2.545421    3.138502   -1.711711
  H      1.055128    2.864683   -0.790362
  H      2.623284    2.511100   -0.053161
  H      2.998600    0.699997   -1.729789
  H      1.397757    1.035182   -2.445711
  H      3.693033   -1.517004   -0.598889
  H      5.050575   -0.409083   -0.230590
  H      5.499198   -2.675854    0.684303
  H      5.306581   -1.502892    1.999224
  H      3.990057   -2.617359    1.610058
  H     -0.690202   -3.191799    0.424820
  H     -0.192334   -2.015436   -0.845140
  H     -2.289059    1.789513    1.336277
  H     -0.868938    2.849815    1.210810
  H     -2.963084    4.167887    0.955424
  H     -2.046445    4.183186   -0.560124
  H     -3.465220    3.139396   -0.398062
  H     -5.206098    0.240240   -1.364560
  H     -3.990307   -0.334439   -2.543911
  H     -5.158300   -2.222789   -1.356991
  H     -3.408176   -2.225889   -1.104712
  H     -4.482987   -1.642409    0.176362

 Total Charge           Charge          ....    0
 Multiplicity           Mult            ....    1
 Number of Electrons    NEL             ....  202
 Basis Dimension        Dim             ....  334

ORBITAL ENERGIES
----------------

  NO   OCC          E(Eh)            E(eV)
   0   2.0000     -88.041260     -2395.7245
   1   2.0000     -88.039326     -2395.6719
   2   2.0000     -87.990207     -2394.3353
   3   2.0000     -87.974601     -2393.9106
   4   2.0000     -76.427229     -2079.6906
   5   2.0000     -76.421895     -2079.5455
   6   2.0000     -18.794690      -511.4295
   7   2.0000     -18.792197      -511.3617
   8   2.0000     -18.787220      -511.2263
   9   2.0000     -18.781918      -511.0820
  10   2.0000      -9.960917      -271.0503
  11   2.0000      -9.955183      -270.8943
  12   2.0000      -9.953804      -270.8568
  13   2.0000      -9.947118      -270.6748
  14   2.0000      -9.945989      -270.6441
  15   2.0000      -9.890335      -269.1297
  16   2.0000      -9.884864      -268.9808
  17   2.0000      -9.881387      -268.8862
  18   2.0000      -9.873227      -268.6642
  19   2.0000      -7.685845      -209.1425
  20   2.0000      -7.684892      -209.1165
  21   2.0000      -7.635206      -207.7645
  22   2.0000      -7.619977      -207.3501
  23   2.0000      -6.424477      -174.8189
  24   2.0000      -6.419337      -174.6790
  25   2.0000      -5.713735      -155.4786
  26   2.0000      -5.712968      -155.4578
  27   2.0000      -5.710470      -155.3898
  28   2.0000      -5.709200      -155.3552
  29   2.0000      -5.702716      -155.1788
  30   2.0000      -5.701770      -155.1530
  31   2.0000      -5.664169      -154.1299
  32   2.0000      -5.655844      -153.9033
  33   2.0000      -5.655218      -153.8863
  34   2.0000      -5.649103      -153.7199
  35   2.0000      -5.640524      -153.4865
  36   2.0000      -5.639943      -153.4706
  37   2.0000      -4.647285      -126.4591
  38   2.0000      -4.646003      -126.4242
  39   2.0000      -4.645012      -126.3972
  40   2.0000      -4.642965      -126.3415
  41   2.0000      -4.640997      -126.2880
  42   2.0000      -4.639005      -126.2337
  43   2.0000      -0.987207       -26.8633
  44   2.0000      -0.981993       -26.7214
  45   2.0000      -0.942171       -25.6378
  46   2.0000      -0.937656       -25.5149
  47   2.0000      -0.760803       -20.7025
  48   2.0000      -0.719654       -19.5828
  49   2.0000      -0.709516       -19.3069
  50   2.0000      -0.689451       -18.7609
  51   2.0000      -0.687602       -18.7106
  52   2.0000      -0.671624       -18.2758
  53   2.0000      -0.649253       -17.6671
  54   2.0000      -0.638419       -17.3723
  55   2.0000      -0.595861       -16.2142
  56   2.0000      -0.579597       -15.7716
  57   2.0000      -0.575760       -15.6672
  58   2.0000      -0.570843       -15.5334
  59   2.0000      -0.561862       -15.2890
  60   2.0000      -0.507163       -13.8006
  61   2.0000      -0.499038       -13.5795
  62   2.0000      -0.472427       -12.8554
  63   2.0000      -0.468580       -12.7507
  64   2.0000      -0.452238       -12.3060
  65   2.0000      -0.449266       -12.2251
  66   2.0000      -0.441362       -12.0101
  67   2.0000      -0.437196       -11.8967
  68   2.0000      -0.422287       -11.4910
  69   2.0000      -0.415438       -11.3046
  70   2.0000      -0.406657       -11.0657
  71   2.0000      -0.397672       -10.8212
  72   2.0000      -0.391397       -10.6504
  73   2.0000      -0.385436       -10.4883
  74   2.0000      -0.383823       -10.4443
  75   2.0000      -0.366923        -9.9845
  76   2.0000      -0.361555        -9.8384
  77   2.0000      -0.356243        -9.6939
  78   2.0000      -0.354732        -9.6528
  79   2.0000      -0.352408        -9.5895
  80   2.0000      -0.343903        -9.3581
  81   2.0000      -0.341569        -9.2946
  82   2.0000      -0.340065        -9.2536
  83   2.0000      -0.334953        -9.1145
  84   2.0000      -0.330980        -9.0064
  85   2.0000      -0.312812        -8.5121
  86   2.0000      -0.311672        -8.4810
  87   2.0000      -0.307486        -8.3671
  88   2.0000      -0.296788        -8.0760
  89   2.0000      -0.293678        -7.9914
  90   2.0000      -0.284502        -7.7417
  91   2.0000      -0.272324        -7.4103
  92   2.0000      -0.264232        -7.1901
  93   2.0000      -0.260275        -7.0824
  94   2.0000      -0.256492        -6.9795
  95   2.0000      -0.234344        -6.3768
  96   2.0000      -0.220638        -6.0039
  97   2.0000      -0.206888        -5.6297
  98   2.0000      -0.206035        -5.6065
  99   2.0000      -0.187317        -5.0971
 100   2.0000      -0.185736        -5.0541
 101   0.0000      -0.046905        -1.2763
 102   0.0000      -0.035016        -0.9528
 103   0.0000      -0.010677        -0.2905
 104   0.0000       0.005261         0.1432
 105   0.0000       0.015027         0.4089

MULLIKEN ATOMIC CHARGES
-----------------------
   0 C :   -0.327682
   1 C :   -0.012663
   2 O :   -0.390180
   3 P :    0.627796
   4 S :   -0.304725
   5 O :   -0.373600
   6 C :   -0.039866
   7 C :   -0.281547
   8 S :   -0.120918
   9 C :   -0.332568
  10 S :   -0.094577
  11 P :    0.622245
  12 S :   -0.308853
  13 O :   -0.359401
  14 C :   -0.018706
  15 C :   -0.281866
  16 O :   -0.384039
  17 C :    0.002465
  18 C :   -0.311971
  19 H :    0.103233
  20 H :    0.138472
  21 H :    0.126238
  22 H :    0.097791
  23 H :    0.114911
  24 H :    0.115248
  25 H :    0.112881
  26 H :    0.111541
  27 H :    0.124159
  28 H :    0.129692
  29 H :    0.180310
  30 H :    0.197857
  31 H :    0.104668
  32 H :    0.127751
  33 H :    0.109228
  34 H :    0.115538
  35 H :    0.115347
  36 H :    0.103773
  37 H :    0.111187
  38 H :    0.112235
  39 H :    0.118426
  40 H :    0.120169
Sum of atomic charges:   -0.0000000

LOEWDIN ATOMIC CHARGES
----------------------
   0 C :   -0.371290
   1 C :   -0.116779
   2 O :   -0.259350
   3 P :    0.565524
   4 S :   -0.300854
   5 O :   -0.244135
   6 C :   -0.121584
   7 C :   -0.357594
   8 S :    0.071009
   9 C :   -0.479414
  10 S :    0.085776
  11 P :    0.584449
  12 S :   -0.289303
  13 O :   -0.228941
  14 C :   -0.118022
  15 C :   -0.357682
  16 O :   -0.250050
  17 C :   -0.116861
  18 C :   -0.370956
  19 H :    0.126633
  20 H :    0.129935
  21 H :    0.121065
  22 H :    0.104185
  23 H :    0.115584
  24 H :    0.109261
  25 H :    0.120499
  26 H :    0.131431
  27 H :    0.131407
  28 H :    0.121606
  29 H :    0.137075
  30 H :    0.122336
  31 H :    0.107006
  32 H :    0.115848
  33 H :    0.129740
  34 H :    0.126415
  35 H :    0.123977
  36 H :    0.117968
  37 H :    0.111285
  38 H :    0.130287
  39 H :    0.118474
  40 H :    0.124041

  Mayer bond orders larger than 0.100000
B(  0-C ,  1-C ) :   1.1677 B(  0-C , 19-H ) :   0.9345 B(  0-C , 20-H ) :   0.9356
B(  0-C , 21-H ) :   0.9319 B(  1-C ,  2-O ) :   0.9052 B(  1-C , 22-H ) :   0.9270
B(  1-C , 23-H ) :   0.9138 B(  2-O ,  3-P ) :   1.0620 B(  3-P ,  4-S ) :   1.6835
B(  3-P ,  5-O ) :   1.0963 B(  3-P ,  8-S ) :   0.9528 B(  4-S ,  8-S ) :   0.1112
B(  5-O ,  6-C ) :   0.8910 B(  6-C ,  7-C ) :   1.1699 B(  6-C , 24-H ) :   0.9114
B(  6-C , 25-H ) :   0.9287 B(  7-C , 26-H ) :   0.9388 B(  7-C , 27-H ) :   0.9449
B(  7-C , 28-H ) :   0.9389 B(  8-S ,  9-C ) :   0.9886 B(  9-C , 10-S ) :   1.0159
B(  9-C , 29-H ) :   0.9121 B(  9-C , 30-H ) :   0.8510 B( 10-S , 11-P ) :   0.9570
B( 10-S , 12-S ) :   0.1160 B( 11-P , 12-S ) :   1.5970 B( 11-P , 13-O ) :   1.1386
B( 11-P , 16-O ) :   1.0692 B( 12-S , 30-H ) :   0.1139 B( 13-O , 14-C ) :   0.8734
B( 14-C , 15-C ) :   1.1637 B( 14-C , 31-H ) :   0.9204 B( 14-C , 32-H ) :   0.9144
B( 15-C , 33-H ) :   0.9404 B( 15-C , 34-H ) :   0.9491 B( 15-C , 35-H ) :   0.9423
B( 16-O , 17-C ) :   0.9128 B( 17-C , 18-C ) :   1.1674 B( 17-C , 36-H ) :   0.9340
B( 17-C , 37-H ) :   0.9183 B( 18-C , 38-H ) :   0.9367 B( 18-C , 39-H ) :   0.9385
B( 18-C , 40-H ) :   0.9416

Dispersion correction           -0.069582000
FINAL SINGLE POINT ENERGY     -2929.508602731767

DIPOLE MOMENT
-------------

Method             : SCF
Type of density    : Electron Density
Multiplicity       :   1
Irrep              :   0
Energy             : -2929.6281434563015864 Eh
Relativity type    :
Basis              : AO
                                X                 Y                 Z
Electronic contribution:      0.514088632      -6.214190860       6.288333942
Nuclear contribution   :     -0.616961126       5.834015274      -6.982631284
                        -----------------------------------------
Total Dipole Moment    :     -0.102872495      -0.380175586      -0.694297341
                        -----------------------------------------
Magnitude (a.u.)       :      0.798226174
Magnitude (Debye)      :      2.028929692

Rotational constants in cm-1:             0.012620             0.005791             0.005181
Rotational constants in MHz :           378.336845           173.617166           155.310118

                             ****ORCA TERMINATED NORMALLY****
TOTAL RUN TIME: 0 days 0 hours 0 minutes 21 seconds 863 msec
