                         Program Version 6.0.0  -   RELEASE  -
|  1> ! wb97x-v def2-tzvp def2/J RIJCOSX DEFGRID2 scfconv7 GCP(DFT/TZ) printgap
|  2> %output
|  3>     printlevel normal
|  4> end
|  5> * xyz 0 1
|  6> C -1.2623035823974131 0.9925134863930875 -1.2526713489573584
|  7> C -1.00405247006495 0.12542354368976488 -0.0055224537304799474
|  8> C -1.9315370665248797 -1.0906311822314507 -0.017380825959419154
|  9> C -1.237170874070976 0.9522941639711113 1.2667730927352214
| 10> C 0.4408211525137589 -0.3482393675105784 -0.07867732242469755
| 11> O 0.7981106295132278 -1.4768789245421492 -0.3733720756603128
| 12> O 1.315368991593148 0.6400319019703903 0.1870512802168053
| 13> C 2.7186404354376696 0.2902365225138122 0.08117499051067827
| 14> H -0.6226797766184291 1.8794389965946257 -1.2608616632211729
| 15> H -1.0840105230209005 0.4222021685327782 -2.1701021555331232
| 16> H -2.3069811223401744 1.3194439096183377 -1.2487729930759977
| 17> H -2.9701900188466377 -0.7505478614923832 0.03165550182533314
| 18> H -1.7407650501914338 -1.7400676769938965 0.8425631863781164
| 19> H -1.8049226056689858 -1.6789751886249324 -0.9300600720033398
| 20> H -0.9963589253146135 0.37044470580737193 2.1625062511860884
| 21> H -0.6373579335739191 1.8653445320231061 1.2728491057991083
| 22> H -2.2929800598789147 1.2362541891007925 1.3172329116141122
| 23> H 3.262432202982544 1.1997985236440432 0.3343695795597662
| 24> H 2.9526555611536467 -0.023248727191479177 -0.9391130587884567
| 25> H 2.96321674558043 -0.5087047469137576 0.7852657883698163
| 26> *
| 27>
| 28>                          ****END OF INPUT****

CARTESIAN COORDINATES (ANGSTROEM)
---------------------------------
  C     -1.262304    0.992513   -1.252671
  C     -1.004052    0.125424   -0.005522
  C     -1.931537   -1.090631   -0.017381
  C     -1.237171    0.952294    1.266773
  C      0.440821   -0.348239   -0.078677
  O      0.798111   -1.476879   -0.373372
  O      1.315369    0.640032    0.187051
  C      2.718640    0.290237    0.081175
  H     -0.622680    1.879439   -1.260862
  H     -1.084011    0.422202   -2.170102
  H     -2.306981    1.319444   -1.248773
  H     -2.970190   -0.750548    0.031656
  H     -1.740765   -1.740068    0.842563
  H     -1.804923   -1.678975   -0.930060
  H     -0.996359    0.370445    2.162506
  H     -0.637358    1.865345    1.272849
  H     -2.292980    1.236254    1.317233
  H      3.262432    1.199799    0.334370
  H      2.952656   -0.023249   -0.939113
  H      2.963217   -0.508705    0.785266

 Total Charge           Charge          ....    0
 Multiplicity           Mult            ....    1
 Number of Electrons    NEL             ....   64
 Basis Dimension        Dim             ....  320

ORBITAL ENERGIES
----------------

  NO   OCC          E(Eh)            E(eV)
   0   2.0000     -21.718240      -590.9834
   1   2.0000     -21.654164      -589.2398
   2   2.0000     -12.171467      -331.2024
   3   2.0000     -12.103272      -329.3468
   4   2.0000     -12.074229      -328.5565
   5   2.0000     -12.044299      -327.7420
   6   2.0000     -12.041204      -327.6578
   7   2.0000     -12.034071      -327.4637
   8   2.0000      -1.757594       -47.8266
   9   2.0000      -1.689565       -45.9754
  10   2.0000      -1.347316       -36.6623
  11   2.0000      -1.271202       -34.5912
  12   2.0000      -1.187261       -32.3070
  13   2.0000      -1.182396       -32.1746
  14   2.0000      -1.136059       -30.9137
  15   2.0000      -1.083567       -29.4854
  16   2.0000      -1.055876       -28.7318
  17   2.0000      -0.995661       -27.0933
  18   2.0000      -0.990119       -26.9425
  19   2.0000      -0.938056       -25.5258
  20   2.0000      -0.902277       -24.5522
  21   2.0000      -0.881388       -23.9838
  22   2.0000      -0.871553       -23.7162
  23   2.0000      -0.869242       -23.6533
  24   2.0000      -0.842899       -22.9365
  25   2.0000      -0.826930       -22.5019
  26   2.0000      -0.818984       -22.2857
  27   2.0000      -0.815214       -22.1831
  28   2.0000      -0.801610       -21.8129
  29   2.0000      -0.790759       -21.5177
  30   2.0000      -0.781036       -21.2531
  31   2.0000      -0.778387       -21.1810
  32   0.0000      -0.306669        -8.3449
  33   0.0000      -0.182939        -4.9780
  34   0.0000      -0.104709        -2.8493
  35   0.0000      -0.047197        -1.2843
  36   0.0000      -0.031606        -0.8600

MULLIKEN ATOMIC CHARGES
-----------------------
   0 C :   -0.388066
   1 C :    0.136094
   2 C :   -0.346451
   3 C :   -0.373050
   4 C :    0.283560
   5 O :   -0.346397
   6 O :   -0.244784
   7 C :   -0.193908
   8 H :    0.127527
   9 H :    0.126427
  10 H :    0.116857
  11 H :    0.111930
  12 H :    0.116205
  13 H :    0.126301
  14 H :    0.117360
  15 H :    0.128473
  16 H :    0.113960
  17 H :    0.127498
  18 H :    0.129325
  19 H :    0.131140
Sum of atomic charges:    0.0000000

LOEWDIN ATOMIC CHARGES
----------------------
   0 C :   -0.244227
   1 C :   -0.327007
   2 C :   -0.246898
   3 C :   -0.249365
   4 C :   -0.421668
   5 O :    0.091888
   6 O :    0.233228
   7 C :   -0.287433
   8 H :    0.123869
   9 H :    0.126071
  10 H :    0.124612
  11 H :    0.121035
  12 H :    0.125398
  13 H :    0.127138
  14 H :    0.123906
  15 H :    0.123705
  16 H :    0.123333
  17 H :    0.109249
  18 H :    0.111487
  19 H :    0.111678

  Mayer bond orders larger than 0.100000
B(  0-C ,  1-C ) :   0.9468 B(  0-C ,  8-H ) :   0.9736 B(  0-C ,  9-H ) :   0.9767
B(  0-C , 10-H ) :   0.9763 B(  1-C ,  2-C ) :   0.9965 B(  1-C ,  3-C ) :   0.9720
B(  1-C ,  4-C ) :   0.9362 B(  2-C , 11-H ) :   0.9810 B(  2-C , 12-H ) :   0.9711
B(  2-C , 13-H ) :   0.9692 B(  3-C , 14-H ) :   0.9776 B(  3-C , 15-H ) :   0.9722
B(  3-C , 16-H ) :   0.9752 B(  4-C ,  5-O ) :   2.0634 B(  4-C ,  6-O ) :   1.2039
B(  6-O ,  7-C ) :   0.9109 B(  7-C , 17-H ) :   0.9733 B(  7-C , 18-H ) :   0.9781
B(  7-C , 19-H ) :   0.9785

FINAL SINGLE POINT ENERGY      -386.353523553373

DIPOLE MOMENT
-------------

Method             : SCF
Type of density    : Electron Density
Multiplicity       :   1
Irrep              :   0
Energy             :  -386.3676936353730866 Eh
Relativity type    :
Basis              : AO
                                X                 Y                 Z
Electronic contribution:      5.083298225      -2.486810246      -0.310503180
Nuclear contribution   :     -5.033215131       3.230580283       0.460243294
                        -----------------------------------------
Total Dipole Moment    :      0.050083093       0.743770037       0.149740115
                        -----------------------------------------
Magnitude (a.u.)       :      0.760344847
Magnitude (Debye)      :      1.932643012

Rotational constants in cm-1:             0.105269             0.049876             0.043950
Rotational constants in MHz :          3155.894613          1495.254504          1317.585320

                             ****ORCA TERMINATED NORMALLY****
TOTAL RUN TIME: 0 days 0 hours 3 minutes 32 seconds 14 msec
