                         Program Version 6.0.0  -   RELEASE  -
|  1> ! wb97x-v def2-tzvp def2/J RIJCOSX DEFGRID2 scfconv7 GCP(DFT/TZ) printgap
|  2> %output
|  3>     printlevel normal
|  4> end
|  5> %cpcm
|  6>     smd true
|  7>     smdsolvent "water"
|  8> end
|  9> * xyz 0 1
| 10> C -1.2623035823974131 0.9925134863930875 -1.2526713489573584
| 11> C -1.00405247006495 0.12542354368976488 -0.0055224537304799474
| 12> C -1.9315370665248797 -1.0906311822314507 -0.017380825959419154
| 13> C -1.237170874070976 0.9522941639711113 1.2667730927352214
| 14> C 0.4408211525137589 -0.3482393675105784 -0.07867732242469755
| 15> O 0.7981106295132278 -1.4768789245421492 -0.3733720756603128
| 16> O 1.315368991593148 0.6400319019703903 0.1870512802168053
| 17> C 2.7186404354376696 0.2902365225138122 0.08117499051067827
| 18> H -0.6226797766184291 1.8794389965946257 -1.2608616632211729
| 19> H -1.0840105230209005 0.4222021685327782 -2.1701021555331232
| 20> H -2.3069811223401744 1.3194439096183377 -1.2487729930759977
| 21> H -2.9701900188466377 -0.7505478614923832 0.03165550182533314
| 22> H -1.7407650501914338 -1.7400676769938965 0.8425631863781164
| 23> H -1.8049226056689858 -1.6789751886249324 -0.9300600720033398
| 24> H -0.9963589253146135 0.37044470580737193 2.1625062511860884
| 25> H -0.6373579335739191 1.8653445320231061 1.2728491057991083
| 26> H -2.2929800598789147 1.2362541891007925 1.3172329116141122
| 27> H 3.262432202982544 1.1997985236440432 0.3343695795597662
| 28> H 2.9526555611536467 -0.023248727191479177 -0.9391130587884567
| 29> H 2.96321674558043 -0.5087047469137576 0.7852657883698163
| 30> *
| 31>
| 32>                          ****END OF INPUT****

CARTESIAN COORDINATES (ANGSTROEM)
---------------------------------
  C     -1.262304    0.992513   -1.252671
  C     -1.004052    0.125424   -0.005522
  C     -1.931537   -1.090631   -0.017381
  C     -1.237171    0.952294    1.266773
  C      0.440821   -0.348239   -0.078677
  O      0.798111   -1.476879   -0.373372
  O      1.315369    0.640032    0.187051
  C      2.718640    0.290237    0.081175
  H     -0.622680    1.879439   -1.260862
  H     -1.084011    0.422202   -2.170102
  H     -2.306981    1.319444   -1.248773
  H     -2.970190   -0.750548    0.031656
  H     -1.740765   -1.740068    0.842563
  H     -1.804923   -1.678975   -0.930060
  H     -0.996359    0.370445    2.162506
  H     -0.637358    1.865345    1.272849
  H     -2.292980    1.236254    1.317233
  H      3.262432    1.199799    0.334370
  H      2.952656   -0.023249   -0.939113
  H      2.963217   -0.508705    0.785266

 Total Charge           Charge          ....    0
 Multiplicity           Mult            ....    1
 Number of Electrons    NEL             ....   64
 Basis Dimension        Dim             ....  320

ORBITAL ENERGIES
----------------

  NO   OCC          E(Eh)            E(eV)
   0   2.0000     -21.722057      -591.0872
   1   2.0000     -21.667723      -589.6087
   2   2.0000     -12.181391      -331.4725
   3   2.0000     -12.092188      -329.0452
   4   2.0000     -12.070098      -328.4441
   5   2.0000     -12.034129      -327.4653
   6   2.0000     -12.031504      -327.3939
   7   2.0000     -12.028704      -327.3177
   8   2.0000      -1.764279       -48.0085
   9   2.0000      -1.701220       -46.2925
  10   2.0000      -1.343250       -36.5517
  11   2.0000      -1.268100       -34.5068
  12   2.0000      -1.178066       -32.0568
  13   2.0000      -1.176455       -32.0130
  14   2.0000      -1.139228       -31.0000
  15   2.0000      -1.084931       -29.5225
  16   2.0000      -1.065990       -29.0071
  17   2.0000      -0.998012       -27.1573
  18   2.0000      -0.987948       -26.8834
  19   2.0000      -0.940438       -25.5906
  20   2.0000      -0.914728       -24.8910
  21   2.0000      -0.885249       -24.0888
  22   2.0000      -0.866626       -23.5821
  23   2.0000      -0.866427       -23.5767
  24   2.0000      -0.832985       -22.6667
  25   2.0000      -0.818714       -22.2783
  26   2.0000      -0.809584       -22.0299
  27   2.0000      -0.808292       -21.9947
  28   2.0000      -0.793405       -21.5896
  29   2.0000      -0.785960       -21.3871
  30   2.0000      -0.774213       -21.0674
  31   2.0000      -0.771240       -20.9865
  32   0.0000      -0.311630        -8.4799
  33   0.0000      -0.176877        -4.8131
  34   0.0000      -0.106822        -2.9068
  35   0.0000      -0.045396        -1.2353
  36   0.0000      -0.022723        -0.6183

MULLIKEN ATOMIC CHARGES
-----------------------
   0 C :   -0.428674
   1 C :    0.188214
   2 C :   -0.427628
   3 C :   -0.429430
   4 C :    0.365353
   5 O :   -0.465275
   6 O :   -0.266910
   7 C :   -0.234513
   8 H :    0.138918
   9 H :    0.140207
  10 H :    0.141253
  11 H :    0.140307
  12 H :    0.135729
  13 H :    0.132950
  14 H :    0.138860
  15 H :    0.136209
  16 H :    0.138688
  17 H :    0.156303
  18 H :    0.149580
  19 H :    0.149859
Sum of atomic charges:    0.0000000

LOEWDIN ATOMIC CHARGES
----------------------
   0 C :   -0.244650
   1 C :   -0.324456
   2 C :   -0.254588
   3 C :   -0.251550
   4 C :   -0.402326
   5 O :    0.030826
   6 O :    0.231273
   7 C :   -0.284290
   8 H :    0.126046
   9 H :    0.128910
  10 H :    0.130969
  11 H :    0.128955
  12 H :    0.126580
  13 H :    0.125102
  14 H :    0.128042
  15 H :    0.124213
  16 H :    0.129764
  17 H :    0.119050
  18 H :    0.116214
  19 H :    0.115914

  Mayer bond orders larger than 0.100000
B(  0-C ,  1-C ) :   0.9399 B(  0-C ,  8-H ) :   0.9696 B(  0-C ,  9-H ) :   0.9719
B(  0-C , 10-H ) :   0.9739 B(  1-C ,  2-C ) :   0.9614 B(  1-C ,  3-C ) :   0.9558
B(  1-C ,  4-C ) :   0.9457 B(  2-C , 11-H ) :   0.9779 B(  2-C , 12-H ) :   0.9749
B(  2-C , 13-H ) :   0.9695 B(  3-C , 14-H ) :   0.9751 B(  3-C , 15-H ) :   0.9705
B(  3-C , 16-H ) :   0.9732 B(  4-C ,  5-O ) :   1.9368 B(  4-C ,  6-O ) :   1.2251
B(  6-O ,  7-C ) :   0.8863 B(  7-C , 17-H ) :   0.9680 B(  7-C , 18-H ) :   0.9729
B(  7-C , 19-H ) :   0.9731

FINAL SINGLE POINT ENERGY      -386.357822573054

DIPOLE MOMENT
-------------

Method             : SCF
Type of density    : Electron Density
Multiplicity       :   1
Irrep              :   0
Energy             :  -386.3719926550536456 Eh
Relativity type    :
Basis              : AO
                                X                 Y                 Z
Electronic contribution:      5.008101423      -2.146835566      -0.233640410
Nuclear contribution   :     -5.033215131       3.230580283       0.460243294
                        -----------------------------------------
Total Dipole Moment    :     -0.025113709       1.083744717       0.226602884
                        -----------------------------------------
Magnitude (a.u.)       :      1.107466558
Magnitude (Debye)      :      2.814956282

Rotational constants in cm-1:             0.105269             0.049876             0.043950
Rotational constants in MHz :          3155.894613          1495.254504          1317.585320

                             ****ORCA TERMINATED NORMALLY****
TOTAL RUN TIME: 0 days 0 hours 3 minutes 25 seconds 264 msec
