                         Program Version 6.0.1  -  RELEASE   -
|  1> ! pbe def2-sv(p) def2/J RI DEFGRID1 loosescf d4 GCP(DFT/SV(P)) printgap
|  2> %output
|  3>     printlevel normal
|  4> end
|  5> * xyz 0 1
|  6> C 4.3046012753 -1.934198215 0.9659622573
|  7> C 2.8284087761 -1.9780376594 0.6257550135
|  8> O 2.5776815298 -1.0152797299 -0.4169004198
|  9> C 1.4318966747 -1.0700925971 -1.0552819743
| 10> O 0.5480648499 -1.871066078 -0.819878388
| 11> C 1.327668214 -0.0136158173 -2.1362207956
| 12> C 0.1882708078 0.9614238878 -1.8266242869
| 13> H 0.0654734792 1.6523555287 -2.6660075371
| 14> C 0.4373072827 1.7740789177 -0.5691264207
| 15> O -0.427186475 1.9535256226 0.2680273319
| 16> O 1.6495669775 2.247884289 -0.5227349199
| 17> C 2.0759903471 2.9689791126 0.6542441264
| 18> C 2.7183016338 2.0110618207 1.6431373373
| 19> S -1.433301562 0.1416949876 -1.6664017938
| 20> P -1.6864879975 -0.2314608843 0.4223966928
| 21> S -0.3166691109 -0.5047425232 1.7978439407
| 22> O -2.7727675545 0.8013095142 0.93772525
| 23> C -3.9963757227 1.0824969326 0.2376885139
| 24> O -2.6478591689 -1.519095089 0.2942810194
| 25> C -2.1816928709 -2.8389183415 0.0212710115
| 26> H 4.5133997903 -2.6750575029 1.7301926977
| 27> H 4.8982436957 -2.1508385893 0.0827358714
| 28> H 4.5726516115 -0.9519285643 1.3421928396
| 29> H 2.2007549149 -1.7194275783 1.4847758835
| 30> H 2.5213094363 -2.9632267205 0.2608294156
| 31> H 1.1064220427 -0.5140007393 -3.0795841866
| 32> H 2.2679261132 0.5324189997 -2.1999962647
| 33> H 2.7935532515 3.6985682472 0.278750764
| 34> H 1.2101437919 3.4681162092 1.0963861694
| 35> H 3.5389731823 1.4819077787 1.1670058978
| 36> H 3.0920692892 2.5687071986 2.4950782259
| 37> H 1.9868033222 1.283286438 1.9927364798
| 38> H -4.4879977333 1.849112753 0.8310437223
| 39> H -4.6072476028 0.1828652396 0.1807528207
| 40> H -3.7786199125 1.4516103898 -0.7647454073
| 41> H -1.8646454697 -2.9172397215 -1.0179040536
| 42> H -3.0257678221 -3.4936903712 0.2229258339
| 43> H -1.3398943743 -3.0816952361 0.6708287168
| 44> *
| 45>
| 46>                          ****END OF INPUT****

CARTESIAN COORDINATES (ANGSTROEM)
---------------------------------
  C      4.304601   -1.934198    0.965962
  C      2.828409   -1.978038    0.625755
  O      2.577682   -1.015280   -0.416900
  C      1.431897   -1.070093   -1.055282
  O      0.548065   -1.871066   -0.819878
  C      1.327668   -0.013616   -2.136221
  C      0.188271    0.961424   -1.826624
  H      0.065473    1.652356   -2.666008
  C      0.437307    1.774079   -0.569126
  O     -0.427186    1.953526    0.268027
  O      1.649567    2.247884   -0.522735
  C      2.075990    2.968979    0.654244
  C      2.718302    2.011062    1.643137
  S     -1.433302    0.141695   -1.666402
  P     -1.686488   -0.231461    0.422397
  S     -0.316669   -0.504743    1.797844
  O     -2.772768    0.801310    0.937725
  C     -3.996376    1.082497    0.237689
  O     -2.647859   -1.519095    0.294281
  C     -2.181693   -2.838918    0.021271
  H      4.513400   -2.675058    1.730193
  H      4.898244   -2.150839    0.082736
  H      4.572652   -0.951929    1.342193
  H      2.200755   -1.719428    1.484776
  H      2.521309   -2.963227    0.260829
  H      1.106422   -0.514001   -3.079584
  H      2.267926    0.532419   -2.199996
  H      2.793553    3.698568    0.278751
  H      1.210144    3.468116    1.096386
  H      3.538973    1.481908    1.167006
  H      3.092069    2.568707    2.495078
  H      1.986803    1.283286    1.992736
  H     -4.487998    1.849113    0.831044
  H     -4.607248    0.182865    0.180753
  H     -3.778620    1.451610   -0.764745
  H     -1.864645   -2.917240   -1.017904
  H     -3.025768   -3.493690    0.222926
  H     -1.339894   -3.081695    0.670829

 Total Charge           Charge          ....    0
 Multiplicity           Mult            ....    1
 Number of Electrons    NEL             ....  174
 Basis Dimension        Dim             ....  316

ORBITAL ENERGIES
----------------

  NO   OCC          E(Eh)            E(eV)
   0   2.0000     -88.030327     -2395.4270
   1   2.0000     -87.964256     -2393.6291
   2   2.0000     -76.414131     -2079.3342
   3   2.0000     -18.819596      -512.1072
   4   2.0000     -18.804127      -511.6863
   5   2.0000     -18.770280      -510.7653
   6   2.0000     -18.769148      -510.7345
   7   2.0000     -18.753300      -510.3032
   8   2.0000     -18.735886      -509.8294
   9   2.0000     -10.024320      -272.7756
  10   2.0000     -10.009012      -272.3591
  11   2.0000      -9.955400      -270.9002
  12   2.0000      -9.954502      -270.8758
  13   2.0000      -9.941519      -270.5225
  14   2.0000      -9.931884      -270.2603
  15   2.0000      -9.920822      -269.9593
  16   2.0000      -9.914171      -269.7783
  17   2.0000      -9.887538      -269.0536
  18   2.0000      -9.884385      -268.9678
  19   2.0000      -7.675173      -208.8521
  20   2.0000      -7.609501      -207.0651
  21   2.0000      -6.409221      -174.4038
  22   2.0000      -5.703447      -155.1987
  23   2.0000      -5.699745      -155.0979
  24   2.0000      -5.691655      -154.8778
  25   2.0000      -5.638801      -153.4396
  26   2.0000      -5.629973      -153.1994
  27   2.0000      -5.629271      -153.1803
  28   2.0000      -4.632088      -126.0455
  29   2.0000      -4.631429      -126.0276
  30   2.0000      -4.629563      -125.9768
  31   2.0000      -1.028928       -27.9986
  32   2.0000      -1.010417       -27.4948
  33   2.0000      -0.964685       -26.2504
  34   2.0000      -0.932853       -25.3842
  35   2.0000      -0.918420       -24.9915
  36   2.0000      -0.913238       -24.8505
  37   2.0000      -0.766176       -20.8487
  38   2.0000      -0.711394       -19.3580
  39   2.0000      -0.708423       -19.2772
  40   2.0000      -0.683212       -18.5912
  41   2.0000      -0.654625       -17.8133
  42   2.0000      -0.622576       -16.9411
  43   2.0000      -0.615161       -16.7394
  44   2.0000      -0.603414       -16.4197
  45   2.0000      -0.590083       -16.0570
  46   2.0000      -0.564603       -15.3636
  47   2.0000      -0.511105       -13.9079
  48   2.0000      -0.506481       -13.7820
  49   2.0000      -0.497871       -13.5478
  50   2.0000      -0.484787       -13.1917
  51   2.0000      -0.458825       -12.4853
  52   2.0000      -0.457570       -12.4511
  53   2.0000      -0.448812       -12.2128
  54   2.0000      -0.440617       -11.9898
  55   2.0000      -0.424778       -11.5588
  56   2.0000      -0.418555       -11.3895
  57   2.0000      -0.413501       -11.2519
  58   2.0000      -0.408873       -11.1260
  59   2.0000      -0.400942       -10.9102
  60   2.0000      -0.398217       -10.8360
  61   2.0000      -0.393345       -10.7035
  62   2.0000      -0.383378       -10.4322
  63   2.0000      -0.379201       -10.3186
  64   2.0000      -0.372437       -10.1345
  65   2.0000      -0.363704        -9.8969
  66   2.0000      -0.360552        -9.8111
  67   2.0000      -0.355115        -9.6632
  68   2.0000      -0.345035        -9.3889
  69   2.0000      -0.342928        -9.3315
  70   2.0000      -0.336754        -9.1635
  71   2.0000      -0.327947        -8.9239
  72   2.0000      -0.313230        -8.5234
  73   2.0000      -0.307307        -8.3623
  74   2.0000      -0.303582        -8.2609
  75   2.0000      -0.296467        -8.0673
  76   2.0000      -0.284126        -7.7315
  77   2.0000      -0.279201        -7.5974
  78   2.0000      -0.268366        -7.3026
  79   2.0000      -0.264018        -7.1843
  80   2.0000      -0.253164        -6.8889
  81   2.0000      -0.244509        -6.6534
  82   2.0000      -0.235645        -6.4122
  83   2.0000      -0.230787        -6.2800
  84   2.0000      -0.199201        -5.4205
  85   2.0000      -0.181107        -4.9282
  86   2.0000      -0.175665        -4.7801
  87   0.0000      -0.043987        -1.1969
  88   0.0000      -0.037120        -1.0101
  89   0.0000      -0.026924        -0.7326
  90   0.0000       0.004050         0.1102
  91   0.0000       0.033366         0.9079

MULLIKEN ATOMIC CHARGES
-----------------------
   0 C :   -0.283368
   1 C :   -0.039131
   2 O :   -0.225082
   3 C :    0.085003
   4 O :   -0.196174
   5 C :   -0.020056
   6 C :   -0.314711
   7 H :    0.155558
   8 C :    0.202383
   9 O :   -0.177144
  10 O :   -0.220083
  11 C :   -0.011056
  12 C :   -0.332512
  13 S :   -0.094604
  14 P :    0.644001
  15 S :   -0.331898
  16 O :   -0.361436
  17 C :   -0.101462
  18 O :   -0.401554
  19 C :   -0.089701
  20 H :    0.112441
  21 H :    0.110598
  22 H :    0.120999
  23 H :    0.130973
  24 H :    0.104076
  25 H :    0.119400
  26 H :    0.114401
  27 H :    0.104552
  28 H :    0.119842
  29 H :    0.122139
  30 H :    0.111541
  31 H :    0.149767
  32 H :    0.123558
  33 H :    0.117170
  34 H :    0.111538
  35 H :    0.114722
  36 H :    0.109902
  37 H :    0.115408
Sum of atomic charges:    0.0000000

LOEWDIN ATOMIC CHARGES
----------------------
   0 C :   -0.351383
   1 C :   -0.111891
   2 O :   -0.049739
   3 C :    0.019707
   4 O :   -0.166167
   5 C :   -0.248786
   6 C :   -0.261313
   7 H :    0.152439
   8 C :    0.012853
   9 O :   -0.147098
  10 O :   -0.037383
  11 C :   -0.104010
  12 C :   -0.362819
  13 S :    0.103918
  14 P :    0.595595
  15 S :   -0.306709
  16 O :   -0.239406
  17 C :   -0.213125
  18 O :   -0.265584
  19 C :   -0.214769
  20 H :    0.131727
  21 H :    0.124426
  22 H :    0.124908
  23 H :    0.117350
  24 H :    0.116578
  25 H :    0.144892
  26 H :    0.138239
  27 H :    0.118689
  28 H :    0.125308
  29 H :    0.122993
  30 H :    0.130770
  31 H :    0.129357
  32 H :    0.122384
  33 H :    0.112006
  34 H :    0.104097
  35 H :    0.108950
  36 H :    0.113388
  37 H :    0.109606

  Mayer bond orders larger than 0.100000
B(  0-C ,  1-C ) :   1.1517 B(  0-C , 20-H ) :   0.9435 B(  0-C , 21-H ) :   0.9497
B(  0-C , 22-H ) :   0.9465 B(  1-C ,  2-O ) :   0.8925 B(  1-C , 23-H ) :   0.9180
B(  1-C , 24-H ) :   0.9256 B(  2-O ,  3-C ) :   1.2475 B(  3-C ,  4-O ) :   1.9891
B(  3-C ,  5-C ) :   1.0088 B(  5-C ,  6-C ) :   1.0281 B(  5-C , 25-H ) :   0.8894
B(  5-C , 26-H ) :   0.8840 B(  6-C ,  7-H ) :   0.8717 B(  6-C ,  8-C ) :   0.8952
B(  6-C , 13-S ) :   1.0451 B(  8-C ,  9-O ) :   1.9794 B(  8-C , 10-O ) :   1.2713
B(  9-O , 14-P ) :   0.1069 B( 10-O , 11-C ) :   0.8946 B( 11-C , 12-C ) :   1.1801
B( 11-C , 27-H ) :   0.9364 B( 11-C , 28-H ) :   0.9114 B( 12-C , 29-H ) :   0.9390
B( 12-C , 30-H ) :   0.9389 B( 12-C , 31-H ) :   0.9249 B( 13-S , 14-P ) :   0.9241
B( 13-S , 15-S ) :   0.1178 B( 14-P , 15-S ) :   1.5637 B( 14-P , 16-O ) :   1.1190
B( 14-P , 18-O ) :   1.0551 B( 16-O , 17-C ) :   0.9322 B( 17-C , 32-H ) :   0.9602
B( 17-C , 33-H ) :   0.9464 B( 17-C , 34-H ) :   0.9366 B( 18-O , 19-C ) :   0.9374
B( 19-C , 35-H ) :   0.9479 B( 19-C , 36-H ) :   0.9565 B( 19-C , 37-H ) :   0.9380

Dispersion correction           -0.056170923
FINAL SINGLE POINT ENERGY     -1979.002705856724

DIPOLE MOMENT
-------------

Method             : SCF
Type of density    : Electron Density
Multiplicity       :   1
Irrep              :   0
Energy             : -1979.1310483957158795 Eh
Relativity type    :
Basis              : AO
                                X                 Y                 Z
Electronic contribution:    -15.192461707       2.405607898      -4.460388240
Nuclear contribution   :     16.236757985      -1.929896899       3.468943577
                        -----------------------------------------
Total Dipole Moment    :      1.044296277       0.475711000      -0.991444663
                        -----------------------------------------
Magnitude (a.u.)       :      1.516515146
Magnitude (Debye)      :      3.854675166

Rotational constants in cm-1:             0.013658             0.008689             0.007361
Rotational constants in MHz :           409.446426           260.492599           220.674482

                             ****ORCA TERMINATED NORMALLY****
TOTAL RUN TIME: 0 days 0 hours 1 minutes 32 seconds 366 msec
