                         Program Version 6.0.0  -   RELEASE  -
|  1> ! pbe def2-sv(p) def2/J RI DEFGRID1 loosescf d4 GCP(DFT/SV(P)) printgap
|  2> %output
|  3>     printlevel normal
|  4> end
|  5> * xyz 0 1
|  6> C 4.1023560299 -1.1912738277 -2.4212110856
|  7> C 4.3530417279 -1.4587721177 -0.9511173373
|  8> O 3.1303128594 -1.544698892 -0.1981062099
|  9> P 2.2020621972 -0.2826552093 0.0686468727
| 10> S 3.1586267375 1.3940694408 0.425748144
| 11> O 1.2693874395 -0.8249261329 1.2278362535
| 12> C 1.5210867434 -0.5321214544 2.616335942
| 13> C 2.7362625231 -1.274808113 3.1309186872
| 14> S 0.83957153 -0.2882076785 -1.5449432545
| 15> C 0.2250958928 1.40049082 -1.2960353317
| 16> S -0.6141459379 1.6265627643 0.2936845322
| 17> P -2.2059112931 0.2832473803 -0.0796766286
| 18> S -2.8780236869 0.2856634931 -1.9265257791
| 19> O -3.3058598202 0.6013500235 1.0230684102
| 20> C -4.3624629062 1.5512897345 0.7973166584
| 21> C -3.84720597 2.9754835271 0.7799014911
| 22> O -1.5554152499 -1.0401117373 0.4968934702
| 23> C -2.2804349511 -2.2201102313 0.9039448585
| 24> C -3.057943287 -2.8462431893 -0.2350078853
| 25> H 3.3996429128 -1.9168840862 -2.8232467001
| 26> H 3.6866365471 -0.1932585077 -2.5535968861
| 27> H 5.0400974537 -1.2570898006 -2.9635879288
| 28> H 4.9703389744 -0.6656158814 -0.5169772474
| 29> H 4.8265681758 -2.4285966244 -0.7926128917
| 30> H 1.650576813 0.549966075 2.7251056586
| 31> H 0.6058970648 -0.844621909 3.1212472814
| 32> H 3.6302681044 -0.9116737741 2.6251644932
| 33> H 2.8394231911 -1.1027294435 4.1976773786
| 34> H 2.6341254894 -2.3401127172 2.9415384082
| 35> H -0.4721014689 1.5963955176 -2.1103397369
| 36> H 1.0590071175 2.1014916971 -1.3056136979
| 37> H -4.849632138 1.3070495278 -0.1521896165
| 38> H -5.0511668384 1.3804137353 1.6257421292
| 39> H -3.2090162984 3.1294700511 -0.0890969427
| 40> H -4.686633768 3.6611476337 0.7263749458
| 41> H -3.2687841443 3.1798393285 1.6772917008
| 42> H -1.4924083639 -2.8858960204 1.2612606362
| 43> H -2.9428015501 -1.9474773438 1.7289472651
| 44> H -2.3988671172 -3.0434345797 -1.0776695037
| 45> H -3.5010621324 -3.7784523968 0.1012163763
| 46> H -3.8491885925 -2.1755103455 -0.566845274
| 47> *
| 48>
| 49>                          ****END OF INPUT****

CARTESIAN COORDINATES (ANGSTROEM)
---------------------------------
  C      4.102356   -1.191274   -2.421211
  C      4.353042   -1.458772   -0.951117
  O      3.130313   -1.544699   -0.198106
  P      2.202062   -0.282655    0.068647
  S      3.158627    1.394069    0.425748
  O      1.269387   -0.824926    1.227836
  C      1.521087   -0.532121    2.616336
  C      2.736263   -1.274808    3.130919
  S      0.839572   -0.288208   -1.544943
  C      0.225096    1.400491   -1.296035
  S     -0.614146    1.626563    0.293685
  P     -2.205911    0.283247   -0.079677
  S     -2.878024    0.285663   -1.926526
  O     -3.305860    0.601350    1.023068
  C     -4.362463    1.551290    0.797317
  C     -3.847206    2.975484    0.779901
  O     -1.555415   -1.040112    0.496893
  C     -2.280435   -2.220110    0.903945
  C     -3.057943   -2.846243   -0.235008
  H      3.399643   -1.916884   -2.823247
  H      3.686637   -0.193259   -2.553597
  H      5.040097   -1.257090   -2.963588
  H      4.970339   -0.665616   -0.516977
  H      4.826568   -2.428597   -0.792613
  H      1.650577    0.549966    2.725106
  H      0.605897   -0.844622    3.121247
  H      3.630268   -0.911674    2.625164
  H      2.839423   -1.102729    4.197677
  H      2.634125   -2.340113    2.941538
  H     -0.472101    1.596396   -2.110340
  H      1.059007    2.101492   -1.305614
  H     -4.849632    1.307050   -0.152190
  H     -5.051167    1.380414    1.625742
  H     -3.209016    3.129470   -0.089097
  H     -4.686634    3.661148    0.726375
  H     -3.268784    3.179839    1.677292
  H     -1.492408   -2.885896    1.261261
  H     -2.942802   -1.947477    1.728947
  H     -2.398867   -3.043435   -1.077670
  H     -3.501062   -3.778452    0.101216
  H     -3.849189   -2.175510   -0.566845

 Total Charge           Charge          ....    0
 Multiplicity           Mult            ....    1
 Number of Electrons    NEL             ....  202
 Basis Dimension        Dim             ....  334

ORBITAL ENERGIES
----------------

  NO   OCC          E(Eh)            E(eV)
   0   2.0000     -88.039287     -2395.6708
   1   2.0000     -88.038202     -2395.6413
   2   2.0000     -87.987614     -2394.2647
   3   2.0000     -87.986398     -2394.2316
   4   2.0000     -76.426234     -2079.6635
   5   2.0000     -76.423879     -2079.5995
   6   2.0000     -18.798035      -511.5205
   7   2.0000     -18.792920      -511.3814
   8   2.0000     -18.785043      -511.1670
   9   2.0000     -18.784137      -511.1423
  10   2.0000      -9.953885      -270.8590
  11   2.0000      -9.953190      -270.8401
  12   2.0000      -9.951673      -270.7988
  13   2.0000      -9.951143      -270.7844
  14   2.0000      -9.946899      -270.6689
  15   2.0000      -9.884572      -268.9729
  16   2.0000      -9.882773      -268.9239
  17   2.0000      -9.881520      -268.8898
  18   2.0000      -9.880884      -268.8725
  19   2.0000      -7.684309      -209.1007
  20   2.0000      -7.683333      -209.0741
  21   2.0000      -7.632546      -207.6921
  22   2.0000      -7.631395      -207.6608
  23   2.0000      -6.423540      -174.7934
  24   2.0000      -6.421442      -174.7363
  25   2.0000      -5.712201      -155.4369
  26   2.0000      -5.711169      -155.4088
  27   2.0000      -5.708989      -155.3495
  28   2.0000      -5.708043      -155.3237
  29   2.0000      -5.701069      -155.1340
  30   2.0000      -5.700092      -155.1074
  31   2.0000      -5.661284      -154.0514
  32   2.0000      -5.660208      -154.0221
  33   2.0000      -5.653193      -153.8312
  34   2.0000      -5.652891      -153.8230
  35   2.0000      -5.652097      -153.8014
  36   2.0000      -5.651609      -153.7881
  37   2.0000      -4.646492      -126.4375
  38   2.0000      -4.645029      -126.3977
  39   2.0000      -4.643961      -126.3686
  40   2.0000      -4.643776      -126.3636
  41   2.0000      -4.643205      -126.3480
  42   2.0000      -4.642117      -126.3184
  43   2.0000      -0.987926       -26.8828
  44   2.0000      -0.984173       -26.7807
  45   2.0000      -0.944012       -25.6879
  46   2.0000      -0.942437       -25.6450
  47   2.0000      -0.763271       -20.7697
  48   2.0000      -0.719533       -19.5795
  49   2.0000      -0.705752       -19.2045
  50   2.0000      -0.688058       -18.7230
  51   2.0000      -0.684636       -18.6299
  52   2.0000      -0.672589       -18.3021
  53   2.0000      -0.651323       -17.7234
  54   2.0000      -0.637122       -17.3370
  55   2.0000      -0.601404       -16.3650
  56   2.0000      -0.592976       -16.1357
  57   2.0000      -0.577439       -15.7129
  58   2.0000      -0.569335       -15.4924
  59   2.0000      -0.557073       -15.1587
  60   2.0000      -0.497331       -13.5331
  61   2.0000      -0.490649       -13.3512
  62   2.0000      -0.472579       -12.8595
  63   2.0000      -0.468860       -12.7583
  64   2.0000      -0.456097       -12.4110
  65   2.0000      -0.442851       -12.0506
  66   2.0000      -0.437877       -11.9153
  67   2.0000      -0.432918       -11.7803
  68   2.0000      -0.424618       -11.5544
  69   2.0000      -0.414278       -11.2731
  70   2.0000      -0.409845       -11.1525
  71   2.0000      -0.405817       -11.0428
  72   2.0000      -0.389554       -10.6003
  73   2.0000      -0.385641       -10.4938
  74   2.0000      -0.376618       -10.2483
  75   2.0000      -0.372927       -10.1479
  76   2.0000      -0.369123       -10.0443
  77   2.0000      -0.357894        -9.7388
  78   2.0000      -0.353417        -9.6170
  79   2.0000      -0.348872        -9.4933
  80   2.0000      -0.346973        -9.4416
  81   2.0000      -0.342983        -9.3330
  82   2.0000      -0.340872        -9.2756
  83   2.0000      -0.337420        -9.1817
  84   2.0000      -0.333126        -9.0648
  85   2.0000      -0.322623        -8.7790
  86   2.0000      -0.306812        -8.3488
  87   2.0000      -0.296625        -8.0716
  88   2.0000      -0.294419        -8.0115
  89   2.0000      -0.289321        -7.8728
  90   2.0000      -0.277944        -7.5632
  91   2.0000      -0.275409        -7.4943
  92   2.0000      -0.266661        -7.2562
  93   2.0000      -0.262741        -7.1495
  94   2.0000      -0.260481        -7.0880
  95   2.0000      -0.231347        -6.2953
  96   2.0000      -0.214779        -5.8444
  97   2.0000      -0.212774        -5.7899
  98   2.0000      -0.205210        -5.5840
  99   2.0000      -0.199451        -5.4273
 100   2.0000      -0.196644        -5.3510
 101   0.0000      -0.043402        -1.1810
 102   0.0000      -0.021977        -0.5980
 103   0.0000      -0.000242        -0.0066
 104   0.0000       0.003675         0.1000
 105   0.0000       0.014637         0.3983

MULLIKEN ATOMIC CHARGES
-----------------------
   0 C :   -0.313847
   1 C :   -0.004920
   2 O :   -0.371083
   3 P :    0.612162
   4 S :   -0.342885
   5 O :   -0.350625
   6 C :   -0.001384
   7 C :   -0.303351
   8 S :   -0.064786
   9 C :   -0.366740
  10 S :   -0.074743
  11 P :    0.629015
  12 S :   -0.337370
  13 O :   -0.381069
  14 C :   -0.006862
  15 C :   -0.313154
  16 O :   -0.354089
  17 C :   -0.000240
  18 C :   -0.313435
  19 H :    0.118908
  20 H :    0.126486
  21 H :    0.112638
  22 H :    0.110589
  23 H :    0.104995
  24 H :    0.111627
  25 H :    0.100761
  26 H :    0.120616
  27 H :    0.110002
  28 H :    0.113859
  29 H :    0.192114
  30 H :    0.190640
  31 H :    0.112284
  32 H :    0.103711
  33 H :    0.127525
  34 H :    0.113606
  35 H :    0.117467
  36 H :    0.107032
  37 H :    0.104514
  38 H :    0.126888
  39 H :    0.107510
  40 H :    0.125637
Sum of atomic charges:   -0.0000000

LOEWDIN ATOMIC CHARGES
----------------------
   0 C :   -0.369082
   1 C :   -0.119238
   2 O :   -0.244728
   3 P :    0.573960
   4 S :   -0.328567
   5 O :   -0.232199
   6 C :   -0.117583
   7 C :   -0.364372
   8 S :    0.100367
   9 C :   -0.482865
  10 S :    0.095052
  11 P :    0.574162
  12 S :   -0.321352
  13 O :   -0.246684
  14 C :   -0.120868
  15 C :   -0.368304
  16 O :   -0.234879
  17 C :   -0.109004
  18 C :   -0.367357
  19 H :    0.125039
  20 H :    0.121178
  21 H :    0.130863
  22 H :    0.110096
  23 H :    0.118548
  24 H :    0.109411
  25 H :    0.116240
  26 H :    0.121829
  27 H :    0.129183
  28 H :    0.124996
  29 H :    0.129304
  30 H :    0.130051
  31 H :    0.110222
  32 H :    0.117608
  33 H :    0.121789
  34 H :    0.131506
  35 H :    0.124999
  36 H :    0.120221
  37 H :    0.110776
  38 H :    0.131181
  39 H :    0.127847
  40 H :    0.120651

  Mayer bond orders larger than 0.100000
B(  0-C ,  1-C ) :   1.1661 B(  0-C , 19-H ) :   0.9448 B(  0-C , 20-H ) :   0.9355
B(  0-C , 21-H ) :   0.9379 B(  1-C ,  2-O ) :   0.9090 B(  1-C , 22-H ) :   0.9158
B(  1-C , 23-H ) :   0.9341 B(  2-O ,  3-P ) :   1.1116 B(  3-P ,  4-S ) :   1.5790
B(  3-P ,  5-O ) :   1.1348 B(  3-P ,  8-S ) :   0.9628 B(  4-S ,  8-S ) :   0.1086
B(  5-O ,  6-C ) :   0.9087 B(  6-C ,  7-C ) :   1.1621 B(  6-C , 24-H ) :   0.9156
B(  6-C , 25-H ) :   0.9339 B(  7-C , 26-H ) :   0.9371 B(  7-C , 27-H ) :   0.9401
B(  7-C , 28-H ) :   0.9465 B(  8-S ,  9-C ) :   1.0073 B(  9-C , 10-S ) :   1.0060
B(  9-C , 29-H ) :   0.8807 B(  9-C , 30-H ) :   0.8836 B( 10-S , 11-P ) :   0.9499
B( 10-S , 12-S ) :   0.1145 B( 11-P , 12-S ) :   1.5991 B( 11-P , 13-O ) :   1.0913
B( 11-P , 16-O ) :   1.1321 B( 13-O , 14-C ) :   0.9066 B( 14-C , 15-C ) :   1.1663
B( 14-C , 31-H ) :   0.9129 B( 14-C , 32-H ) :   0.9331 B( 15-C , 33-H ) :   0.9347
B( 15-C , 34-H ) :   0.9381 B( 15-C , 35-H ) :   0.9456 B( 16-O , 17-C ) :   0.9121
B( 17-C , 18-C ) :   1.1658 B( 17-C , 36-H ) :   0.9334 B( 17-C , 37-H ) :   0.9306
B( 18-C , 38-H ) :   0.9452 B( 18-C , 39-H ) :   0.9361 B( 18-C , 40-H ) :   0.9366

Dispersion correction           -0.066658939
FINAL SINGLE POINT ENERGY     -2929.522972295882

DIPOLE MOMENT
-------------

Method             : SCF
Type of density    : Electron Density
Multiplicity       :   1
Irrep              :   0
Energy             : -2929.6408662132703284 Eh
Relativity type    :
Basis              : AO
                                X                 Y                 Z
Electronic contribution:      1.010276825       7.469861929      -6.548832842
Nuclear contribution   :     -1.311859484      -8.184236098       7.426059914
                        -----------------------------------------
Total Dipole Moment    :     -0.301582659      -0.714374169       0.877227072
                        -----------------------------------------
Magnitude (a.u.)       :      1.170815908
Magnitude (Debye)      :      2.975977532

Rotational constants in cm-1:             0.012715             0.004918             0.004888
Rotational constants in MHz :           381.192130           147.439152           146.537309

                             ****ORCA TERMINATED NORMALLY****
TOTAL RUN TIME: 0 days 0 hours 0 minutes 21 seconds 68 msec
