                         Program Version 6.0.0  -   RELEASE  -
|  1> ! pbe def2-sv(p) def2/J RI DEFGRID1 loosescf d4 GCP(DFT/SV(P)) printgap
|  2> %output
|  3>     printlevel normal
|  4> end
|  5> * xyz 0 1
|  6> C 2.3994505325 0.3958825529 -2.6306512421
|  7> C 1.6377755013 1.3654865648 -1.7534238581
|  8> O 1.0743749133 0.712856562 -0.5972896767
|  9> P 2.0097752639 0.2258000589 0.5984032328
| 10> S 3.5772364538 1.3499016224 0.9348759512
| 11> O 2.3440173322 -1.2742057317 0.1761538843
| 12> C 3.4506640914 -1.9988980608 0.7401966324
| 13> C 3.1012546013 -2.5951416547 2.0893345041
| 14> S 0.6654408568 0.1485490291 2.2065252421
| 15> C -0.472276672 -1.2355148011 1.7807260832
| 16> S -0.6754662744 -1.5704587711 0.0211917482
| 17> P -1.8428200452 0.0772038985 -0.6139752604
| 18> S -1.7335778534 0.4610092251 -2.5335875087
| 19> O -1.422087155 1.1890478401 0.4348319623
| 20> C -2.2784684693 2.2742149995 0.850577202
| 21> C -2.5392071694 3.2543588051 -0.2737409036
| 22> O -3.3332333998 -0.2297679584 -0.1153863356
| 23> C -4.2769136514 -0.9382561013 -0.9309232702
| 24> C -3.9379709403 -2.411327031 -1.0387311434
| 25> H 2.7162820312 0.9071883759 -3.5341213403
| 26> H 3.2769568555 0.0256915875 -2.102634832
| 27> H 1.7613904971 -0.4436545425 -2.8970427065
| 28> H 0.7701654799 1.7764317712 -2.2734224482
| 29> H 2.2869056649 2.1769066044 -1.408484989
| 30> H 3.6643575135 -2.7737525245 0.0026612614
| 31> H 4.3050203142 -1.3184363895 0.8245270472
| 32> H 2.2391349907 -3.2503275208 1.9974526286
| 33> H 3.9474660261 -3.1690943588 2.4533371977
| 34> H 2.8801423604 -1.8033527814 2.803825552
| 35> H -1.4264831364 -0.9729663369 2.2309731235
| 36> H -0.0755990537 -2.1520907858 2.2103713971
| 37> H -3.212950198 1.8557039693 1.2298047312
| 38> H -1.7191241372 2.73673603 1.6664596911
| 39> H -3.1379452426 4.0796244974 0.098743462
| 40> H -1.6002451228 3.6396578874 -0.664771673
| 41> H -3.0741618139 2.7622530256 -1.0851446944
| 42> H -5.2335149204 -0.779164087 -0.4311484447
| 43> H -4.2934539215 -0.475487504 -1.9232447485
| 44> H -4.7210681518 -2.9192739407 -1.5922591585
| 45> H -2.993372544 -2.5364246604 -1.5674855258
| 46> H -3.8478300721 -2.8548894854 -0.0508405612
| 47> *
| 48>
| 49>                          ****END OF INPUT****

CARTESIAN COORDINATES (ANGSTROEM)
---------------------------------
  C      2.399451    0.395883   -2.630651
  C      1.637776    1.365487   -1.753424
  O      1.074375    0.712857   -0.597290
  P      2.009775    0.225800    0.598403
  S      3.577236    1.349902    0.934876
  O      2.344017   -1.274206    0.176154
  C      3.450664   -1.998898    0.740197
  C      3.101255   -2.595142    2.089335
  S      0.665441    0.148549    2.206525
  C     -0.472277   -1.235515    1.780726
  S     -0.675466   -1.570459    0.021192
  P     -1.842820    0.077204   -0.613975
  S     -1.733578    0.461009   -2.533588
  O     -1.422087    1.189048    0.434832
  C     -2.278468    2.274215    0.850577
  C     -2.539207    3.254359   -0.273741
  O     -3.333233   -0.229768   -0.115386
  C     -4.276914   -0.938256   -0.930923
  C     -3.937971   -2.411327   -1.038731
  H      2.716282    0.907188   -3.534121
  H      3.276957    0.025692   -2.102635
  H      1.761390   -0.443655   -2.897043
  H      0.770165    1.776432   -2.273422
  H      2.286906    2.176907   -1.408485
  H      3.664358   -2.773753    0.002661
  H      4.305020   -1.318436    0.824527
  H      2.239135   -3.250328    1.997453
  H      3.947466   -3.169094    2.453337
  H      2.880142   -1.803353    2.803826
  H     -1.426483   -0.972966    2.230973
  H     -0.075599   -2.152091    2.210371
  H     -3.212950    1.855704    1.229805
  H     -1.719124    2.736736    1.666460
  H     -3.137945    4.079624    0.098743
  H     -1.600245    3.639658   -0.664772
  H     -3.074162    2.762253   -1.085145
  H     -5.233515   -0.779164   -0.431148
  H     -4.293454   -0.475488   -1.923245
  H     -4.721068   -2.919274   -1.592259
  H     -2.993373   -2.536425   -1.567486
  H     -3.847830   -2.854889   -0.050841

 Total Charge           Charge          ....    0
 Multiplicity           Mult            ....    1
 Number of Electrons    NEL             ....  202
 Basis Dimension        Dim             ....  334

ORBITAL ENERGIES
----------------

  NO   OCC          E(Eh)            E(eV)
   0   2.0000     -88.045827     -2395.8487
   1   2.0000     -88.039776     -2395.6841
   2   2.0000     -87.991103     -2394.3596
   3   2.0000     -87.981212     -2394.0905
   4   2.0000     -76.431359     -2079.8030
   5   2.0000     -76.421944     -2079.5468
   6   2.0000     -18.795979      -511.4646
   7   2.0000     -18.791850      -511.3522
   8   2.0000     -18.789416      -511.2860
   9   2.0000     -18.779412      -511.0138
  10   2.0000      -9.964848      -271.1573
  11   2.0000      -9.956156      -270.9208
  12   2.0000      -9.954102      -270.8649
  13   2.0000      -9.949931      -270.7514
  14   2.0000      -9.934358      -270.3276
  15   2.0000      -9.887003      -269.0390
  16   2.0000      -9.886849      -269.0348
  17   2.0000      -9.884542      -268.9721
  18   2.0000      -9.870137      -268.5801
  19   2.0000      -7.690787      -209.2770
  20   2.0000      -7.684805      -209.1142
  21   2.0000      -7.636029      -207.7869
  22   2.0000      -7.626405      -207.5250
  23   2.0000      -6.428059      -174.9164
  24   2.0000      -6.419429      -174.6815
  25   2.0000      -5.719253      -155.6288
  26   2.0000      -5.715151      -155.5172
  27   2.0000      -5.713368      -155.4687
  28   2.0000      -5.709013      -155.3501
  29   2.0000      -5.707199      -155.3008
  30   2.0000      -5.701358      -155.1418
  31   2.0000      -5.664936      -154.1507
  32   2.0000      -5.656795      -153.9292
  33   2.0000      -5.656056      -153.9091
  34   2.0000      -5.655327      -153.8893
  35   2.0000      -5.646940      -153.6611
  36   2.0000      -5.646625      -153.6525
  37   2.0000      -4.650978      -126.5596
  38   2.0000      -4.649933      -126.5311
  39   2.0000      -4.648286      -126.4863
  40   2.0000      -4.641726      -126.3078
  41   2.0000      -4.641403      -126.2990
  42   2.0000      -4.639977      -126.2602
  43   2.0000      -0.990513       -26.9532
  44   2.0000      -0.978897       -26.6371
  45   2.0000      -0.945832       -25.7374
  46   2.0000      -0.937746       -25.5174
  47   2.0000      -0.764045       -20.7907
  48   2.0000      -0.720432       -19.6040
  49   2.0000      -0.705325       -19.1929
  50   2.0000      -0.690058       -18.7774
  51   2.0000      -0.683275       -18.5929
  52   2.0000      -0.672201       -18.2915
  53   2.0000      -0.656272       -17.8581
  54   2.0000      -0.635938       -17.3047
  55   2.0000      -0.597646       -16.2628
  56   2.0000      -0.592840       -16.1320
  57   2.0000      -0.580014       -15.7830
  58   2.0000      -0.570715       -15.5299
  59   2.0000      -0.559638       -15.2285
  60   2.0000      -0.501021       -13.6335
  61   2.0000      -0.488848       -13.3022
  62   2.0000      -0.474183       -12.9032
  63   2.0000      -0.467740       -12.7279
  64   2.0000      -0.460886       -12.5413
  65   2.0000      -0.442987       -12.0543
  66   2.0000      -0.438219       -11.9245
  67   2.0000      -0.432263       -11.7625
  68   2.0000      -0.423818       -11.5327
  69   2.0000      -0.419347       -11.4110
  70   2.0000      -0.411862       -11.2073
  71   2.0000      -0.404287       -11.0012
  72   2.0000      -0.394989       -10.7482
  73   2.0000      -0.390762       -10.6332
  74   2.0000      -0.381033       -10.3684
  75   2.0000      -0.368837       -10.0366
  76   2.0000      -0.366217        -9.9653
  77   2.0000      -0.357891        -9.7387
  78   2.0000      -0.352971        -9.6048
  79   2.0000      -0.350519        -9.5381
  80   2.0000      -0.344176        -9.3655
  81   2.0000      -0.341979        -9.3057
  82   2.0000      -0.341397        -9.2899
  83   2.0000      -0.332549        -9.0491
  84   2.0000      -0.332212        -9.0399
  85   2.0000      -0.321841        -8.7577
  86   2.0000      -0.310665        -8.4536
  87   2.0000      -0.299788        -8.1576
  88   2.0000      -0.295391        -8.0380
  89   2.0000      -0.291654        -7.9363
  90   2.0000      -0.277474        -7.5505
  91   2.0000      -0.275629        -7.5002
  92   2.0000      -0.264900        -7.2083
  93   2.0000      -0.262883        -7.1534
  94   2.0000      -0.257363        -7.0032
  95   2.0000      -0.226690        -6.1686
  96   2.0000      -0.212381        -5.7792
  97   2.0000      -0.209998        -5.7143
  98   2.0000      -0.205251        -5.5852
  99   2.0000      -0.200589        -5.4583
 100   2.0000      -0.196374        -5.3436
 101   0.0000      -0.044102        -1.2001
 102   0.0000      -0.031173        -0.8483
 103   0.0000      -0.017430        -0.4743
 104   0.0000      -0.000375        -0.0102
 105   0.0000       0.011773         0.3204

MULLIKEN ATOMIC CHARGES
-----------------------
   0 C :   -0.300996
   1 C :   -0.011177
   2 O :   -0.374696
   3 P :    0.631676
   4 S :   -0.328127
   5 O :   -0.374793
   6 C :   -0.009219
   7 C :   -0.320054
   8 S :   -0.088969
   9 C :   -0.327104
  10 S :   -0.078984
  11 P :    0.650259
  12 S :   -0.318923
  13 O :   -0.369814
  14 C :   -0.003976
  15 C :   -0.313180
  16 O :   -0.386287
  17 C :   -0.007953
  18 C :   -0.305856
  19 H :    0.106550
  20 H :    0.113166
  21 H :    0.117286
  22 H :    0.112147
  23 H :    0.107605
  24 H :    0.106096
  25 H :    0.111759
  26 H :    0.114009
  27 H :    0.114041
  28 H :    0.128988
  29 H :    0.178636
  30 H :    0.187590
  31 H :    0.106695
  32 H :    0.109712
  33 H :    0.110458
  34 H :    0.126664
  35 H :    0.125619
  36 H :    0.101613
  37 H :    0.111210
  38 H :    0.113089
  39 H :    0.123473
  40 H :    0.111768
Sum of atomic charges:    0.0000000

LOEWDIN ATOMIC CHARGES
----------------------
   0 C :   -0.363208
   1 C :   -0.126822
   2 O :   -0.242672
   3 P :    0.565603
   4 S :   -0.323882
   5 O :   -0.244565
   6 C :   -0.122467
   7 C :   -0.366474
   8 S :    0.085433
   9 C :   -0.469725
  10 S :    0.115924
  11 P :    0.581577
  12 S :   -0.302914
  13 O :   -0.234820
  14 C :   -0.111841
  15 C :   -0.364834
  16 O :   -0.254391
  17 C :   -0.124125
  18 C :   -0.366351
  19 H :    0.128418
  20 H :    0.118055
  21 H :    0.126358
  22 H :    0.110337
  23 H :    0.106318
  24 H :    0.118672
  25 H :    0.108783
  26 H :    0.120074
  27 H :    0.132068
  28 H :    0.122857
  29 H :    0.133394
  30 H :    0.134079
  31 H :    0.110679
  32 H :    0.120566
  33 H :    0.129631
  34 H :    0.130830
  35 H :    0.121501
  36 H :    0.116342
  37 H :    0.108337
  38 H :    0.130865
  39 H :    0.119588
  40 H :    0.122800

  Mayer bond orders larger than 0.100000
B(  0-C ,  1-C ) :   1.1680 B(  0-C , 19-H ) :   0.9395 B(  0-C , 20-H ) :   0.9384
B(  0-C , 21-H ) :   0.9441 B(  1-C ,  2-O ) :   0.9007 B(  1-C , 22-H ) :   0.9111
B(  1-C , 23-H ) :   0.9150 B(  2-O ,  3-P ) :   1.1002 B(  3-P ,  4-S ) :   1.6291
B(  3-P ,  5-O ) :   1.0688 B(  3-P ,  8-S ) :   0.9998 B(  5-O ,  6-C ) :   0.9145
B(  6-C ,  7-C ) :   1.1644 B(  6-C , 24-H ) :   0.9333 B(  6-C , 25-H ) :   0.9066
B(  7-C , 26-H ) :   0.9419 B(  7-C , 27-H ) :   0.9385 B(  7-C , 28-H ) :   0.9364
B(  8-S ,  9-C ) :   0.9530 B(  9-C , 10-S ) :   1.0218 B(  9-C , 29-H ) :   0.9075
B(  9-C , 30-H ) :   0.9012 B( 10-S , 11-P ) :   0.9588 B( 11-P , 12-S ) :   1.6313
B( 11-P , 13-O ) :   1.1127 B( 11-P , 16-O ) :   1.0506 B( 13-O , 14-C ) :   0.9046
B( 14-C , 15-C ) :   1.1690 B( 14-C , 31-H ) :   0.9257 B( 14-C , 32-H ) :   0.9296
B( 15-C , 33-H ) :   0.9372 B( 15-C , 34-H ) :   0.9462 B( 15-C , 35-H ) :   0.9358
B( 16-O , 17-C ) :   0.9178 B( 17-C , 18-C ) :   1.1650 B( 17-C , 36-H ) :   0.9327
B( 17-C , 37-H ) :   0.9111 B( 18-C , 38-H ) :   0.9387 B( 18-C , 39-H ) :   0.9370
B( 18-C , 40-H ) :   0.9458

Dispersion correction           -0.069160239
FINAL SINGLE POINT ENERGY     -2929.512001401839

DIPOLE MOMENT
-------------

Method             : SCF
Type of density    : Electron Density
Multiplicity       :   1
Irrep              :   0
Energy             : -2929.6300502725821389 Eh
Relativity type    :
Basis              : AO
                                X                 Y                 Z
Electronic contribution:      5.910922681       4.523760034       4.306432249
Nuclear contribution   :     -7.247015645      -5.425466050      -3.770163148
                        -----------------------------------------
Total Dipole Moment    :     -1.336092964      -0.901706016       0.536269101
                        -----------------------------------------
Magnitude (a.u.)       :      1.698765051
Magnitude (Debye)      :      4.317917608

Rotational constants in cm-1:             0.012153             0.005786             0.005354
Rotational constants in MHz :           364.349974           173.471009           160.512064

                             ****ORCA TERMINATED NORMALLY****
TOTAL RUN TIME: 0 days 0 hours 0 minutes 22 seconds 278 msec
