                         Program Version 6.0.0  -   RELEASE  -
|  1> ! pbe def2-sv(p) def2/J RI DEFGRID1 loosescf d4 GCP(DFT/SV(P)) printgap
|  2> %output
|  3>     printlevel normal
|  4> end
|  5> * xyz 0 1
|  6> C 4.1003893102 -0.5960649246 -2.1281528812
|  7> C 4.4869842715 0.1978259891 -0.8971301239
|  8> O 3.3408859212 0.7262751572 -0.1836568411
|  9> P 2.2942179464 -0.1102703871 0.6505236809
| 10> S 1.4883162271 1.038730624 2.01823375
| 11> O 3.1564243705 -1.3490302267 1.1402590573
| 12> C 2.6044305422 -2.5867079875 1.6272323765
| 13> C 1.87070989 -2.4164482064 2.9412548882
| 14> S 0.9261881858 -1.0064486929 -0.7365767243
| 15> C 0.4145070785 0.5162883384 -1.5697342329
| 16> S -0.7187743217 1.5544359211 -0.6124319924
| 17> P -2.4906592931 0.3701463289 -0.7886202631
| 18> S -2.4353632416 -0.9724590882 -2.2107419157
| 19> O -3.6797601615 1.367524422 -1.0552317391
| 20> C -4.2778354226 2.2649464599 -0.0892163458
| 21> C -3.3110976304 3.3232739413 0.3984243534
| 22> O -2.8272746208 -0.1055352445 0.6950353393
| 23> C -1.9677530976 -0.8743647033 1.5498951316
| 24> C -1.9115158039 -2.3331367126 1.1427503932
| 25> H 3.4814260756 0.0008904751 -2.7936947832
| 26> H 5.0048682796 -0.8835754169 -2.6554594759
| 27> H 3.555094407 -1.4953071943 -1.851125948
| 28> H 5.0486199796 1.0957324021 -1.1602718689
| 29> H 5.0674380991 -0.4135355231 -0.204970195
| 30> H 1.940788759 -2.9947251981 0.8594158118
| 31> H 3.4788377264 -3.2302512639 1.7405416376
| 32> H 2.5242829026 -1.9639994914 3.6827030438
| 33> H 1.004856571 -1.770736715 2.8090124653
| 34> H 1.5417315022 -3.3875362003 3.2968832867
| 35> H -0.0822639815 0.1961717378 -2.4858319317
| 36> H 1.2853450953 1.1342175004 -1.7761953812
| 37> H -5.1075329494 2.7060702705 -0.6438284214
| 38> H -4.6595215147 1.6690828956 0.7416682772
| 39> H -2.883184817 3.8637381834 -0.4423549217
| 40> H -3.8416691115 4.0210865317 1.0388788929
| 41> H -2.5012452706 2.8707663996 0.9695847153
| 42> H -0.9709891431 -0.4188550112 1.5546490984
| 43> H -2.4126119647 -0.7564383243 2.5401809655
| 44> H -1.3326247754 -2.8867113293 1.8751106867
| 45> H -2.9168503899 -2.7430862787 1.0935876993
| 46> H -1.4456256432 -2.4407901665 0.1651775762
| 47> *
| 48>
| 49>                          ****END OF INPUT****

CARTESIAN COORDINATES (ANGSTROEM)
---------------------------------
  C      4.100389   -0.596065   -2.128153
  C      4.486984    0.197826   -0.897130
  O      3.340886    0.726275   -0.183657
  P      2.294218   -0.110270    0.650524
  S      1.488316    1.038731    2.018234
  O      3.156424   -1.349030    1.140259
  C      2.604431   -2.586708    1.627232
  C      1.870710   -2.416448    2.941255
  S      0.926188   -1.006449   -0.736577
  C      0.414507    0.516288   -1.569734
  S     -0.718774    1.554436   -0.612432
  P     -2.490659    0.370146   -0.788620
  S     -2.435363   -0.972459   -2.210742
  O     -3.679760    1.367524   -1.055232
  C     -4.277835    2.264946   -0.089216
  C     -3.311098    3.323274    0.398424
  O     -2.827275   -0.105535    0.695035
  C     -1.967753   -0.874365    1.549895
  C     -1.911516   -2.333137    1.142750
  H      3.481426    0.000890   -2.793695
  H      5.004868   -0.883575   -2.655459
  H      3.555094   -1.495307   -1.851126
  H      5.048620    1.095732   -1.160272
  H      5.067438   -0.413536   -0.204970
  H      1.940789   -2.994725    0.859416
  H      3.478838   -3.230251    1.740542
  H      2.524283   -1.963999    3.682703
  H      1.004857   -1.770737    2.809012
  H      1.541732   -3.387536    3.296883
  H     -0.082264    0.196172   -2.485832
  H      1.285345    1.134218   -1.776195
  H     -5.107533    2.706070   -0.643828
  H     -4.659522    1.669083    0.741668
  H     -2.883185    3.863738   -0.442355
  H     -3.841669    4.021087    1.038879
  H     -2.501245    2.870766    0.969585
  H     -0.970989   -0.418855    1.554649
  H     -2.412612   -0.756438    2.540181
  H     -1.332625   -2.886711    1.875111
  H     -2.916850   -2.743086    1.093588
  H     -1.445626   -2.440790    0.165178

 Total Charge           Charge          ....    0
 Multiplicity           Mult            ....    1
 Number of Electrons    NEL             ....  202
 Basis Dimension        Dim             ....  334

ORBITAL ENERGIES
----------------

  NO   OCC          E(Eh)            E(eV)
   0   2.0000     -88.045436     -2395.8381
   1   2.0000     -88.037240     -2395.6151
   2   2.0000     -87.983026     -2394.1399
   3   2.0000     -87.980242     -2394.0641
   4   2.0000     -76.430713     -2079.7854
   5   2.0000     -76.422271     -2079.5557
   6   2.0000     -18.802011      -511.6287
   7   2.0000     -18.797171      -511.4970
   8   2.0000     -18.787969      -511.2466
   9   2.0000     -18.786115      -511.1962
  10   2.0000      -9.967754      -271.2364
  11   2.0000      -9.962090      -271.0823
  12   2.0000      -9.956252      -270.9234
  13   2.0000      -9.953781      -270.8562
  14   2.0000      -9.944171      -270.5947
  15   2.0000      -9.893752      -269.2227
  16   2.0000      -9.890564      -269.1359
  17   2.0000      -9.887412      -269.0501
  18   2.0000      -9.874358      -268.6949
  19   2.0000      -7.689532      -209.2428
  20   2.0000      -7.681796      -209.0323
  21   2.0000      -7.628017      -207.5689
  22   2.0000      -7.625502      -207.5005
  23   2.0000      -6.427691      -174.9064
  24   2.0000      -6.419440      -174.6819
  25   2.0000      -5.717206      -155.5731
  26   2.0000      -5.714264      -155.4930
  27   2.0000      -5.709795      -155.3714
  28   2.0000      -5.706632      -155.2854
  29   2.0000      -5.706214      -155.2740
  30   2.0000      -5.698825      -155.0729
  31   2.0000      -5.657109      -153.9378
  32   2.0000      -5.654547      -153.8681
  33   2.0000      -5.648653      -153.7077
  34   2.0000      -5.647999      -153.6899
  35   2.0000      -5.645879      -153.6322
  36   2.0000      -5.645721      -153.6279
  37   2.0000      -4.650999      -126.5601
  38   2.0000      -4.649625      -126.5227
  39   2.0000      -4.647355      -126.4609
  40   2.0000      -4.642310      -126.3237
  41   2.0000      -4.641211      -126.2938
  42   2.0000      -4.639707      -126.2528
  43   2.0000      -0.995645       -27.0929
  44   2.0000      -0.983124       -26.7522
  45   2.0000      -0.951894       -25.9024
  46   2.0000      -0.938144       -25.5282
  47   2.0000      -0.762242       -20.7417
  48   2.0000      -0.723830       -19.6964
  49   2.0000      -0.712474       -19.3874
  50   2.0000      -0.699230       -19.0270
  51   2.0000      -0.686098       -18.6697
  52   2.0000      -0.674733       -18.3604
  53   2.0000      -0.651758       -17.7352
  54   2.0000      -0.636906       -17.3311
  55   2.0000      -0.593463       -16.1489
  56   2.0000      -0.589218       -16.0334
  57   2.0000      -0.587410       -15.9842
  58   2.0000      -0.575105       -15.6494
  59   2.0000      -0.564747       -15.3676
  60   2.0000      -0.508048       -13.8247
  61   2.0000      -0.492450       -13.4003
  62   2.0000      -0.481491       -13.1020
  63   2.0000      -0.469604       -12.7786
  64   2.0000      -0.462227       -12.5778
  65   2.0000      -0.449135       -12.2216
  66   2.0000      -0.442802       -12.0493
  67   2.0000      -0.438405       -11.9296
  68   2.0000      -0.426083       -11.5943
  69   2.0000      -0.421142       -11.4599
  70   2.0000      -0.414532       -11.2800
  71   2.0000      -0.406182       -11.0528
  72   2.0000      -0.396537       -10.7903
  73   2.0000      -0.392001       -10.6669
  74   2.0000      -0.383231       -10.4282
  75   2.0000      -0.370168       -10.0728
  76   2.0000      -0.362712        -9.8699
  77   2.0000      -0.359471        -9.7817
  78   2.0000      -0.353509        -9.6195
  79   2.0000      -0.350702        -9.5431
  80   2.0000      -0.348773        -9.4906
  81   2.0000      -0.346422        -9.4266
  82   2.0000      -0.344797        -9.3824
  83   2.0000      -0.338308        -9.2058
  84   2.0000      -0.335028        -9.1166
  85   2.0000      -0.328696        -8.9443
  86   2.0000      -0.312091        -8.4924
  87   2.0000      -0.304163        -8.2767
  88   2.0000      -0.299540        -8.1509
  89   2.0000      -0.291361        -7.9283
  90   2.0000      -0.285704        -7.7744
  91   2.0000      -0.283021        -7.7014
  92   2.0000      -0.271715        -7.3937
  93   2.0000      -0.264080        -7.1860
  94   2.0000      -0.255407        -6.9500
  95   2.0000      -0.243571        -6.6279
  96   2.0000      -0.213445        -5.8081
  97   2.0000      -0.203133        -5.5275
  98   2.0000      -0.198216        -5.3937
  99   2.0000      -0.196644        -5.3510
 100   2.0000      -0.186806        -5.0833
 101   0.0000      -0.043884        -1.1942
 102   0.0000      -0.028584        -0.7778
 103   0.0000      -0.015772        -0.4292
 104   0.0000      -0.000426        -0.0116
 105   0.0000       0.010648         0.2897

MULLIKEN ATOMIC CHARGES
-----------------------
   0 C :   -0.320885
   1 C :    0.001850
   2 O :   -0.367998
   3 P :    0.602201
   4 S :   -0.293530
   5 O :   -0.382108
   6 C :   -0.023674
   7 C :   -0.315451
   8 S :   -0.119775
   9 C :   -0.330578
  10 S :   -0.095473
  11 P :    0.619120
  12 S :   -0.323003
  13 O :   -0.361808
  14 C :    0.004632
  15 C :   -0.334842
  16 O :   -0.382195
  17 C :   -0.035611
  18 C :   -0.314953
  19 H :    0.121921
  20 H :    0.115234
  21 H :    0.127991
  22 H :    0.112558
  23 H :    0.113329
  24 H :    0.122218
  25 H :    0.111551
  26 H :    0.125271
  27 H :    0.140520
  28 H :    0.113703
  29 H :    0.195827
  30 H :    0.182761
  31 H :    0.110098
  32 H :    0.111503
  33 H :    0.128048
  34 H :    0.117016
  35 H :    0.138362
  36 H :    0.133115
  37 H :    0.099105
  38 H :    0.102502
  39 H :    0.112262
  40 H :    0.139186
Sum of atomic charges:   -0.0000000

LOEWDIN ATOMIC CHARGES
----------------------
   0 C :   -0.367866
   1 C :   -0.109251
   2 O :   -0.239907
   3 P :    0.562431
   4 S :   -0.302298
   5 O :   -0.245274
   6 C :   -0.113578
   7 C :   -0.367693
   8 S :    0.080619
   9 C :   -0.482041
  10 S :    0.088426
  11 P :    0.567061
  12 S :   -0.310726
  13 O :   -0.237259
  14 C :   -0.109494
  15 C :   -0.371170
  16 O :   -0.244217
  17 C :   -0.124967
  18 C :   -0.370677
  19 H :    0.126198
  20 H :    0.132548
  21 H :    0.119791
  22 H :    0.122991
  23 H :    0.116179
  24 H :    0.108265
  25 H :    0.122100
  26 H :    0.132091
  27 H :    0.123129
  28 H :    0.130552
  29 H :    0.132105
  30 H :    0.130119
  31 H :    0.122518
  32 H :    0.115081
  33 H :    0.129077
  34 H :    0.133485
  35 H :    0.120954
  36 H :    0.097951
  37 H :    0.116622
  38 H :    0.123743
  39 H :    0.125612
  40 H :    0.116769

  Mayer bond orders larger than 0.100000
B(  0-C ,  1-C ) :   1.1681 B(  0-C , 19-H ) :   0.9451 B(  0-C , 20-H ) :   0.9360
B(  0-C , 21-H ) :   0.9363 B(  1-C ,  2-O ) :   0.8947 B(  1-C , 22-H ) :   0.9350
B(  1-C , 23-H ) :   0.9263 B(  2-O ,  3-P ) :   1.1123 B(  3-P ,  4-S ) :   1.6866
B(  3-P ,  5-O ) :   1.0694 B(  3-P ,  8-S ) :   0.9363 B(  4-S ,  8-S ) :   0.1112
B(  5-O ,  6-C ) :   0.9137 B(  6-C ,  7-C ) :   1.1652 B(  6-C , 24-H ) :   0.9210
B(  6-C , 25-H ) :   0.9341 B(  7-C , 26-H ) :   0.9421 B(  7-C , 27-H ) :   0.9266
B(  7-C , 28-H ) :   0.9345 B(  8-S ,  9-C ) :   0.9939 B(  9-C , 10-S ) :   1.0193
B(  9-C , 29-H ) :   0.8721 B(  9-C , 30-H ) :   0.8890 B( 10-S , 11-P ) :   0.9450
B( 10-S , 12-S ) :   0.1132 B( 11-P , 12-S ) :   1.6407 B( 11-P , 13-O ) :   1.1402
B( 11-P , 16-O ) :   1.0769 B( 13-O , 14-C ) :   0.9020 B( 14-C , 15-C ) :   1.1691
B( 14-C , 31-H ) :   0.9338 B( 14-C , 32-H ) :   0.9264 B( 15-C , 33-H ) :   0.9431
B( 15-C , 34-H ) :   0.9356 B( 15-C , 35-H ) :   0.9316 B( 16-O , 17-C ) :   0.9090
B( 17-C , 18-C ) :   1.1644 B( 17-C , 36-H ) :   0.8898 B( 17-C , 37-H ) :   0.9355
B( 18-C , 38-H ) :   0.9362 B( 18-C , 39-H ) :   0.9432 B( 18-C , 40-H ) :   0.9282

Dispersion correction           -0.066868939
FINAL SINGLE POINT ENERGY     -2929.512497020819

DIPOLE MOMENT
-------------

Method             : SCF
Type of density    : Electron Density
Multiplicity       :   1
Irrep              :   0
Energy             : -2929.6314108704468708 Eh
Relativity type    :
Basis              : AO
                                X                 Y                 Z
Electronic contribution:     -4.570794488       7.170904177      -7.546867161
Nuclear contribution   :      5.618641860      -7.584327932       8.014015049
                        -----------------------------------------
Total Dipole Moment    :      1.047847372      -0.413423755       0.467147888
                        -----------------------------------------
Magnitude (a.u.)       :      1.219479588
Magnitude (Debye)      :      3.099670778

Rotational constants in cm-1:             0.012273             0.004993             0.004814
Rotational constants in MHz :           367.940011           149.680040           144.330267

                             ****ORCA TERMINATED NORMALLY****
TOTAL RUN TIME: 0 days 0 hours 0 minutes 21 seconds 420 msec
