                         Program Version 6.0.0  -   RELEASE  -
|  1> ! pbe def2-sv(p) def2/J RI DEFGRID1 loosescf d4 GCP(DFT/SV(P)) printgap
|  2> %output
|  3>     printlevel normal
|  4> end
|  5> * xyz 0 1
|  6> C 2.581699717 -0.3986674535 -3.0285459795
|  7> C 3.1684285297 0.5604346634 -2.0110990704
|  8> O 2.2074948116 0.8655614118 -0.9694121407
|  9> P 2.136057359 0.1836352183 0.4461826796
| 10> S 0.8105786089 1.1369356161 1.5302139616
| 11> O 3.644575685 0.2725363831 0.9312796166
| 12> C 4.2333682525 -0.5315268053 1.9722733457
| 13> C 3.4474483701 -0.4841927558 3.2652103964
| 14> S 1.8873034613 -1.9171651742 0.1798764398
| 15> C 0.2173389072 -1.9471636708 -0.5076428649
| 16> S -1.0867163994 -1.5754181468 0.7209962266
| 17> P -2.0105819881 0.0239161805 -0.2806995596
| 18> S -1.0348595159 0.9534284106 -1.710650062
| 19> O -2.6722165759 0.9563625495 0.8197037744
| 20> C -2.2413690967 2.2750208557 1.1938412274
| 21> C -3.4565557246 3.1788408837 1.2476334063
| 22> O -3.268501512 -0.7970926523 -0.7938267051
| 23> C -4.2724408279 -0.1882950313 -1.6352033465
| 24> C -5.0368955245 -1.2994083226 -2.3247193245
| 25> H 2.4745724153 -1.395446328 -2.6077525458
| 26> H 1.6069178672 -0.0384620537 -3.3512126566
| 27> H 3.2427104183 -0.4485518276 -3.8879008615
| 28> H 3.3776156876 1.5313699804 -2.4628078121
| 29> H 4.0752757777 0.1609966014 -1.5538602017
| 30> H 4.3113560253 -1.5580876668 1.6042856997
| 31> H 5.2289307692 -0.1010829878 2.094026237
| 32> H 2.4606260571 -0.923249267 3.1218858625
| 33> H 3.9758618599 -1.0445891248 4.0295954793
| 34> H 3.3192338782 0.5445075585 3.5943145171
| 35> H 0.0648197397 -2.9624621583 -0.8634169597
| 36> H 0.1406380577 -1.220577255 -1.3207048709
| 37> H -1.7503585356 2.1936188078 2.1663145204
| 38> H -1.5080515613 2.6329335681 0.4634317702
| 39> H -3.9029573652 3.2674328169 0.2601410258
| 40> H -4.1907745059 2.769596404 1.9355458316
| 41> H -3.1491550569 4.1611777515 1.5905404644
| 42> H -4.9258220765 0.4152415109 -1.0002552207
| 43> H -3.7704745267 0.4641140196 -2.3585307934
| 44> H -5.4845711499 -1.9540604359 -1.5827635776
| 45> H -5.8165483247 -0.8656403238 -2.9423591341
| 46> H -4.365452711 -1.8823018824 -2.9485718731
| 47> *
| 48>
| 49>                          ****END OF INPUT****

CARTESIAN COORDINATES (ANGSTROEM)
---------------------------------
  C      2.581700   -0.398667   -3.028546
  C      3.168429    0.560435   -2.011099
  O      2.207495    0.865561   -0.969412
  P      2.136057    0.183635    0.446183
  S      0.810579    1.136936    1.530214
  O      3.644576    0.272536    0.931280
  C      4.233368   -0.531527    1.972273
  C      3.447448   -0.484193    3.265210
  S      1.887303   -1.917165    0.179876
  C      0.217339   -1.947164   -0.507643
  S     -1.086716   -1.575418    0.720996
  P     -2.010582    0.023916   -0.280700
  S     -1.034860    0.953428   -1.710650
  O     -2.672217    0.956363    0.819704
  C     -2.241369    2.275021    1.193841
  C     -3.456556    3.178841    1.247633
  O     -3.268502   -0.797093   -0.793827
  C     -4.272441   -0.188295   -1.635203
  C     -5.036896   -1.299408   -2.324719
  H      2.474572   -1.395446   -2.607753
  H      1.606918   -0.038462   -3.351213
  H      3.242710   -0.448552   -3.887901
  H      3.377616    1.531370   -2.462808
  H      4.075276    0.160997   -1.553860
  H      4.311356   -1.558088    1.604286
  H      5.228931   -0.101083    2.094026
  H      2.460626   -0.923249    3.121886
  H      3.975862   -1.044589    4.029595
  H      3.319234    0.544508    3.594315
  H      0.064820   -2.962462   -0.863417
  H      0.140638   -1.220577   -1.320705
  H     -1.750359    2.193619    2.166315
  H     -1.508052    2.632934    0.463432
  H     -3.902957    3.267433    0.260141
  H     -4.190775    2.769596    1.935546
  H     -3.149155    4.161178    1.590540
  H     -4.925822    0.415242   -1.000255
  H     -3.770475    0.464114   -2.358531
  H     -5.484571   -1.954060   -1.582764
  H     -5.816548   -0.865640   -2.942359
  H     -4.365453   -1.882302   -2.948572

 Total Charge           Charge          ....    0
 Multiplicity           Mult            ....    1
 Number of Electrons    NEL             ....  202
 Basis Dimension        Dim             ....  334

ORBITAL ENERGIES
----------------

  NO   OCC          E(Eh)            E(eV)
   0   2.0000     -88.044726     -2395.8188
   1   2.0000     -88.033257     -2395.5067
   2   2.0000     -87.980528     -2394.0719
   3   2.0000     -87.974138     -2393.8980
   4   2.0000     -76.422948     -2079.5741
   5   2.0000     -76.417990     -2079.4392
   6   2.0000     -18.791842      -511.3520
   7   2.0000     -18.785373      -511.1760
   8   2.0000     -18.785069      -511.1677
   9   2.0000     -18.777223      -510.9542
  10   2.0000      -9.959137      -271.0019
  11   2.0000      -9.955496      -270.9028
  12   2.0000      -9.952300      -270.8158
  13   2.0000      -9.944401      -270.6009
  14   2.0000      -9.940607      -270.4977
  15   2.0000      -9.882736      -268.9229
  16   2.0000      -9.882678      -268.9213
  17   2.0000      -9.881795      -268.8973
  18   2.0000      -9.880135      -268.8521
  19   2.0000      -7.689580      -209.2441
  20   2.0000      -7.678842      -208.9519
  21   2.0000      -7.625415      -207.4981
  22   2.0000      -7.619102      -207.3263
  23   2.0000      -6.419987      -174.6967
  24   2.0000      -6.415706      -174.5802
  25   2.0000      -5.717138      -155.5712
  26   2.0000      -5.714092      -155.4884
  27   2.0000      -5.706910      -155.2929
  28   2.0000      -5.706867      -155.2917
  29   2.0000      -5.703675      -155.2049
  30   2.0000      -5.695209      -154.9745
  31   2.0000      -5.654150      -153.8572
  32   2.0000      -5.648250      -153.6967
  33   2.0000      -5.646396      -153.6462
  34   2.0000      -5.645350      -153.6178
  35   2.0000      -5.639645      -153.4625
  36   2.0000      -5.639094      -153.4476
  37   2.0000      -4.642979      -126.3419
  38   2.0000      -4.642119      -126.3185
  39   2.0000      -4.639804      -126.2555
  40   2.0000      -4.638169      -126.2110
  41   2.0000      -4.637285      -126.1869
  42   2.0000      -4.636415      -126.1633
  43   2.0000      -0.985561       -26.8185
  44   2.0000      -0.976979       -26.5850
  45   2.0000      -0.941587       -25.6219
  46   2.0000      -0.934249       -25.4222
  47   2.0000      -0.759668       -20.6716
  48   2.0000      -0.719070       -19.5669
  49   2.0000      -0.709351       -19.3024
  50   2.0000      -0.688746       -18.7417
  51   2.0000      -0.682361       -18.5680
  52   2.0000      -0.671198       -18.2642
  53   2.0000      -0.646657       -17.5964
  54   2.0000      -0.630491       -17.1565
  55   2.0000      -0.591011       -16.0822
  56   2.0000      -0.583730       -15.8841
  57   2.0000      -0.574566       -15.6347
  58   2.0000      -0.564528       -15.3616
  59   2.0000      -0.556757       -15.1501
  60   2.0000      -0.503087       -13.6897
  61   2.0000      -0.497074       -13.5261
  62   2.0000      -0.474413       -12.9094
  63   2.0000      -0.469436       -12.7740
  64   2.0000      -0.452130       -12.3031
  65   2.0000      -0.442000       -12.0274
  66   2.0000      -0.435592       -11.8531
  67   2.0000      -0.431741       -11.7483
  68   2.0000      -0.429209       -11.6794
  69   2.0000      -0.418217       -11.3803
  70   2.0000      -0.408770       -11.1232
  71   2.0000      -0.396803       -10.7975
  72   2.0000      -0.384804       -10.4710
  73   2.0000      -0.383201       -10.4274
  74   2.0000      -0.378369       -10.2960
  75   2.0000      -0.365761        -9.9529
  76   2.0000      -0.353686        -9.6243
  77   2.0000      -0.352103        -9.5812
  78   2.0000      -0.351124        -9.5546
  79   2.0000      -0.347370        -9.4524
  80   2.0000      -0.343458        -9.3460
  81   2.0000      -0.342505        -9.3200
  82   2.0000      -0.339177        -9.2295
  83   2.0000      -0.335037        -9.1168
  84   2.0000      -0.330573        -8.9954
  85   2.0000      -0.317542        -8.6407
  86   2.0000      -0.305805        -8.3214
  87   2.0000      -0.295624        -8.0444
  88   2.0000      -0.290778        -7.9125
  89   2.0000      -0.287612        -7.8263
  90   2.0000      -0.279178        -7.5968
  91   2.0000      -0.273657        -7.4466
  92   2.0000      -0.266474        -7.2511
  93   2.0000      -0.259620        -7.0646
  94   2.0000      -0.256180        -6.9710
  95   2.0000      -0.238812        -6.4984
  96   2.0000      -0.218896        -5.9565
  97   2.0000      -0.203585        -5.5398
  98   2.0000      -0.198812        -5.4100
  99   2.0000      -0.180974        -4.9246
 100   2.0000      -0.179866        -4.8944
 101   0.0000      -0.038905        -1.0587
 102   0.0000      -0.029351        -0.7987
 103   0.0000      -0.012124        -0.3299
 104   0.0000       0.003534         0.0962
 105   0.0000       0.025975         0.7068

MULLIKEN ATOMIC CHARGES
-----------------------
   0 C :   -0.311186
   1 C :   -0.003786
   2 O :   -0.343724
   3 P :    0.611544
   4 S :   -0.317394
   5 O :   -0.379909
   6 C :   -0.014851
   7 C :   -0.310162
   8 S :   -0.135111
   9 C :   -0.359020
  10 S :   -0.058004
  11 P :    0.624369
  12 S :   -0.328433
  13 O :   -0.382976
  14 C :   -0.029858
  15 C :   -0.273884
  16 O :   -0.371975
  17 C :   -0.011831
  18 C :   -0.275564
  19 H :    0.118296
  20 H :    0.137543
  21 H :    0.108975
  22 H :    0.110687
  23 H :    0.100113
  24 H :    0.114532
  25 H :    0.110199
  26 H :    0.130861
  27 H :    0.110441
  28 H :    0.128031
  29 H :    0.183767
  30 H :    0.204116
  31 H :    0.116143
  32 H :    0.125155
  33 H :    0.110322
  34 H :    0.112810
  35 H :    0.111327
  36 H :    0.099341
  37 H :    0.098841
  38 H :    0.116682
  39 H :    0.107900
  40 H :    0.115671
Sum of atomic charges:    0.0000000

LOEWDIN ATOMIC CHARGES
----------------------
   0 C :   -0.367283
   1 C :   -0.109893
   2 O :   -0.225785
   3 P :    0.566242
   4 S :   -0.301571
   5 O :   -0.245374
   6 C :   -0.114919
   7 C :   -0.370452
   8 S :    0.059096
   9 C :   -0.478493
  10 S :    0.093405
  11 P :    0.570357
  12 S :   -0.310280
  13 O :   -0.241508
  14 C :   -0.123587
  15 C :   -0.353237
  16 O :   -0.253764
  17 C :   -0.121449
  18 C :   -0.350462
  19 H :    0.116976
  20 H :    0.131230
  21 H :    0.129183
  22 H :    0.123001
  23 H :    0.108147
  24 H :    0.107510
  25 H :    0.121784
  26 H :    0.123284
  27 H :    0.129686
  28 H :    0.130943
  29 H :    0.137724
  30 H :    0.121854
  31 H :    0.112174
  32 H :    0.109658
  33 H :    0.123378
  34 H :    0.124564
  35 H :    0.130865
  36 H :    0.109792
  37 H :    0.104400
  38 H :    0.127030
  39 H :    0.128685
  40 H :    0.127089

  Mayer bond orders larger than 0.100000
B(  0-C ,  1-C ) :   1.1704 B(  0-C , 19-H ) :   0.9332 B(  0-C , 20-H ) :   0.9356
B(  0-C , 21-H ) :   0.9382 B(  1-C ,  2-O ) :   0.8989 B(  1-C , 22-H ) :   0.9349
B(  1-C , 23-H ) :   0.9194 B(  2-O ,  3-P ) :   1.1432 B(  3-P ,  4-S ) :   1.6527
B(  3-P ,  5-O ) :   1.0872 B(  3-P ,  8-S ) :   0.9353 B(  4-S ,  8-S ) :   0.1158
B(  5-O ,  6-C ) :   0.9118 B(  6-C ,  7-C ) :   1.1674 B(  6-C , 24-H ) :   0.9258
B(  6-C , 25-H ) :   0.9333 B(  7-C , 26-H ) :   0.9312 B(  7-C , 27-H ) :   0.9342
B(  7-C , 28-H ) :   0.9419 B(  8-S ,  9-C ) :   0.9887 B(  9-C , 10-S ) :   1.0100
B(  9-C , 29-H ) :   0.9113 B(  9-C , 30-H ) :   0.8464 B( 10-S , 11-P ) :   0.9641
B( 10-S , 12-S ) :   0.1162 B( 11-P , 12-S ) :   1.5945 B( 11-P , 13-O ) :   1.1233
B( 11-P , 16-O ) :   1.1139 B( 12-S , 30-H ) :   0.1025 B( 13-O , 14-C ) :   0.8972
B( 14-C , 15-C ) :   1.1526 B( 14-C , 31-H ) :   0.9281 B( 14-C , 32-H ) :   0.9058
B( 15-C , 33-H ) :   0.9481 B( 15-C , 34-H ) :   0.9500 B( 15-C , 35-H ) :   0.9421
B( 16-O , 17-C ) :   0.9102 B( 17-C , 18-C ) :   1.1617 B( 17-C , 36-H ) :   0.9294
B( 17-C , 37-H ) :   0.9085 B( 18-C , 38-H ) :   0.9507 B( 18-C , 39-H ) :   0.9424
B( 18-C , 40-H ) :   0.9513

Dispersion correction           -0.065873062
FINAL SINGLE POINT ENERGY     -2929.509404813946

DIPOLE MOMENT
-------------

Method             : SCF
Type of density    : Electron Density
Multiplicity       :   1
Irrep              :   0
Energy             : -2929.6274077074222077 Eh
Relativity type    :
Basis              : AO
                                X                 Y                 Z
Electronic contribution:      4.913982546      -3.827448122       5.430386066
Nuclear contribution   :     -4.432195521       3.389196123      -5.816741977
                        -----------------------------------------
Total Dipole Moment    :      0.481787025      -0.438251999      -0.386355911
                        -----------------------------------------
Magnitude (a.u.)       :      0.757267748
Magnitude (Debye)      :      1.924821648

Rotational constants in cm-1:             0.012163             0.005141             0.004709
Rotational constants in MHz :           364.645892           154.126952           141.177897

                             ****ORCA TERMINATED NORMALLY****
TOTAL RUN TIME: 0 days 0 hours 0 minutes 21 seconds 57 msec
