                         Program Version 6.0.0  -   RELEASE  -
|  1> ! pbe def2-sv(p) def2/J RI DEFGRID1 loosescf d4 GCP(DFT/SV(P)) printgap
|  2> %output
|  3>     printlevel normal
|  4> end
|  5> * xyz 0 1
|  6> C 4.7037653156 -2.2052724392 -0.0454561859
|  7> C 4.4830389351 -0.7565001013 0.3398574425
|  8> O 3.8076006612 -0.0566729242 -0.7403697972
|  9> P 2.3288722872 0.4675164942 -0.6410433089
| 10> S 1.7422123307 1.2636814332 -2.3252017571
| 11> O 2.4355004136 1.4375883547 0.6185583864
| 12> C 1.3482287743 2.265786616 1.0647581404
| 13> C 1.9007107504 3.238122784 2.0860802466
| 14> S 1.1907430354 -1.176901582 0.0947332763
| 15> C 0.039582113 -1.4294095045 -1.2975998974
| 16> S -1.5937983118 -1.9127649431 -0.7202299225
| 17> P -2.1122149312 -0.0705514944 0.2262041697
| 18> S -1.6265917022 1.5660152515 -0.7349007938
| 19> O -1.4109974791 -0.0637032955 1.6385332893
| 20> C -1.5849138877 -1.1147064632 2.6236351632
| 21> C -2.5675366406 -0.6787172141 3.6905753415
| 22> O -3.6346536252 -0.300469047 0.6102009976
| 23> C -4.6553508079 -0.7741699551 -0.2887934178
| 24> C -4.745869288 0.0462492474 -1.5579582203
| 25> H 5.2280256767 -2.2595531243 -0.9953764472
| 26> H 5.2998356435 -2.6888758516 0.7218064495
| 27> H 3.7526628265 -2.7237860716 -0.1367576889
| 28> H 5.4287392294 -0.2283231785 0.4687315963
| 29> H 3.8873392645 -0.6713384668 1.2511487643
| 30> H 0.9203031243 2.7845375016 0.2003797269
| 31> H 0.5735020079 1.6251883727 1.4983127729
| 32> H 2.6714842444 3.8539926954 1.6313772353
| 33> H 1.0957391418 3.8733551203 2.4405259876
| 34> H 2.329230268 2.6942566801 2.9228001077
| 35> H 0.4005767277 -2.2460732861 -1.9177299832
| 36> H -0.0215564905 -0.4964666162 -1.8667461831
| 37> H -1.9218858854 -2.023906747 2.1186359656
| 38> H -0.5865749727 -1.2754620998 3.0351623977
| 39> H -2.2269768615 0.2403113327 4.1593170077
| 40> H -3.5458806015 -0.503989873 3.2508467193
| 41> H -2.6444865177 -1.4581999785 4.441967032
| 42> H -4.4451821917 -1.8219695381 -0.5200358812
| 43> H -5.571428016 -0.6985552395 0.2996314931
| 44> H -3.82709567 -0.0502386361 -2.135373867
| 45> H -5.5783857296 -0.3061407718 -2.1582972835
| 46> H -4.8909890597 1.0979301412 -1.3216971938
| 47> *
| 48>
| 49>                          ****END OF INPUT****

CARTESIAN COORDINATES (ANGSTROEM)
---------------------------------
  C      4.703765   -2.205272   -0.045456
  C      4.483039   -0.756500    0.339857
  O      3.807601   -0.056673   -0.740370
  P      2.328872    0.467516   -0.641043
  S      1.742212    1.263681   -2.325202
  O      2.435500    1.437588    0.618558
  C      1.348229    2.265787    1.064758
  C      1.900711    3.238123    2.086080
  S      1.190743   -1.176902    0.094733
  C      0.039582   -1.429410   -1.297600
  S     -1.593798   -1.912765   -0.720230
  P     -2.112215   -0.070551    0.226204
  S     -1.626592    1.566015   -0.734901
  O     -1.410997   -0.063703    1.638533
  C     -1.584914   -1.114706    2.623635
  C     -2.567537   -0.678717    3.690575
  O     -3.634654   -0.300469    0.610201
  C     -4.655351   -0.774170   -0.288793
  C     -4.745869    0.046249   -1.557958
  H      5.228026   -2.259553   -0.995376
  H      5.299836   -2.688876    0.721806
  H      3.752663   -2.723786   -0.136758
  H      5.428739   -0.228323    0.468732
  H      3.887339   -0.671338    1.251149
  H      0.920303    2.784538    0.200380
  H      0.573502    1.625188    1.498313
  H      2.671484    3.853993    1.631377
  H      1.095739    3.873355    2.440526
  H      2.329230    2.694257    2.922800
  H      0.400577   -2.246073   -1.917730
  H     -0.021556   -0.496467   -1.866746
  H     -1.921886   -2.023907    2.118636
  H     -0.586575   -1.275462    3.035162
  H     -2.226977    0.240311    4.159317
  H     -3.545881   -0.503990    3.250847
  H     -2.644487   -1.458200    4.441967
  H     -4.445182   -1.821970   -0.520036
  H     -5.571428   -0.698555    0.299631
  H     -3.827096   -0.050239   -2.135374
  H     -5.578386   -0.306141   -2.158297
  H     -4.890989    1.097930   -1.321697

 Total Charge           Charge          ....    0
 Multiplicity           Mult            ....    1
 Number of Electrons    NEL             ....  202
 Basis Dimension        Dim             ....  334

ORBITAL ENERGIES
----------------

  NO   OCC          E(Eh)            E(eV)
   0   2.0000     -88.049943     -2395.9608
   1   2.0000     -88.039234     -2395.6694
   2   2.0000     -87.981301     -2394.0929
   3   2.0000     -87.977926     -2394.0011
   4   2.0000     -76.428329     -2079.7206
   5   2.0000     -76.418869     -2079.4631
   6   2.0000     -18.799579      -511.5625
   7   2.0000     -18.793566      -511.3989
   8   2.0000     -18.785795      -511.1875
   9   2.0000     -18.783183      -511.1164
  10   2.0000      -9.963815      -271.1292
  11   2.0000      -9.957358      -270.9535
  12   2.0000      -9.955696      -270.9083
  13   2.0000      -9.954031      -270.8630
  14   2.0000      -9.935475      -270.3580
  15   2.0000      -9.889659      -269.1113
  16   2.0000      -9.885778      -269.0057
  17   2.0000      -9.885294      -268.9925
  18   2.0000      -9.877956      -268.7929
  19   2.0000      -7.694789      -209.3859
  20   2.0000      -7.683939      -209.0906
  21   2.0000      -7.626261      -207.5211
  22   2.0000      -7.623235      -207.4388
  23   2.0000      -6.425425      -174.8447
  24   2.0000      -6.416544      -174.6030
  25   2.0000      -5.722532      -155.7180
  26   2.0000      -5.719070      -155.6238
  27   2.0000      -5.712201      -155.4369
  28   2.0000      -5.711787      -155.4256
  29   2.0000      -5.708468      -155.3353
  30   2.0000      -5.700963      -155.1311
  31   2.0000      -5.655409      -153.8915
  32   2.0000      -5.652280      -153.8064
  33   2.0000      -5.646677      -153.6539
  34   2.0000      -5.646386      -153.6460
  35   2.0000      -5.643776      -153.5750
  36   2.0000      -5.643281      -153.5615
  37   2.0000      -4.648305      -126.4868
  38   2.0000      -4.647529      -126.4657
  39   2.0000      -4.645321      -126.4056
  40   2.0000      -4.639192      -126.2388
  41   2.0000      -4.638321      -126.2151
  42   2.0000      -4.636911      -126.1768
  43   2.0000      -0.992934       -27.0191
  44   2.0000      -0.981138       -26.6981
  45   2.0000      -0.949284       -25.8313
  46   2.0000      -0.936320       -25.4786
  47   2.0000      -0.763186       -20.7674
  48   2.0000      -0.721251       -19.6262
  49   2.0000      -0.712047       -19.3758
  50   2.0000      -0.694903       -18.9093
  51   2.0000      -0.684848       -18.6357
  52   2.0000      -0.675113       -18.3708
  53   2.0000      -0.649465       -17.6729
  54   2.0000      -0.631923       -17.1955
  55   2.0000      -0.592373       -16.1193
  56   2.0000      -0.581874       -15.8336
  57   2.0000      -0.577758       -15.7216
  58   2.0000      -0.569468       -15.4960
  59   2.0000      -0.562162       -15.2972
  60   2.0000      -0.509415       -13.8619
  61   2.0000      -0.498351       -13.5608
  62   2.0000      -0.478510       -13.0209
  63   2.0000      -0.473137       -12.8747
  64   2.0000      -0.456137       -12.4121
  65   2.0000      -0.449078       -12.2200
  66   2.0000      -0.441704       -12.0194
  67   2.0000      -0.435416       -11.8483
  68   2.0000      -0.426775       -11.6131
  69   2.0000      -0.420685       -11.4474
  70   2.0000      -0.414336       -11.2747
  71   2.0000      -0.399950       -10.8832
  72   2.0000      -0.390349       -10.6219
  73   2.0000      -0.387294       -10.5388
  74   2.0000      -0.376743       -10.2517
  75   2.0000      -0.362508        -9.8644
  76   2.0000      -0.359660        -9.7869
  77   2.0000      -0.359318        -9.7775
  78   2.0000      -0.351886        -9.5753
  79   2.0000      -0.349803        -9.5186
  80   2.0000      -0.348045        -9.4708
  81   2.0000      -0.344776        -9.3818
  82   2.0000      -0.343010        -9.3338
  83   2.0000      -0.340418        -9.2632
  84   2.0000      -0.331315        -9.0155
  85   2.0000      -0.323023        -8.7899
  86   2.0000      -0.307062        -8.3556
  87   2.0000      -0.300964        -8.1897
  88   2.0000      -0.294594        -8.0163
  89   2.0000      -0.292686        -7.9644
  90   2.0000      -0.287950        -7.8355
  91   2.0000      -0.282717        -7.6931
  92   2.0000      -0.270409        -7.3582
  93   2.0000      -0.264320        -7.1925
  94   2.0000      -0.252012        -6.8576
  95   2.0000      -0.236651        -6.4396
  96   2.0000      -0.217698        -5.9239
  97   2.0000      -0.209347        -5.6966
  98   2.0000      -0.199374        -5.4252
  99   2.0000      -0.193303        -5.2600
 100   2.0000      -0.185011        -5.0344
 101   0.0000      -0.043171        -1.1747
 102   0.0000      -0.031821        -0.8659
 103   0.0000      -0.014912        -0.4058
 104   0.0000       0.009403         0.2559
 105   0.0000       0.018179         0.4947

MULLIKEN ATOMIC CHARGES
-----------------------
   0 C :   -0.283519
   1 C :   -0.014055
   2 O :   -0.357089
   3 P :    0.602814
   4 S :   -0.291351
   5 O :   -0.383776
   6 C :   -0.037363
   7 C :   -0.274407
   8 S :   -0.141288
   9 C :   -0.339300
  10 S :   -0.120355
  11 P :    0.585815
  12 S :   -0.289220
  13 O :   -0.344411
  14 C :   -0.007875
  15 C :   -0.285058
  16 O :   -0.377637
  17 C :   -0.014217
  18 C :   -0.310553
  19 H :    0.121002
  20 H :    0.107344
  21 H :    0.116822
  22 H :    0.113021
  23 H :    0.104245
  24 H :    0.119873
  25 H :    0.121053
  26 H :    0.114802
  27 H :    0.112188
  28 H :    0.104351
  29 H :    0.181637
  30 H :    0.215585
  31 H :    0.097283
  32 H :    0.107750
  33 H :    0.118590
  34 H :    0.120067
  35 H :    0.109461
  36 H :    0.114796
  37 H :    0.110504
  38 H :    0.130730
  39 H :    0.112788
  40 H :    0.128953
Sum of atomic charges:   -0.0000000

LOEWDIN ATOMIC CHARGES
----------------------
   0 C :   -0.359315
   1 C :   -0.112036
   2 O :   -0.239492
   3 P :    0.563167
   4 S :   -0.287293
   5 O :   -0.250509
   6 C :   -0.127520
   7 C :   -0.351038
   8 S :    0.049178
   9 C :   -0.477706
  10 S :    0.066373
  11 P :    0.562564
  12 S :   -0.284399
  13 O :   -0.230616
  14 C :   -0.117748
  15 C :   -0.357817
  16 O :   -0.244936
  17 C :   -0.115040
  18 C :   -0.369244
  19 H :    0.129778
  20 H :    0.128387
  21 H :    0.120215
  22 H :    0.122552
  23 H :    0.106251
  24 H :    0.110200
  25 H :    0.108238
  26 H :    0.125898
  27 H :    0.130991
  28 H :    0.121125
  29 H :    0.134924
  30 H :    0.124967
  31 H :    0.102384
  32 H :    0.117751
  33 H :    0.128149
  34 H :    0.126453
  35 H :    0.129206
  36 H :    0.108411
  37 H :    0.121707
  38 H :    0.123229
  39 H :    0.130939
  40 H :    0.131672

  Mayer bond orders larger than 0.100000
B(  0-C ,  1-C ) :   1.1625 B(  0-C , 19-H ) :   0.9461 B(  0-C , 20-H ) :   0.9402
B(  0-C , 21-H ) :   0.9401 B(  1-C ,  2-O ) :   0.8903 B(  1-C , 22-H ) :   0.9345
B(  1-C , 23-H ) :   0.9185 B(  2-O ,  3-P ) :   1.1400 B(  3-P ,  4-S ) :   1.6730
B(  3-P ,  5-O ) :   1.0968 B(  3-P ,  8-S ) :   0.9284 B(  4-S ,  8-S ) :   0.1180
B(  5-O ,  6-C ) :   0.8965 B(  6-C ,  7-C ) :   1.1530 B(  6-C , 24-H ) :   0.9141
B(  6-C , 25-H ) :   0.9173 B(  7-C , 26-H ) :   0.9506 B(  7-C , 27-H ) :   0.9432
B(  7-C , 28-H ) :   0.9510 B(  8-S ,  9-C ) :   0.9939 B(  9-C , 10-S ) :   1.0089
B(  9-C , 29-H ) :   0.9101 B(  9-C , 30-H ) :   0.8393 B( 10-S , 11-P ) :   0.9308
B( 10-S , 12-S ) :   0.1087 B( 11-P , 12-S ) :   1.6733 B( 11-P , 13-O ) :   1.1179
B( 11-P , 16-O ) :   1.0801 B( 13-O , 14-C ) :   0.8875 B( 14-C , 15-C ) :   1.1649
B( 14-C , 31-H ) :   0.9121 B( 14-C , 32-H ) :   0.9330 B( 15-C , 33-H ) :   0.9477
B( 15-C , 34-H ) :   0.9433 B( 15-C , 35-H ) :   0.9406 B( 16-O , 17-C ) :   0.9106
B( 17-C , 18-C ) :   1.1670 B( 17-C , 36-H ) :   0.9265 B( 17-C , 37-H ) :   0.9329
B( 18-C , 38-H ) :   0.9315 B( 18-C , 39-H ) :   0.9344 B( 18-C , 40-H ) :   0.9426

Dispersion correction           -0.064636002
FINAL SINGLE POINT ENERGY     -2929.516977288456

DIPOLE MOMENT
-------------

Method             : SCF
Type of density    : Electron Density
Multiplicity       :   1
Irrep              :   0
Energy             : -2929.6369703642185414 Eh
Relativity type    :
Basis              : AO
                                X                 Y                 Z
Electronic contribution:      2.962416114       1.947871508     -15.199983773
Nuclear contribution   :     -3.613438300      -3.412413450      16.822370136
                        -----------------------------------------
Total Dipole Moment    :     -0.651022185      -1.464541941       1.622386363
                        -----------------------------------------
Magnitude (a.u.)       :      2.280537326
Magnitude (Debye)      :      5.796665213

Rotational constants in cm-1:             0.011659             0.004934             0.004885
Rotational constants in MHz :           349.525995           147.930952           146.452908

                             ****ORCA TERMINATED NORMALLY****
TOTAL RUN TIME: 0 days 0 hours 0 minutes 20 seconds 510 msec
