                         Program Version 6.0.0  -   RELEASE  -
|  1> ! pbe def2-sv(p) def2/J RI DEFGRID1 loosescf d4 GCP(DFT/SV(P)) printgap
|  2> %output
|  3>     printlevel normal
|  4> end
|  5> * xyz 0 1
|  6> C 1.5135928982 0.0296389396 0.5150182691
|  7> C 0.7217960323 0.0928760848 -0.5496675596
|  8> C -0.7218122767 -0.0925899443 -0.5497089457
|  9> C -1.5135828405 -0.029859271 0.515005537
| 10> H 2.57657324 0.1771330698 0.4363718106
| 11> H 1.132433743 -0.1815437129 1.4993139831
| 12> H 1.1589560044 0.2797486206 -1.5224691808
| 13> H -1.1589323444 -0.279558887 -1.52250948
| 14> H -2.5765334412 -0.1775775995 0.4363330145
| 15> H -1.1324234806 0.1810143201 1.4993744557
| 16> *
| 17>
| 18>                          ****END OF INPUT****

CARTESIAN COORDINATES (ANGSTROEM)
---------------------------------
  C      1.513593    0.029639    0.515018
  C      0.721796    0.092876   -0.549668
  C     -0.721812   -0.092590   -0.549709
  C     -1.513583   -0.029859    0.515006
  H      2.576573    0.177133    0.436372
  H      1.132434   -0.181544    1.499314
  H      1.158956    0.279749   -1.522469
  H     -1.158932   -0.279559   -1.522509
  H     -2.576533   -0.177578    0.436333
  H     -1.132423    0.181014    1.499374

 Total Charge           Charge          ....    0
 Multiplicity           Mult            ....    1
 Number of Electrons    NEL             ....   30
 Basis Dimension        Dim             ....   68

ORBITAL ENERGIES
----------------

  NO   OCC          E(Eh)            E(eV)
   0   2.0000      -9.896934      -269.3093
   1   2.0000      -9.896917      -269.3088
   2   2.0000      -9.883743      -268.9503
   3   2.0000      -9.883703      -268.9492
   4   2.0000      -0.726574       -19.7711
   5   2.0000      -0.652097       -17.7445
   6   2.0000      -0.557196       -15.1621
   7   2.0000      -0.470734       -12.8093
   8   2.0000      -0.444244       -12.0885
   9   2.0000      -0.393789       -10.7156
  10   2.0000      -0.373290       -10.1577
  11   2.0000      -0.321121        -8.7382
  12   2.0000      -0.307225        -8.3600
  13   2.0000      -0.288925        -7.8621
  14   2.0000      -0.208380        -5.6703
  15   0.0000      -0.065649        -1.7864
  16   0.0000       0.043628         1.1872
  17   0.0000       0.053585         1.4581
  18   0.0000       0.066670         1.8142
  19   0.0000       0.090367         2.4590

MULLIKEN ATOMIC CHARGES
-----------------------
   0 C :   -0.195573
   1 C :   -0.076512
   2 C :   -0.076521
   3 C :   -0.195574
   4 H :    0.102859
   5 H :    0.100560
   6 H :    0.068670
   7 H :    0.068675
   8 H :    0.102856
   9 H :    0.100560
Sum of atomic charges:   -0.0000000

LOEWDIN ATOMIC CHARGES
----------------------
   0 C :   -0.231393
   1 C :   -0.138005
   2 C :   -0.138010
   3 C :   -0.231394
   4 H :    0.124801
   5 H :    0.121332
   6 H :    0.123267
   7 H :    0.123269
   8 H :    0.124800
   9 H :    0.121331

  Mayer bond orders larger than 0.100000
B(  0-C ,  1-C ) :   1.9908 B(  0-C ,  3-C ) :   0.1246 B(  0-C ,  4-H ) :   0.9224
B(  0-C ,  5-H ) :   0.9136 B(  1-C ,  2-C ) :   1.1370 B(  1-C ,  6-H ) :   0.9320
B(  2-C ,  3-C ) :   1.9908 B(  2-C ,  7-H ) :   0.9320 B(  3-C ,  8-H ) :   0.9224
B(  3-C ,  9-H ) :   0.9136

Dispersion correction           -0.006016987
FINAL SINGLE POINT ENERGY      -155.605252046462

DIPOLE MOMENT
-------------

Method             : SCF
Type of density    : Electron Density
Multiplicity       :   1
Irrep              :   0
Energy             :  -155.6342703633842746 Eh
Relativity type    :
Basis              : AO
                                X                 Y                 Z
Electronic contribution:     -0.000043775       0.000588668      -0.811592897
Nuclear contribution   :      0.000069163      -0.000735704       0.775319501
                        -----------------------------------------
Total Dipole Moment    :      0.000025389      -0.000147037      -0.036273396
                        -----------------------------------------
Magnitude (a.u.)       :      0.036273703
Magnitude (Debye)      :      0.092200425

Rotational constants in cm-1:             0.715477             0.194346             0.153787
Rotational constants in MHz :         21449.455361          5826.345796          4610.423361

                             ****ORCA TERMINATED NORMALLY****
TOTAL RUN TIME: 0 days 0 hours 0 minutes 5 seconds 894 msec
