                         Program Version 6.0.0  -   RELEASE  -
|  1> ! pbe def2-sv(p) def2/J RI DEFGRID1 loosescf d4 GCP(DFT/SV(P)) printgap
|  2> %output
|  3>     printlevel normal
|  4> end
|  5> * xyz 0 1
|  6> C 4.0751391867 -2.5897700816 -1.5769834293
|  7> C 4.6334119846 -1.1834680888 -1.6491566516
|  8> O 4.066629449 -0.3130286125 -0.6521039701
|  9> P 2.5291967378 0.0939042948 -0.6218670827
| 10> S 1.7046785703 0.4746119957 -2.3512591991
| 11> O 2.5496910704 1.3584333667 0.3165194363
| 12> C 3.1430494379 1.3500454803 1.6411387981
| 13> C 2.2740382747 2.1846586188 2.5584632727
| 14> S 1.613646692 -1.4601609909 0.5207377124
| 15> C -0.0739245899 -1.0883805452 0.0308810527
| 16> S -0.6429962893 0.4582601818 0.8362799988
| 17> P -2.6962047205 0.2327854509 0.3527614992
| 18> S -3.8707012442 1.6815051881 0.9477524935
| 19> O -3.0460003324 -1.2153402548 0.9029101156
| 20> C -3.208665962 -1.4205510361 2.3233826658
| 21> C -3.799195752 -2.8007549851 2.5266007705
| 22> O -2.7350617966 -0.1484778679 -1.1854756831
| 23> C -3.023943735 0.8409113981 -2.1895932999
| 24> C -1.9092406753 1.8590247017 -2.3229976577
| 25> H 3.0276540526 -2.5921579941 -1.8739977858
| 26> H 4.6325165327 -3.2290941376 -2.2541049532
| 27> H 4.1548135595 -2.9783151664 -0.5648550842
| 28> H 4.4471863006 -0.7449307362 -2.6342407454
| 29> H 5.7019501391 -1.1622550963 -1.4302643046
| 30> H 3.2155993352 0.3162000502 1.9909332514
| 31> H 4.1452804218 1.7701939999 1.5413147237
| 32> H 1.277733425 1.7538472462 2.6270041799
| 33> H 2.7232449266 2.2146543208 3.5457726246
| 34> H 2.1861643453 3.1952576563 2.1703448278
| 35> H -0.7006067763 -1.9168501849 0.3511600825
| 36> H -0.1100836366 -0.9550613996 -1.0516787809
| 37> H -2.2298959375 -1.3279591358 2.8049583809
| 38> H -3.8690846242 -0.6392544668 2.7140949723
| 39> H -3.1359507203 -3.5565620068 2.1161441916
| 40> H -3.9322885642 -2.9771569286 3.5888196016
| 41> H -4.7611994601 -2.8694769058 2.0271818577
| 42> H -3.1506741979 0.2596542699 -3.1037115423
| 43> H -3.9636111109 1.3376172798 -1.928064458
| 44> H -1.8028367284 2.416486647 -1.3917900079
| 45> H -0.9621535565 1.3742351567 -2.5524926109
| 46> H -2.1496048246 2.5543858925 -3.1206519351
| 47> *
| 48>
| 49>                          ****END OF INPUT****

CARTESIAN COORDINATES (ANGSTROEM)
---------------------------------
  C      4.075139   -2.589770   -1.576983
  C      4.633412   -1.183468   -1.649157
  O      4.066629   -0.313029   -0.652104
  P      2.529197    0.093904   -0.621867
  S      1.704679    0.474612   -2.351259
  O      2.549691    1.358433    0.316519
  C      3.143049    1.350045    1.641139
  C      2.274038    2.184659    2.558463
  S      1.613647   -1.460161    0.520738
  C     -0.073925   -1.088381    0.030881
  S     -0.642996    0.458260    0.836280
  P     -2.696205    0.232785    0.352761
  S     -3.870701    1.681505    0.947752
  O     -3.046000   -1.215340    0.902910
  C     -3.208666   -1.420551    2.323383
  C     -3.799196   -2.800755    2.526601
  O     -2.735062   -0.148478   -1.185476
  C     -3.023944    0.840911   -2.189593
  C     -1.909241    1.859025   -2.322998
  H      3.027654   -2.592158   -1.873998
  H      4.632517   -3.229094   -2.254105
  H      4.154814   -2.978315   -0.564855
  H      4.447186   -0.744931   -2.634241
  H      5.701950   -1.162255   -1.430264
  H      3.215599    0.316200    1.990933
  H      4.145280    1.770194    1.541315
  H      1.277733    1.753847    2.627004
  H      2.723245    2.214654    3.545773
  H      2.186164    3.195258    2.170345
  H     -0.700607   -1.916850    0.351160
  H     -0.110084   -0.955061   -1.051679
  H     -2.229896   -1.327959    2.804958
  H     -3.869085   -0.639254    2.714095
  H     -3.135951   -3.556562    2.116144
  H     -3.932289   -2.977157    3.588820
  H     -4.761199   -2.869477    2.027182
  H     -3.150674    0.259654   -3.103712
  H     -3.963611    1.337617   -1.928064
  H     -1.802837    2.416487   -1.391790
  H     -0.962154    1.374235   -2.552493
  H     -2.149605    2.554386   -3.120652

 Total Charge           Charge          ....    0
 Multiplicity           Mult            ....    1
 Number of Electrons    NEL             ....  202
 Basis Dimension        Dim             ....  334

ORBITAL ENERGIES
----------------

  NO   OCC          E(Eh)            E(eV)
   0   2.0000     -88.053846     -2396.0670
   1   2.0000     -88.040995     -2395.7173
   2   2.0000     -87.993283     -2394.4190
   3   2.0000     -87.985542     -2394.2083
   4   2.0000     -76.432358     -2079.8302
   5   2.0000     -76.423631     -2079.5927
   6   2.0000     -18.800690      -511.5928
   7   2.0000     -18.795994      -511.4650
   8   2.0000     -18.790397      -511.3127
   9   2.0000     -18.788506      -511.2612
  10   2.0000      -9.960055      -271.0269
  11   2.0000      -9.958571      -270.9865
  12   2.0000      -9.955978      -270.9159
  13   2.0000      -9.953231      -270.8412
  14   2.0000      -9.945997      -270.6443
  15   2.0000      -9.890533      -269.1351
  16   2.0000      -9.889423      -269.1049
  17   2.0000      -9.886424      -269.0233
  18   2.0000      -9.870612      -268.5930
  19   2.0000      -7.698582      -209.4891
  20   2.0000      -7.685631      -209.1366
  21   2.0000      -7.638225      -207.8467
  22   2.0000      -7.630727      -207.6426
  23   2.0000      -6.430003      -174.9693
  24   2.0000      -6.421266      -174.7315
  25   2.0000      -5.726243      -155.8190
  26   2.0000      -5.723161      -155.7351
  27   2.0000      -5.715768      -155.5339
  28   2.0000      -5.713755      -155.4792
  29   2.0000      -5.710056      -155.3785
  30   2.0000      -5.702583      -155.1752
  31   2.0000      -5.667103      -154.2097
  32   2.0000      -5.659691      -154.0080
  33   2.0000      -5.658762      -153.9828
  34   2.0000      -5.658481      -153.9751
  35   2.0000      -5.651255      -153.7785
  36   2.0000      -5.650959      -153.7704
  37   2.0000      -4.652820      -126.6097
  38   2.0000      -4.651670      -126.5784
  39   2.0000      -4.650321      -126.5417
  40   2.0000      -4.643551      -126.3575
  41   2.0000      -4.643526      -126.3568
  42   2.0000      -4.641506      -126.3018
  43   2.0000      -0.994247       -27.0548
  44   2.0000      -0.987374       -26.8678
  45   2.0000      -0.950524       -25.8651
  46   2.0000      -0.944082       -25.6898
  47   2.0000      -0.766942       -20.8696
  48   2.0000      -0.723970       -19.7002
  49   2.0000      -0.713423       -19.4132
  50   2.0000      -0.694302       -18.8929
  51   2.0000      -0.681935       -18.5564
  52   2.0000      -0.676648       -18.4125
  53   2.0000      -0.655098       -17.8261
  54   2.0000      -0.640025       -17.4160
  55   2.0000      -0.599957       -16.3257
  56   2.0000      -0.591513       -16.0959
  57   2.0000      -0.575816       -15.6687
  58   2.0000      -0.564733       -15.3672
  59   2.0000      -0.559007       -15.2113
  60   2.0000      -0.509831       -13.8732
  61   2.0000      -0.504142       -13.7184
  62   2.0000      -0.479275       -13.0417
  63   2.0000      -0.465088       -12.6557
  64   2.0000      -0.457626       -12.4526
  65   2.0000      -0.449891       -12.2421
  66   2.0000      -0.444471       -12.0947
  67   2.0000      -0.439463       -11.9584
  68   2.0000      -0.435217       -11.8429
  69   2.0000      -0.425428       -11.5765
  70   2.0000      -0.415926       -11.3179
  71   2.0000      -0.395138       -10.7523
  72   2.0000      -0.391153       -10.6438
  73   2.0000      -0.386959       -10.5297
  74   2.0000      -0.381471       -10.3804
  75   2.0000      -0.371070       -10.0973
  76   2.0000      -0.370781       -10.0895
  77   2.0000      -0.358408        -9.7528
  78   2.0000      -0.357267        -9.7217
  79   2.0000      -0.355328        -9.6690
  80   2.0000      -0.346474        -9.4280
  81   2.0000      -0.344858        -9.3841
  82   2.0000      -0.341436        -9.2910
  83   2.0000      -0.335887        -9.1399
  84   2.0000      -0.330169        -8.9844
  85   2.0000      -0.319914        -8.7053
  86   2.0000      -0.315486        -8.5848
  87   2.0000      -0.305022        -8.3001
  88   2.0000      -0.303678        -8.2635
  89   2.0000      -0.299953        -8.1621
  90   2.0000      -0.286814        -7.8046
  91   2.0000      -0.277158        -7.5419
  92   2.0000      -0.269849        -7.3430
  93   2.0000      -0.263811        -7.1787
  94   2.0000      -0.256930        -6.9914
  95   2.0000      -0.236223        -6.4279
  96   2.0000      -0.224467        -6.1080
  97   2.0000      -0.212405        -5.7798
  98   2.0000      -0.209931        -5.7125
  99   2.0000      -0.203897        -5.5483
 100   2.0000      -0.201463        -5.4821
 101   0.0000      -0.044016        -1.1977
 102   0.0000      -0.028483        -0.7751
 103   0.0000      -0.018050        -0.4912
 104   0.0000       0.000453         0.0123
 105   0.0000       0.009818         0.2672

MULLIKEN ATOMIC CHARGES
-----------------------
   0 C :   -0.321239
   1 C :    0.000444
   2 O :   -0.382598
   3 P :    0.597495
   4 S :   -0.298474
   5 O :   -0.350152
   6 C :   -0.012479
   7 C :   -0.288023
   8 S :   -0.095132
   9 C :   -0.361741
  10 S :   -0.083827
  11 P :    0.582988
  12 S :   -0.314020
  13 O :   -0.372273
  14 C :   -0.014153
  15 C :   -0.276330
  16 O :   -0.369671
  17 C :   -0.003170
  18 C :   -0.330633
  19 H :    0.129791
  20 H :    0.116933
  21 H :    0.118400
  22 H :    0.114947
  23 H :    0.107396
  24 H :    0.101665
  25 H :    0.110941
  26 H :    0.131202
  27 H :    0.109091
  28 H :    0.123599
  29 H :    0.187025
  30 H :    0.196564
  31 H :    0.097037
  32 H :    0.109568
  33 H :    0.113214
  34 H :    0.112466
  35 H :    0.122657
  36 H :    0.105246
  37 H :    0.111458
  38 H :    0.125023
  39 H :    0.141001
  40 H :    0.107766
Sum of atomic charges:    0.0000000

LOEWDIN ATOMIC CHARGES
----------------------
   0 C :   -0.371435
   1 C :   -0.114525
   2 O :   -0.249169
   3 P :    0.570756
   4 S :   -0.289431
   5 O :   -0.233578
   6 C :   -0.114057
   7 C :   -0.354371
   8 S :    0.086256
   9 C :   -0.481685
  10 S :    0.072954
  11 P :    0.565841
  12 S :   -0.318699
  13 O :   -0.244767
  14 C :   -0.122719
  15 C :   -0.349603
  16 O :   -0.237072
  17 C :   -0.117851
  18 C :   -0.373338
  19 H :    0.122105
  20 H :    0.133079
  21 H :    0.123356
  22 H :    0.114645
  23 H :    0.120098
  24 H :    0.102466
  25 H :    0.118306
  26 H :    0.123790
  27 H :    0.129618
  28 H :    0.131400
  29 H :    0.131558
  30 H :    0.122379
  31 H :    0.105006
  32 H :    0.110786
  33 H :    0.124785
  34 H :    0.131107
  35 H :    0.130327
  36 H :    0.119015
  37 H :    0.110247
  38 H :    0.121715
  39 H :    0.120931
  40 H :    0.129774

  Mayer bond orders larger than 0.100000
B(  0-C ,  1-C ) :   1.1662 B(  0-C , 19-H ) :   0.9353 B(  0-C , 20-H ) :   0.9368
B(  0-C , 21-H ) :   0.9433 B(  1-C ,  2-O ) :   0.9047 B(  1-C , 22-H ) :   0.9201
B(  1-C , 23-H ) :   0.9344 B(  2-O ,  3-P ) :   1.0938 B(  3-P ,  4-S ) :   1.6362
B(  3-P ,  5-O ) :   1.1490 B(  3-P ,  8-S ) :   0.9326 B(  4-S ,  8-S ) :   0.1103
B(  5-O ,  6-C ) :   0.8840 B(  6-C ,  7-C ) :   1.1661 B(  6-C , 24-H ) :   0.9113
B(  6-C , 25-H ) :   0.9322 B(  7-C , 26-H ) :   0.9394 B(  7-C , 27-H ) :   0.9397
B(  7-C , 28-H ) :   0.9481 B(  8-S ,  9-C ) :   1.0162 B(  9-C , 10-S ) :   0.9541
B(  9-C , 29-H ) :   0.8932 B(  9-C , 30-H ) :   0.8646 B( 10-S , 11-P ) :   0.9781
B( 11-P , 12-S ) :   1.6547 B( 11-P , 13-O ) :   1.0890 B( 11-P , 16-O ) :   1.1054
B( 13-O , 14-C ) :   0.9022 B( 14-C , 15-C ) :   1.1616 B( 14-C , 31-H ) :   0.9223
B( 14-C , 32-H ) :   0.9125 B( 15-C , 33-H ) :   0.9525 B( 15-C , 34-H ) :   0.9420
B( 15-C , 35-H ) :   0.9500 B( 16-O , 17-C ) :   0.9002 B( 17-C , 18-C ) :   1.1624
B( 17-C , 36-H ) :   0.9335 B( 17-C , 37-H ) :   0.9180 B( 18-C , 38-H ) :   0.9351
B( 18-C , 39-H ) :   0.9277 B( 18-C , 40-H ) :   0.9370

Dispersion correction           -0.062650699
FINAL SINGLE POINT ENERGY     -2929.521537942006

DIPOLE MOMENT
-------------

Method             : SCF
Type of density    : Electron Density
Multiplicity       :   1
Irrep              :   0
Energy             : -2929.6434980244034705 Eh
Relativity type    :
Basis              : AO
                                X                 Y                 Z
Electronic contribution:     -3.354307203       6.362412519      -3.062529367
Nuclear contribution   :      4.647026106      -7.606994682       3.583671889
                        -----------------------------------------
Total Dipole Moment    :      1.292718903      -1.244582164       0.521142522
                        -----------------------------------------
Magnitude (a.u.)       :      1.868608159
Magnitude (Debye)      :      4.749624482

Rotational constants in cm-1:             0.011694             0.004422             0.004249
Rotational constants in MHz :           350.586612           132.575781           127.374534

                             ****ORCA TERMINATED NORMALLY****
TOTAL RUN TIME: 0 days 0 hours 0 minutes 19 seconds 308 msec
