                         Program Version 6.0.0  -   RELEASE  -
|  1> ! pbe def2-sv(p) def2/J RI DEFGRID1 loosescf d4 GCP(DFT/SV(P)) printgap
|  2> %output
|  3>     printlevel normal
|  4> end
|  5> * xyz 0 1
|  6> C 4.521943357 1.2319446954 -1.8262715135
|  7> C 4.9604784709 0.5218602189 -0.5618207774
|  8> O 3.9362294524 -0.3389759807 -0.032781233
|  9> P 2.5755408938 0.2250327479 0.5624133364
| 10> S 2.755436062 1.8768089831 1.5930198262
| 11> O 2.0703206632 -0.9536345852 1.4801838645
| 12> C 1.5775776714 -2.2520541814 1.0764519757
| 13> C 2.5003605492 -2.9726008394 0.1193215944
| 14> S 1.2528526353 0.310078667 -1.1112210478
| 15> C 0.1360490335 1.5580046401 -0.4298939405
| 16> S -0.8897831861 0.9511808383 0.9420189114
| 17> P -2.2111044417 -0.2948057004 -0.1532074959
| 18> S -1.5979002099 -1.9862565781 -0.9106435817
| 19> O -2.7323011804 0.7814495492 -1.2160029536
| 20> C -3.2879869246 0.3745302629 -2.4829834387
| 21> C -4.6751938364 -0.2093369699 -2.3121139887
| 22> O -3.373520306 -0.557134314 0.8902221562
| 23> C -4.1116866156 0.5127023432 1.5331653863
| 24> C -5.5216182513 0.0202267436 1.7881232438
| 25> H 3.7392239777 1.9528240444 -1.5955381446
| 26> H 5.369753813 1.7588298232 -2.2521463013
| 27> H 4.1399678755 0.5168584654 -2.5505106967
| 28> H 5.2337627491 1.2473988865 0.210722698
| 29> H 5.7954383011 -0.1548592289 -0.7484255322
| 30> H 1.4798329906 -2.785052741 2.0234406692
| 31> H 0.5869866875 -2.123873795 0.6294152223
| 32> H 3.4999170499 -3.0468458197 0.5394834221
| 33> H 2.1051294226 -3.9676806757 -0.0611819724
| 34> H 2.5499492527 -2.4397430543 -0.8283431726
| 35> H -0.5011414259 1.900693204 -1.2401198501
| 36> H 0.7252801224 2.374439252 -0.0093721214
| 37> H -3.3018034117 1.2903650698 -3.0754063539
| 38> H -2.615023716 -0.3575894175 -2.9399985491
| 39> H -4.6208814899 -1.1071680124 -1.696577898
| 40> H -5.3344843427 0.5113676204 -1.8349100935
| 41> H -5.07718533 -0.4738085952 -3.2850481315
| 42> H -3.5956331276 0.7504233897 2.4660837548
| 43> H -4.1029485242 1.3909595957 0.8827966084
| 44> H -6.0183551216 -0.2105571275 0.8497558549
| 45> H -5.4945947763 -0.8784365937 2.3976041515
| 46> H -6.0786899351 0.7917912095 2.3097954056
| 47> *
| 48>
| 49>                          ****END OF INPUT****

CARTESIAN COORDINATES (ANGSTROEM)
---------------------------------
  C      4.521943    1.231945   -1.826272
  C      4.960478    0.521860   -0.561821
  O      3.936229   -0.338976   -0.032781
  P      2.575541    0.225033    0.562413
  S      2.755436    1.876809    1.593020
  O      2.070321   -0.953635    1.480184
  C      1.577578   -2.252054    1.076452
  C      2.500361   -2.972601    0.119322
  S      1.252853    0.310079   -1.111221
  C      0.136049    1.558005   -0.429894
  S     -0.889783    0.951181    0.942019
  P     -2.211104   -0.294806   -0.153207
  S     -1.597900   -1.986257   -0.910644
  O     -2.732301    0.781450   -1.216003
  C     -3.287987    0.374530   -2.482983
  C     -4.675194   -0.209337   -2.312114
  O     -3.373520   -0.557134    0.890222
  C     -4.111687    0.512702    1.533165
  C     -5.521618    0.020227    1.788123
  H      3.739224    1.952824   -1.595538
  H      5.369754    1.758830   -2.252146
  H      4.139968    0.516858   -2.550511
  H      5.233763    1.247399    0.210723
  H      5.795438   -0.154859   -0.748426
  H      1.479833   -2.785053    2.023441
  H      0.586987   -2.123874    0.629415
  H      3.499917   -3.046846    0.539483
  H      2.105129   -3.967681   -0.061182
  H      2.549949   -2.439743   -0.828343
  H     -0.501141    1.900693   -1.240120
  H      0.725280    2.374439   -0.009372
  H     -3.301803    1.290365   -3.075406
  H     -2.615024   -0.357589   -2.939999
  H     -4.620881   -1.107168   -1.696578
  H     -5.334484    0.511368   -1.834910
  H     -5.077185   -0.473809   -3.285048
  H     -3.595633    0.750423    2.466084
  H     -4.102949    1.390960    0.882797
  H     -6.018355   -0.210557    0.849756
  H     -5.494595   -0.878437    2.397604
  H     -6.078690    0.791791    2.309795

 Total Charge           Charge          ....    0
 Multiplicity           Mult            ....    1
 Number of Electrons    NEL             ....  202
 Basis Dimension        Dim             ....  334

ORBITAL ENERGIES
----------------

  NO   OCC          E(Eh)            E(eV)
   0   2.0000     -88.042338     -2395.7538
   1   2.0000     -88.039733     -2395.6829
   2   2.0000     -87.988885     -2394.2993
   3   2.0000     -87.980418     -2394.0689
   4   2.0000     -76.428437     -2079.7235
   5   2.0000     -76.422085     -2079.5506
   6   2.0000     -18.800563      -511.5893
   7   2.0000     -18.797686      -511.5110
   8   2.0000     -18.789661      -511.2927
   9   2.0000     -18.780782      -511.0511
  10   2.0000      -9.960908      -271.0501
  11   2.0000      -9.957929      -270.9690
  12   2.0000      -9.955379      -270.8996
  13   2.0000      -9.950173      -270.7580
  14   2.0000      -9.939207      -270.4596
  15   2.0000      -9.894751      -269.2499
  16   2.0000      -9.892328      -269.1839
  17   2.0000      -9.881974      -268.9022
  18   2.0000      -9.876863      -268.7631
  19   2.0000      -7.687414      -209.1852
  20   2.0000      -7.684516      -209.1063
  21   2.0000      -7.633859      -207.7279
  22   2.0000      -7.625774      -207.5079
  23   2.0000      -6.426298      -174.8685
  24   2.0000      -6.419326      -174.6787
  25   2.0000      -5.715349      -155.5226
  26   2.0000      -5.712248      -155.4382
  27   2.0000      -5.711942      -155.4298
  28   2.0000      -5.709123      -155.3531
  29   2.0000      -5.704309      -155.2221
  30   2.0000      -5.701563      -155.1474
  31   2.0000      -5.662832      -154.0935
  32   2.0000      -5.654703      -153.8723
  33   2.0000      -5.654364      -153.8631
  34   2.0000      -5.654044      -153.8544
  35   2.0000      -5.646343      -153.6448
  36   2.0000      -5.645908      -153.6330
  37   2.0000      -4.649413      -126.5170
  38   2.0000      -4.647786      -126.4727
  39   2.0000      -4.646519      -126.4382
  40   2.0000      -4.642055      -126.3167
  41   2.0000      -4.641106      -126.2909
  42   2.0000      -4.639704      -126.2528
  43   2.0000      -0.991073       -26.9685
  44   2.0000      -0.980495       -26.6806
  45   2.0000      -0.951676       -25.8964
  46   2.0000      -0.938069       -25.5262
  47   2.0000      -0.762850       -20.7582
  48   2.0000      -0.723958       -19.6999
  49   2.0000      -0.707497       -19.2520
  50   2.0000      -0.697819       -18.9886
  51   2.0000      -0.684450       -18.6248
  52   2.0000      -0.673002       -18.3133
  53   2.0000      -0.652869       -17.7655
  54   2.0000      -0.636751       -17.3269
  55   2.0000      -0.597722       -16.2648
  56   2.0000      -0.591053       -16.0834
  57   2.0000      -0.577715       -15.7204
  58   2.0000      -0.568809       -15.4781
  59   2.0000      -0.563114       -15.3231
  60   2.0000      -0.510331       -13.8868
  61   2.0000      -0.487985       -13.2788
  62   2.0000      -0.485897       -13.2219
  63   2.0000      -0.464960       -12.6522
  64   2.0000      -0.459073       -12.4920
  65   2.0000      -0.447559       -12.1787
  66   2.0000      -0.441971       -12.0267
  67   2.0000      -0.438653       -11.9364
  68   2.0000      -0.425963       -11.5910
  69   2.0000      -0.412563       -11.2264
  70   2.0000      -0.407845       -11.0980
  71   2.0000      -0.401926       -10.9370
  72   2.0000      -0.394195       -10.7266
  73   2.0000      -0.388184       -10.5630
  74   2.0000      -0.377403       -10.2697
  75   2.0000      -0.373369       -10.1599
  76   2.0000      -0.365773        -9.9532
  77   2.0000      -0.362248        -9.8573
  78   2.0000      -0.359444        -9.7810
  79   2.0000      -0.353130        -9.6092
  80   2.0000      -0.348602        -9.4859
  81   2.0000      -0.344543        -9.3755
  82   2.0000      -0.343230        -9.3398
  83   2.0000      -0.338048        -9.1987
  84   2.0000      -0.332315        -9.0427
  85   2.0000      -0.323411        -8.8005
  86   2.0000      -0.315619        -8.5884
  87   2.0000      -0.306421        -8.3381
  88   2.0000      -0.289415        -7.8754
  89   2.0000      -0.287184        -7.8147
  90   2.0000      -0.284517        -7.7421
  91   2.0000      -0.275963        -7.5093
  92   2.0000      -0.272774        -7.4226
  93   2.0000      -0.260587        -7.0909
  94   2.0000      -0.258176        -7.0253
  95   2.0000      -0.241759        -6.5786
  96   2.0000      -0.216046        -5.8789
  97   2.0000      -0.207347        -5.6422
  98   2.0000      -0.202338        -5.5059
  99   2.0000      -0.199363        -5.4249
 100   2.0000      -0.194116        -5.2822
 101   0.0000      -0.044056        -1.1988
 102   0.0000      -0.022471        -0.6115
 103   0.0000      -0.008216        -0.2236
 104   0.0000       0.001915         0.0521
 105   0.0000       0.016497         0.4489

MULLIKEN ATOMIC CHARGES
-----------------------
   0 C :   -0.314055
   1 C :   -0.000916
   2 O :   -0.374459
   3 P :    0.608711
   4 S :   -0.326593
   5 O :   -0.354564
   6 C :   -0.017745
   7 C :   -0.306658
   8 S :   -0.093043
   9 C :   -0.360644
  10 S :   -0.071431
  11 P :    0.609117
  12 S :   -0.297156
  13 O :   -0.392273
  14 C :   -0.010762
  15 C :   -0.320455
  16 O :   -0.370805
  17 C :   -0.028660
  18 C :   -0.284150
  19 H :    0.123640
  20 H :    0.112026
  21 H :    0.116489
  22 H :    0.113639
  23 H :    0.104555
  24 H :    0.103722
  25 H :    0.131384
  26 H :    0.116731
  27 H :    0.113770
  28 H :    0.115241
  29 H :    0.185507
  30 H :    0.195044
  31 H :    0.105077
  32 H :    0.116007
  33 H :    0.134202
  34 H :    0.116689
  35 H :    0.116799
  36 H :    0.118372
  37 H :    0.110063
  38 H :    0.118634
  39 H :    0.125134
  40 H :    0.113818
Sum of atomic charges:    0.0000000

LOEWDIN ATOMIC CHARGES
----------------------
   0 C :   -0.370657
   1 C :   -0.117352
   2 O :   -0.241255
   3 P :    0.575270
   4 S :   -0.318268
   5 O :   -0.231697
   6 C :   -0.120784
   7 C :   -0.364298
   8 S :    0.079469
   9 C :   -0.482823
  10 S :    0.089610
  11 P :    0.564399
  12 S :   -0.294641
  13 O :   -0.254448
  14 C :   -0.122764
  15 C :   -0.365934
  16 O :   -0.244446
  17 C :   -0.120298
  18 C :   -0.350737
  19 H :    0.119809
  20 H :    0.130479
  21 H :    0.123233
  22 H :    0.112633
  23 H :    0.118546
  24 H :    0.120709
  25 H :    0.102946
  26 H :    0.124851
  27 H :    0.132070
  28 H :    0.117050
  29 H :    0.131991
  30 H :    0.129101
  31 H :    0.117476
  32 H :    0.111418
  33 H :    0.126469
  34 H :    0.122641
  35 H :    0.133358
  36 H :    0.117368
  37 H :    0.109556
  38 H :    0.126367
  39 H :    0.131849
  40 H :    0.131731

  Mayer bond orders larger than 0.100000
B(  0-C ,  1-C ) :   1.1656 B(  0-C , 19-H ) :   0.9348 B(  0-C , 20-H ) :   0.9374
B(  0-C , 21-H ) :   0.9446 B(  1-C ,  2-O ) :   0.9076 B(  1-C , 22-H ) :   0.9163
B(  1-C , 23-H ) :   0.9341 B(  2-O ,  3-P ) :   1.0927 B(  3-P ,  4-S ) :   1.6083
B(  3-P ,  5-O ) :   1.1639 B(  3-P ,  8-S ) :   0.9355 B(  4-S ,  8-S ) :   0.1086
B(  5-O ,  6-C ) :   0.8900 B(  6-C ,  7-C ) :   1.1736 B(  6-C , 24-H ) :   0.9336
B(  6-C , 25-H ) :   0.8953 B(  7-C , 26-H ) :   0.9443 B(  7-C , 27-H ) :   0.9359
B(  7-C , 28-H ) :   0.9394 B(  8-S ,  9-C ) :   1.0127 B(  9-C , 10-S ) :   0.9990
B(  9-C , 29-H ) :   0.8955 B(  9-C , 30-H ) :   0.8698 B( 10-S , 11-P ) :   0.9768
B( 10-S , 12-S ) :   0.1052 B( 11-P , 12-S ) :   1.6469 B( 11-P , 13-O ) :   1.0521
B( 11-P , 16-O ) :   1.1246 B( 13-O , 14-C ) :   0.9017 B( 14-C , 15-C ) :   1.1646
B( 14-C , 31-H ) :   0.9329 B( 14-C , 32-H ) :   0.9105 B( 15-C , 33-H ) :   0.9334
B( 15-C , 34-H ) :   0.9436 B( 15-C , 35-H ) :   0.9383 B( 16-O , 17-C ) :   0.8915
B( 17-C , 18-C ) :   1.1637 B( 17-C , 36-H ) :   0.9306 B( 17-C , 37-H ) :   0.9161
B( 18-C , 38-H ) :   0.9482 B( 18-C , 39-H ) :   0.9481 B( 18-C , 40-H ) :   0.9404

Dispersion correction           -0.064891326
FINAL SINGLE POINT ENERGY     -2929.519949462609

DIPOLE MOMENT
-------------

Method             : SCF
Type of density    : Electron Density
Multiplicity       :   1
Irrep              :   0
Energy             : -2929.6402406615370637 Eh
Relativity type    :
Basis              : AO
                                X                 Y                 Z
Electronic contribution:     10.090856688       3.148078700       8.565219089
Nuclear contribution   :    -11.174629753      -2.857311931      -9.565911414
                        -----------------------------------------
Total Dipole Moment    :     -1.083773065       0.290766770      -1.000692325
                        -----------------------------------------
Magnitude (a.u.)       :      1.503494097
Magnitude (Debye)      :      3.821578290

Rotational constants in cm-1:             0.014251             0.004294             0.004205
Rotational constants in MHz :           427.247630           128.730308           126.051202

                             ****ORCA TERMINATED NORMALLY****
TOTAL RUN TIME: 0 days 0 hours 0 minutes 20 seconds 940 msec
