                         Program Version 6.0.0  -   RELEASE  -
|  1> ! r2scan-3c def2/J RI DEFGRID2 scfconv6 printgap
|  2> %output
|  3>     printlevel normal
|  4> end
|  5> * xyz 0 1
|  6> C 4.1202914513 -2.6833371785 0.0028371251
|  7> C 4.5035921258 -1.2775936811 0.4182559765
|  8> O 3.3641888311 -0.5048759116 0.8369704426
|  9> P 2.2292694049 -0.0430611073 -0.1753373552
| 10> S 2.8728165745 0.5280526906 -1.9414558645
| 11> O 1.4742850118 1.0542280899 0.6892214043
| 12> C 1.7653886321 2.4579500358 0.5672409963
| 13> C 3.1193105589 2.8006824154 1.152251977
| 14> S 0.8198733443 -1.6025070999 -0.1095751431
| 15> C -0.1373344146 -1.1103438658 -1.5686717767
| 16> S -0.7841162634 0.5929734536 -1.5187081098
| 17> P -2.1761541675 0.4304775375 0.0613360137
| 18> S -3.3553941021 1.9749183345 0.3012075292
| 19> O -1.2227721578 0.0844297075 1.2731566321
| 20> C -1.6340492479 0.2609543173 2.6440457488
| 21> C -2.7010469876 -0.736662243 3.0403446155
| 22> O -2.9118430643 -0.9593007607 -0.1972401339
| 23> C -4.0751311591 -1.0656917373 -1.0410561861
| 24> C -4.821888257 -2.3238435827 -0.6453186278
| 25> H 5.0207099259 -3.2613377303 -0.1789628449
| 26> H 3.5340559776 -3.1616111671 0.7834099416
| 27> H 3.528848126 -2.6535233192 -0.9111070721
| 28> H 4.9910063187 -0.7522205197 -0.4092997727
| 29> H 5.1543286135 -1.2781505317 1.2937111406
| 30> H 1.7167869479 2.732645601 -0.4923931126
| 31> H 0.9512525379 2.9466612574 1.1059431391
| 32> H 3.1856750637 2.4449286202 2.1770726758
| 33> H 3.9046428241 2.3288140035 0.5628201586
| 34> H 3.2589517183 3.8769076163 1.1306316654
| 35> H -0.9554590923 -1.8202751327 -1.6538591867
| 36> H 0.5040074776 -1.1347119377 -2.4491247212
| 37> H -0.7115923833 0.1205829714 3.2095042788
| 38> H -1.9961683173 1.2870075524 2.7668845966
| 39> H -3.6171012306 -0.5330240517 2.4876635923
| 40> H -2.3691150985 -1.74740128 2.8179505571
| 41> H -2.9020927832 -0.6449823515 4.1031558701
| 42> H -4.6903522796 -0.1704051688 -0.9018625154
| 43> H -3.7449849838 -1.1078094368 -2.082801998
| 44> H -4.1730379784 -3.1891637 -0.7446154077
| 45> H -5.157543556 -2.2530578628 0.3852613902
| 46> H -5.6833918823 -2.4437599602 -1.293887281
| 47> *
| 48>
| 49>                          ****END OF INPUT****

CARTESIAN COORDINATES (ANGSTROEM)
---------------------------------
  C      4.120291   -2.683337    0.002837
  C      4.503592   -1.277594    0.418256
  O      3.364189   -0.504876    0.836970
  P      2.229269   -0.043061   -0.175337
  S      2.872817    0.528053   -1.941456
  O      1.474285    1.054228    0.689221
  C      1.765389    2.457950    0.567241
  C      3.119311    2.800682    1.152252
  S      0.819873   -1.602507   -0.109575
  C     -0.137334   -1.110344   -1.568672
  S     -0.784116    0.592973   -1.518708
  P     -2.176154    0.430478    0.061336
  S     -3.355394    1.974918    0.301208
  O     -1.222772    0.084430    1.273157
  C     -1.634049    0.260954    2.644046
  C     -2.701047   -0.736662    3.040345
  O     -2.911843   -0.959301   -0.197240
  C     -4.075131   -1.065692   -1.041056
  C     -4.821888   -2.323844   -0.645319
  H      5.020710   -3.261338   -0.178963
  H      3.534056   -3.161611    0.783410
  H      3.528848   -2.653523   -0.911107
  H      4.991006   -0.752221   -0.409300
  H      5.154329   -1.278151    1.293711
  H      1.716787    2.732646   -0.492393
  H      0.951253    2.946661    1.105943
  H      3.185675    2.444929    2.177073
  H      3.904643    2.328814    0.562820
  H      3.258952    3.876908    1.130632
  H     -0.955459   -1.820275   -1.653859
  H      0.504007   -1.134712   -2.449125
  H     -0.711592    0.120583    3.209504
  H     -1.996168    1.287008    2.766885
  H     -3.617101   -0.533024    2.487664
  H     -2.369115   -1.747401    2.817951
  H     -2.902093   -0.644982    4.103156
  H     -4.690352   -0.170405   -0.901863
  H     -3.744985   -1.107809   -2.082802
  H     -4.173038   -3.189164   -0.744615
  H     -5.157544   -2.253058    0.385261
  H     -5.683392   -2.443760   -1.293887

 Total Charge           Charge          ....    0
 Multiplicity           Mult            ....    1
 Number of Electrons    NEL             ....  202
 Basis Dimension        Dim             ....  539

ORBITAL ENERGIES
----------------

  NO   OCC          E(Eh)            E(eV)
   0   2.0000     -88.573870     -2410.2175
   1   2.0000     -88.573838     -2410.2167
   2   2.0000     -88.521057     -2408.7804
   3   2.0000     -88.519187     -2408.7295
   4   2.0000     -76.913280     -2092.9167
   5   2.0000     -76.912165     -2092.8864
   6   2.0000     -18.993185      -516.8308
   7   2.0000     -18.992978      -516.8252
   8   2.0000     -18.985280      -516.6157
   9   2.0000     -18.983585      -516.5696
  10   2.0000     -10.110535      -275.1217
  11   2.0000     -10.100960      -274.8611
  12   2.0000     -10.099516      -274.8218
  13   2.0000     -10.095785      -274.7203
  14   2.0000     -10.090896      -274.5872
  15   2.0000     -10.036628      -273.1105
  16   2.0000     -10.029904      -272.9276
  17   2.0000     -10.028400      -272.8866
  18   2.0000     -10.024730      -272.7868
  19   2.0000      -7.868706      -214.1184
  20   2.0000      -7.867796      -214.0936
  21   2.0000      -7.815742      -212.6771
  22   2.0000      -7.813868      -212.6262
  23   2.0000      -6.591740      -179.3704
  24   2.0000      -6.590576      -179.3387
  25   2.0000      -5.815657      -158.2521
  26   2.0000      -5.815172      -158.2389
  27   2.0000      -5.812618      -158.1694
  28   2.0000      -5.811203      -158.1309
  29   2.0000      -5.805570      -157.9776
  30   2.0000      -5.804909      -157.9596
  31   2.0000      -5.763328      -156.8281
  32   2.0000      -5.761433      -156.7766
  33   2.0000      -5.756087      -156.6311
  34   2.0000      -5.755764      -156.6223
  35   2.0000      -5.754220      -156.5803
  36   2.0000      -5.753888      -156.5713
  37   2.0000      -4.737079      -128.9025
  38   2.0000      -4.736633      -128.8903
  39   2.0000      -4.735917      -128.8709
  40   2.0000      -4.735674      -128.8642
  41   2.0000      -4.735666      -128.8640
  42   2.0000      -4.734318      -128.8273
  43   2.0000      -1.048952       -28.5434
  44   2.0000      -1.047464       -28.5029
  45   2.0000      -1.010354       -27.4931
  46   2.0000      -1.007931       -27.4272
  47   2.0000      -0.801566       -21.8117
  48   2.0000      -0.759271       -20.6608
  49   2.0000      -0.747883       -20.3509
  50   2.0000      -0.733686       -19.9646
  51   2.0000      -0.729075       -19.8391
  52   2.0000      -0.709734       -19.3128
  53   2.0000      -0.688321       -18.7302
  54   2.0000      -0.667882       -18.1740
  55   2.0000      -0.632623       -17.2145
  56   2.0000      -0.626740       -17.0545
  57   2.0000      -0.603308       -16.4168
  58   2.0000      -0.601665       -16.3721
  59   2.0000      -0.593193       -16.1416
  60   2.0000      -0.530118       -14.4253
  61   2.0000      -0.516384       -14.0515
  62   2.0000      -0.495766       -13.4905
  63   2.0000      -0.490250       -13.3404
  64   2.0000      -0.477448       -12.9920
  65   2.0000      -0.461673       -12.5628
  66   2.0000      -0.456876       -12.4322
  67   2.0000      -0.453325       -12.3356
  68   2.0000      -0.443644       -12.0722
  69   2.0000      -0.434801       -11.8315
  70   2.0000      -0.427909       -11.6440
  71   2.0000      -0.415391       -11.3034
  72   2.0000      -0.406318       -11.0565
  73   2.0000      -0.403693       -10.9850
  74   2.0000      -0.396992       -10.8027
  75   2.0000      -0.389945       -10.6109
  76   2.0000      -0.381391       -10.3782
  77   2.0000      -0.375469       -10.2170
  78   2.0000      -0.374290       -10.1849
  79   2.0000      -0.367566       -10.0020
  80   2.0000      -0.362775        -9.8716
  81   2.0000      -0.361293        -9.8313
  82   2.0000      -0.357616        -9.7312
  83   2.0000      -0.354013        -9.6332
  84   2.0000      -0.345814        -9.4101
  85   2.0000      -0.334421        -9.1001
  86   2.0000      -0.326439        -8.8829
  87   2.0000      -0.312095        -8.4925
  88   2.0000      -0.309343        -8.4177
  89   2.0000      -0.304703        -8.2914
  90   2.0000      -0.294039        -8.0012
  91   2.0000      -0.288514        -7.8509
  92   2.0000      -0.280903        -7.6437
  93   2.0000      -0.278213        -7.5705
  94   2.0000      -0.275281        -7.4908
  95   2.0000      -0.242992        -6.6121
  96   2.0000      -0.230651        -6.2763
  97   2.0000      -0.221983        -6.0405
  98   2.0000      -0.219824        -5.9817
  99   2.0000      -0.214002        -5.8233
 100   2.0000      -0.212729        -5.7887
 101   0.0000      -0.044416        -1.2086
 102   0.0000      -0.015019        -0.4087
 103   0.0000      -0.010312        -0.2806
 104   0.0000       0.005132         0.1396
 105   0.0000       0.007744         0.2107

MULLIKEN ATOMIC CHARGES
-----------------------
   0 C :   -0.455854
   1 C :   -0.150788
   2 O :   -0.304746
   3 P :    0.679912
   4 S :   -0.479663
   5 O :   -0.268669
   6 C :   -0.151511
   7 C :   -0.444953
   8 S :   -0.112132
   9 C :   -0.238052
  10 S :   -0.139940
  11 P :    0.683937
  12 S :   -0.476275
  13 O :   -0.224441
  14 C :   -0.175147
  15 C :   -0.435238
  16 O :   -0.290320
  17 C :   -0.150890
  18 C :   -0.434933
  19 H :    0.148265
  20 H :    0.155146
  21 H :    0.178050
  22 H :    0.173215
  23 H :    0.148510
  24 H :    0.175943
  25 H :    0.158067
  26 H :    0.153831
  27 H :    0.165086
  28 H :    0.147371
  29 H :    0.185103
  30 H :    0.207749
  31 H :    0.157012
  32 H :    0.171345
  33 H :    0.163270
  34 H :    0.157023
  35 H :    0.146906
  36 H :    0.174307
  37 H :    0.149708
  38 H :    0.150144
  39 H :    0.154827
  40 H :    0.148828
Sum of atomic charges:   -0.0000000

LOEWDIN ATOMIC CHARGES
----------------------
   0 C :   -0.407921
   1 C :    0.019431
   2 O :   -0.660416
   3 P :    0.375692
   4 S :   -0.129553
   5 O :   -0.671723
   6 C :    0.019369
   7 C :   -0.399191
   8 S :    0.193763
   9 C :   -0.411123
  10 S :    0.187690
  11 P :    0.367696
  12 S :   -0.119274
  13 O :   -0.682107
  14 C :    0.024019
  15 C :   -0.399388
  16 O :   -0.684804
  17 C :    0.019825
  18 C :   -0.385769
  19 H :    0.159232
  20 H :    0.160025
  21 H :    0.165464
  22 H :    0.179731
  23 H :    0.179525
  24 H :    0.182253
  25 H :    0.182169
  26 H :    0.159709
  27 H :    0.163475
  28 H :    0.159323
  29 H :    0.184327
  30 H :    0.190590
  31 H :    0.181892
  32 H :    0.180181
  33 H :    0.163522
  34 H :    0.161510
  35 H :    0.158952
  36 H :    0.183213
  37 H :    0.169766
  38 H :    0.158443
  39 H :    0.160067
  40 H :    0.160415

  Mayer bond orders larger than 0.100000
B(  0-C ,  1-C ) :   0.9204 B(  0-C , 19-H ) :   0.9585 B(  0-C , 20-H ) :   0.9683
B(  0-C , 21-H ) :   0.9635 B(  1-C ,  2-O ) :   0.8141 B(  1-C , 22-H ) :   0.9684
B(  1-C , 23-H ) :   0.9581 B(  2-O ,  3-P ) :   1.0649 B(  3-P ,  4-S ) :   1.7446
B(  3-P ,  5-O ) :   1.1529 B(  3-P ,  8-S ) :   1.1047 B(  5-O ,  6-C ) :   0.7882
B(  6-C ,  7-C ) :   0.9196 B(  6-C , 24-H ) :   0.9637 B(  6-C , 25-H ) :   0.9609
B(  7-C , 26-H ) :   0.9732 B(  7-C , 27-H ) :   0.9618 B(  7-C , 28-H ) :   0.9631
B(  8-S ,  9-C ) :   0.9238 B(  9-C , 10-S ) :   0.9026 B(  9-C , 29-H ) :   0.9155
B(  9-C , 30-H ) :   0.9153 B( 10-S , 11-P ) :   1.0496 B( 11-P , 12-S ) :   1.7901
B( 11-P , 13-O ) :   1.1545 B( 11-P , 16-O ) :   1.0474 B( 13-O , 14-C ) :   0.7883
B( 14-C , 15-C ) :   0.9228 B( 14-C , 31-H ) :   0.9642 B( 14-C , 32-H ) :   0.9603
B( 15-C , 33-H ) :   0.9612 B( 15-C , 34-H ) :   0.9734 B( 15-C , 35-H ) :   0.9624
B( 16-O , 17-C ) :   0.7730 B( 17-C , 18-C ) :   0.9518 B( 17-C , 36-H ) :   0.9474
B( 17-C , 37-H ) :   0.9473 B( 18-C , 38-H ) :   0.9719 B( 18-C , 39-H ) :   0.9711
B( 18-C , 40-H ) :   0.9664

Dispersion correction           -0.021601373
FINAL SINGLE POINT ENERGY     -2932.460417533112

DIPOLE MOMENT
-------------

Method             : SCF
Type of density    : Electron Density
Multiplicity       :   1
Irrep              :   0
Energy             : -2932.4851968944476539 Eh
Relativity type    :
Basis              : AO
                                X                 Y                 Z
Electronic contribution:      0.417774841       8.797965918     -10.397455465
Nuclear contribution   :     -0.259181742     -10.164225050      11.217341775
                        -----------------------------------------
Total Dipole Moment    :      0.158593098      -1.366259132       0.819886309
                        -----------------------------------------
Magnitude (a.u.)       :      1.601258676
Magnitude (Debye)      :      4.070076099

Rotational constants in cm-1:             0.012693             0.004974             0.004660
Rotational constants in MHz :           380.524738           149.108319           139.701412

                             ****ORCA TERMINATED NORMALLY****
TOTAL RUN TIME: 0 days 0 hours 1 minutes 20 seconds 552 msec
