                         Program Version 6.0.0  -   RELEASE  -
|  1> ! r2scan-3c def2/J RI DEFGRID2 scfconv6 printgap
|  2> %output
|  3>     printlevel normal
|  4> end
|  5> %cpcm
|  6>     smd true
|  7>     smdsolvent "water"
|  8> end
|  9> * xyz 0 1
| 10> C 4.1202914513 -2.6833371785 0.0028371251
| 11> C 4.5035921258 -1.2775936811 0.4182559765
| 12> O 3.3641888311 -0.5048759116 0.8369704426
| 13> P 2.2292694049 -0.0430611073 -0.1753373552
| 14> S 2.8728165745 0.5280526906 -1.9414558645
| 15> O 1.4742850118 1.0542280899 0.6892214043
| 16> C 1.7653886321 2.4579500358 0.5672409963
| 17> C 3.1193105589 2.8006824154 1.152251977
| 18> S 0.8198733443 -1.6025070999 -0.1095751431
| 19> C -0.1373344146 -1.1103438658 -1.5686717767
| 20> S -0.7841162634 0.5929734536 -1.5187081098
| 21> P -2.1761541675 0.4304775375 0.0613360137
| 22> S -3.3553941021 1.9749183345 0.3012075292
| 23> O -1.2227721578 0.0844297075 1.2731566321
| 24> C -1.6340492479 0.2609543173 2.6440457488
| 25> C -2.7010469876 -0.736662243 3.0403446155
| 26> O -2.9118430643 -0.9593007607 -0.1972401339
| 27> C -4.0751311591 -1.0656917373 -1.0410561861
| 28> C -4.821888257 -2.3238435827 -0.6453186278
| 29> H 5.0207099259 -3.2613377303 -0.1789628449
| 30> H 3.5340559776 -3.1616111671 0.7834099416
| 31> H 3.528848126 -2.6535233192 -0.9111070721
| 32> H 4.9910063187 -0.7522205197 -0.4092997727
| 33> H 5.1543286135 -1.2781505317 1.2937111406
| 34> H 1.7167869479 2.732645601 -0.4923931126
| 35> H 0.9512525379 2.9466612574 1.1059431391
| 36> H 3.1856750637 2.4449286202 2.1770726758
| 37> H 3.9046428241 2.3288140035 0.5628201586
| 38> H 3.2589517183 3.8769076163 1.1306316654
| 39> H -0.9554590923 -1.8202751327 -1.6538591867
| 40> H 0.5040074776 -1.1347119377 -2.4491247212
| 41> H -0.7115923833 0.1205829714 3.2095042788
| 42> H -1.9961683173 1.2870075524 2.7668845966
| 43> H -3.6171012306 -0.5330240517 2.4876635923
| 44> H -2.3691150985 -1.74740128 2.8179505571
| 45> H -2.9020927832 -0.6449823515 4.1031558701
| 46> H -4.6903522796 -0.1704051688 -0.9018625154
| 47> H -3.7449849838 -1.1078094368 -2.082801998
| 48> H -4.1730379784 -3.1891637 -0.7446154077
| 49> H -5.157543556 -2.2530578628 0.3852613902
| 50> H -5.6833918823 -2.4437599602 -1.293887281
| 51> *
| 52>
| 53>                          ****END OF INPUT****

CARTESIAN COORDINATES (ANGSTROEM)
---------------------------------
  C      4.120291   -2.683337    0.002837
  C      4.503592   -1.277594    0.418256
  O      3.364189   -0.504876    0.836970
  P      2.229269   -0.043061   -0.175337
  S      2.872817    0.528053   -1.941456
  O      1.474285    1.054228    0.689221
  C      1.765389    2.457950    0.567241
  C      3.119311    2.800682    1.152252
  S      0.819873   -1.602507   -0.109575
  C     -0.137334   -1.110344   -1.568672
  S     -0.784116    0.592973   -1.518708
  P     -2.176154    0.430478    0.061336
  S     -3.355394    1.974918    0.301208
  O     -1.222772    0.084430    1.273157
  C     -1.634049    0.260954    2.644046
  C     -2.701047   -0.736662    3.040345
  O     -2.911843   -0.959301   -0.197240
  C     -4.075131   -1.065692   -1.041056
  C     -4.821888   -2.323844   -0.645319
  H      5.020710   -3.261338   -0.178963
  H      3.534056   -3.161611    0.783410
  H      3.528848   -2.653523   -0.911107
  H      4.991006   -0.752221   -0.409300
  H      5.154329   -1.278151    1.293711
  H      1.716787    2.732646   -0.492393
  H      0.951253    2.946661    1.105943
  H      3.185675    2.444929    2.177073
  H      3.904643    2.328814    0.562820
  H      3.258952    3.876908    1.130632
  H     -0.955459   -1.820275   -1.653859
  H      0.504007   -1.134712   -2.449125
  H     -0.711592    0.120583    3.209504
  H     -1.996168    1.287008    2.766885
  H     -3.617101   -0.533024    2.487664
  H     -2.369115   -1.747401    2.817951
  H     -2.902093   -0.644982    4.103156
  H     -4.690352   -0.170405   -0.901863
  H     -3.744985   -1.107809   -2.082802
  H     -4.173038   -3.189164   -0.744615
  H     -5.157544   -2.253058    0.385261
  H     -5.683392   -2.443760   -1.293887

 Total Charge           Charge          ....    0
 Multiplicity           Mult            ....    1
 Number of Electrons    NEL             ....  202
 Basis Dimension        Dim             ....  539

ORBITAL ENERGIES
----------------

  NO   OCC          E(Eh)            E(eV)
   0   2.0000     -88.578176     -2410.3347
   1   2.0000     -88.576629     -2410.2926
   2   2.0000     -88.528714     -2408.9888
   3   2.0000     -88.527814     -2408.9643
   4   2.0000     -76.918259     -2093.0522
   5   2.0000     -76.918156     -2093.0494
   6   2.0000     -18.995280      -516.8879
   7   2.0000     -18.993117      -516.8290
   8   2.0000     -18.989548      -516.7319
   9   2.0000     -18.989214      -516.7228
  10   2.0000     -10.106977      -275.0248
  11   2.0000     -10.089553      -274.5507
  12   2.0000     -10.089125      -274.5390
  13   2.0000     -10.089117      -274.5388
  14   2.0000     -10.087612      -274.4979
  15   2.0000     -10.019312      -272.6393
  16   2.0000     -10.018498      -272.6172
  17   2.0000     -10.018465      -272.6163
  18   2.0000     -10.017921      -272.6015
  19   2.0000      -7.872275      -214.2155
  20   2.0000      -7.871396      -214.1916
  21   2.0000      -7.823774      -212.8957
  22   2.0000      -7.822788      -212.8689
  23   2.0000      -6.596798      -179.5080
  24   2.0000      -6.596604      -179.5027
  25   2.0000      -5.819584      -158.3589
  26   2.0000      -5.818337      -158.3250
  27   2.0000      -5.815647      -158.2518
  28   2.0000      -5.815307      -158.2425
  29   2.0000      -5.809484      -158.0841
  30   2.0000      -5.808296      -158.0518
  31   2.0000      -5.771235      -157.0433
  32   2.0000      -5.770320      -157.0184
  33   2.0000      -5.764148      -156.8504
  34   2.0000      -5.763805      -156.8411
  35   2.0000      -5.763107      -156.8221
  36   2.0000      -5.762837      -156.8148
  37   2.0000      -4.742115      -129.0395
  38   2.0000      -4.741845      -129.0322
  39   2.0000      -4.741719      -129.0287
  40   2.0000      -4.741709      -129.0285
  41   2.0000      -4.740754      -129.0025
  42   2.0000      -4.740460      -128.9945
  43   2.0000      -1.051507       -28.6130
  44   2.0000      -1.050021       -28.5725
  45   2.0000      -1.012066       -27.5397
  46   2.0000      -1.010670       -27.5017
  47   2.0000      -0.802165       -21.8280
  48   2.0000      -0.756145       -20.5757
  49   2.0000      -0.742152       -20.1950
  50   2.0000      -0.724008       -19.7012
  51   2.0000      -0.722508       -19.6605
  52   2.0000      -0.709170       -19.2975
  53   2.0000      -0.692169       -18.8349
  54   2.0000      -0.674082       -18.3427
  55   2.0000      -0.631555       -17.1855
  56   2.0000      -0.622594       -16.9417
  57   2.0000      -0.598102       -16.2752
  58   2.0000      -0.594380       -16.1739
  59   2.0000      -0.589670       -16.0457
  60   2.0000      -0.526027       -14.3139
  61   2.0000      -0.513843       -13.9824
  62   2.0000      -0.493060       -13.4169
  63   2.0000      -0.488710       -13.2985
  64   2.0000      -0.475962       -12.9516
  65   2.0000      -0.458903       -12.4874
  66   2.0000      -0.453341       -12.3360
  67   2.0000      -0.445398       -12.1199
  68   2.0000      -0.440997       -12.0001
  69   2.0000      -0.433841       -11.8054
  70   2.0000      -0.422804       -11.5051
  71   2.0000      -0.411330       -11.1929
  72   2.0000      -0.405353       -11.0302
  73   2.0000      -0.403129       -10.9697
  74   2.0000      -0.392033       -10.6678
  75   2.0000      -0.386045       -10.5048
  76   2.0000      -0.378551       -10.3009
  77   2.0000      -0.370269       -10.0755
  78   2.0000      -0.364592        -9.9210
  79   2.0000      -0.361915        -9.8482
  80   2.0000      -0.353676        -9.6240
  81   2.0000      -0.353198        -9.6110
  82   2.0000      -0.349501        -9.5104
  83   2.0000      -0.347225        -9.4485
  84   2.0000      -0.343444        -9.3456
  85   2.0000      -0.330229        -8.9860
  86   2.0000      -0.322416        -8.7734
  87   2.0000      -0.308498        -8.3947
  88   2.0000      -0.304424        -8.2838
  89   2.0000      -0.303801        -8.2668
  90   2.0000      -0.294932        -8.0255
  91   2.0000      -0.289261        -7.8712
  92   2.0000      -0.281076        -7.6485
  93   2.0000      -0.278598        -7.5810
  94   2.0000      -0.274489        -7.4692
  95   2.0000      -0.247565        -6.7366
  96   2.0000      -0.237450        -6.4613
  97   2.0000      -0.230999        -6.2858
  98   2.0000      -0.229753        -6.2519
  99   2.0000      -0.221487        -6.0270
 100   2.0000      -0.218986        -5.9589
 101   0.0000      -0.047956        -1.3049
 102   0.0000      -0.021833        -0.5941
 103   0.0000      -0.014724        -0.4007
 104   0.0000       0.001458         0.0397
 105   0.0000       0.004789         0.1303

MULLIKEN ATOMIC CHARGES
-----------------------
   0 C :   -0.490536
   1 C :   -0.151223
   2 O :   -0.331808
   3 P :    0.716629
   4 S :   -0.527746
   5 O :   -0.297386
   6 C :   -0.148230
   7 C :   -0.488350
   8 S :   -0.117836
   9 C :   -0.246432
  10 S :   -0.172966
  11 P :    0.705784
  12 S :   -0.535317
  13 O :   -0.252401
  14 C :   -0.168065
  15 C :   -0.472966
  16 O :   -0.302704
  17 C :   -0.133853
  18 C :   -0.484110
  19 H :    0.172905
  20 H :    0.169139
  21 H :    0.174268
  22 H :    0.178594
  23 H :    0.175329
  24 H :    0.176985
  25 H :    0.177895
  26 H :    0.169326
  27 H :    0.167653
  28 H :    0.171305
  29 H :    0.228045
  30 H :    0.229906
  31 H :    0.178746
  32 H :    0.176070
  33 H :    0.167214
  34 H :    0.169583
  35 H :    0.172288
  36 H :    0.170579
  37 H :    0.172241
  38 H :    0.166284
  39 H :    0.165747
  40 H :    0.169415
Sum of atomic charges:   -0.0000000

LOEWDIN ATOMIC CHARGES
----------------------
   0 C :   -0.410477
   1 C :    0.025118
   2 O :   -0.673094
   3 P :    0.380280
   4 S :   -0.158524
   5 O :   -0.689440
   6 C :    0.021047
   7 C :   -0.402418
   8 S :    0.193616
   9 C :   -0.399193
  10 S :    0.169080
  11 P :    0.371073
  12 S :   -0.160600
  13 O :   -0.696417
  14 C :    0.028033
  15 C :   -0.401962
  16 O :   -0.687920
  17 C :    0.026287
  18 C :   -0.389523
  19 H :    0.168336
  20 H :    0.163595
  21 H :    0.161693
  22 H :    0.181477
  23 H :    0.190918
  24 H :    0.182015
  25 H :    0.189848
  26 H :    0.163864
  27 H :    0.162268
  28 H :    0.168210
  29 H :    0.200479
  30 H :    0.198597
  31 H :    0.190609
  32 H :    0.182033
  33 H :    0.162812
  34 H :    0.164491
  35 H :    0.168554
  36 H :    0.182052
  37 H :    0.179366
  38 H :    0.163123
  39 H :    0.162151
  40 H :    0.168542

  Mayer bond orders larger than 0.100000
B(  0-C ,  1-C ) :   0.9079 B(  0-C , 19-H ) :   0.9532 B(  0-C , 20-H ) :   0.9653
B(  0-C , 21-H ) :   0.9642 B(  1-C ,  2-O ) :   0.8018 B(  1-C , 22-H ) :   0.9668
B(  1-C , 23-H ) :   0.9483 B(  2-O ,  3-P ) :   1.0728 B(  3-P ,  4-S ) :   1.6997
B(  3-P ,  5-O ) :   1.1522 B(  3-P ,  8-S ) :   1.1214 B(  5-O ,  6-C ) :   0.7751
B(  6-C ,  7-C ) :   0.9129 B(  6-C , 24-H ) :   0.9597 B(  6-C , 25-H ) :   0.9519
B(  7-C , 26-H ) :   0.9717 B(  7-C , 27-H ) :   0.9608 B(  7-C , 28-H ) :   0.9570
B(  8-S ,  9-C ) :   0.9179 B(  9-C , 10-S ) :   0.8948 B(  9-C , 29-H ) :   0.9032
B(  9-C , 30-H ) :   0.9078 B( 10-S , 11-P ) :   1.0647 B( 11-P , 12-S ) :   1.7515
B( 11-P , 13-O ) :   1.1593 B( 11-P , 16-O ) :   1.0641 B( 13-O , 14-C ) :   0.7801
B( 14-C , 15-C ) :   0.9124 B( 14-C , 31-H ) :   0.9547 B( 14-C , 32-H ) :   0.9552
B( 15-C , 33-H ) :   0.9589 B( 15-C , 34-H ) :   0.9718 B( 15-C , 35-H ) :   0.9564
B( 16-O , 17-C ) :   0.7655 B( 17-C , 18-C ) :   0.9460 B( 17-C , 36-H ) :   0.9462
B( 17-C , 37-H ) :   0.9378 B( 18-C , 38-H ) :   0.9697 B( 18-C , 39-H ) :   0.9693
B( 18-C , 40-H ) :   0.9600

Dispersion correction           -0.021601373
FINAL SINGLE POINT ENERGY     -2932.470489405641

DIPOLE MOMENT
-------------

Method             : SCF
Type of density    : Electron Density
Multiplicity       :   1
Irrep              :   0
Energy             : -2932.4952687669765510 Eh
Relativity type    :
Basis              : AO
                                X                 Y                 Z
Electronic contribution:      0.474869338       8.205362512     -10.263317098
Nuclear contribution   :     -0.259181742     -10.164225050      11.217341775
                        -----------------------------------------
Total Dipole Moment    :      0.215687596      -1.958862537       0.954024677
                        -----------------------------------------
Magnitude (a.u.)       :      2.189480912
Magnitude (Debye)      :      5.565218203

Rotational constants in cm-1:             0.012693             0.004974             0.004660
Rotational constants in MHz :           380.524738           149.108319           139.701412

                             ****ORCA TERMINATED NORMALLY****
TOTAL RUN TIME: 0 days 0 hours 1 minutes 52 seconds 607 msec
