                         Program Version 6.0.1  -  RELEASE   -
|  1> ! pbe def2-sv(p) def2/J RI DEFGRID1 loosescf d4 GCP(DFT/SV(P)) printgap
|  2> %output
|  3>     printlevel normal
|  4> end
|  5> * xyz 0 1
|  6> C 3.3694944412 -1.7504650942 1.4879517709
|  7> C 3.0045182744 -2.3542278062 0.1423009011
|  8> O 2.6942135236 -1.3085079627 -0.7974725613
|  9> C 1.4569005321 -1.1283621366 -1.1950040439
| 10> O 0.5071425165 -1.8078165899 -0.8539466317
| 11> C 1.3429195977 0.0319990114 -2.1611199924
| 12> C 0.2560765077 1.0080017526 -1.7190133148
| 13> H 0.1455878855 1.7990631005 -2.4675476336
| 14> C 0.5165348476 1.6745002612 -0.3795519773
| 15> O -0.385643701 2.1171704613 0.3039877325
| 16> O 1.7874271097 1.7194706502 -0.0842609933
| 17> C 2.1797455465 2.3240596527 1.1655081814
| 18> C 2.2405775453 3.8374151834 1.0473688519
| 19> S -1.4040349924 0.2462788208 -1.6396283925
| 20> P -1.6229307016 -0.3145961392 0.4064320933
| 21> S -0.2080144885 -0.5575870722 1.7391020824
| 22> O -2.6933663721 0.6890964803 1.0050965606
| 23> C -3.9236444319 1.0331333532 0.3463795837
| 24> O -2.5699409476 -1.5990686559 0.2405208828
| 25> C -2.1267195253 -2.9045210161 -0.1279938805
| 26> H 3.6695547849 -2.5424559371 2.1657230106
| 27> H 4.188130929 -1.0467979685 1.3703949336
| 28> H 2.5095305209 -1.233502103 1.9106615908
| 29> H 2.1388255882 -3.0157941906 0.2317441836
| 30> H 3.8494846323 -2.89090013 -0.2930566387
| 31> H 1.0707129511 -0.3671004949 -3.1397197366
| 32> H 2.3035822827 0.5422383747 -2.2162795392
| 33> H 1.4684350389 2.0132354345 1.9365198044
| 34> H 3.1614900798 1.8959681118 1.3666003769
| 35> H 2.6076326817 4.2504506618 1.9808873513
| 36> H 2.9086967016 4.123695576 0.2398736866
| 37> H 1.2486601953 4.2385355977 0.8517889462
| 38> H -4.3878068072 1.7762263974 0.9895380952
| 39> H -4.5533281527 0.1497787079 0.2530056634
| 40> H -3.7157932674 1.4529123157 -0.6381446136
| 41> H -1.8379593127 -2.9190889228 -1.177844959
| 42> H -2.9756882771 -3.5591303794 0.0533718933
| 43> H -1.2741588348 -3.197685258 0.4843030739
| 44> *
| 45>
| 46>                          ****END OF INPUT****

CARTESIAN COORDINATES (ANGSTROEM)
---------------------------------
  C      3.369494   -1.750465    1.487952
  C      3.004518   -2.354228    0.142301
  O      2.694214   -1.308508   -0.797473
  C      1.456901   -1.128362   -1.195004
  O      0.507143   -1.807817   -0.853947
  C      1.342920    0.031999   -2.161120
  C      0.256077    1.008002   -1.719013
  H      0.145588    1.799063   -2.467548
  C      0.516535    1.674500   -0.379552
  O     -0.385644    2.117170    0.303988
  O      1.787427    1.719471   -0.084261
  C      2.179746    2.324060    1.165508
  C      2.240578    3.837415    1.047369
  S     -1.404035    0.246279   -1.639628
  P     -1.622931   -0.314596    0.406432
  S     -0.208014   -0.557587    1.739102
  O     -2.693366    0.689096    1.005097
  C     -3.923644    1.033133    0.346380
  O     -2.569941   -1.599069    0.240521
  C     -2.126720   -2.904521   -0.127994
  H      3.669555   -2.542456    2.165723
  H      4.188131   -1.046798    1.370395
  H      2.509531   -1.233502    1.910662
  H      2.138826   -3.015794    0.231744
  H      3.849485   -2.890900   -0.293057
  H      1.070713   -0.367100   -3.139720
  H      2.303582    0.542238   -2.216280
  H      1.468435    2.013235    1.936520
  H      3.161490    1.895968    1.366600
  H      2.607633    4.250451    1.980887
  H      2.908697    4.123696    0.239874
  H      1.248660    4.238536    0.851789
  H     -4.387807    1.776226    0.989538
  H     -4.553328    0.149779    0.253006
  H     -3.715793    1.452912   -0.638145
  H     -1.837959   -2.919089   -1.177845
  H     -2.975688   -3.559130    0.053372
  H     -1.274159   -3.197685    0.484303

 Total Charge           Charge          ....    0
 Multiplicity           Mult            ....    1
 Number of Electrons    NEL             ....  174
 Basis Dimension        Dim             ....  316

ORBITAL ENERGIES
----------------

  NO   OCC          E(Eh)            E(eV)
   0   2.0000     -88.030254     -2395.4250
   1   2.0000     -87.967003     -2393.7038
   2   2.0000     -76.414593     -2079.3468
   3   2.0000     -18.812778      -511.9217
   4   2.0000     -18.803790      -511.6772
   5   2.0000     -18.776155      -510.9252
   6   2.0000     -18.770017      -510.7581
   7   2.0000     -18.739887      -509.9383
   8   2.0000     -18.737977      -509.8863
   9   2.0000     -10.017904      -272.6010
  10   2.0000     -10.010698      -272.4049
  11   2.0000      -9.952053      -270.8091
  12   2.0000      -9.947857      -270.6949
  13   2.0000      -9.944182      -270.5949
  14   2.0000      -9.931667      -270.2544
  15   2.0000      -9.926526      -270.1145
  16   2.0000      -9.912043      -269.7204
  17   2.0000      -9.887322      -269.0477
  18   2.0000      -9.881017      -268.8761
  19   2.0000      -7.675166      -208.8519
  20   2.0000      -7.612218      -207.1390
  21   2.0000      -6.410206      -174.4306
  22   2.0000      -5.703439      -155.1985
  23   2.0000      -5.699866      -155.1012
  24   2.0000      -5.691514      -154.8740
  25   2.0000      -5.641542      -153.5142
  26   2.0000      -5.632728      -153.2743
  27   2.0000      -5.631924      -153.2524
  28   2.0000      -4.632987      -126.0700
  29   2.0000      -4.632351      -126.0527
  30   2.0000      -4.630563      -126.0040
  31   2.0000      -1.020791       -27.7771
  32   2.0000      -1.010436       -27.4954
  33   2.0000      -0.967431       -26.3251
  34   2.0000      -0.923627       -25.1332
  35   2.0000      -0.920353       -25.0441
  36   2.0000      -0.915697       -24.9174
  37   2.0000      -0.763530       -20.7767
  38   2.0000      -0.709328       -19.3018
  39   2.0000      -0.705040       -19.1851
  40   2.0000      -0.684523       -18.6268
  41   2.0000      -0.653801       -17.7908
  42   2.0000      -0.622317       -16.9341
  43   2.0000      -0.619035       -16.8448
  44   2.0000      -0.604504       -16.4494
  45   2.0000      -0.592194       -16.1144
  46   2.0000      -0.567432       -15.4406
  47   2.0000      -0.507598       -13.8124
  48   2.0000      -0.501725       -13.6526
  49   2.0000      -0.496339       -13.5061
  50   2.0000      -0.481022       -13.0893
  51   2.0000      -0.460025       -12.5179
  52   2.0000      -0.453101       -12.3295
  53   2.0000      -0.446830       -12.1589
  54   2.0000      -0.426401       -11.6030
  55   2.0000      -0.425860       -11.5882
  56   2.0000      -0.418847       -11.3974
  57   2.0000      -0.414986       -11.2924
  58   2.0000      -0.410886       -11.1808
  59   2.0000      -0.398300       -10.8383
  60   2.0000      -0.397283       -10.8106
  61   2.0000      -0.393349       -10.7036
  62   2.0000      -0.389905       -10.6099
  63   2.0000      -0.381791       -10.3891
  64   2.0000      -0.370846       -10.0912
  65   2.0000      -0.367032        -9.9875
  66   2.0000      -0.361012        -9.8236
  67   2.0000      -0.351765        -9.5720
  68   2.0000      -0.346607        -9.4316
  69   2.0000      -0.335261        -9.1229
  70   2.0000      -0.330687        -8.9985
  71   2.0000      -0.329103        -8.9553
  72   2.0000      -0.319725        -8.7002
  73   2.0000      -0.304225        -8.2784
  74   2.0000      -0.298261        -8.1161
  75   2.0000      -0.291376        -7.9287
  76   2.0000      -0.284412        -7.7392
  77   2.0000      -0.280740        -7.6393
  78   2.0000      -0.264968        -7.2102
  79   2.0000      -0.261055        -7.1037
  80   2.0000      -0.253330        -6.8935
  81   2.0000      -0.247176        -6.7260
  82   2.0000      -0.236695        -6.4408
  83   2.0000      -0.227623        -6.1939
  84   2.0000      -0.196121        -5.3367
  85   2.0000      -0.185685        -5.0527
  86   2.0000      -0.177536        -4.8310
  87   0.0000      -0.043607        -1.1866
  88   0.0000      -0.034925        -0.9503
  89   0.0000      -0.025408        -0.6914
  90   0.0000       0.007346         0.1999
  91   0.0000       0.033411         0.9092

MULLIKEN ATOMIC CHARGES
-----------------------
   0 C :   -0.309029
   1 C :   -0.022296
   2 O :   -0.219407
   3 C :    0.094526
   4 O :   -0.196707
   5 C :   -0.007528
   6 C :   -0.306629
   7 H :    0.154484
   8 C :    0.171795
   9 O :   -0.183789
  10 O :   -0.217129
  11 C :   -0.017280
  12 C :   -0.307273
  13 S :   -0.100787
  14 P :    0.648579
  15 S :   -0.333436
  16 O :   -0.356437
  17 C :   -0.103215
  18 O :   -0.397254
  19 C :   -0.087832
  20 H :    0.108534
  21 H :    0.108869
  22 H :    0.143677
  23 H :    0.116640
  24 H :    0.100916
  25 H :    0.117126
  26 H :    0.109185
  27 H :    0.130117
  28 H :    0.103820
  29 H :    0.116110
  30 H :    0.109448
  31 H :    0.131529
  32 H :    0.124987
  33 H :    0.114820
  34 H :    0.115476
  35 H :    0.113991
  36 H :    0.112458
  37 H :    0.118941
Sum of atomic charges:    0.0000000

LOEWDIN ATOMIC CHARGES
----------------------
   0 C :   -0.357916
   1 C :   -0.110313
   2 O :   -0.046027
   3 C :    0.028309
   4 O :   -0.170558
   5 C :   -0.252480
   6 C :   -0.258317
   7 H :    0.152611
   8 C :   -0.003386
   9 O :   -0.160099
  10 O :   -0.036015
  11 C :   -0.108921
  12 C :   -0.357332
  13 S :    0.104591
  14 P :    0.594354
  15 S :   -0.302473
  16 O :   -0.236427
  17 C :   -0.213603
  18 O :   -0.259675
  19 C :   -0.210716
  20 H :    0.129486
  21 H :    0.120782
  22 H :    0.125338
  23 H :    0.121606
  24 H :    0.116016
  25 H :    0.145371
  26 H :    0.138799
  27 H :    0.125826
  28 H :    0.118042
  29 H :    0.132877
  30 H :    0.122634
  31 H :    0.132023
  32 H :    0.123261
  33 H :    0.111097
  34 H :    0.105250
  35 H :    0.109941
  36 H :    0.114548
  37 H :    0.111493

  Mayer bond orders larger than 0.100000
B(  0-C ,  1-C ) :   1.1787 B(  0-C , 20-H ) :   0.9415 B(  0-C , 21-H ) :   0.9468
B(  0-C , 22-H ) :   0.9304 B(  1-C ,  2-O ) :   0.9064 B(  1-C , 23-H ) :   0.9048
B(  1-C , 24-H ) :   0.9357 B(  2-O ,  3-C ) :   1.2555 B(  3-C ,  4-O ) :   1.9787
B(  3-C ,  5-C ) :   1.0030 B(  5-C ,  6-C ) :   1.0328 B(  5-C , 25-H ) :   0.8815
B(  5-C , 26-H ) :   0.8825 B(  6-C ,  7-H ) :   0.8718 B(  6-C ,  8-C ) :   0.8943
B(  6-C , 13-S ) :   1.0297 B(  8-C ,  9-O ) :   2.0127 B(  8-C , 10-O ) :   1.2748
B( 10-O , 11-C ) :   0.8995 B( 11-C , 12-C ) :   1.1703 B( 11-C , 27-H ) :   0.9085
B( 11-C , 28-H ) :   0.9354 B( 12-C , 29-H ) :   0.9441 B( 12-C , 30-H ) :   0.9475
B( 12-C , 31-H ) :   0.9437 B( 13-S , 14-P ) :   0.9287 B( 13-S , 15-S ) :   0.1212
B( 14-P , 15-S ) :   1.5681 B( 14-P , 16-O ) :   1.1266 B( 14-P , 18-O ) :   1.0743
B( 16-O , 17-C ) :   0.9308 B( 17-C , 32-H ) :   0.9605 B( 17-C , 33-H ) :   0.9471
B( 17-C , 34-H ) :   0.9351 B( 18-O , 19-C ) :   0.9334 B( 19-C , 35-H ) :   0.9492
B( 19-C , 36-H ) :   0.9561 B( 19-C , 37-H ) :   0.9415

Dispersion correction           -0.056361841
FINAL SINGLE POINT ENERGY     -1979.002911064762

DIPOLE MOMENT
-------------

Method             : SCF
Type of density    : Electron Density
Multiplicity       :   1
Irrep              :   0
Energy             : -1979.1309328258512323 Eh
Relativity type    :
Basis              : AO
                                X                 Y                 Z
Electronic contribution:    -12.292924377      -1.533055309      -4.239816302
Nuclear contribution   :     13.238137746       1.666079357       3.291789973
                        -----------------------------------------
Total Dipole Moment    :      0.945213369       0.133024048      -0.948026329
                        -----------------------------------------
Magnitude (a.u.)       :      1.345316926
Magnitude (Debye)      :      3.419523871

Rotational constants in cm-1:             0.012506             0.009385             0.007416
Rotational constants in MHz :           374.916496           281.348021           222.327888

                             ****ORCA TERMINATED NORMALLY****
TOTAL RUN TIME: 0 days 0 hours 1 minutes 31 seconds 396 msec
