                         Program Version 6.0.1  -  RELEASE   -
|  1> ! pbe def2-sv(p) def2/J RI DEFGRID1 loosescf d4 GCP(DFT/SV(P)) printgap
|  2> %output
|  3>     printlevel normal
|  4> end
|  5> * xyz 0 1
|  6> C 4.2364949912 -3.9710823362 -0.7247953357
|  7> C 2.8033943852 -3.5175089177 -0.530352972
|  8> O 2.7888245114 -2.0752520309 -0.540482781
|  9> C 1.6617748989 -1.4671457351 -0.2554257993
| 10> O 0.6254809211 -2.0461335978 0.0046691338
| 11> C 1.8145147614 0.0356864359 -0.2531716228
| 12> C 0.7625653224 0.7714029466 -1.1030115041
| 13> H 1.1822470961 1.0302213895 -2.0778428376
| 14> C 0.3145740482 2.043727057 -0.398277678
| 15> O -0.8426943225 2.2685968576 -0.1148079003
| 16> O 1.3176999195 2.8356064562 -0.1373989735
| 17> C 1.0376720989 4.0600832123 0.5779324173
| 18> C 2.3300533637 4.8441981002 0.6785405081
| 19> S -0.7465415649 -0.1565612685 -1.532477486
| 20> P -1.6302887968 -0.3856989964 0.3903912624
| 21> S -0.7195212591 0.0862035215 2.0560904524
| 22> O -3.0903704379 0.2682025433 0.2268506843
| 23> C -3.4900765335 1.5880892047 0.5858552776
| 24> O -2.0815641731 -1.9049117668 0.4376191279
| 25> C -2.7588821489 -2.5610902528 -0.6445376723
| 26> H 4.6193156859 -3.5963021065 -1.6689764785
| 27> H 4.8593626516 -3.5953596408 0.0812885912
| 28> H 4.2712240423 -5.0553100237 -0.7282517854
| 29> H 2.3878907941 -3.8599685261 0.4225511606
| 30> H 2.1517309641 -3.869923957 -1.3356222601
| 31> H 2.8160601987 0.2926540792 -0.5929199706
| 32> H 1.7012946484 0.334673695 0.794182159
| 33> H 0.2655379004 4.6083827246 0.0303924189
| 34> H 0.6407378847 3.7926804967 1.5621216372
| 35> H 2.7065518508 5.0715156923 -0.3139894803
| 36> H 2.1440705932 5.7699677385 1.2124114024
| 37> H 3.0758897496 4.2658563524 1.2147460673
| 38> H -2.9302955523 1.9276412673 1.4578793272
| 39> H -4.5512898233 1.5201410313 0.8152646051
| 40> H -3.3115127684 2.2668016142 -0.245843704
| 41> H -3.6917551821 -2.0464875504 -0.8709225152
| 42> H -2.9476689281 -3.5703964152 -0.2879365352
| 43> H -2.11575295 -2.5804844053 -1.5247948217
| 44> *
| 45>
| 46>                          ****END OF INPUT****

CARTESIAN COORDINATES (ANGSTROEM)
---------------------------------
  C      4.236495   -3.971082   -0.724795
  C      2.803394   -3.517509   -0.530353
  O      2.788825   -2.075252   -0.540483
  C      1.661775   -1.467146   -0.255426
  O      0.625481   -2.046134    0.004669
  C      1.814515    0.035686   -0.253172
  C      0.762565    0.771403   -1.103012
  H      1.182247    1.030221   -2.077843
  C      0.314574    2.043727   -0.398278
  O     -0.842694    2.268597   -0.114808
  O      1.317700    2.835606   -0.137399
  C      1.037672    4.060083    0.577932
  C      2.330053    4.844198    0.678541
  S     -0.746542   -0.156561   -1.532477
  P     -1.630289   -0.385699    0.390391
  S     -0.719521    0.086204    2.056090
  O     -3.090370    0.268203    0.226851
  C     -3.490077    1.588089    0.585855
  O     -2.081564   -1.904912    0.437619
  C     -2.758882   -2.561090   -0.644538
  H      4.619316   -3.596302   -1.668976
  H      4.859363   -3.595360    0.081289
  H      4.271224   -5.055310   -0.728252
  H      2.387891   -3.859969    0.422551
  H      2.151731   -3.869924   -1.335622
  H      2.816060    0.292654   -0.592920
  H      1.701295    0.334674    0.794182
  H      0.265538    4.608383    0.030392
  H      0.640738    3.792680    1.562122
  H      2.706552    5.071516   -0.313989
  H      2.144071    5.769968    1.212411
  H      3.075890    4.265856    1.214746
  H     -2.930296    1.927641    1.457879
  H     -4.551290    1.520141    0.815265
  H     -3.311513    2.266802   -0.245844
  H     -3.691755   -2.046488   -0.870923
  H     -2.947669   -3.570396   -0.287937
  H     -2.115753   -2.580484   -1.524795

 Total Charge           Charge          ....    0
 Multiplicity           Mult            ....    1
 Number of Electrons    NEL             ....  174
 Basis Dimension        Dim             ....  316

ORBITAL ENERGIES
----------------

  NO   OCC          E(Eh)            E(eV)
   0   2.0000     -88.024414     -2395.2661
   1   2.0000     -87.963090     -2393.5974
   2   2.0000     -76.410304     -2079.2301
   3   2.0000     -18.816055      -512.0109
   4   2.0000     -18.803769      -511.6766
   5   2.0000     -18.766806      -510.6708
   6   2.0000     -18.766488      -510.6621
   7   2.0000     -18.747251      -510.1386
   8   2.0000     -18.734615      -509.7948
   9   2.0000     -10.018844      -272.6266
  10   2.0000     -10.006215      -272.2830
  11   2.0000      -9.955967      -270.9156
  12   2.0000      -9.950525      -270.7676
  13   2.0000      -9.949015      -270.7265
  14   2.0000      -9.931897      -270.2607
  15   2.0000      -9.920523      -269.9511
  16   2.0000      -9.906925      -269.5811
  17   2.0000      -9.895242      -269.2632
  18   2.0000      -9.890674      -269.1389
  19   2.0000      -7.669368      -208.6941
  20   2.0000      -7.608629      -207.0413
  21   2.0000      -6.405785      -174.3103
  22   2.0000      -5.697616      -155.0400
  23   2.0000      -5.694286      -154.9494
  24   2.0000      -5.685478      -154.7097
  25   2.0000      -5.637961      -153.4167
  26   2.0000      -5.629205      -153.1785
  27   2.0000      -5.628262      -153.1528
  28   2.0000      -4.628486      -125.9475
  29   2.0000      -4.627803      -125.9289
  30   2.0000      -4.626361      -125.8897
  31   2.0000      -1.025280       -27.8993
  32   2.0000      -1.011638       -27.5281
  33   2.0000      -0.961722       -26.1698
  34   2.0000      -0.927210       -25.2307
  35   2.0000      -0.915802       -24.9202
  36   2.0000      -0.911625       -24.8066
  37   2.0000      -0.760028       -20.6814
  38   2.0000      -0.716440       -19.4953
  39   2.0000      -0.711254       -19.3542
  40   2.0000      -0.681704       -18.5501
  41   2.0000      -0.653306       -17.7774
  42   2.0000      -0.622041       -16.9266
  43   2.0000      -0.614995       -16.7349
  44   2.0000      -0.602608       -16.3978
  45   2.0000      -0.586685       -15.9645
  46   2.0000      -0.559116       -15.2143
  47   2.0000      -0.518337       -14.1047
  48   2.0000      -0.511907       -13.9297
  49   2.0000      -0.493452       -13.4275
  50   2.0000      -0.479460       -13.0468
  51   2.0000      -0.457139       -12.4394
  52   2.0000      -0.455367       -12.3912
  53   2.0000      -0.447438       -12.1754
  54   2.0000      -0.445419       -12.1205
  55   2.0000      -0.425044       -11.5660
  56   2.0000      -0.419373       -11.4117
  57   2.0000      -0.413943       -11.2639
  58   2.0000      -0.409478       -11.1425
  59   2.0000      -0.398760       -10.8508
  60   2.0000      -0.391910       -10.6644
  61   2.0000      -0.390087       -10.6148
  62   2.0000      -0.380692       -10.3592
  63   2.0000      -0.372970       -10.1490
  64   2.0000      -0.371935       -10.1209
  65   2.0000      -0.366580        -9.9752
  66   2.0000      -0.360796        -9.8178
  67   2.0000      -0.358512        -9.7556
  68   2.0000      -0.350348        -9.5335
  69   2.0000      -0.339070        -9.2266
  70   2.0000      -0.330861        -9.0032
  71   2.0000      -0.325060        -8.8453
  72   2.0000      -0.313370        -8.5272
  73   2.0000      -0.312145        -8.4939
  74   2.0000      -0.304849        -8.2954
  75   2.0000      -0.298858        -8.1323
  76   2.0000      -0.281255        -7.6533
  77   2.0000      -0.276030        -7.5111
  78   2.0000      -0.273540        -7.4434
  79   2.0000      -0.263519        -7.1707
  80   2.0000      -0.249292        -6.7836
  81   2.0000      -0.244619        -6.6564
  82   2.0000      -0.232746        -6.3333
  83   2.0000      -0.222493        -6.0543
  84   2.0000      -0.190149        -5.1742
  85   2.0000      -0.184307        -5.0153
  86   2.0000      -0.177172        -4.8211
  87   0.0000      -0.033967        -0.9243
  88   0.0000      -0.029161        -0.7935
  89   0.0000      -0.020493        -0.5576
  90   0.0000       0.009614         0.2616
  91   0.0000       0.034826         0.9477

MULLIKEN ATOMIC CHARGES
-----------------------
   0 C :   -0.272311
   1 C :   -0.030327
   2 O :   -0.226159
   3 C :    0.108834
   4 O :   -0.191739
   5 C :   -0.063898
   6 C :   -0.284376
   7 H :    0.145290
   8 C :    0.187840
   9 O :   -0.181216
  10 O :   -0.225419
  11 C :   -0.029674
  12 C :   -0.274104
  13 S :   -0.100612
  14 P :    0.656329
  15 S :   -0.346435
  16 O :   -0.400177
  17 C :   -0.080518
  18 O :   -0.357988
  19 C :   -0.107105
  20 H :    0.113885
  21 H :    0.116820
  22 H :    0.112367
  23 H :    0.113889
  24 H :    0.105455
  25 H :    0.102393
  26 H :    0.138049
  27 H :    0.109385
  28 H :    0.120027
  29 H :    0.115721
  30 H :    0.115352
  31 H :    0.119579
  32 H :    0.110520
  33 H :    0.108040
  34 H :    0.112516
  35 H :    0.115803
  36 H :    0.125240
  37 H :    0.118723
Sum of atomic charges:    0.0000000

LOEWDIN ATOMIC CHARGES
----------------------
   0 C :   -0.350611
   1 C :   -0.106546
   2 O :   -0.058057
   3 C :    0.024923
   4 O :   -0.158602
   5 C :   -0.258881
   6 C :   -0.260393
   7 H :    0.148287
   8 C :    0.012299
   9 O :   -0.151274
  10 O :   -0.047822
  11 C :   -0.103146
  12 C :   -0.350513
  13 S :    0.100997
  14 P :    0.601994
  15 S :   -0.324994
  16 O :   -0.264032
  17 C :   -0.210451
  18 O :   -0.236773
  19 C :   -0.213103
  20 H :    0.126233
  21 H :    0.127554
  22 H :    0.131124
  23 H :    0.120603
  24 H :    0.117074
  25 H :    0.136284
  26 H :    0.146209
  27 H :    0.118680
  28 H :    0.124283
  29 H :    0.127060
  30 H :    0.133124
  31 H :    0.128960
  32 H :    0.107434
  33 H :    0.111521
  34 H :    0.110015
  35 H :    0.110522
  36 H :    0.123524
  37 H :    0.106492

  Mayer bond orders larger than 0.100000
B(  0-C ,  1-C ) :   1.1512 B(  0-C , 20-H ) :   0.9494 B(  0-C , 21-H ) :   0.9505
B(  0-C , 22-H ) :   0.9441 B(  1-C ,  2-O ) :   0.9023 B(  1-C , 23-H ) :   0.9282
B(  1-C , 24-H ) :   0.9337 B(  2-O ,  3-C ) :   1.2453 B(  3-C ,  4-O ) :   1.9782
B(  3-C ,  5-C ) :   1.0407 B(  5-C ,  6-C ) :   1.0132 B(  5-C , 25-H ) :   0.8892
B(  5-C , 26-H ) :   0.8640 B(  6-C ,  7-H ) :   0.8726 B(  6-C ,  8-C ) :   0.8993
B(  6-C , 13-S ) :   1.0871 B(  8-C ,  9-O ) :   2.0083 B(  8-C , 10-O ) :   1.2554
B( 10-O , 11-C ) :   0.8930 B( 11-C , 12-C ) :   1.1534 B( 11-C , 27-H ) :   0.9300
B( 11-C , 28-H ) :   0.9304 B( 12-C , 29-H ) :   0.9502 B( 12-C , 30-H ) :   0.9429
B( 12-C , 31-H ) :   0.9490 B( 13-S , 14-P ) :   0.9080 B( 13-S , 15-S ) :   0.1096
B( 14-P , 15-S ) :   1.5812 B( 14-P , 16-O ) :   1.0768 B( 14-P , 18-O ) :   1.1211
B( 16-O , 17-C ) :   0.9363 B( 17-C , 32-H ) :   0.9378 B( 17-C , 33-H ) :   0.9548
B( 17-C , 34-H ) :   0.9517 B( 18-O , 19-C ) :   0.9347 B( 19-C , 35-H ) :   0.9446
B( 19-C , 36-H ) :   0.9612 B( 19-C , 37-H ) :   0.9373

Dispersion correction           -0.052502452
FINAL SINGLE POINT ENERGY     -1978.999827927845

DIPOLE MOMENT
-------------

Method             : SCF
Type of density    : Electron Density
Multiplicity       :   1
Irrep              :   0
Energy             : -1979.1300148983928011 Eh
Relativity type    :
Basis              : AO
                                X                 Y                 Z
Electronic contribution:    -12.798289522      -2.386200671       1.227755054
Nuclear contribution   :     13.933065885       2.875953397      -2.294931894
                        -----------------------------------------
Total Dipole Moment    :      1.134776363       0.489752726      -1.067176840
                        -----------------------------------------
Magnitude (a.u.)       :      1.632924228
Magnitude (Debye)      :      4.150563538

Rotational constants in cm-1:             0.010744             0.008321             0.005469
Rotational constants in MHz :           322.105366           249.465876           163.953782

                             ****ORCA TERMINATED NORMALLY****
TOTAL RUN TIME: 0 days 0 hours 0 minutes 44 seconds 17 msec
