                         Program Version 6.0.0  -   RELEASE  -
|  1> ! pbe def2-sv(p) def2/J RI DEFGRID1 loosescf d4 GCP(DFT/SV(P)) printgap
|  2> %output
|  3>     printlevel normal
|  4> end
|  5> * xyz 0 1
|  6> C 3.1448271253 2.3769179167 -1.3739982813
|  7> C 1.9554573956 1.4423789261 -1.3049074127
|  8> O 1.592059172 1.194701784 0.0747679031
|  9> P 1.9862664109 -0.1368023512 0.8381735505
| 10> S 1.5775825506 0.0327493239 2.7411109609
| 11> O 3.5111970637 -0.2950639888 0.4205326325
| 12> C 4.2778558754 -1.5112480758 0.511079915
| 13> C 4.2115535652 -2.1509844146 1.8814932367
| 14> S 1.060967818 -1.7179549684 -0.2538859839
| 15> C -0.4989668741 -1.8340442255 0.6686930157
| 16> S -1.334937701 -0.2650147481 1.005412638
| 17> P -1.9723737554 0.3105139476 -0.9536174739
| 18> S -1.4414436465 -0.8204560083 -2.4573272829
| 19> O -1.4248372729 1.7717444686 -1.1810712964
| 20> C -1.3168108001 2.838483269 -0.2062790573
| 21> C -2.5760737039 3.0581759524 0.6025918162
| 22> O -3.5340159595 0.5741675814 -0.7879387725
| 23> C -4.478954256 -0.3498289832 -0.2242754616
| 24> C -4.5970229192 -1.6311655298 -1.024276184
| 25> H 3.3664264541 2.5924903142 -2.4144559556
| 26> H 2.9198455034 3.3034417898 -0.853117234
| 27> H 4.0110652394 1.9145278625 -0.9080440936
| 28> H 2.166061619 0.4883875051 -1.7972195718
| 29> H 1.068101415 1.8871603462 -1.7607486337
| 30> H 3.9134905927 -2.2005571255 -0.2559358774
| 31> H 5.2933244965 -1.1923159495 0.269238194
| 32> H 4.5077602318 -1.4389335337 2.6481241087
| 33> H 3.1954657988 -2.4803071698 2.0939241314
| 34> H 4.8753200632 -3.0091158916 1.9099294376
| 35> H -0.3047678836 -2.2633226955 1.6500805146
| 36> H -1.1365591843 -2.4804945056 0.0688668017
| 37> H -0.4704549977 2.6093101805 0.4482545137
| 38> H -1.081356333 3.7099394243 -0.8198800734
| 39> H -3.4291928191 3.1973963795 -0.0562648588
| 40> H -2.7624423509 2.2074109598 1.2560548571
| 41> H -2.4454046807 3.9448611713 1.2157585132
| 42> H -4.1821361445 -0.5616204897 0.8075842559
| 43> H -5.4176595473 0.2070208092 -0.2300043033
| 44> H -4.8339181038 -1.4084348129 -2.061642154
| 45> H -3.6584455626 -2.1822165293 -1.0016061277
| 46> H -5.3817382325 -2.2492412268 -0.5999460971
| 47> *
| 48>
| 49>                          ****END OF INPUT****

CARTESIAN COORDINATES (ANGSTROEM)
---------------------------------
  C      3.144827    2.376918   -1.373998
  C      1.955457    1.442379   -1.304907
  O      1.592059    1.194702    0.074768
  P      1.986266   -0.136802    0.838174
  S      1.577583    0.032749    2.741111
  O      3.511197   -0.295064    0.420533
  C      4.277856   -1.511248    0.511080
  C      4.211554   -2.150984    1.881493
  S      1.060968   -1.717955   -0.253886
  C     -0.498967   -1.834044    0.668693
  S     -1.334938   -0.265015    1.005413
  P     -1.972374    0.310514   -0.953617
  S     -1.441444   -0.820456   -2.457327
  O     -1.424837    1.771744   -1.181071
  C     -1.316811    2.838483   -0.206279
  C     -2.576074    3.058176    0.602592
  O     -3.534016    0.574168   -0.787939
  C     -4.478954   -0.349829   -0.224275
  C     -4.597023   -1.631166   -1.024276
  H      3.366426    2.592490   -2.414456
  H      2.919846    3.303442   -0.853117
  H      4.011065    1.914528   -0.908044
  H      2.166062    0.488388   -1.797220
  H      1.068101    1.887160   -1.760749
  H      3.913491   -2.200557   -0.255936
  H      5.293324   -1.192316    0.269238
  H      4.507760   -1.438934    2.648124
  H      3.195466   -2.480307    2.093924
  H      4.875320   -3.009116    1.909929
  H     -0.304768   -2.263323    1.650081
  H     -1.136559   -2.480495    0.068867
  H     -0.470455    2.609310    0.448255
  H     -1.081356    3.709939   -0.819880
  H     -3.429193    3.197396   -0.056265
  H     -2.762442    2.207411    1.256055
  H     -2.445405    3.944861    1.215759
  H     -4.182136   -0.561620    0.807584
  H     -5.417660    0.207021   -0.230004
  H     -4.833918   -1.408435   -2.061642
  H     -3.658446   -2.182217   -1.001606
  H     -5.381738   -2.249241   -0.599946

 Total Charge           Charge          ....    0
 Multiplicity           Mult            ....    1
 Number of Electrons    NEL             ....  202
 Basis Dimension        Dim             ....  334

ORBITAL ENERGIES
----------------

  NO   OCC          E(Eh)            E(eV)
   0   2.0000     -88.046834     -2395.8762
   1   2.0000     -88.041404     -2395.7284
   2   2.0000     -87.981660     -2394.1027
   3   2.0000     -87.980223     -2394.0636
   4   2.0000     -76.425914     -2079.6548
   5   2.0000     -76.424842     -2079.6257
   6   2.0000     -18.795654      -511.4557
   7   2.0000     -18.789632      -511.2919
   8   2.0000     -18.789446      -511.2868
   9   2.0000     -18.787656      -511.2381
  10   2.0000      -9.961583      -271.0684
  11   2.0000      -9.959548      -271.0131
  12   2.0000      -9.955531      -270.9038
  13   2.0000      -9.952495      -270.8212
  14   2.0000      -9.946361      -270.6542
  15   2.0000      -9.887910      -269.0637
  16   2.0000      -9.884005      -268.9574
  17   2.0000      -9.883801      -268.9519
  18   2.0000      -9.881701      -268.8948
  19   2.0000      -7.690577      -209.2712
  20   2.0000      -7.686146      -209.1507
  21   2.0000      -7.627011      -207.5415
  22   2.0000      -7.625518      -207.5009
  23   2.0000      -6.422794      -174.7731
  24   2.0000      -6.421770      -174.7452
  25   2.0000      -5.718511      -155.6086
  26   2.0000      -5.714930      -155.5111
  27   2.0000      -5.714048      -155.4872
  28   2.0000      -5.710622      -155.3939
  29   2.0000      -5.707823      -155.3178
  30   2.0000      -5.703184      -155.1915
  31   2.0000      -5.656142      -153.9114
  32   2.0000      -5.654640      -153.8706
  33   2.0000      -5.647481      -153.6758
  34   2.0000      -5.647082      -153.6649
  35   2.0000      -5.646204      -153.6410
  36   2.0000      -5.645377      -153.6185
  37   2.0000      -4.645697      -126.4158
  38   2.0000      -4.644809      -126.3917
  39   2.0000      -4.644354      -126.3793
  40   2.0000      -4.643948      -126.3682
  41   2.0000      -4.642832      -126.3379
  42   2.0000      -4.641928      -126.3133
  43   2.0000      -0.987802       -26.8794
  44   2.0000      -0.984228       -26.7822
  45   2.0000      -0.943197       -25.6657
  46   2.0000      -0.941881       -25.6299
  47   2.0000      -0.763287       -20.7701
  48   2.0000      -0.718557       -19.5529
  49   2.0000      -0.711103       -19.3501
  50   2.0000      -0.690297       -18.7839
  51   2.0000      -0.689721       -18.7683
  52   2.0000      -0.675104       -18.3705
  53   2.0000      -0.649806       -17.6821
  54   2.0000      -0.640519       -17.4294
  55   2.0000      -0.591641       -16.0994
  56   2.0000      -0.588687       -16.0190
  57   2.0000      -0.577148       -15.7050
  58   2.0000      -0.573763       -15.6129
  59   2.0000      -0.570197       -15.5158
  60   2.0000      -0.505252       -13.7486
  61   2.0000      -0.491856       -13.3841
  62   2.0000      -0.471542       -12.8313
  63   2.0000      -0.470351       -12.7989
  64   2.0000      -0.460666       -12.5354
  65   2.0000      -0.447989       -12.1904
  66   2.0000      -0.439389       -11.9564
  67   2.0000      -0.433429       -11.7942
  68   2.0000      -0.432922       -11.7804
  69   2.0000      -0.412410       -11.2223
  70   2.0000      -0.408109       -11.1052
  71   2.0000      -0.402605       -10.9554
  72   2.0000      -0.399154       -10.8615
  73   2.0000      -0.394202       -10.7268
  74   2.0000      -0.381780       -10.3888
  75   2.0000      -0.375662       -10.2223
  76   2.0000      -0.355120        -9.6633
  77   2.0000      -0.353509        -9.6195
  78   2.0000      -0.352780        -9.5996
  79   2.0000      -0.350379        -9.5343
  80   2.0000      -0.347312        -9.4508
  81   2.0000      -0.346719        -9.4347
  82   2.0000      -0.342056        -9.3078
  83   2.0000      -0.339581        -9.2405
  84   2.0000      -0.336133        -9.1466
  85   2.0000      -0.321153        -8.7390
  86   2.0000      -0.313338        -8.5264
  87   2.0000      -0.297544        -8.0966
  88   2.0000      -0.293768        -7.9938
  89   2.0000      -0.290854        -7.9146
  90   2.0000      -0.285480        -7.7683
  91   2.0000      -0.275882        -7.5071
  92   2.0000      -0.272809        -7.4235
  93   2.0000      -0.263848        -7.1797
  94   2.0000      -0.256875        -6.9899
  95   2.0000      -0.236654        -6.4397
  96   2.0000      -0.221868        -6.0373
  97   2.0000      -0.208374        -5.6701
  98   2.0000      -0.200720        -5.4619
  99   2.0000      -0.190834        -5.1928
 100   2.0000      -0.185155        -5.0383
 101   0.0000      -0.047707        -1.2982
 102   0.0000      -0.028644        -0.7795
 103   0.0000      -0.006526        -0.1776
 104   0.0000      -0.000224        -0.0061
 105   0.0000       0.011512         0.3133

MULLIKEN ATOMIC CHARGES
-----------------------
   0 C :   -0.282847
   1 C :   -0.025851
   2 O :   -0.360548
   3 P :    0.593785
   4 S :   -0.312970
   5 O :   -0.379749
   6 C :   -0.008395
   7 C :   -0.309028
   8 S :   -0.093395
   9 C :   -0.310535
  10 S :   -0.112971
  11 P :    0.598496
  12 S :   -0.312497
  13 O :   -0.367352
  14 C :   -0.029230
  15 C :   -0.308494
  16 O :   -0.370889
  17 C :   -0.006658
  18 C :   -0.309836
  19 H :    0.109500
  20 H :    0.112704
  21 H :    0.116941
  22 H :    0.102836
  23 H :    0.128927
  24 H :    0.113857
  25 H :    0.108602
  26 H :    0.127797
  27 H :    0.123093
  28 H :    0.111394
  29 H :    0.186104
  30 H :    0.184928
  31 H :    0.142723
  32 H :    0.106372
  33 H :    0.124046
  34 H :    0.123369
  35 H :    0.116707
  36 H :    0.103813
  37 H :    0.106316
  38 H :    0.125102
  39 H :    0.124876
  40 H :    0.108959
Sum of atomic charges:   -0.0000000

LOEWDIN ATOMIC CHARGES
----------------------
   0 C :   -0.357642
   1 C :   -0.120236
   2 O :   -0.235494
   3 P :    0.563591
   4 S :   -0.316753
   5 O :   -0.244800
   6 C :   -0.114995
   7 C :   -0.369617
   8 S :    0.075401
   9 C :   -0.470702
  10 S :    0.089989
  11 P :    0.559423
  12 S :   -0.312671
  13 O :   -0.234213
  14 C :   -0.118719
  15 C :   -0.365703
  16 O :   -0.243575
  17 C :   -0.119437
  18 C :   -0.366714
  19 H :    0.129255
  20 H :    0.125436
  21 H :    0.124576
  22 H :    0.106416
  23 H :    0.120418
  24 H :    0.109064
  25 H :    0.120819
  26 H :    0.130432
  27 H :    0.120110
  28 H :    0.130102
  29 H :    0.135491
  30 H :    0.131513
  31 H :    0.119441
  32 H :    0.120460
  33 H :    0.128355
  34 H :    0.117363
  35 H :    0.133493
  36 H :    0.102828
  37 H :    0.119768
  38 H :    0.130914
  39 H :    0.117908
  40 H :    0.128706

  Mayer bond orders larger than 0.100000
B(  0-C ,  1-C ) :   1.1620 B(  0-C , 19-H ) :   0.9412 B(  0-C , 20-H ) :   0.9481
B(  0-C , 21-H ) :   0.9432 B(  1-C ,  2-O ) :   0.8817 B(  1-C , 22-H ) :   0.9158
B(  1-C , 23-H ) :   0.9199 B(  2-O ,  3-P ) :   1.1113 B(  3-P ,  4-S ) :   1.6400
B(  3-P ,  5-O ) :   1.0780 B(  3-P ,  8-S ) :   0.9601 B(  4-S ,  8-S ) :   0.1138
B(  5-O ,  6-C ) :   0.9116 B(  6-C ,  7-C ) :   1.1679 B(  6-C , 24-H ) :   0.9264
B(  6-C , 25-H ) :   0.9329 B(  7-C , 26-H ) :   0.9420 B(  7-C , 27-H ) :   0.9326
B(  7-C , 28-H ) :   0.9343 B(  8-S ,  9-C ) :   0.9976 B(  9-C , 10-S ) :   1.0104
B(  9-C , 29-H ) :   0.8971 B(  9-C , 30-H ) :   0.8940 B( 10-S , 11-P ) :   0.9299
B( 10-S , 12-S ) :   0.1126 B( 11-P , 12-S ) :   1.6527 B( 11-P , 13-O ) :   1.1318
B( 11-P , 16-O ) :   1.0796 B( 13-O , 14-C ) :   0.8878 B( 14-C , 15-C ) :   1.1738
B( 14-C , 31-H ) :   0.9109 B( 14-C , 32-H ) :   0.9338 B( 15-C , 33-H ) :   0.9409
B( 15-C , 34-H ) :   0.9402 B( 15-C , 35-H ) :   0.9343 B( 16-O , 17-C ) :   0.9208
B( 17-C , 18-C ) :   1.1643 B( 17-C , 36-H ) :   0.9178 B( 17-C , 37-H ) :   0.9337
B( 18-C , 38-H ) :   0.9439 B( 18-C , 39-H ) :   0.9340 B( 18-C , 40-H ) :   0.9360

Dispersion correction           -0.068054775
FINAL SINGLE POINT ENERGY     -2929.514833163757

DIPOLE MOMENT
-------------

Method             : SCF
Type of density    : Electron Density
Multiplicity       :   1
Irrep              :   0
Energy             : -2929.6332360314777361 Eh
Relativity type    :
Basis              : AO
                                X                 Y                 Z
Electronic contribution:     -0.244332761      -4.314282991       0.373260656
Nuclear contribution   :      0.193344750       4.284320698      -0.315517280
                        -----------------------------------------
Total Dipole Moment    :     -0.050988011      -0.029962294       0.057743376
                        -----------------------------------------
Magnitude (a.u.)       :      0.082654787
Magnitude (Debye)      :      0.210091772

Rotational constants in cm-1:             0.012698             0.005346             0.005006
Rotational constants in MHz :           380.669316           160.278845           150.087559

                             ****ORCA TERMINATED NORMALLY****
TOTAL RUN TIME: 0 days 0 hours 0 minutes 21 seconds 851 msec
