                         Program Version 6.0.0  -   RELEASE  -
|  1> ! pbe def2-sv(p) def2/J RI DEFGRID1 loosescf d4 GCP(DFT/SV(P)) printgap
|  2> %output
|  3>     printlevel normal
|  4> end
|  5> * xyz 0 1
|  6> C 2.7935380685 -2.2745096627 -2.5252448795
|  7> C 3.4840742228 -1.1150176119 -1.8343761849
|  8> O 2.9771113908 -0.9852270239 -0.4880886199
|  9> P 2.2185847959 0.2866892742 0.06527652
| 10> S 1.5615608842 1.5393363608 -1.3050637907
| 11> O 3.3253035784 0.9346732704 1.0072441992
| 12> C 3.217748325 2.2677428876 1.5302564647
| 13> C 2.0992578902 2.3861659988 2.5461162836
| 14> S 0.9662336761 -0.6784859535 1.4628331607
| 15> C 0.1995036211 -1.9166176395 0.3740828288
| 16> S -0.6017882188 -1.2046908904 -1.0916244093
| 17> P -1.9666804212 0.1208643843 -0.1565887413
| 18> S -1.4373772578 1.7994889831 0.6912116657
| 19> O -2.7345360565 -0.9031795932 0.7998720676
| 20> C -3.0894849732 -0.6370144573 2.1725299388
| 21> C -2.2588274 -1.4846207323 3.1151661334
| 22> O -2.9547228729 0.428363829 -1.3536723653
| 23> C -3.6347656459 -0.6123744712 -2.1038885385
| 24> C -4.987307447 -0.0778417884 -2.5276080779
| 25> H 3.2099656041 -2.3911957984 -3.5203979825
| 26> H 2.9468262907 -3.1915766344 -1.9635628773
| 27> H 1.7255888928 -2.0793497372 -2.608335725
| 28> H 3.3101100942 -0.1770244885 -2.3717276204
| 29> H 4.5568661702 -1.2867595067 -1.7336881853
| 30> H 4.1942067382 2.4528576231 1.9799697747
| 31> H 3.0539513315 2.9571214092 0.6951336225
| 32> H 2.2091190475 1.6297919 3.3194224654
| 33> H 2.1233365038 3.3724867204 2.9980237844
| 34> H 1.1320856995 2.2529254174 2.0585178609
| 35> H -0.5393063037 -2.439768163 0.9768391659
| 36> H 0.9610686455 -2.5981683622 0.001916725
| 37> H -2.9456317272 0.4292279883 2.3741918821
| 38> H -4.1498999266 -0.885000202 2.2454258338
| 39> H -1.2091227967 -1.2021123737 3.0547389293
| 40> H -2.6070515073 -1.3201047094 4.1296598714
| 41> H -2.3658901055 -2.5376715272 2.8698907859
| 42> H -3.0099565761 -0.8499213119 -2.9678347614
| 43> H -3.7344456259 -1.4967555941 -1.4704346348
| 44> H -4.8602723634 0.8266141523 -3.1158315473
| 45> H -5.4943455212 -0.8284444204 -3.1253492697
| 46> H -5.590151118 0.1567472828 -1.6546273318
| 47> *
| 48>
| 49>                          ****END OF INPUT****

CARTESIAN COORDINATES (ANGSTROEM)
---------------------------------
  C      2.793538   -2.274510   -2.525245
  C      3.484074   -1.115018   -1.834376
  O      2.977111   -0.985227   -0.488089
  P      2.218585    0.286689    0.065277
  S      1.561561    1.539336   -1.305064
  O      3.325304    0.934673    1.007244
  C      3.217748    2.267743    1.530256
  C      2.099258    2.386166    2.546116
  S      0.966234   -0.678486    1.462833
  C      0.199504   -1.916618    0.374083
  S     -0.601788   -1.204691   -1.091624
  P     -1.966680    0.120864   -0.156589
  S     -1.437377    1.799489    0.691212
  O     -2.734536   -0.903180    0.799872
  C     -3.089485   -0.637014    2.172530
  C     -2.258827   -1.484621    3.115166
  O     -2.954723    0.428364   -1.353672
  C     -3.634766   -0.612374   -2.103889
  C     -4.987307   -0.077842   -2.527608
  H      3.209966   -2.391196   -3.520398
  H      2.946826   -3.191577   -1.963563
  H      1.725589   -2.079350   -2.608336
  H      3.310110   -0.177024   -2.371728
  H      4.556866   -1.286760   -1.733688
  H      4.194207    2.452858    1.979970
  H      3.053951    2.957121    0.695134
  H      2.209119    1.629792    3.319422
  H      2.123337    3.372487    2.998024
  H      1.132086    2.252925    2.058518
  H     -0.539306   -2.439768    0.976839
  H      0.961069   -2.598168    0.001917
  H     -2.945632    0.429228    2.374192
  H     -4.149900   -0.885000    2.245426
  H     -1.209123   -1.202112    3.054739
  H     -2.607052   -1.320105    4.129660
  H     -2.365890   -2.537672    2.869891
  H     -3.009957   -0.849921   -2.967835
  H     -3.734446   -1.496756   -1.470435
  H     -4.860272    0.826614   -3.115832
  H     -5.494346   -0.828444   -3.125349
  H     -5.590151    0.156747   -1.654627

 Total Charge           Charge          ....    0
 Multiplicity           Mult            ....    1
 Number of Electrons    NEL             ....  202
 Basis Dimension        Dim             ....  334

ORBITAL ENERGIES
----------------

  NO   OCC          E(Eh)            E(eV)
   0   2.0000     -88.040352     -2395.6998
   1   2.0000     -88.038627     -2395.6528
   2   2.0000     -87.977278     -2393.9834
   3   2.0000     -87.974975     -2393.9208
   4   2.0000     -76.422112     -2079.5514
   5   2.0000     -76.419928     -2079.4920
   6   2.0000     -18.794351      -511.4203
   7   2.0000     -18.790490      -511.3152
   8   2.0000     -18.789492      -511.2881
   9   2.0000     -18.784803      -511.1605
  10   2.0000      -9.960478      -271.0384
  11   2.0000      -9.954425      -270.8737
  12   2.0000      -9.951394      -270.7912
  13   2.0000      -9.948377      -270.7091
  14   2.0000      -9.943003      -270.5629
  15   2.0000      -9.889925      -269.1185
  16   2.0000      -9.889648      -269.1110
  17   2.0000      -9.886998      -269.0389
  18   2.0000      -9.875842      -268.7353
  19   2.0000      -7.685239      -209.1260
  20   2.0000      -7.683606      -209.0815
  21   2.0000      -7.622130      -207.4087
  22   2.0000      -7.619711      -207.3429
  23   2.0000      -6.419521      -174.6840
  24   2.0000      -6.417291      -174.6234
  25   2.0000      -5.713269      -155.4660
  26   2.0000      -5.711731      -155.4241
  27   2.0000      -5.709672      -155.3681
  28   2.0000      -5.708134      -155.3262
  29   2.0000      -5.702096      -155.1619
  30   2.0000      -5.700264      -155.1121
  31   2.0000      -5.651251      -153.7784
  32   2.0000      -5.648722      -153.7095
  33   2.0000      -5.642558      -153.5418
  34   2.0000      -5.642259      -153.5337
  35   2.0000      -5.640328      -153.4811
  36   2.0000      -5.639852      -153.4682
  37   2.0000      -4.642613      -126.3319
  38   2.0000      -4.641100      -126.2908
  39   2.0000      -4.639905      -126.2582
  40   2.0000      -4.639695      -126.2525
  41   2.0000      -4.639148      -126.2376
  42   2.0000      -4.637596      -126.1954
  43   2.0000      -0.982938       -26.7471
  44   2.0000      -0.980920       -26.6922
  45   2.0000      -0.942958       -25.6592
  46   2.0000      -0.940971       -25.6051
  47   2.0000      -0.762976       -20.7616
  48   2.0000      -0.720351       -19.6017
  49   2.0000      -0.709322       -19.3016
  50   2.0000      -0.693124       -18.8609
  51   2.0000      -0.680338       -18.5129
  52   2.0000      -0.667746       -18.1703
  53   2.0000      -0.647134       -17.6094
  54   2.0000      -0.633151       -17.2289
  55   2.0000      -0.594210       -16.1693
  56   2.0000      -0.586349       -15.9554
  57   2.0000      -0.571210       -15.5434
  58   2.0000      -0.567962       -15.4550
  59   2.0000      -0.562899       -15.3173
  60   2.0000      -0.506344       -13.7783
  61   2.0000      -0.495255       -13.4766
  62   2.0000      -0.481140       -13.0925
  63   2.0000      -0.465658       -12.6712
  64   2.0000      -0.460191       -12.5224
  65   2.0000      -0.442425       -12.0390
  66   2.0000      -0.436055       -11.8657
  67   2.0000      -0.433125       -11.7859
  68   2.0000      -0.425714       -11.5843
  69   2.0000      -0.413685       -11.2569
  70   2.0000      -0.406317       -11.0565
  71   2.0000      -0.396639       -10.7931
  72   2.0000      -0.387023       -10.5314
  73   2.0000      -0.385474       -10.4893
  74   2.0000      -0.382090       -10.3972
  75   2.0000      -0.372476       -10.1356
  76   2.0000      -0.366792        -9.9809
  77   2.0000      -0.359917        -9.7938
  78   2.0000      -0.357027        -9.7152
  79   2.0000      -0.351523        -9.5654
  80   2.0000      -0.346457        -9.4276
  81   2.0000      -0.342156        -9.3105
  82   2.0000      -0.339579        -9.2404
  83   2.0000      -0.337919        -9.1952
  84   2.0000      -0.330429        -8.9914
  85   2.0000      -0.320492        -8.7210
  86   2.0000      -0.306651        -8.3444
  87   2.0000      -0.304714        -8.2917
  88   2.0000      -0.291558        -7.9337
  89   2.0000      -0.283247        -7.7075
  90   2.0000      -0.278280        -7.5724
  91   2.0000      -0.271827        -7.3968
  92   2.0000      -0.267677        -7.2838
  93   2.0000      -0.260775        -7.0961
  94   2.0000      -0.255387        -6.9494
  95   2.0000      -0.247416        -6.7325
  96   2.0000      -0.219464        -5.9719
  97   2.0000      -0.205342        -5.5876
  98   2.0000      -0.186942        -5.0870
  99   2.0000      -0.183025        -4.9804
 100   2.0000      -0.178781        -4.8649
 101   0.0000      -0.050937        -1.3861
 102   0.0000      -0.028680        -0.7804
 103   0.0000      -0.007142        -0.1943
 104   0.0000      -0.001052        -0.0286
 105   0.0000       0.022753         0.6191

MULLIKEN ATOMIC CHARGES
-----------------------
   0 C :   -0.309061
   1 C :   -0.000036
   2 O :   -0.378659
   3 P :    0.614613
   4 S :   -0.300787
   5 O :   -0.369124
   6 C :    0.004301
   7 C :   -0.347248
   8 S :   -0.105629
   9 C :   -0.350961
  10 S :   -0.107648
  11 P :    0.618440
  12 S :   -0.274365
  13 O :   -0.397894
  14 C :   -0.005855
  15 C :   -0.315279
  16 O :   -0.364619
  17 C :   -0.026876
  18 C :   -0.274411
  19 H :    0.112595
  20 H :    0.114364
  21 H :    0.128589
  22 H :    0.110364
  23 H :    0.104852
  24 H :    0.101185
  25 H :    0.109959
  26 H :    0.114525
  27 H :    0.111856
  28 H :    0.157024
  29 H :    0.187146
  30 H :    0.191136
  31 H :    0.113214
  32 H :    0.099959
  33 H :    0.134977
  34 H :    0.114242
  35 H :    0.116194
  36 H :    0.112647
  37 H :    0.107273
  38 H :    0.124582
  39 H :    0.109513
  40 H :    0.114902
Sum of atomic charges:    0.0000000

LOEWDIN ATOMIC CHARGES
----------------------
   0 C :   -0.359577
   1 C :   -0.117120
   2 O :   -0.246634
   3 P :    0.565098
   4 S :   -0.302085
   5 O :   -0.247198
   6 C :   -0.119645
   7 C :   -0.375166
   8 S :    0.091403
   9 C :   -0.471586
  10 S :    0.083478
  11 P :    0.563522
  12 S :   -0.282214
  13 O :   -0.261808
  14 C :   -0.119894
  15 C :   -0.362137
  16 O :   -0.244199
  17 C :   -0.120818
  18 C :   -0.349659
  19 H :    0.131687
  20 H :    0.122375
  21 H :    0.120722
  22 H :    0.107778
  23 H :    0.117028
  24 H :    0.116717
  25 H :    0.110016
  26 H :    0.121926
  27 H :    0.131318
  28 H :    0.123594
  29 H :    0.130930
  30 H :    0.133405
  31 H :    0.108185
  32 H :    0.115168
  33 H :    0.118935
  34 H :    0.133250
  35 H :    0.122206
  36 H :    0.114260
  37 H :    0.108793
  38 H :    0.131210
  39 H :    0.129519
  40 H :    0.127220

  Mayer bond orders larger than 0.100000
B(  0-C ,  1-C ) :   1.1682 B(  0-C , 19-H ) :   0.9395 B(  0-C , 20-H ) :   0.9461
B(  0-C , 21-H ) :   0.9374 B(  1-C ,  2-O ) :   0.8996 B(  1-C , 22-H ) :   0.8978
B(  1-C , 23-H ) :   0.9330 B(  2-O ,  3-P ) :   1.1092 B(  3-P ,  4-S ) :   1.6345
B(  3-P ,  5-O ) :   1.1164 B(  3-P ,  8-S ) :   0.9436 B(  4-S ,  8-S ) :   0.1130
B(  5-O ,  6-C ) :   0.9113 B(  6-C ,  7-C ) :   1.1625 B(  6-C , 24-H ) :   0.9334
B(  6-C , 25-H ) :   0.9128 B(  7-C , 26-H ) :   0.9437 B(  7-C , 27-H ) :   0.9379
B(  7-C , 28-H ) :   0.9222 B(  8-S ,  9-C ) :   1.0052 B(  9-C , 10-S ) :   1.0071
B(  9-C , 29-H ) :   0.8978 B(  9-C , 30-H ) :   0.8999 B( 10-S , 11-P ) :   0.9471
B( 10-S , 12-S ) :   0.1079 B( 11-P , 12-S ) :   1.6723 B( 11-P , 13-O ) :   1.0517
B( 11-P , 16-O ) :   1.1337 B( 13-O , 14-C ) :   0.9084 B( 14-C , 15-C ) :   1.1701
B( 14-C , 31-H ) :   0.8966 B( 14-C , 32-H ) :   0.9331 B( 15-C , 33-H ) :   0.9310
B( 15-C , 34-H ) :   0.9370 B( 15-C , 35-H ) :   0.9418 B( 16-O , 17-C ) :   0.8961
B( 17-C , 18-C ) :   1.1643 B( 17-C , 36-H ) :   0.9306 B( 17-C , 37-H ) :   0.9171
B( 18-C , 38-H ) :   0.9496 B( 18-C , 39-H ) :   0.9409 B( 18-C , 40-H ) :   0.9500

Dispersion correction           -0.067162925
FINAL SINGLE POINT ENERGY     -2929.509949050992

DIPOLE MOMENT
-------------

Method             : SCF
Type of density    : Electron Density
Multiplicity       :   1
Irrep              :   0
Energy             : -2929.6268619053489601 Eh
Relativity type    :
Basis              : AO
                                X                 Y                 Z
Electronic contribution:      6.431232525       7.463156734      -1.931089719
Nuclear contribution   :     -6.875163944      -9.050953994       2.125752264
                        -----------------------------------------
Total Dipole Moment    :     -0.443931419      -1.587797261       0.194662546
                        -----------------------------------------
Magnitude (a.u.)       :      1.660141185
Magnitude (Debye)      :      4.219743543

Rotational constants in cm-1:             0.010937             0.005767             0.005066
Rotational constants in MHz :           327.883560           172.901482           151.867982

                             ****ORCA TERMINATED NORMALLY****
TOTAL RUN TIME: 0 days 0 hours 0 minutes 23 seconds 189 msec
