                         Program Version 6.0.0  -   RELEASE  -
|  1> ! pbe def2-sv(p) def2/J RI DEFGRID1 loosescf d4 GCP(DFT/SV(P)) printgap
|  2> %output
|  3>     printlevel normal
|  4> end
|  5> * xyz 0 1
|  6> C 2.0656646695 2.8388075441 0.3150351939
|  7> C 1.4615830187 2.0306233338 1.4470274169
|  8> O 2.2474336904 0.8427570476 1.6621385328
|  9> P 1.7369964125 -0.6329051661 1.3562207026
| 10> S 0.3542051535 -1.3475927336 2.5399288716
| 11> O 3.068357523 -1.4525846336 1.5454786971
| 12> C 4.2802957859 -1.2010027815 0.7878081968
| 13> C 4.507464306 -2.3121157691 -0.2176576868
| 14> S 1.3132147969 -0.6234578742 -0.7323273852
| 15> C -0.0867610275 -1.7782030497 -0.750977715
| 16> S -1.4966552679 -1.2218424556 -1.7514676847
| 17> P -1.9781166529 0.6431496365 -0.8473422858
| 18> S -3.7392059541 1.3561227222 -1.3182873967
| 19> O -0.7613450555 1.6196502022 -1.1451839968
| 20> C -0.6950657225 2.3946799065 -2.3560676008
| 21> C -0.3009106905 1.5491784118 -3.551431726
| 22> O -1.6762909176 0.4478205479 0.7039062941
| 23> C -2.7422325428 0.1549099894 1.6251982199
| 24> C -3.2736322053 -1.2541187242 1.4582475212
| 25> H 2.0278539076 2.2700826769 -0.6111535137
| 26> H 1.4996240446 3.7570575024 0.1956849809
| 27> H 3.1000051606 3.0812671701 0.5422713207
| 28> H 0.4268635109 1.7544680649 1.227247417
| 29> H 1.4932165956 2.5788223107 2.3908096995
| 30> H 4.202770409 -0.22853157 0.2976047737
| 31> H 5.0742927427 -1.1723768929 1.5354707665
| 32> H 5.4742605921 -2.169177983 -0.6897730199
| 33> H 4.4936183149 -3.2753119526 0.2847750003
| 34> H 3.7346827252 -2.3004411552 -0.9820374379
| 35> H -0.4017083112 -1.9401839693 0.2830862797
| 36> H 0.2252246265 -2.708948772 -1.2185260765
| 37> H -1.6681710566 2.8699083132 -2.518551262
| 38> H 0.0553933404 3.1562924304 -2.1402262279
| 39> H -1.0996339373 0.8522432874 -3.8008876581
| 40> H -0.1212147913 2.1975225585 -4.4029264444
| 41> H 0.6019261966 0.9841976111 -3.3305135599
| 42> H -2.2880037767 0.2910461057 2.6078870881
| 43> H -3.5397189943 0.8883486625 1.4718556684
| 44> H -2.4849088412 -1.9798405768 1.6428244584
| 45> H -4.0746851039 -1.4175114494 2.1718238349
| 46> H -3.6652887914 -1.3887491685 0.4500232689
| 47> *
| 48>
| 49>                          ****END OF INPUT****

CARTESIAN COORDINATES (ANGSTROEM)
---------------------------------
  C      2.065665    2.838808    0.315035
  C      1.461583    2.030623    1.447027
  O      2.247434    0.842757    1.662139
  P      1.736996   -0.632905    1.356221
  S      0.354205   -1.347593    2.539929
  O      3.068358   -1.452585    1.545479
  C      4.280296   -1.201003    0.787808
  C      4.507464   -2.312116   -0.217658
  S      1.313215   -0.623458   -0.732327
  C     -0.086761   -1.778203   -0.750978
  S     -1.496655   -1.221842   -1.751468
  P     -1.978117    0.643150   -0.847342
  S     -3.739206    1.356123   -1.318287
  O     -0.761345    1.619650   -1.145184
  C     -0.695066    2.394680   -2.356068
  C     -0.300911    1.549178   -3.551432
  O     -1.676291    0.447821    0.703906
  C     -2.742233    0.154910    1.625198
  C     -3.273632   -1.254119    1.458248
  H      2.027854    2.270083   -0.611154
  H      1.499624    3.757058    0.195685
  H      3.100005    3.081267    0.542271
  H      0.426864    1.754468    1.227247
  H      1.493217    2.578822    2.390810
  H      4.202770   -0.228532    0.297605
  H      5.074293   -1.172377    1.535471
  H      5.474261   -2.169178   -0.689773
  H      4.493618   -3.275312    0.284775
  H      3.734683   -2.300441   -0.982037
  H     -0.401708   -1.940184    0.283086
  H      0.225225   -2.708949   -1.218526
  H     -1.668171    2.869908   -2.518551
  H      0.055393    3.156292   -2.140226
  H     -1.099634    0.852243   -3.800888
  H     -0.121215    2.197523   -4.402926
  H      0.601926    0.984198   -3.330514
  H     -2.288004    0.291046    2.607887
  H     -3.539719    0.888349    1.471856
  H     -2.484909   -1.979841    1.642824
  H     -4.074685   -1.417511    2.171824
  H     -3.665289   -1.388749    0.450023

 Total Charge           Charge          ....    0
 Multiplicity           Mult            ....    1
 Number of Electrons    NEL             ....  202
 Basis Dimension        Dim             ....  334

ORBITAL ENERGIES
----------------

  NO   OCC          E(Eh)            E(eV)
   0   2.0000     -88.049917     -2395.9601
   1   2.0000     -88.047431     -2395.8924
   2   2.0000     -87.990353     -2394.3392
   3   2.0000     -87.988951     -2394.3011
   4   2.0000     -76.429842     -2079.7617
   5   2.0000     -76.428116     -2079.7148
   6   2.0000     -18.796298      -511.4733
   7   2.0000     -18.793525      -511.3978
   8   2.0000     -18.790992      -511.3289
   9   2.0000     -18.790874      -511.3257
  10   2.0000      -9.960964      -271.0516
  11   2.0000      -9.958855      -270.9942
  12   2.0000      -9.953945      -270.8606
  13   2.0000      -9.952943      -270.8333
  14   2.0000      -9.945514      -270.6312
  15   2.0000      -9.890284      -269.1283
  16   2.0000      -9.889900      -269.1179
  17   2.0000      -9.885425      -268.9961
  18   2.0000      -9.876545      -268.7545
  19   2.0000      -7.694249      -209.3712
  20   2.0000      -7.692218      -209.3159
  21   2.0000      -7.635461      -207.7715
  22   2.0000      -7.634156      -207.7360
  23   2.0000      -6.427454      -174.8999
  24   2.0000      -6.425636      -174.8505
  25   2.0000      -5.722035      -155.7045
  26   2.0000      -5.720508      -155.6629
  27   2.0000      -5.718794      -155.6163
  28   2.0000      -5.716377      -155.5505
  29   2.0000      -5.711335      -155.4133
  30   2.0000      -5.709208      -155.3554
  31   2.0000      -5.664446      -154.1374
  32   2.0000      -5.663161      -154.1024
  33   2.0000      -5.656082      -153.9098
  34   2.0000      -5.655573      -153.8960
  35   2.0000      -5.654733      -153.8731
  36   2.0000      -5.654168      -153.8577
  37   2.0000      -4.650143      -126.5368
  38   2.0000      -4.649350      -126.5152
  39   2.0000      -4.647923      -126.4764
  40   2.0000      -4.647812      -126.4734
  41   2.0000      -4.647704      -126.4704
  42   2.0000      -4.645946      -126.4226
  43   2.0000      -0.990979       -26.9659
  44   2.0000      -0.988326       -26.8937
  45   2.0000      -0.946596       -25.7582
  46   2.0000      -0.945507       -25.7285
  47   2.0000      -0.764579       -20.8052
  48   2.0000      -0.724242       -19.7076
  49   2.0000      -0.712366       -19.3845
  50   2.0000      -0.692951       -18.8562
  51   2.0000      -0.684585       -18.6285
  52   2.0000      -0.679478       -18.4895
  53   2.0000      -0.655297       -17.8315
  54   2.0000      -0.639843       -17.4110
  55   2.0000      -0.600793       -16.3484
  56   2.0000      -0.592623       -16.1261
  57   2.0000      -0.578020       -15.7287
  58   2.0000      -0.567244       -15.4355
  59   2.0000      -0.565653       -15.3922
  60   2.0000      -0.509883       -13.8746
  61   2.0000      -0.494138       -13.4462
  62   2.0000      -0.482858       -13.1392
  63   2.0000      -0.467308       -12.7161
  64   2.0000      -0.459486       -12.5033
  65   2.0000      -0.452354       -12.3092
  66   2.0000      -0.444172       -12.0865
  67   2.0000      -0.439774       -11.9669
  68   2.0000      -0.425667       -11.5830
  69   2.0000      -0.421298       -11.4641
  70   2.0000      -0.410502       -11.1703
  71   2.0000      -0.404028       -10.9942
  72   2.0000      -0.396885       -10.7998
  73   2.0000      -0.390952       -10.6383
  74   2.0000      -0.383580       -10.4378
  75   2.0000      -0.372399       -10.1335
  76   2.0000      -0.369756       -10.0616
  77   2.0000      -0.360203        -9.8016
  78   2.0000      -0.355432        -9.6718
  79   2.0000      -0.353463        -9.6182
  80   2.0000      -0.351321        -9.5599
  81   2.0000      -0.347973        -9.4688
  82   2.0000      -0.342966        -9.3326
  83   2.0000      -0.335014        -9.1162
  84   2.0000      -0.331465        -9.0196
  85   2.0000      -0.324128        -8.8200
  86   2.0000      -0.317102        -8.6288
  87   2.0000      -0.302248        -8.2246
  88   2.0000      -0.299352        -8.1458
  89   2.0000      -0.295977        -8.0539
  90   2.0000      -0.287704        -7.8288
  91   2.0000      -0.279540        -7.6067
  92   2.0000      -0.270079        -7.3492
  93   2.0000      -0.266471        -7.2510
  94   2.0000      -0.261229        -7.1084
  95   2.0000      -0.231883        -6.3099
  96   2.0000      -0.222316        -6.0495
  97   2.0000      -0.214140        -5.8270
  98   2.0000      -0.208320        -5.6687
  99   2.0000      -0.202882        -5.5207
 100   2.0000      -0.202338        -5.5059
 101   0.0000      -0.045366        -1.2345
 102   0.0000      -0.035234        -0.9588
 103   0.0000      -0.026826        -0.7300
 104   0.0000      -0.003710        -0.1009
 105   0.0000       0.011964         0.3256

MULLIKEN ATOMIC CHARGES
-----------------------
   0 C :   -0.306434
   1 C :   -0.031061
   2 O :   -0.378913
   3 P :    0.602555
   4 S :   -0.304502
   5 O :   -0.355583
   6 C :   -0.011085
   7 C :   -0.287940
   8 S :   -0.124478
   9 C :   -0.347104
  10 S :   -0.092836
  11 P :    0.603374
  12 S :   -0.315642
  13 O :   -0.359163
  14 C :   -0.010714
  15 C :   -0.316109
  16 O :   -0.365999
  17 C :    0.004649
  18 C :   -0.332071
  19 H :    0.128048
  20 H :    0.115847
  21 H :    0.112839
  22 H :    0.140731
  23 H :    0.108771
  24 H :    0.101681
  25 H :    0.114090
  26 H :    0.109899
  27 H :    0.121804
  28 H :    0.117087
  29 H :    0.210010
  30 H :    0.180713
  31 H :    0.113401
  32 H :    0.104413
  33 H :    0.126841
  34 H :    0.111823
  35 H :    0.119120
  36 H :    0.109391
  37 H :    0.112071
  38 H :    0.134999
  39 H :    0.111028
  40 H :    0.124450
Sum of atomic charges:   -0.0000000

LOEWDIN ATOMIC CHARGES
----------------------
   0 C :   -0.358742
   1 C :   -0.119742
   2 O :   -0.245115
   3 P :    0.567902
   4 S :   -0.288224
   5 O :   -0.238351
   6 C :   -0.112627
   7 C :   -0.360457
   8 S :    0.075341
   9 C :   -0.481837
  10 S :    0.086104
  11 P :    0.569089
  12 S :   -0.313189
  13 O :   -0.236807
  14 C :   -0.120649
  15 C :   -0.369161
  16 O :   -0.234963
  17 C :   -0.123062
  18 C :   -0.370480
  19 H :    0.119696
  20 H :    0.130785
  21 H :    0.123655
  22 H :    0.115663
  23 H :    0.120473
  24 H :    0.106026
  25 H :    0.123445
  26 H :    0.129790
  27 H :    0.130008
  28 H :    0.118923
  29 H :    0.121629
  30 H :    0.137035
  31 H :    0.109847
  32 H :    0.115395
  33 H :    0.121155
  34 H :    0.130032
  35 H :    0.120405
  36 H :    0.117478
  37 H :    0.108836
  38 H :    0.123216
  39 H :    0.131661
  40 H :    0.119819

  Mayer bond orders larger than 0.100000
B(  0-C ,  1-C ) :   1.1667 B(  0-C , 19-H ) :   0.9370 B(  0-C , 20-H ) :   0.9382
B(  0-C , 21-H ) :   0.9447 B(  1-C ,  2-O ) :   0.8929 B(  1-C , 22-H ) :   0.8976
B(  1-C , 23-H ) :   0.9317 B(  2-O ,  3-P ) :   1.1057 B(  3-P ,  4-S ) :   1.6426
B(  3-P ,  5-O ) :   1.1385 B(  3-P ,  8-S ) :   0.9390 B(  4-S ,  8-S ) :   0.1186
B(  4-S , 29-H ) :   0.1120 B(  5-O ,  6-C ) :   0.8910 B(  6-C ,  7-C ) :   1.1628
B(  6-C , 24-H ) :   0.9175 B(  6-C , 25-H ) :   0.9344 B(  7-C , 26-H ) :   0.9400
B(  7-C , 27-H ) :   0.9461 B(  7-C , 28-H ) :   0.9389 B(  8-S ,  9-C ) :   1.0026
B(  9-C , 10-S ) :   0.9937 B(  9-C , 29-H ) :   0.8412 B(  9-C , 30-H ) :   0.9082
B( 10-S , 11-P ) :   0.9604 B( 11-P , 12-S ) :   1.6460 B( 11-P , 13-O ) :   1.0890
B( 11-P , 16-O ) :   1.0907 B( 13-O , 14-C ) :   0.9151 B( 14-C , 15-C ) :   1.1666
B( 14-C , 31-H ) :   0.9124 B( 14-C , 32-H ) :   0.9271 B( 15-C , 33-H ) :   0.9375
B( 15-C , 34-H ) :   0.9382 B( 15-C , 35-H ) :   0.9437 B( 16-O , 17-C ) :   0.8955
B( 17-C , 18-C ) :   1.1693 B( 17-C , 36-H ) :   0.9212 B( 17-C , 37-H ) :   0.9170
B( 18-C , 38-H ) :   0.9341 B( 18-C , 39-H ) :   0.9381 B( 18-C , 40-H ) :   0.9346

Dispersion correction           -0.068142893
FINAL SINGLE POINT ENERGY     -2929.519274806961

DIPOLE MOMENT
-------------

Method             : SCF
Type of density    : Electron Density
Multiplicity       :   1
Irrep              :   0
Energy             : -2929.6390101048204997 Eh
Relativity type    :
Basis              : AO
                                X                 Y                 Z
Electronic contribution:    -11.044294557      -5.327231401       4.169762856
Nuclear contribution   :     12.619891308       5.788623876      -4.686419183
                        -----------------------------------------
Total Dipole Moment    :      1.575596751       0.461392475      -0.516656327
                        -----------------------------------------
Magnitude (a.u.)       :      1.721139709
Magnitude (Debye)      :      4.374789470

Rotational constants in cm-1:             0.011619             0.005788             0.005253
Rotational constants in MHz :           348.316998           173.525402           157.485240

                             ****ORCA TERMINATED NORMALLY****
TOTAL RUN TIME: 0 days 0 hours 0 minutes 22 seconds 436 msec
