                         Program Version 6.0.0  -   RELEASE  -
|  1> ! pbe def2-sv(p) def2/J RI DEFGRID1 loosescf d4 GCP(DFT/SV(P)) printgap
|  2> %output
|  3>     printlevel normal
|  4> end
|  5> * xyz 0 1
|  6> C 2.4280272832 -1.7409146165 -2.8399164121
|  7> C 3.4479679156 -0.9060032109 -2.0926972626
|  8> O 3.2603247323 -0.9835295123 -0.6705974347
|  9> P 1.9635961552 -0.4073789093 0.0509791925
| 10> S 1.401730226 1.3214925698 -0.7176358991
| 11> O 2.4027771607 -0.3855726907 1.5723915929
| 12> C 2.9472140789 0.7865256662 2.2091456254
| 13> C 4.3401609369 1.0985169463 1.7043125673
| 14> S 0.7367132877 -2.1207442668 0.1035479318
| 15> C -0.4665362291 -1.7027973381 1.4170762166
| 16> S -0.7209922281 0.0696640965 1.6869764526
| 17> P -1.9575084911 0.5365061442 0.0411567453
| 18> S -2.3110781733 2.4416279089 -0.240642069
| 19> O -3.2863401896 -0.3315781212 0.2434405413
| 20> C -4.4414735469 0.1901563174 0.9165072332
| 21> C -4.2160379555 0.3090854144 2.4103454583
| 22> O -1.2427629177 -0.3211684852 -1.0818340089
| 23> C -1.8071227598 -0.5484911416 -2.3930318182
| 24> C -1.4813888866 0.5893869705 -3.3390265127
| 25> H 2.4459584211 -2.7681257205 -2.4843247464
| 26> H 1.431826152 -1.3305426209 -2.6726708257
| 27> H 2.6464361878 -1.7179987788 -3.9026725717
| 28> H 3.378444618 0.1447989877 -2.393620769
| 29> H 4.4642853955 -1.2708824262 -2.2456512787
| 30> H 2.2691940537 1.6277167862 2.0287289248
| 31> H 2.944200525 0.5329667065 3.2699392792
| 32> H 4.753176989 1.9260924073 2.2724179456
| 33> H 4.9806564006 0.22703806 1.8103405024
| 34> H 4.2965917051 1.3779181604 0.6521618529
| 35> H -0.0924423292 -2.0895631059 2.3622355133
| 36> H -1.4077774453 -2.1724091546 1.1386459644
| 37> H -4.679036529 1.1685725643 0.4865322236
| 38> H -5.2317571873 -0.5240860168 0.6813589836
| 39> H -3.9154662877 -0.6476093499 2.8292597108
| 40> H -3.4335065777 1.0416847866 2.6072224961
| 41> H -5.1336861015 0.6388299114 2.8864799803
| 42> H -1.3415301553 -1.4830620149 -2.714219665
| 43> H -2.8860866167 -0.6880316779 -2.2945467357
| 44> H -0.4095929841 0.7752010221 -3.3461404532
| 45> H -1.8103420291 0.3316645972 -4.3404862283
| 46> H -1.9799033426 1.5030507665 -3.0209995784
| 47> *
| 48>
| 49>                          ****END OF INPUT****

CARTESIAN COORDINATES (ANGSTROEM)
---------------------------------
  C      2.428027   -1.740915   -2.839916
  C      3.447968   -0.906003   -2.092697
  O      3.260325   -0.983530   -0.670597
  P      1.963596   -0.407379    0.050979
  S      1.401730    1.321493   -0.717636
  O      2.402777   -0.385573    1.572392
  C      2.947214    0.786526    2.209146
  C      4.340161    1.098517    1.704313
  S      0.736713   -2.120744    0.103548
  C     -0.466536   -1.702797    1.417076
  S     -0.720992    0.069664    1.686976
  P     -1.957508    0.536506    0.041157
  S     -2.311078    2.441628   -0.240642
  O     -3.286340   -0.331578    0.243441
  C     -4.441474    0.190156    0.916507
  C     -4.216038    0.309085    2.410345
  O     -1.242763   -0.321168   -1.081834
  C     -1.807123   -0.548491   -2.393032
  C     -1.481389    0.589387   -3.339027
  H      2.445958   -2.768126   -2.484325
  H      1.431826   -1.330543   -2.672671
  H      2.646436   -1.717999   -3.902673
  H      3.378445    0.144799   -2.393621
  H      4.464285   -1.270882   -2.245651
  H      2.269194    1.627717    2.028729
  H      2.944201    0.532967    3.269939
  H      4.753177    1.926092    2.272418
  H      4.980656    0.227038    1.810341
  H      4.296592    1.377918    0.652162
  H     -0.092442   -2.089563    2.362236
  H     -1.407777   -2.172409    1.138646
  H     -4.679037    1.168573    0.486532
  H     -5.231757   -0.524086    0.681359
  H     -3.915466   -0.647609    2.829260
  H     -3.433507    1.041685    2.607222
  H     -5.133686    0.638830    2.886480
  H     -1.341530   -1.483062   -2.714220
  H     -2.886087   -0.688032   -2.294547
  H     -0.409593    0.775201   -3.346140
  H     -1.810342    0.331665   -4.340486
  H     -1.979903    1.503051   -3.021000

 Total Charge           Charge          ....    0
 Multiplicity           Mult            ....    1
 Number of Electrons    NEL             ....  202
 Basis Dimension        Dim             ....  334

ORBITAL ENERGIES
----------------

  NO   OCC          E(Eh)            E(eV)
   0   2.0000     -88.045856     -2395.8495
   1   2.0000     -88.036896     -2395.6057
   2   2.0000     -87.983306     -2394.1475
   3   2.0000     -87.978340     -2394.0123
   4   2.0000     -76.424381     -2079.6131
   5   2.0000     -76.422414     -2079.5596
   6   2.0000     -18.790147      -511.3059
   7   2.0000     -18.787607      -511.2368
   8   2.0000     -18.787522      -511.2345
   9   2.0000     -18.785944      -511.1915
  10   2.0000      -9.960617      -271.0422
  11   2.0000      -9.951100      -270.7832
  12   2.0000      -9.949395      -270.7368
  13   2.0000      -9.949195      -270.7313
  14   2.0000      -9.946683      -270.6630
  15   2.0000      -9.885517      -268.9986
  16   2.0000      -9.883086      -268.9324
  17   2.0000      -9.879094      -268.8238
  18   2.0000      -9.874099      -268.6879
  19   2.0000      -7.690412      -209.2667
  20   2.0000      -7.682074      -209.0399
  21   2.0000      -7.628431      -207.5802
  22   2.0000      -7.622912      -207.4300
  23   2.0000      -6.421541      -174.7390
  24   2.0000      -6.419334      -174.6790
  25   2.0000      -5.718788      -155.6161
  26   2.0000      -5.714642      -155.5033
  27   2.0000      -5.710307      -155.3853
  28   2.0000      -5.707159      -155.2997
  29   2.0000      -5.706666      -155.2863
  30   2.0000      -5.698566      -155.0659
  31   2.0000      -5.657416      -153.9461
  32   2.0000      -5.651895      -153.7959
  33   2.0000      -5.649224      -153.7232
  34   2.0000      -5.648364      -153.6998
  35   2.0000      -5.643518      -153.5679
  36   2.0000      -5.643083      -153.5561
  37   2.0000      -4.644181      -126.3746
  38   2.0000      -4.643430      -126.3541
  39   2.0000      -4.641977      -126.3146
  40   2.0000      -4.641905      -126.3127
  41   2.0000      -4.641181      -126.2929
  42   2.0000      -4.639750      -126.2540
  43   2.0000      -0.984531       -26.7905
  44   2.0000      -0.982338       -26.7308
  45   2.0000      -0.942821       -25.6555
  46   2.0000      -0.940383       -25.5891
  47   2.0000      -0.762984       -20.7618
  48   2.0000      -0.717470       -19.5233
  49   2.0000      -0.704594       -19.1730
  50   2.0000      -0.684809       -18.6346
  51   2.0000      -0.683075       -18.5874
  52   2.0000      -0.670723       -18.2513
  53   2.0000      -0.652035       -17.7428
  54   2.0000      -0.634783       -17.2733
  55   2.0000      -0.596090       -16.2204
  56   2.0000      -0.587928       -15.9983
  57   2.0000      -0.573027       -15.5929
  58   2.0000      -0.569993       -15.5103
  59   2.0000      -0.563753       -15.3405
  60   2.0000      -0.498080       -13.5534
  61   2.0000      -0.489824       -13.3288
  62   2.0000      -0.470359       -12.7991
  63   2.0000      -0.466361       -12.6903
  64   2.0000      -0.457498       -12.4491
  65   2.0000      -0.438898       -11.9430
  66   2.0000      -0.436941       -11.8898
  67   2.0000      -0.434581       -11.8256
  68   2.0000      -0.422804       -11.5051
  69   2.0000      -0.418150       -11.3785
  70   2.0000      -0.413335       -11.2474
  71   2.0000      -0.395478       -10.7615
  72   2.0000      -0.389757       -10.6058
  73   2.0000      -0.388597       -10.5743
  74   2.0000      -0.379063       -10.3148
  75   2.0000      -0.374679       -10.1955
  76   2.0000      -0.364503        -9.9186
  77   2.0000      -0.357004        -9.7146
  78   2.0000      -0.351044        -9.5524
  79   2.0000      -0.346474        -9.4280
  80   2.0000      -0.345556        -9.4031
  81   2.0000      -0.341753        -9.2996
  82   2.0000      -0.341105        -9.2819
  83   2.0000      -0.334708        -9.1079
  84   2.0000      -0.325904        -8.8683
  85   2.0000      -0.317607        -8.6425
  86   2.0000      -0.310553        -8.4506
  87   2.0000      -0.294720        -8.0197
  88   2.0000      -0.291929        -7.9438
  89   2.0000      -0.289928        -7.8894
  90   2.0000      -0.278116        -7.5679
  91   2.0000      -0.272545        -7.4163
  92   2.0000      -0.269079        -7.3220
  93   2.0000      -0.260662        -7.0930
  94   2.0000      -0.258130        -7.0241
  95   2.0000      -0.233052        -6.3417
  96   2.0000      -0.216799        -5.8994
  97   2.0000      -0.204394        -5.5618
  98   2.0000      -0.197509        -5.3745
  99   2.0000      -0.191952        -5.2233
 100   2.0000      -0.184655        -5.0247
 101   0.0000      -0.050087        -1.3629
 102   0.0000      -0.026074        -0.7095
 103   0.0000      -0.013995        -0.3808
 104   0.0000      -0.000881        -0.0240
 105   0.0000       0.015480         0.4212

MULLIKEN ATOMIC CHARGES
-----------------------
   0 C :   -0.350021
   1 C :    0.002457
   2 O :   -0.369895
   3 P :    0.605890
   4 S :   -0.308878
   5 O :   -0.373070
   6 C :   -0.002875
   7 C :   -0.303698
   8 S :   -0.105319
   9 C :   -0.310834
  10 S :   -0.086597
  11 P :    0.638089
  12 S :   -0.307338
  13 O :   -0.386053
  14 C :   -0.007628
  15 C :   -0.306028
  16 O :   -0.369006
  17 C :   -0.005881
  18 C :   -0.307721
  19 H :    0.121698
  20 H :    0.150720
  21 H :    0.114200
  22 H :    0.108814
  23 H :    0.104533
  24 H :    0.116620
  25 H :    0.100135
  26 H :    0.110614
  27 H :    0.114712
  28 H :    0.122616
  29 H :    0.185535
  30 H :    0.179656
  31 H :    0.110687
  32 H :    0.100396
  33 H :    0.109033
  34 H :    0.124413
  35 H :    0.111761
  36 H :    0.107233
  37 H :    0.101096
  38 H :    0.130719
  39 H :    0.102472
  40 H :    0.126747
Sum of atomic charges:   -0.0000000

LOEWDIN ATOMIC CHARGES
----------------------
   0 C :   -0.373696
   1 C :   -0.121313
   2 O :   -0.245996
   3 P :    0.565231
   4 S :   -0.304792
   5 O :   -0.244660
   6 C :   -0.118699
   7 C :   -0.364243
   8 S :    0.079853
   9 C :   -0.467636
  10 S :    0.110663
  11 P :    0.569659
  12 S :   -0.304920
  13 O :   -0.253637
  14 C :   -0.124973
  15 C :   -0.366516
  16 O :   -0.238197
  17 C :   -0.110238
  18 C :   -0.365771
  19 H :    0.124678
  20 H :    0.122392
  21 H :    0.131531
  22 H :    0.108654
  23 H :    0.118445
  24 H :    0.112123
  25 H :    0.116529
  26 H :    0.129684
  27 H :    0.125559
  28 H :    0.122901
  29 H :    0.137533
  30 H :    0.131998
  31 H :    0.108440
  32 H :    0.115694
  33 H :    0.121352
  34 H :    0.120663
  35 H :    0.130167
  36 H :    0.115291
  37 H :    0.108947
  38 H :    0.127121
  39 H :    0.125694
  40 H :    0.124488

  Mayer bond orders larger than 0.100000
B(  0-C ,  1-C ) :   1.1650 B(  0-C , 19-H ) :   0.9418 B(  0-C , 20-H ) :   0.9255
B(  0-C , 21-H ) :   0.9376 B(  1-C ,  2-O ) :   0.9120 B(  1-C , 22-H ) :   0.9119
B(  1-C , 23-H ) :   0.9327 B(  2-O ,  3-P ) :   1.0972 B(  3-P ,  4-S ) :   1.5844
B(  3-P ,  5-O ) :   1.1137 B(  3-P ,  8-S ) :   0.9743 B(  4-S ,  8-S ) :   0.1192
B(  5-O ,  6-C ) :   0.9024 B(  6-C ,  7-C ) :   1.1668 B(  6-C , 24-H ) :   0.9148
B(  6-C , 25-H ) :   0.9348 B(  7-C , 26-H ) :   0.9395 B(  7-C , 27-H ) :   0.9461
B(  7-C , 28-H ) :   0.9357 B(  8-S ,  9-C ) :   0.9697 B(  9-C , 10-S ) :   1.0058
B(  9-C , 29-H ) :   0.9088 B(  9-C , 30-H ) :   0.9041 B( 10-S , 11-P ) :   0.9526
B( 11-P , 12-S ) :   1.6593 B( 11-P , 13-O ) :   1.0533 B( 11-P , 16-O ) :   1.1160
B( 13-O , 14-C ) :   0.9157 B( 14-C , 15-C ) :   1.1642 B( 14-C , 31-H ) :   0.9096
B( 14-C , 32-H ) :   0.9332 B( 15-C , 33-H ) :   0.9471 B( 15-C , 34-H ) :   0.9361
B( 15-C , 35-H ) :   0.9392 B( 16-O , 17-C ) :   0.8994 B( 17-C , 18-C ) :   1.1727
B( 17-C , 36-H ) :   0.9265 B( 17-C , 37-H ) :   0.9232 B( 18-C , 38-H ) :   0.9402
B( 18-C , 39-H ) :   0.9384 B( 18-C , 40-H ) :   0.9333

Dispersion correction           -0.069390382
FINAL SINGLE POINT ENERGY     -2929.512260964884

DIPOLE MOMENT
-------------

Method             : SCF
Type of density    : Electron Density
Multiplicity       :   1
Irrep              :   0
Energy             : -2929.6282980987134579 Eh
Relativity type    :
Basis              : AO
                                X                 Y                 Z
Electronic contribution:     -1.391243549       2.063035078       6.193110233
Nuclear contribution   :      1.247129915      -3.381638108      -6.100402954
                        -----------------------------------------
Total Dipole Moment    :     -0.144113634      -1.318603030       0.092707279
                        -----------------------------------------
Magnitude (a.u.)       :      1.329690689
Magnitude (Debye)      :      3.379805135

Rotational constants in cm-1:             0.012081             0.005895             0.005251
Rotational constants in MHz :           362.170450           176.740297           157.419304

                             ****ORCA TERMINATED NORMALLY****
TOTAL RUN TIME: 0 days 0 hours 0 minutes 21 seconds 610 msec
