                         Program Version 6.0.0  -   RELEASE  -
|  1> ! pbe def2-sv(p) def2/J RI DEFGRID1 loosescf d4 GCP(DFT/SV(P)) printgap
|  2> %output
|  3>     printlevel normal
|  4> end
|  5> * xyz 0 1
|  6> C 4.5058658892 -1.4645471189 -0.9195058311
|  7> C 4.6453802303 -0.0089696463 -0.523703084
|  8> O 3.5297490948 0.465128073 0.2515822948
|  9> P 2.0571051357 0.5872106464 -0.344569876
| 10> S 1.9747865307 1.1879951041 -2.2019469795
| 11> O 1.3842489676 1.5839821204 0.6758067182
| 12> C 1.4245359966 1.4016606745 2.1122643814
| 13> C 2.541818212 2.2144996279 2.7325445869
| 14> S 1.2365252331 -1.3321779066 0.0750572719
| 15> C 0.1380583109 -1.5432416033 -1.3611247949
| 16> S -1.569542519 -1.8774398607 -0.8874367268
| 17> P -1.984538927 -0.0131812557 0.0511455084
| 18> S -1.4178729457 1.5406911021 -1.0043569701
| 19> O -1.3571286759 0.0047524064 1.4952592397
| 20> C -1.8530791289 -0.7218003708 2.6530787145
| 21> C -1.6972891159 -2.2212307974 2.5117058966
| 22> O -3.5374537352 -0.1140533006 0.3555174922
| 23> C -4.5083702413 -0.0728142895 -0.7112591639
| 24> C -5.8667089865 0.184004019 -0.0913672619
| 25> H 3.6991180507 -1.5765009293 -1.6422205417
| 26> H 5.4323099047 -1.7983101877 -1.3756235925
| 27> H 4.289556632 -2.0772507389 -0.0480668858
| 28> H 4.7364245984 0.6226262498 -1.4125868218
| 29> H 5.5015744899 0.1485036251 0.1338164705
| 30> H 0.4447159431 1.744356265 2.4514244182
| 31> H 1.5386092149 0.3353854274 2.3287105094
| 32> H 3.5072509008 1.8549911762 2.3875835562
| 33> H 2.4367528349 3.2600082538 2.4553686243
| 34> H 2.4875677235 2.1216612968 3.8127709348
| 35> H 0.470455395 -2.4137693341 -1.9208482292
| 36> H 0.1888989895 -0.637179095 -1.9719327933
| 37> H -1.238856146 -0.3319718838 3.4664665415
| 38> H -2.8967955617 -0.4444592186 2.8061797835
| 39> H -2.3731898675 -2.6081546977 1.7528826032
| 40> H -0.6760369157 -2.4715937563 2.2327069152
| 41> H -1.9314310493 -2.687794007 3.4635145512
| 42> H -4.2247512993 0.7222546021 -1.4086236842
| 43> H -4.4804544557 -1.0329198476 -1.2330256188
| 44> H -6.1091710629 -0.6060466203 0.6131102684
| 45> H -5.8652904954 1.1366109047 0.4309450274
| 46> H -6.6155679488 0.2080149225 -0.876048833
| 47> *
| 48>
| 49>                          ****END OF INPUT****

CARTESIAN COORDINATES (ANGSTROEM)
---------------------------------
  C      4.505866   -1.464547   -0.919506
  C      4.645380   -0.008970   -0.523703
  O      3.529749    0.465128    0.251582
  P      2.057105    0.587211   -0.344570
  S      1.974787    1.187995   -2.201947
  O      1.384249    1.583982    0.675807
  C      1.424536    1.401661    2.112264
  C      2.541818    2.214500    2.732545
  S      1.236525   -1.332178    0.075057
  C      0.138058   -1.543242   -1.361125
  S     -1.569543   -1.877440   -0.887437
  P     -1.984539   -0.013181    0.051146
  S     -1.417873    1.540691   -1.004357
  O     -1.357129    0.004752    1.495259
  C     -1.853079   -0.721800    2.653079
  C     -1.697289   -2.221231    2.511706
  O     -3.537454   -0.114053    0.355517
  C     -4.508370   -0.072814   -0.711259
  C     -5.866709    0.184004   -0.091367
  H      3.699118   -1.576501   -1.642221
  H      5.432310   -1.798310   -1.375624
  H      4.289557   -2.077251   -0.048067
  H      4.736425    0.622626   -1.412587
  H      5.501574    0.148504    0.133816
  H      0.444716    1.744356    2.451424
  H      1.538609    0.335385    2.328711
  H      3.507251    1.854991    2.387584
  H      2.436753    3.260008    2.455369
  H      2.487568    2.121661    3.812771
  H      0.470455   -2.413769   -1.920848
  H      0.188899   -0.637179   -1.971933
  H     -1.238856   -0.331972    3.466467
  H     -2.896796   -0.444459    2.806180
  H     -2.373190   -2.608155    1.752883
  H     -0.676037   -2.471594    2.232707
  H     -1.931431   -2.687794    3.463515
  H     -4.224751    0.722255   -1.408624
  H     -4.480454   -1.032920   -1.233026
  H     -6.109171   -0.606047    0.613110
  H     -5.865290    1.136611    0.430945
  H     -6.615568    0.208015   -0.876049

 Total Charge           Charge          ....    0
 Multiplicity           Mult            ....    1
 Number of Electrons    NEL             ....  202
 Basis Dimension        Dim             ....  334

ORBITAL ENERGIES
----------------

  NO   OCC          E(Eh)            E(eV)
   0   2.0000     -88.040043     -2395.6914
   1   2.0000     -88.038194     -2395.6411
   2   2.0000     -87.979116     -2394.0335
   3   2.0000     -87.974251     -2393.9011
   4   2.0000     -76.422362     -2079.5582
   5   2.0000     -76.420153     -2079.4981
   6   2.0000     -18.795962      -511.4641
   7   2.0000     -18.791774      -511.3502
   8   2.0000     -18.788267      -511.2547
   9   2.0000     -18.781018      -511.0575
  10   2.0000      -9.959461      -271.0107
  11   2.0000      -9.955655      -270.9071
  12   2.0000      -9.951374      -270.7907
  13   2.0000      -9.949422      -270.7375
  14   2.0000      -9.948511      -270.7127
  15   2.0000      -9.891191      -269.1530
  16   2.0000      -9.888220      -269.0722
  17   2.0000      -9.881168      -268.8803
  18   2.0000      -9.880511      -268.8624
  19   2.0000      -7.685239      -209.1260
  20   2.0000      -7.682795      -209.0595
  21   2.0000      -7.624340      -207.4688
  22   2.0000      -7.619247      -207.3303
  23   2.0000      -6.419762      -174.6906
  24   2.0000      -6.417535      -174.6300
  25   2.0000      -5.713046      -155.4599
  26   2.0000      -5.710650      -155.3947
  27   2.0000      -5.709676      -155.3682
  28   2.0000      -5.707319      -155.3041
  29   2.0000      -5.702353      -155.1689
  30   2.0000      -5.699788      -155.0991
  31   2.0000      -5.653423      -153.8375
  32   2.0000      -5.648287      -153.6977
  33   2.0000      -5.644852      -153.6042
  34   2.0000      -5.644391      -153.5917
  35   2.0000      -5.640033      -153.4731
  36   2.0000      -5.639146      -153.4490
  37   2.0000      -4.642853      -126.3385
  38   2.0000      -4.641501      -126.3017
  39   2.0000      -4.640325      -126.2697
  40   2.0000      -4.639706      -126.2528
  41   2.0000      -4.639153      -126.2378
  42   2.0000      -4.637970      -126.2056
  43   2.0000      -0.989908       -26.9368
  44   2.0000      -0.981268       -26.7017
  45   2.0000      -0.946018       -25.7424
  46   2.0000      -0.937036       -25.4980
  47   2.0000      -0.759536       -20.6680
  48   2.0000      -0.719391       -19.5756
  49   2.0000      -0.708724       -19.2853
  50   2.0000      -0.695141       -18.9157
  51   2.0000      -0.685623       -18.6567
  52   2.0000      -0.674268       -18.3478
  53   2.0000      -0.645536       -17.5659
  54   2.0000      -0.629247       -17.1227
  55   2.0000      -0.593188       -16.1415
  56   2.0000      -0.587208       -15.9787
  57   2.0000      -0.575745       -15.6668
  58   2.0000      -0.569216       -15.4892
  59   2.0000      -0.560274       -15.2458
  60   2.0000      -0.508387       -13.8339
  61   2.0000      -0.494548       -13.4573
  62   2.0000      -0.476614       -12.9693
  63   2.0000      -0.468562       -12.7502
  64   2.0000      -0.448058       -12.1923
  65   2.0000      -0.446180       -12.1412
  66   2.0000      -0.443838       -12.0774
  67   2.0000      -0.438408       -11.9297
  68   2.0000      -0.429923       -11.6988
  69   2.0000      -0.422195       -11.4885
  70   2.0000      -0.407833       -11.0977
  71   2.0000      -0.399965       -10.8836
  72   2.0000      -0.388263       -10.5652
  73   2.0000      -0.382140       -10.3986
  74   2.0000      -0.377841       -10.2816
  75   2.0000      -0.367170        -9.9912
  76   2.0000      -0.362449        -9.8627
  77   2.0000      -0.356051        -9.6886
  78   2.0000      -0.352270        -9.5858
  79   2.0000      -0.351695        -9.5701
  80   2.0000      -0.348786        -9.4910
  81   2.0000      -0.344571        -9.3762
  82   2.0000      -0.339296        -9.2327
  83   2.0000      -0.335915        -9.1407
  84   2.0000      -0.334461        -9.1011
  85   2.0000      -0.321751        -8.7553
  86   2.0000      -0.309961        -8.4345
  87   2.0000      -0.304217        -8.2782
  88   2.0000      -0.296443        -8.0666
  89   2.0000      -0.291214        -7.9243
  90   2.0000      -0.286238        -7.7889
  91   2.0000      -0.275117        -7.4863
  92   2.0000      -0.263574        -7.1722
  93   2.0000      -0.260409        -7.0861
  94   2.0000      -0.254488        -6.9250
  95   2.0000      -0.231430        -6.2975
  96   2.0000      -0.215452        -5.8627
  97   2.0000      -0.210213        -5.7202
  98   2.0000      -0.197137        -5.3644
  99   2.0000      -0.185928        -5.0593
 100   2.0000      -0.180189        -4.9032
 101   0.0000      -0.041707        -1.1349
 102   0.0000      -0.030770        -0.8373
 103   0.0000      -0.004834        -0.1315
 104   0.0000       0.010925         0.2973
 105   0.0000       0.020383         0.5547

MULLIKEN ATOMIC CHARGES
-----------------------
   0 C :   -0.310203
   1 C :    0.002081
   2 O :   -0.386998
   3 P :    0.607553
   4 S :   -0.289860
   5 O :   -0.341853
   6 C :   -0.020495
   7 C :   -0.280786
   8 S :   -0.122721
   9 C :   -0.347430
  10 S :   -0.120009
  11 P :    0.595961
  12 S :   -0.281753
  13 O :   -0.355392
  14 C :    0.001734
  15 C :   -0.317484
  16 O :   -0.389352
  17 C :   -0.011923
  18 C :   -0.281661
  19 H :    0.120560
  20 H :    0.110894
  21 H :    0.115087
  22 H :    0.111531
  23 H :    0.101409
  24 H :    0.117507
  25 H :    0.096766
  26 H :    0.119249
  27 H :    0.120849
  28 H :    0.102886
  29 H :    0.179001
  30 H :    0.210863
  31 H :    0.103097
  32 H :    0.112491
  33 H :    0.123533
  34 H :    0.128506
  35 H :    0.111025
  36 H :    0.108944
  37 H :    0.106054
  38 H :    0.113222
  39 H :    0.122462
  40 H :    0.114656
Sum of atomic charges:    0.0000000

LOEWDIN ATOMIC CHARGES
----------------------
   0 C :   -0.370992
   1 C :   -0.117194
   2 O :   -0.251533
   3 P :    0.574038
   4 S :   -0.291259
   5 O :   -0.225655
   6 C :   -0.114038
   7 C :   -0.359780
   8 S :    0.064611
   9 C :   -0.479836
  10 S :    0.064060
  11 P :    0.556693
  12 S :   -0.291477
  13 O :   -0.232446
  14 C :   -0.107197
  15 C :   -0.370826
  16 O :   -0.252187
  17 C :   -0.119582
  18 C :   -0.350661
  19 H :    0.119433
  20 H :    0.129611
  21 H :    0.121848
  22 H :    0.112116
  23 H :    0.116526
  24 H :    0.120846
  25 H :    0.100259
  26 H :    0.124991
  27 H :    0.129681
  28 H :    0.126411
  29 H :    0.135169
  30 H :    0.125822
  31 H :    0.117130
  32 H :    0.115102
  33 H :    0.118064
  34 H :    0.123978
  35 H :    0.129858
  36 H :    0.111880
  37 H :    0.109316
  38 H :    0.125070
  39 H :    0.129790
  40 H :    0.132361

  Mayer bond orders larger than 0.100000
B(  0-C ,  1-C ) :   1.1674 B(  0-C , 19-H ) :   0.9366 B(  0-C , 20-H ) :   0.9371
B(  0-C , 21-H ) :   0.9426 B(  1-C ,  2-O ) :   0.9119 B(  1-C , 22-H ) :   0.9173
B(  1-C , 23-H ) :   0.9342 B(  2-O ,  3-P ) :   1.0674 B(  3-P ,  4-S ) :   1.6323
B(  3-P ,  5-O ) :   1.1452 B(  3-P ,  8-S ) :   0.9454 B(  4-S ,  8-S ) :   0.1131
B(  5-O ,  6-C ) :   0.8981 B(  6-C ,  7-C ) :   1.1566 B(  6-C , 24-H ) :   0.9282
B(  6-C , 25-H ) :   0.9162 B(  7-C , 26-H ) :   0.9408 B(  7-C , 27-H ) :   0.9463
B(  7-C , 28-H ) :   0.9403 B(  8-S ,  9-C ) :   0.9978 B(  9-C , 10-S ) :   1.0060
B(  9-C , 29-H ) :   0.9108 B(  9-C , 30-H ) :   0.8434 B( 10-S , 11-P ) :   0.9339
B( 10-S , 12-S ) :   0.1098 B( 11-P , 12-S ) :   1.6891 B( 11-P , 13-O ) :   1.1229
B( 11-P , 16-O ) :   1.0718 B( 13-O , 14-C ) :   0.8966 B( 14-C , 15-C ) :   1.1724
B( 14-C , 31-H ) :   0.9320 B( 14-C , 32-H ) :   0.9271 B( 15-C , 33-H ) :   0.9384
B( 15-C , 34-H ) :   0.9391 B( 15-C , 35-H ) :   0.9351 B( 16-O , 17-C ) :   0.9013
B( 17-C , 18-C ) :   1.1598 B( 17-C , 36-H ) :   0.9090 B( 17-C , 37-H ) :   0.9290
B( 18-C , 38-H ) :   0.9512 B( 18-C , 39-H ) :   0.9508 B( 18-C , 40-H ) :   0.9416

Dispersion correction           -0.067244957
FINAL SINGLE POINT ENERGY     -2929.512346036890

DIPOLE MOMENT
-------------

Method             : SCF
Type of density    : Electron Density
Multiplicity       :   1
Irrep              :   0
Energy             : -2929.6313103138459155 Eh
Relativity type    :
Basis              : AO
                                X                 Y                 Z
Electronic contribution:      1.286404684       5.281172927     -14.306197370
Nuclear contribution   :     -1.645575196      -6.597952102      15.849296719
                        -----------------------------------------
Total Dipole Moment    :     -0.359170512      -1.316779175       1.543099349
                        -----------------------------------------
Magnitude (a.u.)       :      2.060113214
Magnitude (Debye)      :      5.236391647

Rotational constants in cm-1:             0.013119             0.005104             0.004931
Rotational constants in MHz :           393.287197           153.017588           147.825099

                             ****ORCA TERMINATED NORMALLY****
TOTAL RUN TIME: 0 days 0 hours 0 minutes 21 seconds 487 msec
