                         Program Version 6.0.0  -   RELEASE  -
|  1> ! pbe def2-sv(p) def2/J RI DEFGRID1 loosescf d4 GCP(DFT/SV(P)) printgap
|  2> %output
|  3>     printlevel normal
|  4> end
|  5> * xyz 0 1
|  6> C 3.1118943933 -1.2804439406 -2.9995176631
|  7> C 3.8959403039 -0.4107241656 -2.0378771525
|  8> O 3.4493191049 -0.5845300097 -0.6862170359
|  9> P 2.0227099319 -0.0726468431 -0.1894673098
| 10> S 1.5723573541 1.6764321333 -0.9654007214
| 11> O 2.1786314664 -0.1713774073 1.3822194406
| 12> C 2.6434495195 0.9376717488 2.1773269924
| 13> C 4.0933355097 1.2652996335 1.8950117108
| 14> S 0.8430658177 -1.8056442792 -0.5217665025
| 15> C -0.1909686794 -1.9958631469 0.9684725946
| 16> S -1.955892357 -1.7642653288 0.6501612168
| 17> P -1.8669339867 0.3376579405 0.3639183017
| 18> S -0.8110513111 1.283546835 1.7118073315
| 19> O -3.3825722124 0.7929885636 0.2558953052
| 20> C -4.2329384772 0.9456930661 1.4097725038
| 21> C -5.0075097485 -0.3252136518 1.6974020239
| 22> O -1.334022533 0.5434497646 -1.1012445918
| 23> C -1.9612271459 -0.031503097 -2.2765176414
| 24> C -2.8870695152 0.9695520027 -2.9334842649
| 25> H 3.5138814735 -1.1703554629 -4.0013783686
| 26> H 3.1635825691 -2.3230573225 -2.6970924898
| 27> H 2.0663247827 -0.9697153777 -2.9994052819
| 28> H 3.7916505501 0.6469108222 -2.3036247939
| 29> H 4.950693962 -0.6863100242 -2.0078365108
| 30> H 1.997897247 1.8002335279 1.9806287477
| 31> H 2.4912106202 0.6012128042 3.2039577796
| 32> H 4.4282451871 2.0289072131 2.5898735746
| 33> H 4.7069097367 0.3751425251 2.0060786612
| 34> H 4.1958988098 1.6418882864 0.8780361298
| 35> H 0.1350525374 -1.2841980259 1.7262756319
| 36> H -0.0721095918 -3.0219155863 1.3057000846
| 37> H -3.616009215 1.2422758981 2.2642776984
| 38> H -4.902416998 1.7663987839 1.1456530909
| 39> H -5.6956416379 -0.1396613546 2.5158331846
| 40> H -5.5695392473 -0.6262751096 0.8179883366
| 41> H -4.3336554827 -1.1322345045 1.9752623866
| 42> H -1.123753305 -0.2889519953 -2.9284425385
| 43> H -2.4943375474 -0.9406322976 -1.9839404633
| 44> H -3.2763646375 0.5402895287 -3.8513294708
| 45> H -3.7122018081 1.2136752167 -2.2698947858
| 46> H -2.3412738745 1.880653016 -3.164863323
| 47> *
| 48>
| 49>                          ****END OF INPUT****

CARTESIAN COORDINATES (ANGSTROEM)
---------------------------------
  C      3.111894   -1.280444   -2.999518
  C      3.895940   -0.410724   -2.037877
  O      3.449319   -0.584530   -0.686217
  P      2.022710   -0.072647   -0.189467
  S      1.572357    1.676432   -0.965401
  O      2.178631   -0.171377    1.382219
  C      2.643450    0.937672    2.177327
  C      4.093336    1.265300    1.895012
  S      0.843066   -1.805644   -0.521767
  C     -0.190969   -1.995863    0.968473
  S     -1.955892   -1.764265    0.650161
  P     -1.866934    0.337658    0.363918
  S     -0.811051    1.283547    1.711807
  O     -3.382572    0.792989    0.255895
  C     -4.232938    0.945693    1.409773
  C     -5.007510   -0.325214    1.697402
  O     -1.334023    0.543450   -1.101245
  C     -1.961227   -0.031503   -2.276518
  C     -2.887070    0.969552   -2.933484
  H      3.513881   -1.170355   -4.001378
  H      3.163583   -2.323057   -2.697092
  H      2.066325   -0.969715   -2.999405
  H      3.791651    0.646911   -2.303625
  H      4.950694   -0.686310   -2.007837
  H      1.997897    1.800234    1.980629
  H      2.491211    0.601213    3.203958
  H      4.428245    2.028907    2.589874
  H      4.706910    0.375143    2.006079
  H      4.195899    1.641888    0.878036
  H      0.135053   -1.284198    1.726276
  H     -0.072110   -3.021916    1.305700
  H     -3.616009    1.242276    2.264278
  H     -4.902417    1.766399    1.145653
  H     -5.695642   -0.139661    2.515833
  H     -5.569539   -0.626275    0.817988
  H     -4.333655   -1.132235    1.975262
  H     -1.123753   -0.288952   -2.928443
  H     -2.494338   -0.940632   -1.983940
  H     -3.276365    0.540290   -3.851329
  H     -3.712202    1.213675   -2.269895
  H     -2.341274    1.880653   -3.164863

 Total Charge           Charge          ....    0
 Multiplicity           Mult            ....    1
 Number of Electrons    NEL             ....  202
 Basis Dimension        Dim             ....  334

ORBITAL ENERGIES
----------------

  NO   OCC          E(Eh)            E(eV)
   0   2.0000     -88.042813     -2395.7667
   1   2.0000     -88.036167     -2395.5859
   2   2.0000     -87.982320     -2394.1206
   3   2.0000     -87.974416     -2393.9056
   4   2.0000     -76.424537     -2079.6174
   5   2.0000     -76.417682     -2079.4308
   6   2.0000     -18.796623      -511.4821
   7   2.0000     -18.787723      -511.2399
   8   2.0000     -18.785138      -511.1696
   9   2.0000     -18.780507      -511.0436
  10   2.0000      -9.955399      -270.9002
  11   2.0000      -9.955014      -270.8897
  12   2.0000      -9.950297      -270.7613
  13   2.0000      -9.944768      -270.6109
  14   2.0000      -9.942949      -270.5614
  15   2.0000      -9.888277      -269.0737
  16   2.0000      -9.882675      -268.9212
  17   2.0000      -9.881734      -268.8956
  18   2.0000      -9.876176      -268.7444
  19   2.0000      -7.688037      -209.2021
  20   2.0000      -7.681363      -209.0205
  21   2.0000      -7.627381      -207.5516
  22   2.0000      -7.619299      -207.3317
  23   2.0000      -6.422215      -174.7573
  24   2.0000      -6.415144      -174.5649
  25   2.0000      -5.715689      -155.5318
  26   2.0000      -5.712446      -155.4436
  27   2.0000      -5.709686      -155.3685
  28   2.0000      -5.705677      -155.2594
  29   2.0000      -5.705286      -155.2487
  30   2.0000      -5.698037      -155.0515
  31   2.0000      -5.656259      -153.9146
  32   2.0000      -5.648289      -153.6978
  33   2.0000      -5.647937      -153.6882
  34   2.0000      -5.647573      -153.6783
  35   2.0000      -5.640174      -153.4769
  36   2.0000      -5.639176      -153.4498
  37   2.0000      -4.645106      -126.3998
  38   2.0000      -4.644027      -126.3704
  39   2.0000      -4.642294      -126.3233
  40   2.0000      -4.637711      -126.1985
  41   2.0000      -4.636987      -126.1788
  42   2.0000      -4.635536      -126.1393
  43   2.0000      -0.988446       -26.8970
  44   2.0000      -0.978862       -26.6362
  45   2.0000      -0.944838       -25.7103
  46   2.0000      -0.938372       -25.5344
  47   2.0000      -0.759981       -20.6801
  48   2.0000      -0.717225       -19.5167
  49   2.0000      -0.705882       -19.2080
  50   2.0000      -0.690598       -18.7921
  51   2.0000      -0.681913       -18.5558
  52   2.0000      -0.670161       -18.2360
  53   2.0000      -0.648063       -17.6347
  54   2.0000      -0.630304       -17.1515
  55   2.0000      -0.597556       -16.2603
  56   2.0000      -0.588519       -16.0144
  57   2.0000      -0.571628       -15.5548
  58   2.0000      -0.566481       -15.4147
  59   2.0000      -0.560289       -15.2462
  60   2.0000      -0.501033       -13.6338
  61   2.0000      -0.485650       -13.2152
  62   2.0000      -0.478289       -13.0149
  63   2.0000      -0.466130       -12.6840
  64   2.0000      -0.452045       -12.3008
  65   2.0000      -0.446606       -12.1528
  66   2.0000      -0.437629       -11.9085
  67   2.0000      -0.432324       -11.7641
  68   2.0000      -0.428012       -11.6468
  69   2.0000      -0.414940       -11.2911
  70   2.0000      -0.407266       -11.0823
  71   2.0000      -0.390768       -10.6333
  72   2.0000      -0.389308       -10.5936
  73   2.0000      -0.384282       -10.4568
  74   2.0000      -0.381871       -10.3912
  75   2.0000      -0.374362       -10.1869
  76   2.0000      -0.365474        -9.9451
  77   2.0000      -0.357012        -9.7148
  78   2.0000      -0.352490        -9.5917
  79   2.0000      -0.351036        -9.5522
  80   2.0000      -0.346011        -9.4154
  81   2.0000      -0.343408        -9.3446
  82   2.0000      -0.339036        -9.2256
  83   2.0000      -0.332741        -9.0544
  84   2.0000      -0.325269        -8.8510
  85   2.0000      -0.318877        -8.6771
  86   2.0000      -0.305115        -8.3026
  87   2.0000      -0.294417        -8.0115
  88   2.0000      -0.291962        -7.9447
  89   2.0000      -0.287602        -7.8261
  90   2.0000      -0.277586        -7.5535
  91   2.0000      -0.270517        -7.3611
  92   2.0000      -0.266777        -7.2594
  93   2.0000      -0.263251        -7.1634
  94   2.0000      -0.253156        -6.8887
  95   2.0000      -0.236603        -6.4383
  96   2.0000      -0.218124        -5.9354
  97   2.0000      -0.210214        -5.7202
  98   2.0000      -0.199217        -5.4210
  99   2.0000      -0.189441        -5.1549
 100   2.0000      -0.176840        -4.8121
 101   0.0000      -0.040983        -1.1152
 102   0.0000      -0.026547        -0.7224
 103   0.0000      -0.018677        -0.5082
 104   0.0000       0.002865         0.0780
 105   0.0000       0.023147         0.6299

MULLIKEN ATOMIC CHARGES
-----------------------
   0 C :   -0.327471
   1 C :   -0.001024
   2 O :   -0.372005
   3 P :    0.613310
   4 S :   -0.305163
   5 O :   -0.373025
   6 C :   -0.007275
   7 C :   -0.300958
   8 S :   -0.114169
   9 C :   -0.349577
  10 S :   -0.106441
  11 P :    0.603849
  12 S :   -0.306036
  13 O :   -0.376575
  14 C :   -0.006039
  15 C :   -0.309138
  16 O :   -0.332379
  17 C :   -0.012425
  18 C :   -0.287718
  19 H :    0.113461
  20 H :    0.121560
  21 H :    0.127188
  22 H :    0.106416
  23 H :    0.102254
  24 H :    0.126823
  25 H :    0.101028
  26 H :    0.109614
  27 H :    0.113766
  28 H :    0.122822
  29 H :    0.209784
  30 H :    0.182572
  31 H :    0.106700
  32 H :    0.109068
  33 H :    0.114053
  34 H :    0.114311
  35 H :    0.128455
  36 H :    0.113186
  37 H :    0.098160
  38 H :    0.107022
  39 H :    0.117705
  40 H :    0.124310
Sum of atomic charges:   -0.0000000

LOEWDIN ATOMIC CHARGES
----------------------
   0 C :   -0.370713
   1 C :   -0.124513
   2 O :   -0.246919
   3 P :    0.568362
   4 S :   -0.302860
   5 O :   -0.236913
   6 C :   -0.118241
   7 C :   -0.365291
   8 S :    0.072599
   9 C :   -0.477420
  10 S :    0.067582
  11 P :    0.568188
  12 S :   -0.295533
  13 O :   -0.243364
  14 C :   -0.117992
  15 C :   -0.366491
  16 O :   -0.219990
  17 C :   -0.115216
  18 C :   -0.359254
  19 H :    0.131135
  20 H :    0.125269
  21 H :    0.117340
  22 H :    0.106226
  23 H :    0.117519
  24 H :    0.111350
  25 H :    0.117192
  26 H :    0.129551
  27 H :    0.125116
  28 H :    0.122652
  29 H :    0.131988
  30 H :    0.138445
  31 H :    0.109162
  32 H :    0.120303
  33 H :    0.132212
  34 H :    0.125344
  35 H :    0.119009
  36 H :    0.119122
  37 H :    0.101508
  38 H :    0.128384
  39 H :    0.124129
  40 H :    0.131023

  Mayer bond orders larger than 0.100000
B(  0-C ,  1-C ) :   1.1640 B(  0-C , 19-H ) :   0.9388 B(  0-C , 20-H ) :   0.9431
B(  0-C , 21-H ) :   0.9310 B(  1-C ,  2-O ) :   0.9204 B(  1-C , 22-H ) :   0.9082
B(  1-C , 23-H ) :   0.9319 B(  2-O ,  3-P ) :   1.0779 B(  3-P ,  4-S ) :   1.6302
B(  3-P ,  5-O ) :   1.1225 B(  3-P ,  8-S ) :   0.9392 B(  4-S ,  8-S ) :   0.1060
B(  5-O ,  6-C ) :   0.8942 B(  6-C ,  7-C ) :   1.1644 B(  6-C , 24-H ) :   0.9114
B(  6-C , 25-H ) :   0.9361 B(  7-C , 26-H ) :   0.9390 B(  7-C , 27-H ) :   0.9450
B(  7-C , 28-H ) :   0.9350 B(  8-S ,  9-C ) :   0.9980 B(  9-C , 10-S ) :   0.9984
B(  9-C , 29-H ) :   0.8618 B(  9-C , 30-H ) :   0.9108 B( 10-S , 11-P ) :   0.9442
B( 10-S , 12-S ) :   0.1049 B( 11-P , 12-S ) :   1.6417 B( 11-P , 13-O ) :   1.0897
B( 11-P , 16-O ) :   1.1596 B( 13-O , 14-C ) :   0.9012 B( 14-C , 15-C ) :   1.1669
B( 14-C , 31-H ) :   0.9052 B( 14-C , 32-H ) :   0.9346 B( 15-C , 33-H ) :   0.9395
B( 15-C , 34-H ) :   0.9483 B( 15-C , 35-H ) :   0.9324 B( 16-O , 17-C ) :   0.8879
B( 17-C , 18-C ) :   1.1637 B( 17-C , 36-H ) :   0.9298 B( 17-C , 37-H ) :   0.9117
B( 18-C , 38-H ) :   0.9400 B( 18-C , 39-H ) :   0.9421 B( 18-C , 40-H ) :   0.9463

Dispersion correction           -0.068119522
FINAL SINGLE POINT ENERGY     -2929.512808771446

DIPOLE MOMENT
-------------

Method             : SCF
Type of density    : Electron Density
Multiplicity       :   1
Irrep              :   0
Energy             : -2929.6308008134506053 Eh
Relativity type    :
Basis              : AO
                                X                 Y                 Z
Electronic contribution:      1.174053256      -1.648450696       5.476336058
Nuclear contribution   :     -1.706611791       0.872378300      -5.623155675
                        -----------------------------------------
Total Dipole Moment    :     -0.532558535      -0.776072396      -0.146819617
                        -----------------------------------------
Magnitude (a.u.)       :      0.952608501
Magnitude (Debye)      :      2.421338384

Rotational constants in cm-1:             0.012604             0.005531             0.005016
Rotational constants in MHz :           377.865720           165.825536           150.383340

                             ****ORCA TERMINATED NORMALLY****
TOTAL RUN TIME: 0 days 0 hours 0 minutes 21 seconds 329 msec
