                         Program Version 6.0.1  -  RELEASE   -
|  1> ! pbe def2-sv(p) def2/J RI DEFGRID1 loosescf d4 GCP(DFT/SV(P)) printgap
|  2> %output
|  3>     printlevel normal
|  4> end
|  5> * xyz 0 1
|  6> C 3.6406010619 -4.1922403311 -0.5629640753
|  7> C 2.2203473574 -3.7597047227 -0.8908417013
|  8> O 1.9041278354 -2.5009867563 -0.2646195856
|  9> C 2.279437203 -1.3922875367 -0.8698159281
| 10> O 2.8468422018 -1.3441936405 -1.9373064609
| 11> C 1.8715857958 -0.1634840142 -0.0767009962
| 12> C 0.8725973761 0.6439323284 -0.9065386266
| 13> H 1.3294967275 0.9111123649 -1.8640258818
| 14> C 0.4277268912 1.9020921353 -0.1881376342
| 15> O -0.7379630692 2.1183428882 0.0827175206
| 16> O 1.4277236148 2.6802526154 0.1040659582
| 17> C 1.1602847938 3.9112404037 0.8143599832
| 18> C 0.7681602482 5.018879168 -0.148666242
| 19> S -0.6128014192 -0.3234580662 -1.3392913889
| 20> P -1.767311102 -0.1688286435 0.4430932304
| 21> S -0.9097601322 0.0397646357 2.2039943034
| 22> O -3.0809585981 0.6637484311 0.1412869854
| 23> C -3.4370074768 1.9077236974 0.7477872702
| 24> O -2.5177444645 -1.5833516322 0.3380857682
| 25> C -1.8094512323 -2.8049069657 0.5559888615
| 26> H 3.8223790354 -5.1742767578 -0.9867665233
| 27> H 4.3529432855 -3.4878391289 -0.9860313128
| 28> H 3.7794104932 -4.2347332649 0.5138502826
| 29> H 1.4889502754 -4.4579453602 -0.4835045252
| 30> H 2.08718108 -3.6519367214 -1.971111759
| 31> H 2.7522323237 0.455122149 0.1029490298
| 32> H 1.4342188392 -0.4724261171 0.8737226534
| 33> H 0.3692781706 3.7243956521 1.5454728356
| 34> H 2.0998596669 4.1345281143 1.3189582123
| 35> H -0.165050573 4.7718836024 -0.6495437493
| 36> H 0.6350397674 5.9417656775 0.4058217439
| 37> H 1.5449466689 5.1585965162 -0.8952372874
| 38> H -4.5105248542 1.8616626773 0.9180055086
| 39> H -3.1848835924 2.7216774394 0.0708721323
| 40> H -2.907300047 2.0375364034 1.6929088508
| 41> H -1.2832982663 -2.7679065575 1.5122502437
| 42> H -1.0950219688 -2.9774967607 -0.2501608634
| 43> H -2.5669848932 -3.5841203365 0.5681083906
| 44> *
| 45>
| 46>                          ****END OF INPUT****

CARTESIAN COORDINATES (ANGSTROEM)
---------------------------------
  C      3.640601   -4.192240   -0.562964
  C      2.220347   -3.759705   -0.890842
  O      1.904128   -2.500987   -0.264620
  C      2.279437   -1.392288   -0.869816
  O      2.846842   -1.344194   -1.937306
  C      1.871586   -0.163484   -0.076701
  C      0.872597    0.643932   -0.906539
  H      1.329497    0.911112   -1.864026
  C      0.427727    1.902092   -0.188138
  O     -0.737963    2.118343    0.082718
  O      1.427724    2.680253    0.104066
  C      1.160285    3.911240    0.814360
  C      0.768160    5.018879   -0.148666
  S     -0.612801   -0.323458   -1.339291
  P     -1.767311   -0.168829    0.443093
  S     -0.909760    0.039765    2.203994
  O     -3.080959    0.663748    0.141287
  C     -3.437007    1.907724    0.747787
  O     -2.517744   -1.583352    0.338086
  C     -1.809451   -2.804907    0.555989
  H      3.822379   -5.174277   -0.986767
  H      4.352943   -3.487839   -0.986031
  H      3.779410   -4.234733    0.513850
  H      1.488950   -4.457945   -0.483505
  H      2.087181   -3.651937   -1.971112
  H      2.752232    0.455122    0.102949
  H      1.434219   -0.472426    0.873723
  H      0.369278    3.724396    1.545473
  H      2.099860    4.134528    1.318958
  H     -0.165051    4.771884   -0.649544
  H      0.635040    5.941766    0.405822
  H      1.544947    5.158597   -0.895237
  H     -4.510525    1.861663    0.918006
  H     -3.184884    2.721677    0.070872
  H     -2.907300    2.037536    1.692909
  H     -1.283298   -2.767907    1.512250
  H     -1.095022   -2.977497   -0.250161
  H     -2.566985   -3.584120    0.568108

 Total Charge           Charge          ....    0
 Multiplicity           Mult            ....    1
 Number of Electrons    NEL             ....  174
 Basis Dimension        Dim             ....  316

ORBITAL ENERGIES
----------------

  NO   OCC          E(Eh)            E(eV)
   0   2.0000     -88.035681     -2395.5727
   1   2.0000     -87.974413     -2393.9055
   2   2.0000     -76.420350     -2079.5034
   3   2.0000     -18.828787      -512.3573
   4   2.0000     -18.805547      -511.7249
   5   2.0000     -18.780139      -511.0336
   6   2.0000     -18.773167      -510.8438
   7   2.0000     -18.763458      -510.5797
   8   2.0000     -18.739810      -509.9362
   9   2.0000     -10.033944      -273.0375
  10   2.0000     -10.011161      -272.4175
  11   2.0000      -9.963939      -271.1326
  12   2.0000      -9.954030      -270.8629
  13   2.0000      -9.949551      -270.7410
  14   2.0000      -9.933456      -270.3031
  15   2.0000      -9.930382      -270.2194
  16   2.0000      -9.906700      -269.5750
  17   2.0000      -9.899863      -269.3890
  18   2.0000      -9.888283      -269.0739
  19   2.0000      -7.680426      -208.9950
  20   2.0000      -7.619513      -207.3375
  21   2.0000      -6.415913      -174.5859
  22   2.0000      -5.708521      -155.3368
  23   2.0000      -5.704981      -155.2404
  24   2.0000      -5.697148      -155.0273
  25   2.0000      -5.648561      -153.7052
  26   2.0000      -5.640443      -153.4843
  27   2.0000      -5.639185      -153.4500
  28   2.0000      -4.638313      -126.2149
  29   2.0000      -4.638095      -126.2090
  30   2.0000      -4.636535      -126.1665
  31   2.0000      -1.038576       -28.2611
  32   2.0000      -1.012550       -27.5529
  33   2.0000      -0.972966       -26.4757
  34   2.0000      -0.943066       -25.6621
  35   2.0000      -0.927011       -25.2252
  36   2.0000      -0.917973       -24.9793
  37   2.0000      -0.768318       -20.9070
  38   2.0000      -0.720482       -19.6053
  39   2.0000      -0.709152       -19.2970
  40   2.0000      -0.687646       -18.7118
  41   2.0000      -0.653327       -17.7779
  42   2.0000      -0.633653       -17.2426
  43   2.0000      -0.622753       -16.9460
  44   2.0000      -0.610815       -16.6211
  45   2.0000      -0.600105       -16.3297
  46   2.0000      -0.569050       -15.4846
  47   2.0000      -0.516610       -14.0577
  48   2.0000      -0.506166       -13.7735
  49   2.0000      -0.498295       -13.5593
  50   2.0000      -0.489275       -13.3138
  51   2.0000      -0.465115       -12.6564
  52   2.0000      -0.458344       -12.4722
  53   2.0000      -0.448766       -12.2116
  54   2.0000      -0.446154       -12.1405
  55   2.0000      -0.432454       -11.7677
  56   2.0000      -0.425496       -11.5783
  57   2.0000      -0.417421       -11.3586
  58   2.0000      -0.414983       -11.2923
  59   2.0000      -0.404652       -11.0111
  60   2.0000      -0.399838       -10.8802
  61   2.0000      -0.398274       -10.8376
  62   2.0000      -0.390746       -10.6327
  63   2.0000      -0.385920       -10.5014
  64   2.0000      -0.384014       -10.4496
  65   2.0000      -0.372849       -10.1457
  66   2.0000      -0.362606        -9.8670
  67   2.0000      -0.359737        -9.7890
  68   2.0000      -0.354914        -9.6577
  69   2.0000      -0.344669        -9.3789
  70   2.0000      -0.337555        -9.1853
  71   2.0000      -0.334538        -9.1033
  72   2.0000      -0.327465        -8.9108
  73   2.0000      -0.313641        -8.5346
  74   2.0000      -0.303848        -8.2681
  75   2.0000      -0.296265        -8.0618
  76   2.0000      -0.294233        -8.0065
  77   2.0000      -0.287413        -7.8209
  78   2.0000      -0.278172        -7.5694
  79   2.0000      -0.264725        -7.2035
  80   2.0000      -0.260737        -7.0950
  81   2.0000      -0.247336        -6.7303
  82   2.0000      -0.245057        -6.6684
  83   2.0000      -0.226269        -6.1571
  84   2.0000      -0.219448        -5.9715
  85   2.0000      -0.194272        -5.2864
  86   2.0000      -0.187561        -5.1038
  87   0.0000      -0.051172        -1.3925
  88   0.0000      -0.037339        -1.0161
  89   0.0000      -0.018954        -0.5158
  90   0.0000       0.004562         0.1241
  91   0.0000       0.032105         0.8736

MULLIKEN ATOMIC CHARGES
-----------------------
   0 C :   -0.305017
   1 C :   -0.014763
   2 O :   -0.218696
   3 C :    0.124941
   4 O :   -0.206906
   5 C :   -0.071946
   6 C :   -0.329755
   7 H :    0.158142
   8 C :    0.235723
   9 O :   -0.195172
  10 O :   -0.215855
  11 C :   -0.011371
  12 C :   -0.311326
  13 S :   -0.085982
  14 P :    0.623483
  15 S :   -0.351602
  16 O :   -0.366194
  17 C :   -0.085388
  18 O :   -0.373136
  19 C :   -0.106967
  20 H :    0.113749
  21 H :    0.128476
  22 H :    0.115892
  23 H :    0.104026
  24 H :    0.109877
  25 H :    0.118269
  26 H :    0.117387
  27 H :    0.122052
  28 H :    0.111860
  29 H :    0.130262
  30 H :    0.120798
  31 H :    0.120394
  32 H :    0.119301
  33 H :    0.115136
  34 H :    0.115074
  35 H :    0.112158
  36 H :    0.113615
  37 H :    0.119463
Sum of atomic charges:   -0.0000000

LOEWDIN ATOMIC CHARGES
----------------------
   0 C :   -0.356369
   1 C :   -0.111104
   2 O :   -0.050191
   3 C :    0.025129
   4 O :   -0.170605
   5 C :   -0.255950
   6 C :   -0.258638
   7 H :    0.154017
   8 C :    0.027744
   9 O :   -0.155330
  10 O :   -0.032021
  11 C :   -0.104839
  12 C :   -0.355914
  13 S :    0.109393
  14 P :    0.589513
  15 S :   -0.338689
  16 O :   -0.236674
  17 C :   -0.207324
  18 O :   -0.258199
  19 C :   -0.223561
  20 H :    0.131237
  21 H :    0.130853
  22 H :    0.125749
  23 H :    0.117050
  24 H :    0.120964
  25 H :    0.144337
  26 H :    0.129298
  27 H :    0.126528
  28 H :    0.123087
  29 H :    0.131174
  30 H :    0.134956
  31 H :    0.128069
  32 H :    0.117494
  33 H :    0.112174
  34 H :    0.108366
  35 H :    0.107007
  36 H :    0.101798
  37 H :    0.119469

  Mayer bond orders larger than 0.100000
B(  0-C ,  1-C ) :   1.1739 B(  0-C , 20-H ) :   0.9441 B(  0-C , 21-H ) :   0.9454
B(  0-C , 22-H ) :   0.9482 B(  1-C ,  2-O ) :   0.9157 B(  1-C , 23-H ) :   0.9344
B(  1-C , 24-H ) :   0.9155 B(  2-O ,  3-C ) :   1.2393 B(  3-C ,  4-O ) :   2.0379
B(  3-C ,  5-C ) :   1.0042 B(  5-C ,  6-C ) :   1.0559 B(  5-C , 25-H ) :   0.8736
B(  5-C , 26-H ) :   0.8767 B(  6-C ,  7-H ) :   0.8566 B(  6-C ,  8-C ) :   0.9199
B(  6-C , 13-S ) :   1.0284 B(  8-C ,  9-O ) :   1.9267 B(  8-C , 10-O ) :   1.2868
B(  9-O , 14-P ) :   0.1115 B( 10-O , 11-C ) :   0.8961 B( 11-C , 12-C ) :   1.1749
B( 11-C , 27-H ) :   0.9151 B( 11-C , 28-H ) :   0.9358 B( 12-C , 29-H ) :   0.9453
B( 12-C , 30-H ) :   0.9430 B( 12-C , 31-H ) :   0.9470 B( 13-S , 14-P ) :   0.9263
B( 13-S , 15-S ) :   0.1177 B( 14-P , 15-S ) :   1.5500 B( 14-P , 16-O ) :   1.1412
B( 14-P , 18-O ) :   1.0836 B( 16-O , 17-C ) :   0.9283 B( 17-C , 32-H ) :   0.9544
B( 17-C , 33-H ) :   0.9541 B( 17-C , 34-H ) :   0.9349 B( 18-O , 19-C ) :   0.9460
B( 19-C , 35-H ) :   0.9346 B( 19-C , 36-H ) :   0.9381 B( 19-C , 37-H ) :   0.9580

Dispersion correction           -0.051996762
FINAL SINGLE POINT ENERGY     -1979.016883270952

DIPOLE MOMENT
-------------

Method             : SCF
Type of density    : Electron Density
Multiplicity       :   1
Irrep              :   0
Energy             : -1979.1473658753625386 Eh
Relativity type    :
Basis              : AO
                                X                 Y                 Z
Electronic contribution:    -10.324345472      -0.360772302      -0.834704986
Nuclear contribution   :     10.986484830       1.012923116       0.904035126
                        -----------------------------------------
Total Dipole Moment    :      0.662139358       0.652150814       0.069330140
                        -----------------------------------------
Magnitude (a.u.)       :      0.931952725
Magnitude (Debye)      :      2.368835572

Rotational constants in cm-1:             0.012138             0.007667             0.005473
Rotational constants in MHz :           363.900163           229.855446           164.074921

                             ****ORCA TERMINATED NORMALLY****
TOTAL RUN TIME: 0 days 0 hours 0 minutes 32 seconds 156 msec
