                         Program Version 6.0.0  -   RELEASE  -
|  1> ! r2scan-3c def2/J RI DEFGRID2 scfconv6 printgap
|  2> %output
|  3>     printlevel normal
|  4> end
|  5> * xyz 0 1
|  6> C 1.4780430086 0.5708931661 3.3683e-05
|  7> C 0.6729092876 -0.7216118458 -5.863e-05
|  8> C -0.8006290305 -0.4971122861 6.97345e-05
|  9> O -1.3561072434 0.5749198085 -3.56676e-05
| 10> H 2.5424023276 0.3566286749 -0.0011081679
| 11> H 1.2376017684 1.163067094 0.8795385483
| 12> H 1.2359359935 1.1642836887 -0.8782052829
| 13> H 0.9083652853 -1.3304590212 -0.8766530161
| 14> H 0.9085855377 -1.3308185194 0.8762265732
| 15> H -1.3975190645 -1.4289831638 0.0002338175
| 16> *
| 17>
| 18>                          ****END OF INPUT****

CARTESIAN COORDINATES (ANGSTROEM)
---------------------------------
  C      1.478043    0.570893    0.000034
  C      0.672909   -0.721612   -0.000059
  C     -0.800629   -0.497112    0.000070
  O     -1.356107    0.574920   -0.000036
  H      2.542402    0.356629   -0.001108
  H      1.237602    1.163067    0.879539
  H      1.235936    1.164284   -0.878205
  H      0.908365   -1.330459   -0.876653
  H      0.908586   -1.330819    0.876227
  H     -1.397519   -1.428983    0.000234

 Total Charge           Charge          ....    0
 Multiplicity           Mult            ....    1
 Number of Electrons    NEL             ....   32
 Basis Dimension        Dim             ....  111

ORBITAL ENERGIES
----------------

  NO   OCC          E(Eh)            E(eV)
   0   2.0000     -18.952337      -515.7193
   1   2.0000     -10.120370      -275.3893
   2   2.0000     -10.048891      -273.4442
   3   2.0000     -10.026683      -272.8399
   4   2.0000      -1.015152       -27.6237
   5   2.0000      -0.758755       -20.6468
   6   2.0000      -0.639671       -17.4063
   7   2.0000      -0.526438       -14.3251
   8   2.0000      -0.458835       -12.4855
   9   2.0000      -0.443382       -12.0650
  10   2.0000      -0.406879       -11.0718
  11   2.0000      -0.358042        -9.7428
  12   2.0000      -0.353524        -9.6199
  13   2.0000      -0.340074        -9.2539
  14   2.0000      -0.325267        -8.8510
  15   2.0000      -0.224315        -6.1039
  16   0.0000      -0.056756        -1.5444
  17   0.0000       0.086450         2.3524
  18   0.0000       0.107863         2.9351
  19   0.0000       0.129870         3.5339
  20   0.0000       0.148757         4.0479

MULLIKEN ATOMIC CHARGES
-----------------------
   0 C :   -0.466795
   1 C :   -0.184264
   2 C :    0.131882
   3 O :   -0.348110
   4 H :    0.145169
   5 H :    0.155816
   6 H :    0.155870
   7 H :    0.151721
   8 H :    0.151718
   9 H :    0.106993
Sum of atomic charges:   -0.0000000

LOEWDIN ATOMIC CHARGES
----------------------
   0 C :   -0.410322
   1 C :   -0.307999
   2 C :    0.198950
   3 O :   -0.455959
   4 H :    0.150953
   5 H :    0.161404
   6 H :    0.161437
   7 H :    0.175504
   8 H :    0.175492
   9 H :    0.150542

  Mayer bond orders larger than 0.100000
B(  0-C ,  1-C ) :   0.9214 B(  0-C ,  4-H ) :   0.9720 B(  0-C ,  5-H ) :   0.9738
B(  0-C ,  6-H ) :   0.9738 B(  1-C ,  2-C ) :   0.9355 B(  1-C ,  7-H ) :   0.9328
B(  1-C ,  8-H ) :   0.9329 B(  2-C ,  3-O ) :   1.9262 B(  2-C ,  9-H ) :   0.9659

Dispersion correction           -0.001721943
FINAL SINGLE POINT ENERGY      -193.094108561184

DIPOLE MOMENT
-------------

Method             : SCF
Type of density    : Electron Density
Multiplicity       :   1
Irrep              :   0
Energy             :  -193.0970710900324434 Eh
Relativity type    :
Basis              : AO
                                X                 Y                 Z
Electronic contribution:     -4.371661034       0.481005786      -0.000014155
Nuclear contribution   :      5.079162500      -1.310789896       0.000029934
                        -----------------------------------------
Total Dipole Moment    :      0.707501466      -0.829784110       0.000015779
                        -----------------------------------------
Magnitude (a.u.)       :      1.090458617
Magnitude (Debye)      :      2.771725531

Rotational constants in cm-1:             0.561600             0.198005             0.154738
Rotational constants in MHz :         16836.347617          5936.055081          4638.940060

                             ****ORCA TERMINATED NORMALLY****
TOTAL RUN TIME: 0 days 0 hours 0 minutes 10 seconds 127 msec
