                         Program Version 6.0.0  -   RELEASE  -
|  1> ! r2scan-3c def2/J RI DEFGRID2 scfconv6 printgap
|  2> %output
|  3>     printlevel normal
|  4> end
|  5> %cpcm
|  6>     smd true
|  7>     smdsolvent "water"
|  8> end
|  9> * xyz 0 1
| 10> C 1.4780430086 0.5708931661 3.3683e-05
| 11> C 0.6729092876 -0.7216118458 -5.863e-05
| 12> C -0.8006290305 -0.4971122861 6.97345e-05
| 13> O -1.3561072434 0.5749198085 -3.56676e-05
| 14> H 2.5424023276 0.3566286749 -0.0011081679
| 15> H 1.2376017684 1.163067094 0.8795385483
| 16> H 1.2359359935 1.1642836887 -0.8782052829
| 17> H 0.9083652853 -1.3304590212 -0.8766530161
| 18> H 0.9085855377 -1.3308185194 0.8762265732
| 19> H -1.3975190645 -1.4289831638 0.0002338175
| 20> *
| 21>
| 22>                          ****END OF INPUT****

CARTESIAN COORDINATES (ANGSTROEM)
---------------------------------
  C      1.478043    0.570893    0.000034
  C      0.672909   -0.721612   -0.000059
  C     -0.800629   -0.497112    0.000070
  O     -1.356107    0.574920   -0.000036
  H      2.542402    0.356629   -0.001108
  H      1.237602    1.163067    0.879539
  H      1.235936    1.164284   -0.878205
  H      0.908365   -1.330459   -0.876653
  H      0.908586   -1.330819    0.876227
  H     -1.397519   -1.428983    0.000234

 Total Charge           Charge          ....    0
 Multiplicity           Mult            ....    1
 Number of Electrons    NEL             ....   32
 Basis Dimension        Dim             ....  111

ORBITAL ENERGIES
----------------

  NO   OCC          E(Eh)            E(eV)
   0   2.0000     -18.957138      -515.8500
   1   2.0000     -10.121453      -275.4187
   2   2.0000     -10.033743      -273.0320
   3   2.0000     -10.015403      -272.5330
   4   2.0000      -1.022860       -27.8334
   5   2.0000      -0.746493       -20.3131
   6   2.0000      -0.629683       -17.1345
   7   2.0000      -0.519984       -14.1495
   8   2.0000      -0.454391       -12.3646
   9   2.0000      -0.430695       -11.7198
  10   2.0000      -0.414531       -11.2800
  11   2.0000      -0.359514        -9.7829
  12   2.0000      -0.344352        -9.3703
  13   2.0000      -0.329044        -8.9537
  14   2.0000      -0.314912        -8.5692
  15   2.0000      -0.229870        -6.2551
  16   0.0000      -0.055013        -1.4970
  17   0.0000       0.096121         2.6156
  18   0.0000       0.125259         3.4085
  19   0.0000       0.142111         3.8670
  20   0.0000       0.166590         4.5331

MULLIKEN ATOMIC CHARGES
-----------------------
   0 C :   -0.523823
   1 C :   -0.187994
   2 C :    0.169190
   3 O :   -0.449421
   4 H :    0.163904
   5 H :    0.162271
   6 H :    0.162248
   7 H :    0.182530
   8 H :    0.182522
   9 H :    0.138572
Sum of atomic charges:   -0.0000000

LOEWDIN ATOMIC CHARGES
----------------------
   0 C :   -0.420268
   1 C :   -0.299440
   2 C :    0.225653
   3 O :   -0.531543
   4 H :    0.158305
   5 H :    0.159694
   6 H :    0.159703
   7 H :    0.190011
   8 H :    0.189997
   9 H :    0.167888

  Mayer bond orders larger than 0.100000
B(  0-C ,  1-C ) :   0.8868 B(  0-C ,  4-H ) :   0.9662 B(  0-C ,  5-H ) :   0.9758
B(  0-C ,  6-H ) :   0.9758 B(  1-C ,  2-C ) :   0.9646 B(  1-C ,  7-H ) :   0.9211
B(  1-C ,  8-H ) :   0.9211 B(  2-C ,  3-O ) :   1.8664 B(  2-C ,  9-H ) :   0.9543

Dispersion correction           -0.001721943
FINAL SINGLE POINT ENERGY      -193.099589109940

DIPOLE MOMENT
-------------

Method             : SCF
Type of density    : Electron Density
Multiplicity       :   1
Irrep              :   0
Energy             :  -193.1025516387886967 Eh
Relativity type    :
Basis              : AO
                                X                 Y                 Z
Electronic contribution:     -4.126200405       0.048303423      -0.000005396
Nuclear contribution   :      5.079162500      -1.310789896       0.000029934
                        -----------------------------------------
Total Dipole Moment    :      0.952962095      -1.262486473       0.000024538
                        -----------------------------------------
Magnitude (a.u.)       :      1.581773957
Magnitude (Debye)      :      4.020549879

Rotational constants in cm-1:             0.561600             0.198005             0.154738
Rotational constants in MHz :         16836.347617          5936.055081          4638.940060

                             ****ORCA TERMINATED NORMALLY****
TOTAL RUN TIME: 0 days 0 hours 0 minutes 10 seconds 454 msec
