                         Program Version 6.0.0  -   RELEASE  -
|  1> ! pbe def2-sv(p) def2/J RI DEFGRID1 loosescf d4 GCP(DFT/SV(P)) printgap
|  2> %output
|  3>     printlevel normal
|  4> end
|  5> * xyz 0 1
|  6> C 2.368055354 1.7227585923 2.8878677526
|  7> C 1.3676045501 1.5761618623 1.7601396368
|  8> O 0.8987443508 0.2085866995 1.6602591378
|  9> P 1.4967088273 -0.8221612649 0.6324637433
| 10> S 0.8091145231 -2.6435650735 0.8338873079
| 11> O 3.0569647588 -0.6848719517 0.9284268108
| 12> C 4.0184225241 -1.5116482602 0.2457144232
| 13> C 5.3523983555 -1.3487582391 0.945856311
| 14> S 1.3834517867 0.0204042474 -1.3241834862
| 15> C 0.1724413157 -1.0849420677 -2.0820162682
| 16> S -1.4075279208 -0.2912585532 -2.5163032625
| 17> P -2.045638297 0.4770193828 -0.6564647876
| 18> S -3.9367095408 0.9709205531 -0.5824015656
| 19> O -1.0427754908 1.6523202319 -0.2567397385
| 20> C -1.244988785 3.0057794436 -0.7018427914
| 21> C -0.9080270714 3.1763560532 -2.1699420515
| 22> O -1.5463228996 -0.6663656132 0.3296674794
| 23> C -2.3423883291 -1.0808073126 1.4595509185
| 24> C -2.2849438776 -0.0705295009 2.5846774939
| 25> H 1.9280671184 1.3895195715 3.8238690131
| 26> H 3.2539742639 1.127319876 2.6857207937
| 27> H 2.6494171482 2.7674597939 2.9767451034
| 28> H 1.8013318037 1.8723327843 0.8011745187
| 29> H 0.4644533555 2.1594392661 1.9498717681
| 30> H 3.6711110663 -2.5494754311 0.2802166615
| 31> H 4.072608135 -1.1866096866 -0.7971193656
| 32> H 5.6660784475 -0.3094472555 0.9129520811
| 33> H 5.2705322803 -1.6614867362 1.9830676682
| 34> H 6.0935366203 -1.962926292 0.4452664074
| 35> H -0.0042052157 -1.925072605 -1.4055060099
| 36> H 0.5764658336 -1.4230693009 -3.0332745937
| 37> H -2.2872603233 3.279841306 -0.5079215591
| 38> H -0.5808801189 3.5957824525 -0.0683986728
| 39> H 0.0901797255 2.7960269775 -2.374683563
| 40> H -1.6241373954 2.6334592421 -2.7856405692
| 41> H -0.9517268397 4.2300372094 -2.4259419979
| 42> H -3.3728881313 -1.2258500568 1.1212214973
| 43> H -1.9073465401 -2.0391699255 1.7494462507
| 44> H -2.7053343875 0.8767086337 2.2486547812
| 45> H -2.865494015 -0.439501209 3.4242487252
| 46> H -1.2548907229 0.0830187183 2.8944908528
| 47> *
| 48>
| 49>                          ****END OF INPUT****

CARTESIAN COORDINATES (ANGSTROEM)
---------------------------------
  C      2.368055    1.722759    2.887868
  C      1.367605    1.576162    1.760140
  O      0.898744    0.208587    1.660259
  P      1.496709   -0.822161    0.632464
  S      0.809115   -2.643565    0.833887
  O      3.056965   -0.684872    0.928427
  C      4.018423   -1.511648    0.245714
  C      5.352398   -1.348758    0.945856
  S      1.383452    0.020404   -1.324183
  C      0.172441   -1.084942   -2.082016
  S     -1.407528   -0.291259   -2.516303
  P     -2.045638    0.477019   -0.656465
  S     -3.936710    0.970921   -0.582402
  O     -1.042775    1.652320   -0.256740
  C     -1.244989    3.005779   -0.701843
  C     -0.908027    3.176356   -2.169942
  O     -1.546323   -0.666366    0.329667
  C     -2.342388   -1.080807    1.459551
  C     -2.284944   -0.070530    2.584677
  H      1.928067    1.389520    3.823869
  H      3.253974    1.127320    2.685721
  H      2.649417    2.767460    2.976745
  H      1.801332    1.872333    0.801175
  H      0.464453    2.159439    1.949872
  H      3.671111   -2.549475    0.280217
  H      4.072608   -1.186610   -0.797119
  H      5.666078   -0.309447    0.912952
  H      5.270532   -1.661487    1.983068
  H      6.093537   -1.962926    0.445266
  H     -0.004205   -1.925073   -1.405506
  H      0.576466   -1.423069   -3.033275
  H     -2.287260    3.279841   -0.507922
  H     -0.580880    3.595782   -0.068399
  H      0.090180    2.796027   -2.374684
  H     -1.624137    2.633459   -2.785641
  H     -0.951727    4.230037   -2.425942
  H     -3.372888   -1.225850    1.121221
  H     -1.907347   -2.039170    1.749446
  H     -2.705334    0.876709    2.248655
  H     -2.865494   -0.439501    3.424249
  H     -1.254891    0.083019    2.894491

 Total Charge           Charge          ....    0
 Multiplicity           Mult            ....    1
 Number of Electrons    NEL             ....  202
 Basis Dimension        Dim             ....  334

ORBITAL ENERGIES
----------------

  NO   OCC          E(Eh)            E(eV)
   0   2.0000     -88.047694     -2395.8995
   1   2.0000     -88.040140     -2395.6940
   2   2.0000     -87.990557     -2394.3448
   3   2.0000     -87.986513     -2394.2347
   4   2.0000     -76.431395     -2079.8040
   5   2.0000     -76.423841     -2079.5984
   6   2.0000     -18.798938      -511.5451
   7   2.0000     -18.798293      -511.5275
   8   2.0000     -18.789328      -511.2836
   9   2.0000     -18.786113      -511.1961
  10   2.0000      -9.961633      -271.0698
  11   2.0000      -9.956143      -270.9204
  12   2.0000      -9.956081      -270.9187
  13   2.0000      -9.952055      -270.8092
  14   2.0000      -9.940100      -270.4839
  15   2.0000      -9.893287      -269.2100
  16   2.0000      -9.890647      -269.1382
  17   2.0000      -9.883009      -268.9304
  18   2.0000      -9.871908      -268.6283
  19   2.0000      -7.692368      -209.3200
  20   2.0000      -7.685556      -209.1346
  21   2.0000      -7.635571      -207.7745
  22   2.0000      -7.631688      -207.6688
  23   2.0000      -6.428780      -174.9360
  24   2.0000      -6.421662      -174.7423
  25   2.0000      -5.720201      -155.6546
  26   2.0000      -5.716863      -155.5637
  27   2.0000      -5.713876      -155.4825
  28   2.0000      -5.709690      -155.3686
  29   2.0000      -5.709406      -155.3608
  30   2.0000      -5.702405      -155.1703
  31   2.0000      -5.664636      -154.1426
  32   2.0000      -5.660615      -154.0332
  33   2.0000      -5.656155      -153.9118
  34   2.0000      -5.655545      -153.8952
  35   2.0000      -5.652417      -153.8101
  36   2.0000      -5.651716      -153.7910
  37   2.0000      -4.651541      -126.5749
  38   2.0000      -4.650487      -126.5462
  39   2.0000      -4.649124      -126.5091
  40   2.0000      -4.643948      -126.3683
  41   2.0000      -4.643612      -126.3591
  42   2.0000      -4.642170      -126.3199
  43   2.0000      -0.995320       -27.0840
  44   2.0000      -0.982402       -26.7325
  45   2.0000      -0.950466       -25.8635
  46   2.0000      -0.941521       -25.6201
  47   2.0000      -0.762926       -20.7603
  48   2.0000      -0.724302       -19.7093
  49   2.0000      -0.708812       -19.2878
  50   2.0000      -0.697097       -18.9690
  51   2.0000      -0.683191       -18.5906
  52   2.0000      -0.673808       -18.3353
  53   2.0000      -0.653258       -17.7760
  54   2.0000      -0.640080       -17.4175
  55   2.0000      -0.597919       -16.2702
  56   2.0000      -0.592958       -16.1352
  57   2.0000      -0.574974       -15.6458
  58   2.0000      -0.566653       -15.4194
  59   2.0000      -0.563882       -15.3440
  60   2.0000      -0.514053       -13.9881
  61   2.0000      -0.490903       -13.3581
  62   2.0000      -0.486868       -13.2483
  63   2.0000      -0.469003       -12.7622
  64   2.0000      -0.453266       -12.3340
  65   2.0000      -0.450275       -12.2526
  66   2.0000      -0.446153       -12.1404
  67   2.0000      -0.436871       -11.8879
  68   2.0000      -0.433170       -11.7872
  69   2.0000      -0.415820       -11.3150
  70   2.0000      -0.409470       -11.1422
  71   2.0000      -0.395480       -10.7616
  72   2.0000      -0.394615       -10.7380
  73   2.0000      -0.389813       -10.6073
  74   2.0000      -0.383548       -10.4369
  75   2.0000      -0.370456       -10.0806
  76   2.0000      -0.364986        -9.9318
  77   2.0000      -0.360668        -9.8143
  78   2.0000      -0.359631        -9.7861
  79   2.0000      -0.352934        -9.6038
  80   2.0000      -0.350077        -9.5261
  81   2.0000      -0.345344        -9.3973
  82   2.0000      -0.341137        -9.2828
  83   2.0000      -0.337476        -9.1832
  84   2.0000      -0.325810        -8.8657
  85   2.0000      -0.321337        -8.7440
  86   2.0000      -0.317754        -8.6465
  87   2.0000      -0.304855        -8.2955
  88   2.0000      -0.301356        -8.2003
  89   2.0000      -0.295648        -8.0450
  90   2.0000      -0.283775        -7.7219
  91   2.0000      -0.275448        -7.4953
  92   2.0000      -0.267731        -7.2853
  93   2.0000      -0.264273        -7.1912
  94   2.0000      -0.259635        -7.0650
  95   2.0000      -0.229517        -6.2455
  96   2.0000      -0.224002        -6.0954
  97   2.0000      -0.212713        -5.7882
  98   2.0000      -0.207091        -5.6352
  99   2.0000      -0.202069        -5.4986
 100   2.0000      -0.198414        -5.3991
 101   0.0000      -0.041635        -1.1330
 102   0.0000      -0.031382        -0.8539
 103   0.0000      -0.020186        -0.5493
 104   0.0000       0.000480         0.0131
 105   0.0000       0.012539         0.3412

MULLIKEN ATOMIC CHARGES
-----------------------
   0 C :   -0.283810
   1 C :   -0.024790
   2 O :   -0.352905
   3 P :    0.618175
   4 S :   -0.300350
   5 O :   -0.385490
   6 C :   -0.009270
   7 C :   -0.283743
   8 S :   -0.116287
   9 C :   -0.339714
  10 S :   -0.089816
  11 P :    0.622048
  12 S :   -0.321549
  13 O :   -0.367879
  14 C :   -0.009717
  15 C :   -0.310724
  16 O :   -0.378645
  17 C :   -0.005044
  18 C :   -0.316589
  19 H :    0.119486
  20 H :    0.124780
  21 H :    0.108963
  22 H :    0.105303
  23 H :    0.121082
  24 H :    0.105691
  25 H :    0.099662
  26 H :    0.115593
  27 H :    0.122307
  28 H :    0.114308
  29 H :    0.203286
  30 H :    0.180047
  31 H :    0.111514
  32 H :    0.096696
  33 H :    0.117481
  34 H :    0.126686
  35 H :    0.110002
  36 H :    0.110863
  37 H :    0.112905
  38 H :    0.112435
  39 H :    0.106838
  40 H :    0.130172
Sum of atomic charges:    0.0000000

LOEWDIN ATOMIC CHARGES
----------------------
   0 C :   -0.359519
   1 C :   -0.113727
   2 O :   -0.222326
   3 P :    0.579094
   4 S :   -0.286920
   5 O :   -0.251493
   6 C :   -0.123966
   7 C :   -0.350831
   8 S :    0.072976
   9 C :   -0.481592
  10 S :    0.084224
  11 P :    0.568550
  12 S :   -0.314948
  13 O :   -0.243181
  14 C :   -0.121367
  15 C :   -0.368609
  16 O :   -0.241895
  17 C :   -0.119591
  18 C :   -0.369254
  19 H :    0.128990
  20 H :    0.126704
  21 H :    0.129605
  22 H :    0.105249
  23 H :    0.120581
  24 H :    0.109191
  25 H :    0.105281
  26 H :    0.125237
  27 H :    0.129091
  28 H :    0.131988
  29 H :    0.125237
  30 H :    0.138737
  31 H :    0.109212
  32 H :    0.111749
  33 H :    0.121351
  34 H :    0.121225
  35 H :    0.129137
  36 H :    0.109118
  37 H :    0.115132
  38 H :    0.117421
  39 H :    0.128809
  40 H :    0.125330

  Mayer bond orders larger than 0.100000
B(  0-C ,  1-C ) :   1.1610 B(  0-C , 19-H ) :   0.9470 B(  0-C , 20-H ) :   0.9385
B(  0-C , 21-H ) :   0.9396 B(  1-C ,  2-O ) :   0.8793 B(  1-C , 22-H ) :   0.9172
B(  1-C , 23-H ) :   0.9261 B(  2-O ,  3-P ) :   1.1356 B(  3-P ,  4-S ) :   1.6256
B(  3-P ,  5-O ) :   1.0674 B(  3-P ,  8-S ) :   0.9577 B(  4-S ,  8-S ) :   0.1159
B(  4-S , 29-H ) :   0.1135 B(  5-O ,  6-C ) :   0.9082 B(  6-C ,  7-C ) :   1.1593
B(  6-C , 24-H ) :   0.9117 B(  6-C , 25-H ) :   0.9223 B(  7-C , 26-H ) :   0.9506
B(  7-C , 27-H ) :   0.9508 B(  7-C , 28-H ) :   0.9421 B(  8-S ,  9-C ) :   1.0117
B(  9-C , 10-S ) :   0.9804 B(  9-C , 29-H ) :   0.8484 B(  9-C , 30-H ) :   0.9101
B( 10-S , 11-P ) :   0.9823 B( 11-P , 12-S ) :   1.6331 B( 11-P , 13-O ) :   1.0739
B( 11-P , 16-O ) :   1.1070 B( 13-O , 14-C ) :   0.9158 B( 14-C , 15-C ) :   1.1662
B( 14-C , 31-H ) :   0.9126 B( 14-C , 32-H ) :   0.9295 B( 15-C , 33-H ) :   0.9431
B( 15-C , 34-H ) :   0.9373 B( 15-C , 35-H ) :   0.9384 B( 16-O , 17-C ) :   0.8886
B( 17-C , 18-C ) :   1.1680 B( 17-C , 36-H ) :   0.9176 B( 17-C , 37-H ) :   0.9180
B( 18-C , 38-H ) :   0.9353 B( 18-C , 39-H ) :   0.9385 B( 18-C , 40-H ) :   0.9340

Dispersion correction           -0.068860001
FINAL SINGLE POINT ENERGY     -2929.519507011310

DIPOLE MOMENT
-------------

Method             : SCF
Type of density    : Electron Density
Multiplicity       :   1
Irrep              :   0
Energy             : -2929.6404573095660453 Eh
Relativity type    :
Basis              : AO
                                X                 Y                 Z
Electronic contribution:    -15.575098580     -10.832949416     -12.952773112
Nuclear contribution   :     17.473642123      11.713130579      13.203898703
                        -----------------------------------------
Total Dipole Moment    :      1.898543544       0.880181163       0.251125591
                        -----------------------------------------
Magnitude (a.u.)       :      2.107664710
Magnitude (Debye)      :      5.357257945

Rotational constants in cm-1:             0.012105             0.005643             0.005546
Rotational constants in MHz :           362.904914           169.165389           166.266536

                             ****ORCA TERMINATED NORMALLY****
TOTAL RUN TIME: 0 days 0 hours 0 minutes 22 seconds 987 msec
