                         Program Version 6.0.0  -   RELEASE  -
|  1> ! pbe def2-sv(p) def2/J RI DEFGRID1 loosescf d4 GCP(DFT/SV(P)) printgap
|  2> %output
|  3>     printlevel normal
|  4> end
|  5> * xyz 0 1
|  6> C 3.1223936585 -1.2552551998 -2.5761877638
|  7> C 1.8997831485 -0.4508562843 -2.1886394933
|  8> O 1.3819332623 -0.8563803015 -0.9100490275
|  9> P 2.1353731254 -0.5384375338 0.4515743777
| 10> S 3.2797760568 1.0581969378 0.4786616805
| 11> O 2.8981793544 -1.9094343424 0.7036315014
| 12> C 3.9666009069 -2.0349126335 1.6595169058
| 13> C 3.4736432101 -1.9091134042 3.0866613631
| 14> S 0.5148875309 -0.6183414367 1.7871779888
| 15> C -0.0280906502 1.111951734 1.6351082458
| 16> S -0.1806208814 1.7205629606 -0.0726927451
| 17> P -1.9167427084 0.696645931 -0.7075550538
| 18> S -2.4287256528 1.1679723678 -2.5383510643
| 19> O -3.0163509954 0.9819498488 0.4114493008
| 20> C -3.9559303067 2.0697847383 0.3237478115
| 21> C -5.2961592652 1.5848053832 0.8407022868
| 22> O -1.5153958165 -0.8000782841 -0.4004008897
| 23> C -2.4601000091 -1.8456331835 -0.0774609677
| 24> C -3.4456724981 -2.0869462071 -1.2005978021
| 25> H 2.8994092136 -2.3181909335 -2.535596358
| 26> H 3.4270780182 -0.9848793713 -3.5822911613
| 27> H 3.9379658597 -1.0380733184 -1.8871602901
| 28> H 1.0669327149 -0.6118618422 -2.8763796175
| 29> H 2.1327627779 0.6192791875 -2.1466423295
| 30> H 4.3801691328 -3.0243938447 1.460161498
| 31> H 4.7152600973 -1.2662045513 1.4424987777
| 32> H 4.2876205918 -2.1350239299 3.7680181589
| 33> H 3.1285080568 -0.8931500566 3.2729699916
| 34> H 2.6506259547 -2.59667277 3.2643057234
| 35> H 0.713352546 1.7619972681 2.0967757605
| 36> H -0.9862278104 1.1806407224 2.1442677636
| 37> H -3.5688915076 2.8925871002 0.9291174098
| 38> H -4.0242699635 2.3923780604 -0.7207439955
| 39> H -6.0011411861 2.4093846611 0.8231589767
| 40> H -5.6737864516 0.7817054289 0.2136093159
| 41> H -5.1945827147 1.2208737491 1.8590737719
| 42> H -1.8230784491 -2.7141385012 0.0980267504
| 43> H -2.9736067626 -1.57047578 0.8458655156
| 44> H -4.106023545 -2.9058177711 -0.9329361412
| 45> H -4.0390971815 -1.1902257449 -1.3761804072
| 46> H -2.9207366553 -2.3322910023 -2.1208487855
| 47> *
| 48>
| 49>                          ****END OF INPUT****

CARTESIAN COORDINATES (ANGSTROEM)
---------------------------------
  C      3.122394   -1.255255   -2.576188
  C      1.899783   -0.450856   -2.188639
  O      1.381933   -0.856380   -0.910049
  P      2.135373   -0.538438    0.451574
  S      3.279776    1.058197    0.478662
  O      2.898179   -1.909434    0.703632
  C      3.966601   -2.034913    1.659517
  C      3.473643   -1.909113    3.086661
  S      0.514888   -0.618341    1.787178
  C     -0.028091    1.111952    1.635108
  S     -0.180621    1.720563   -0.072693
  P     -1.916743    0.696646   -0.707555
  S     -2.428726    1.167972   -2.538351
  O     -3.016351    0.981950    0.411449
  C     -3.955930    2.069785    0.323748
  C     -5.296159    1.584805    0.840702
  O     -1.515396   -0.800078   -0.400401
  C     -2.460100   -1.845633   -0.077461
  C     -3.445672   -2.086946   -1.200598
  H      2.899409   -2.318191   -2.535596
  H      3.427078   -0.984879   -3.582291
  H      3.937966   -1.038073   -1.887160
  H      1.066933   -0.611862   -2.876380
  H      2.132763    0.619279   -2.146642
  H      4.380169   -3.024394    1.460161
  H      4.715260   -1.266205    1.442499
  H      4.287621   -2.135024    3.768018
  H      3.128508   -0.893150    3.272970
  H      2.650626   -2.596673    3.264306
  H      0.713353    1.761997    2.096776
  H     -0.986228    1.180641    2.144268
  H     -3.568892    2.892587    0.929117
  H     -4.024270    2.392378   -0.720744
  H     -6.001141    2.409385    0.823159
  H     -5.673786    0.781705    0.213609
  H     -5.194583    1.220874    1.859074
  H     -1.823078   -2.714139    0.098027
  H     -2.973607   -1.570476    0.845866
  H     -4.106024   -2.905818   -0.932936
  H     -4.039097   -1.190226   -1.376180
  H     -2.920737   -2.332291   -2.120849

 Total Charge           Charge          ....    0
 Multiplicity           Mult            ....    1
 Number of Electrons    NEL             ....  202
 Basis Dimension        Dim             ....  334

ORBITAL ENERGIES
----------------

  NO   OCC          E(Eh)            E(eV)
   0   2.0000     -88.040390     -2395.7008
   1   2.0000     -88.040328     -2395.6991
   2   2.0000     -87.986253     -2394.2277
   3   2.0000     -87.984377     -2394.1766
   4   2.0000     -76.425536     -2079.6446
   5   2.0000     -76.424677     -2079.6212
   6   2.0000     -18.799344      -511.5562
   7   2.0000     -18.792894      -511.3807
   8   2.0000     -18.788192      -511.2527
   9   2.0000     -18.781186      -511.0621
  10   2.0000      -9.958673      -270.9893
  11   2.0000      -9.956076      -270.9186
  12   2.0000      -9.954897      -270.8865
  13   2.0000      -9.952024      -270.8083
  14   2.0000      -9.940357      -270.4909
  15   2.0000      -9.893003      -269.2023
  16   2.0000      -9.885005      -268.9847
  17   2.0000      -9.884427      -268.9689
  18   2.0000      -9.876618      -268.7564
  19   2.0000      -7.685666      -209.1376
  20   2.0000      -7.685079      -209.1216
  21   2.0000      -7.631190      -207.6552
  22   2.0000      -7.629628      -207.6127
  23   2.0000      -6.423015      -174.7791
  24   2.0000      -6.421877      -174.7482
  25   2.0000      -5.713619      -155.4755
  26   2.0000      -5.713372      -155.4687
  27   2.0000      -5.710277      -155.3845
  28   2.0000      -5.709263      -155.3569
  29   2.0000      -5.702340      -155.1685
  30   2.0000      -5.702012      -155.1596
  31   2.0000      -5.659967      -154.0155
  32   2.0000      -5.658528      -153.9764
  33   2.0000      -5.651887      -153.7957
  34   2.0000      -5.651472      -153.7844
  35   2.0000      -5.650154      -153.7485
  36   2.0000      -5.649909      -153.7418
  37   2.0000      -4.646034      -126.4250
  38   2.0000      -4.644726      -126.3894
  39   2.0000      -4.644218      -126.3756
  40   2.0000      -4.643670      -126.3607
  41   2.0000      -4.643158      -126.3468
  42   2.0000      -4.642599      -126.3315
  43   2.0000      -0.989563       -26.9274
  44   2.0000      -0.982883       -26.7456
  45   2.0000      -0.945664       -25.7328
  46   2.0000      -0.940784       -25.6000
  47   2.0000      -0.762674       -20.7534
  48   2.0000      -0.722659       -19.6645
  49   2.0000      -0.706575       -19.2269
  50   2.0000      -0.692783       -18.8516
  51   2.0000      -0.683083       -18.5876
  52   2.0000      -0.671842       -18.2818
  53   2.0000      -0.653284       -17.7768
  54   2.0000      -0.637003       -17.3337
  55   2.0000      -0.598372       -16.2825
  56   2.0000      -0.592043       -16.1103
  57   2.0000      -0.576109       -15.6767
  58   2.0000      -0.567799       -15.4506
  59   2.0000      -0.563282       -15.3277
  60   2.0000      -0.508786       -13.8448
  61   2.0000      -0.489415       -13.3177
  62   2.0000      -0.476322       -12.9614
  63   2.0000      -0.468556       -12.7501
  64   2.0000      -0.456798       -12.4301
  65   2.0000      -0.442713       -12.0468
  66   2.0000      -0.440394       -11.9837
  67   2.0000      -0.436542       -11.8789
  68   2.0000      -0.426335       -11.6012
  69   2.0000      -0.415898       -11.3172
  70   2.0000      -0.410586       -11.1726
  71   2.0000      -0.399447       -10.8695
  72   2.0000      -0.386918       -10.5286
  73   2.0000      -0.386093       -10.5061
  74   2.0000      -0.384083       -10.4514
  75   2.0000      -0.375061       -10.2059
  76   2.0000      -0.368861       -10.0372
  77   2.0000      -0.358465        -9.7543
  78   2.0000      -0.355826        -9.6825
  79   2.0000      -0.350613        -9.5407
  80   2.0000      -0.346477        -9.4281
  81   2.0000      -0.344610        -9.3773
  82   2.0000      -0.339715        -9.2441
  83   2.0000      -0.336541        -9.1577
  84   2.0000      -0.334147        -9.0926
  85   2.0000      -0.324628        -8.8336
  86   2.0000      -0.312475        -8.5029
  87   2.0000      -0.298199        -8.1144
  88   2.0000      -0.294350        -8.0097
  89   2.0000      -0.292706        -7.9649
  90   2.0000      -0.278926        -7.5900
  91   2.0000      -0.275083        -7.4854
  92   2.0000      -0.266164        -7.2427
  93   2.0000      -0.262486        -7.1426
  94   2.0000      -0.259708        -7.0670
  95   2.0000      -0.229966        -6.2577
  96   2.0000      -0.219088        -5.9617
  97   2.0000      -0.205276        -5.5859
  98   2.0000      -0.204601        -5.5675
  99   2.0000      -0.199916        -5.4400
 100   2.0000      -0.196008        -5.3337
 101   0.0000      -0.042013        -1.1432
 102   0.0000      -0.016246        -0.4421
 103   0.0000      -0.003637        -0.0990
 104   0.0000       0.004081         0.1110
 105   0.0000       0.006196         0.1686

MULLIKEN ATOMIC CHARGES
-----------------------
   0 C :   -0.302978
   1 C :   -0.005941
   2 O :   -0.353730
   3 P :    0.608963
   4 S :   -0.335705
   5 O :   -0.369587
   6 C :   -0.004769
   7 C :   -0.314826
   8 S :   -0.083750
   9 C :   -0.345522
  10 S :   -0.065681
  11 P :    0.625097
  12 S :   -0.323645
  13 O :   -0.397716
  14 C :   -0.009496
  15 C :   -0.290126
  16 O :   -0.359659
  17 C :    0.003183
  18 C :   -0.316556
  19 H :    0.113100
  20 H :    0.110883
  21 H :    0.118226
  22 H :    0.108498
  23 H :    0.113756
  24 H :    0.105424
  25 H :    0.111490
  26 H :    0.112880
  27 H :    0.125950
  28 H :    0.116730
  29 H :    0.190486
  30 H :    0.176252
  31 H :    0.101999
  32 H :    0.111897
  33 H :    0.114715
  34 H :    0.121134
  35 H :    0.113853
  36 H :    0.109393
  37 H :    0.102978
  38 H :    0.109463
  39 H :    0.127874
  40 H :    0.125463
Sum of atomic charges:   -0.0000000

LOEWDIN ATOMIC CHARGES
----------------------
   0 C :   -0.364225
   1 C :   -0.120252
   2 O :   -0.234061
   3 P :    0.571252
   4 S :   -0.329435
   5 O :   -0.243963
   6 C :   -0.119522
   7 C :   -0.369705
   8 S :    0.091506
   9 C :   -0.475810
  10 S :    0.104607
  11 P :    0.560975
  12 S :   -0.322523
  13 O :   -0.255327
  14 C :   -0.121033
  15 C :   -0.352359
  16 O :   -0.233590
  17 C :   -0.110908
  18 C :   -0.366076
  19 H :    0.124595
  20 H :    0.129674
  21 H :    0.120387
  22 H :    0.119317
  23 H :    0.109907
  24 H :    0.118739
  25 H :    0.110575
  26 H :    0.130925
  27 H :    0.120821
  28 H :    0.123680
  29 H :    0.135930
  30 H :    0.130874
  31 H :    0.112669
  32 H :    0.108534
  33 H :    0.132167
  34 H :    0.126701
  35 H :    0.124782
  36 H :    0.121180
  37 H :    0.109608
  38 H :    0.128744
  39 H :    0.119643
  40 H :    0.130996

  Mayer bond orders larger than 0.100000
B(  0-C ,  1-C ) :   1.1618 B(  0-C , 19-H ) :   0.9466 B(  0-C , 20-H ) :   0.9405
B(  0-C , 21-H ) :   0.9376 B(  1-C ,  2-O ) :   0.9044 B(  1-C , 22-H ) :   0.9309
B(  1-C , 23-H ) :   0.9161 B(  2-O ,  3-P ) :   1.1310 B(  3-P ,  4-S ) :   1.5850
B(  3-P ,  5-O ) :   1.1116 B(  3-P ,  8-S ) :   0.9712 B(  4-S ,  8-S ) :   0.1099
B(  5-O ,  6-C ) :   0.9091 B(  6-C ,  7-C ) :   1.1663 B(  6-C , 24-H ) :   0.9340
B(  6-C , 25-H ) :   0.9153 B(  7-C , 26-H ) :   0.9378 B(  7-C , 27-H ) :   0.9354
B(  7-C , 28-H ) :   0.9448 B(  8-S ,  9-C ) :   0.9900 B(  9-C , 10-S ) :   0.9906
B(  9-C , 29-H ) :   0.8980 B(  9-C , 30-H ) :   0.9033 B( 10-S , 11-P ) :   0.9734
B( 11-P , 12-S ) :   1.6572 B( 11-P , 13-O ) :   1.0440 B( 11-P , 16-O ) :   1.1303
B( 13-O , 14-C ) :   0.9036 B( 14-C , 15-C ) :   1.1604 B( 14-C , 31-H ) :   0.9323
B( 14-C , 32-H ) :   0.9006 B( 15-C , 33-H ) :   0.9414 B( 15-C , 34-H ) :   0.9495
B( 15-C , 35-H ) :   0.9505 B( 16-O , 17-C ) :   0.9011 B( 17-C , 18-C ) :   1.1671
B( 17-C , 36-H ) :   0.9320 B( 17-C , 37-H ) :   0.9288 B( 18-C , 38-H ) :   0.9368
B( 18-C , 39-H ) :   0.9329 B( 18-C , 40-H ) :   0.9446

Dispersion correction           -0.065980535
FINAL SINGLE POINT ENERGY     -2929.520240036012

DIPOLE MOMENT
-------------

Method             : SCF
Type of density    : Electron Density
Multiplicity       :   1
Irrep              :   0
Energy             : -2929.6390695162172051 Eh
Relativity type    :
Basis              : AO
                                X                 Y                 Z
Electronic contribution:      6.959789412      10.901622393      -2.846282186
Nuclear contribution   :     -7.712263657     -11.836648381       4.025161157
                        -----------------------------------------
Total Dipole Moment    :     -0.752474246      -0.935025988       1.178878971
                        -----------------------------------------
Magnitude (a.u.)       :      1.682333711
Magnitude (Debye)      :      4.276152462

Rotational constants in cm-1:             0.013314             0.004874             0.004632
Rotational constants in MHz :           399.133201           146.120042           138.861404

                             ****ORCA TERMINATED NORMALLY****
TOTAL RUN TIME: 0 days 0 hours 0 minutes 21 seconds 461 msec
