                         Program Version 6.0.0  -   RELEASE  -
|  1> ! pbe def2-sv(p) def2/J RI DEFGRID1 loosescf d4 GCP(DFT/SV(P)) printgap
|  2> %output
|  3>     printlevel normal
|  4> end
|  5> * xyz 0 1
|  6> C 4.5154532458 0.3821029867 -1.3681330581
|  7> C 4.331418569 -0.9119944502 -0.6016285117
|  8> O 3.3806539976 -0.8024754484 0.4696449968
|  9> P 1.880763241 -0.2759762723 0.3415650581
| 10> S 1.6521638251 1.6720675845 0.2159995871
| 11> O 1.2661332238 -0.9408458896 1.6433169601
| 12> C 1.1779381136 -0.2287859475 2.8912189339
| 13> C 2.5460897069 0.0413053782 3.4811968314
| 14> S 1.0973263879 -1.4590134605 -1.2265164251
| 15> C 0.232302404 -0.1912049521 -2.203841497
| 16> S -1.5633254051 -0.4473871209 -2.354685567
| 17> P -2.2133358109 0.3056575111 -0.4992675877
| 18> S -4.1386430679 0.3142787677 -0.1509203172
| 19> O -1.51070168 1.7256867014 -0.5406385394
| 20> C -2.0096656154 2.8510413327 0.2092509447
| 21> C -1.7100140181 2.7177820913 1.6867420612
| 22> O -1.3420419989 -0.4753066183 0.5991110604
| 23> C -1.8663165753 -1.6586798342 1.2288584532
| 24> C -2.0497188709 -2.8033477956 0.2525963768
| 25> H 3.5964985615 0.648461797 -1.8887113324
| 26> H 4.7731508157 1.192845846 -0.6906806294
| 27> H 5.3100451695 0.2582183048 -2.0969050514
| 28> H 5.2527147216 -1.2078085147 -0.0965553976
| 29> H 4.0030851122 -1.7139041636 -1.2691012647
| 30> H 0.6347542249 0.7065886296 2.7224880961
| 31> H 0.5868370922 -0.8836836962 3.5331495488
| 32> H 2.4344718827 0.5118784699 4.453087911
| 33> H 3.0981954124 -0.8886735032 3.5871374875
| 34> H 3.105199869 0.7075080586 2.8250904799
| 35> H 0.6043981585 -0.2542366032 -3.2228377229
| 36> H 0.4266736513 0.7900933211 -1.7643886422
| 37> H -1.494662424 3.7062743864 -0.2299946406
| 38> H -3.0879673427 2.9288783181 0.0368597408
| 39> H -2.2187085485 1.8430926601 2.09063067
| 40> H -0.6381167573 2.61170585 1.8368343622
| 41> H -2.0589604141 3.6042917472 2.2063524216
| 42> H -1.1278973333 -1.9022073632 1.9930947973
| 43> H -2.8219350557 -1.3989338488 1.6950782509
| 44> H -1.1122245137 -3.0379139446 -0.2464538538
| 45> H -2.3960266336 -3.6785136527 0.7931052396
| 46> H -2.7935559521 -2.5362656831 -0.4984336487
| 47> *
| 48>
| 49>                          ****END OF INPUT****

CARTESIAN COORDINATES (ANGSTROEM)
---------------------------------
  C      4.515453    0.382103   -1.368133
  C      4.331419   -0.911994   -0.601629
  O      3.380654   -0.802475    0.469645
  P      1.880763   -0.275976    0.341565
  S      1.652164    1.672068    0.216000
  O      1.266133   -0.940846    1.643317
  C      1.177938   -0.228786    2.891219
  C      2.546090    0.041305    3.481197
  S      1.097326   -1.459013   -1.226516
  C      0.232302   -0.191205   -2.203841
  S     -1.563325   -0.447387   -2.354686
  P     -2.213336    0.305658   -0.499268
  S     -4.138643    0.314279   -0.150920
  O     -1.510702    1.725687   -0.540639
  C     -2.009666    2.851041    0.209251
  C     -1.710014    2.717782    1.686742
  O     -1.342042   -0.475307    0.599111
  C     -1.866317   -1.658680    1.228858
  C     -2.049719   -2.803348    0.252596
  H      3.596499    0.648462   -1.888711
  H      4.773151    1.192846   -0.690681
  H      5.310045    0.258218   -2.096905
  H      5.252715   -1.207809   -0.096555
  H      4.003085   -1.713904   -1.269101
  H      0.634754    0.706589    2.722488
  H      0.586837   -0.883684    3.533150
  H      2.434472    0.511878    4.453088
  H      3.098195   -0.888674    3.587137
  H      3.105200    0.707508    2.825090
  H      0.604398   -0.254237   -3.222838
  H      0.426674    0.790093   -1.764389
  H     -1.494662    3.706274   -0.229995
  H     -3.087967    2.928878    0.036860
  H     -2.218709    1.843093    2.090631
  H     -0.638117    2.611706    1.836834
  H     -2.058960    3.604292    2.206352
  H     -1.127897   -1.902207    1.993095
  H     -2.821935   -1.398934    1.695078
  H     -1.112225   -3.037914   -0.246454
  H     -2.396027   -3.678514    0.793105
  H     -2.793556   -2.536266   -0.498434

 Total Charge           Charge          ....    0
 Multiplicity           Mult            ....    1
 Number of Electrons    NEL             ....  202
 Basis Dimension        Dim             ....  334

ORBITAL ENERGIES
----------------

  NO   OCC          E(Eh)            E(eV)
   0   2.0000     -88.051085     -2395.9918
   1   2.0000     -88.041841     -2395.7403
   2   2.0000     -87.994146     -2394.4425
   3   2.0000     -87.986401     -2394.2317
   4   2.0000     -76.432379     -2079.8308
   5   2.0000     -76.422754     -2079.5689
   6   2.0000     -18.795104      -511.4408
   7   2.0000     -18.791496      -511.3426
   8   2.0000     -18.786060      -511.1947
   9   2.0000     -18.785839      -511.1887
  10   2.0000      -9.959553      -271.0132
  11   2.0000      -9.959309      -271.0066
  12   2.0000      -9.954757      -270.8827
  13   2.0000      -9.946398      -270.6552
  14   2.0000      -9.943843      -270.5857
  15   2.0000      -9.887879      -269.0629
  16   2.0000      -9.885107      -268.9874
  17   2.0000      -9.877271      -268.7742
  18   2.0000      -9.874311      -268.6937
  19   2.0000      -7.695890      -209.4158
  20   2.0000      -7.687403      -209.1849
  21   2.0000      -7.638896      -207.8649
  22   2.0000      -7.631565      -207.6654
  23   2.0000      -6.429565      -174.9573
  24   2.0000      -6.420640      -174.7145
  25   2.0000      -5.723697      -155.7497
  26   2.0000      -5.720354      -155.6587
  27   2.0000      -5.715645      -155.5306
  28   2.0000      -5.712962      -155.4576
  29   2.0000      -5.711635      -155.4215
  30   2.0000      -5.704197      -155.2191
  31   2.0000      -5.667696      -154.2258
  32   2.0000      -5.660500      -154.0300
  33   2.0000      -5.659918      -154.0142
  34   2.0000      -5.658740      -153.9821
  35   2.0000      -5.652229      -153.8050
  36   2.0000      -5.651650      -153.7892
  37   2.0000      -4.651851      -126.5833
  38   2.0000      -4.651445      -126.5722
  39   2.0000      -4.650257      -126.5399
  40   2.0000      -4.642945      -126.3410
  41   2.0000      -4.642555      -126.3304
  42   2.0000      -4.641180      -126.2929
  43   2.0000      -0.989571       -26.9276
  44   2.0000      -0.979813       -26.6621
  45   2.0000      -0.947121       -25.7725
  46   2.0000      -0.939802       -25.5733
  47   2.0000      -0.764283       -20.7972
  48   2.0000      -0.722852       -19.6698
  49   2.0000      -0.706721       -19.2309
  50   2.0000      -0.690261       -18.7829
  51   2.0000      -0.679531       -18.4910
  52   2.0000      -0.676222       -18.4009
  53   2.0000      -0.656902       -17.8752
  54   2.0000      -0.642407       -17.4808
  55   2.0000      -0.602885       -16.4053
  56   2.0000      -0.593153       -16.1405
  57   2.0000      -0.576704       -15.6929
  58   2.0000      -0.565557       -15.3896
  59   2.0000      -0.564333       -15.3563
  60   2.0000      -0.499006       -13.5786
  61   2.0000      -0.488002       -13.2792
  62   2.0000      -0.472642       -12.8612
  63   2.0000      -0.466066       -12.6823
  64   2.0000      -0.459693       -12.5089
  65   2.0000      -0.449504       -12.2316
  66   2.0000      -0.440987       -11.9999
  67   2.0000      -0.433044       -11.7837
  68   2.0000      -0.428488       -11.6598
  69   2.0000      -0.417266       -11.3544
  70   2.0000      -0.412745       -11.2314
  71   2.0000      -0.401635       -10.9290
  72   2.0000      -0.394909       -10.7460
  73   2.0000      -0.388509       -10.5719
  74   2.0000      -0.387064       -10.5326
  75   2.0000      -0.378449       -10.2981
  76   2.0000      -0.365614        -9.9489
  77   2.0000      -0.353315        -9.6142
  78   2.0000      -0.351335        -9.5603
  79   2.0000      -0.349149        -9.5008
  80   2.0000      -0.346246        -9.4218
  81   2.0000      -0.343414        -9.3448
  82   2.0000      -0.339672        -9.2429
  83   2.0000      -0.335957        -9.1419
  84   2.0000      -0.325523        -8.8579
  85   2.0000      -0.319205        -8.6860
  86   2.0000      -0.314625        -8.5614
  87   2.0000      -0.299815        -8.1584
  88   2.0000      -0.294575        -8.0158
  89   2.0000      -0.289983        -7.8908
  90   2.0000      -0.283048        -7.7021
  91   2.0000      -0.276185        -7.5154
  92   2.0000      -0.269735        -7.3399
  93   2.0000      -0.262648        -7.1470
  94   2.0000      -0.259800        -7.0695
  95   2.0000      -0.231002        -6.2859
  96   2.0000      -0.221677        -6.0321
  97   2.0000      -0.213519        -5.8101
  98   2.0000      -0.208564        -5.6753
  99   2.0000      -0.203384        -5.5344
 100   2.0000      -0.201883        -5.4935
 101   0.0000      -0.043654        -1.1879
 102   0.0000      -0.029331        -0.7981
 103   0.0000      -0.021448        -0.5836
 104   0.0000       0.000782         0.0213
 105   0.0000       0.010093         0.2746

MULLIKEN ATOMIC CHARGES
-----------------------
   0 C :   -0.310670
   1 C :   -0.004063
   2 O :   -0.374718
   3 P :    0.626468
   4 S :   -0.321440
   5 O :   -0.365538
   6 C :   -0.030200
   7 C :   -0.297440
   8 S :   -0.087190
   9 C :   -0.371544
  10 S :   -0.070500
  11 P :    0.615366
  12 S :   -0.321631
  13 O :   -0.370959
  14 C :    0.000867
  15 C :   -0.332584
  16 O :   -0.380313
  17 C :   -0.010709
  18 C :   -0.322239
  19 H :    0.119014
  20 H :    0.125939
  21 H :    0.112019
  22 H :    0.108095
  23 H :    0.109085
  24 H :    0.127931
  25 H :    0.106626
  26 H :    0.110886
  27 H :    0.116168
  28 H :    0.124022
  29 H :    0.184613
  30 H :    0.218820
  31 H :    0.104173
  32 H :    0.112166
  33 H :    0.118047
  34 H :    0.148838
  35 H :    0.107225
  36 H :    0.109127
  37 H :    0.108901
  38 H :    0.128079
  39 H :    0.107037
  40 H :    0.122225
Sum of atomic charges:   -0.0000000

LOEWDIN ATOMIC CHARGES
----------------------
   0 C :   -0.368862
   1 C :   -0.117531
   2 O :   -0.246432
   3 P :    0.579676
   4 S :   -0.291131
   5 O :   -0.236326
   6 C :   -0.118008
   7 C :   -0.364739
   8 S :    0.098363
   9 C :   -0.481255
  10 S :    0.092210
  11 P :    0.573214
  12 S :   -0.315724
  13 O :   -0.239964
  14 C :   -0.114690
  15 C :   -0.369786
  16 O :   -0.249723
  17 C :   -0.125172
  18 C :   -0.373567
  19 H :    0.118342
  20 H :    0.129345
  21 H :    0.130047
  22 H :    0.120937
  23 H :    0.107038
  24 H :    0.113918
  25 H :    0.116028
  26 H :    0.130248
  27 H :    0.126428
  28 H :    0.122465
  29 H :    0.138456
  30 H :    0.127734
  31 H :    0.119463
  32 H :    0.109475
  33 H :    0.120993
  34 H :    0.121783
  35 H :    0.128752
  36 H :    0.115570
  37 H :    0.107361
  38 H :    0.117825
  39 H :    0.128925
  40 H :    0.118316

  Mayer bond orders larger than 0.100000
B(  0-C ,  1-C ) :   1.1634 B(  0-C , 19-H ) :   0.9367 B(  0-C , 20-H ) :   0.9434
B(  0-C , 21-H ) :   0.9355 B(  1-C ,  2-O ) :   0.9188 B(  1-C , 22-H ) :   0.9336
B(  1-C , 23-H ) :   0.9238 B(  2-O ,  3-P ) :   1.0978 B(  3-P ,  4-S ) :   1.5971
B(  3-P ,  5-O ) :   1.1271 B(  3-P ,  8-S ) :   0.9537 B(  4-S ,  8-S ) :   0.1167
B(  5-O ,  6-C ) :   0.9023 B(  6-C ,  7-C ) :   1.1668 B(  6-C , 24-H ) :   0.9126
B(  6-C , 25-H ) :   0.9268 B(  7-C , 26-H ) :   0.9384 B(  7-C , 27-H ) :   0.9452
B(  7-C , 28-H ) :   0.9337 B(  8-S ,  9-C ) :   0.9941 B(  9-C , 10-S ) :   0.9934
B(  9-C , 29-H ) :   0.9106 B(  9-C , 30-H ) :   0.8451 B( 10-S , 11-P ) :   0.9762
B( 11-P , 12-S ) :   1.6287 B( 11-P , 13-O ) :   1.1183 B( 11-P , 16-O ) :   1.0716
B( 13-O , 14-C ) :   0.9011 B( 14-C , 15-C ) :   1.1649 B( 14-C , 31-H ) :   0.9333
B( 14-C , 32-H ) :   0.9160 B( 15-C , 33-H ) :   0.9385 B( 15-C , 34-H ) :   0.9234
B( 15-C , 35-H ) :   0.9359 B( 16-O , 17-C ) :   0.9064 B( 17-C , 18-C ) :   1.1692
B( 17-C , 36-H ) :   0.9193 B( 17-C , 37-H ) :   0.9165 B( 18-C , 38-H ) :   0.9354
B( 18-C , 39-H ) :   0.9375 B( 18-C , 40-H ) :   0.9329

Dispersion correction           -0.069702403
FINAL SINGLE POINT ENERGY     -2929.519448647977

DIPOLE MOMENT
-------------

Method             : SCF
Type of density    : Electron Density
Multiplicity       :   1
Irrep              :   0
Energy             : -2929.6390551779982161 Eh
Relativity type    :
Basis              : AO
                                X                 Y                 Z
Electronic contribution:    -12.028615677      -2.097090908     -14.547482173
Nuclear contribution   :     13.614869240       1.847428993      15.068736819
                        -----------------------------------------
Total Dipole Moment    :      1.586253563      -0.249661915       0.521254646
                        -----------------------------------------
Magnitude (a.u.)       :      1.688264743
Magnitude (Debye)      :      4.291227947

Rotational constants in cm-1:             0.011892             0.005934             0.005493
Rotational constants in MHz :           356.523916           177.890556           164.686269

                             ****ORCA TERMINATED NORMALLY****
TOTAL RUN TIME: 0 days 0 hours 0 minutes 22 seconds 911 msec
