                         Program Version 6.0.0  -   RELEASE  -
|  1> ! pbe def2-sv(p) def2/J RI DEFGRID1 loosescf d4 GCP(DFT/SV(P)) printgap
|  2> %output
|  3>     printlevel normal
|  4> end
|  5> * xyz 0 1
|  6> C -0.7597695632 -1.311660205 0.024373796
|  7> C -1.3722782991 0.0342105722 -0.3844032242
|  8> C -0.7120920743 1.1732754468 0.3847534225
|  9> C 0.7597662693 1.3116464955 -0.0251143146
| 10> C 1.3658182185 -0.0453764868 -0.4056583371
| 11> C 0.7185544404 -1.1620942385 0.4060687879
| 12> H -0.8586773147 -2.0162281724 -0.8034790316
| 13> H -1.3083614171 -1.7255774204 0.8724588488
| 14> H -1.229343974 0.2027449839 -1.4533238874
| 15> H -2.4469726628 0.0239137885 -0.1952968537
| 16> H -1.2379139055 2.1107511449 0.196372574
| 17> H -0.7863867733 0.9650717857 1.4536551102
| 18> H 0.8449802461 1.9925114535 -0.8740541707
| 19> H 1.3220505017 1.7492267281 0.8018603461
| 20> H 1.2054745035 -0.2440113667 -1.4669127005
| 21> H 2.4434546646 -0.0299953161 -0.2344990032
| 22> H 1.241448818 -2.1046343719 0.2356722595
| 23> H 0.8102593306 -0.9237921153 1.4673066168
| 24> *
| 25>
| 26>                          ****END OF INPUT****

CARTESIAN COORDINATES (ANGSTROEM)
---------------------------------
  C     -0.759770   -1.311660    0.024374
  C     -1.372278    0.034211   -0.384403
  C     -0.712092    1.173275    0.384753
  C      0.759766    1.311646   -0.025114
  C      1.365818   -0.045376   -0.405658
  C      0.718554   -1.162094    0.406069
  H     -0.858677   -2.016228   -0.803479
  H     -1.308361   -1.725577    0.872459
  H     -1.229344    0.202745   -1.453324
  H     -2.446973    0.023914   -0.195297
  H     -1.237914    2.110751    0.196373
  H     -0.786387    0.965072    1.453655
  H      0.844980    1.992511   -0.874054
  H      1.322051    1.749227    0.801860
  H      1.205475   -0.244011   -1.466913
  H      2.443455   -0.029995   -0.234499
  H      1.241449   -2.104634    0.235672
  H      0.810259   -0.923792    1.467307

 Total Charge           Charge          ....    0
 Multiplicity           Mult            ....    1
 Number of Electrons    NEL             ....   48
 Basis Dimension        Dim             ....  108

ORBITAL ENERGIES
----------------

  NO   OCC          E(Eh)            E(eV)
   0   2.0000      -9.876447      -268.7518
   1   2.0000      -9.876433      -268.7514
   2   2.0000      -9.876154      -268.7438
   3   2.0000      -9.876100      -268.7423
   4   2.0000      -9.876082      -268.7419
   5   2.0000      -9.876078      -268.7418
   6   2.0000      -0.748004       -20.3542
   7   2.0000      -0.657309       -17.8863
   8   2.0000      -0.657090       -17.8803
   9   2.0000      -0.545465       -14.8429
  10   2.0000      -0.535439       -14.5700
  11   2.0000      -0.459349       -12.4995
  12   2.0000      -0.434285       -11.8175
  13   2.0000      -0.428785       -11.6678
  14   2.0000      -0.386326       -10.5125
  15   2.0000      -0.352391        -9.5891
  16   2.0000      -0.328723        -8.9450
  17   2.0000      -0.322486        -8.7753
  18   2.0000      -0.320336        -8.7168
  19   2.0000      -0.314661        -8.5623
  20   2.0000      -0.305268        -8.3068
  21   2.0000      -0.255406        -6.9500
  22   2.0000      -0.255281        -6.9465
  23   2.0000      -0.255035        -6.9399
  24   0.0000       0.029454         0.8015
  25   0.0000       0.051158         1.3921
  26   0.0000       0.071569         1.9475
  27   0.0000       0.083455         2.2709
  28   0.0000       0.095998         2.6122

MULLIKEN ATOMIC CHARGES
-----------------------
   0 C :   -0.159308
   1 C :   -0.160805
   2 C :   -0.160438
   3 C :   -0.159736
   4 C :   -0.160607
   5 C :   -0.160558
   6 H :    0.080252
   7 H :    0.080155
   8 H :    0.076164
   9 H :    0.083990
  10 H :    0.083882
  11 H :    0.076222
  12 H :    0.080321
  13 H :    0.080226
  14 H :    0.076168
  15 H :    0.083965
  16 H :    0.083864
  17 H :    0.076244
Sum of atomic charges:   -0.0000000

LOEWDIN ATOMIC CHARGES
----------------------
   0 C :   -0.229707
   1 C :   -0.230459
   2 C :   -0.230442
   3 C :   -0.229769
   4 C :   -0.230434
   5 C :   -0.230445
   6 H :    0.115171
   7 H :    0.115150
   8 H :    0.113524
   9 H :    0.116618
  10 H :    0.116618
  11 H :    0.113531
  12 H :    0.115194
  13 H :    0.115168
  14 H :    0.113520
  15 H :    0.116614
  16 H :    0.116615
  17 H :    0.113530

  Mayer bond orders larger than 0.100000
B(  0-C ,  1-C ) :   1.1414 B(  0-C ,  5-C ) :   1.1418 B(  0-C ,  6-H ) :   0.9227
B(  0-C ,  7-H ) :   0.9227 B(  1-C ,  2-C ) :   1.1836 B(  1-C ,  8-H ) :   0.9112
B(  1-C ,  9-H ) :   0.9236 B(  2-C ,  3-C ) :   1.1418 B(  2-C , 10-H ) :   0.9236
B(  2-C , 11-H ) :   0.9112 B(  3-C ,  4-C ) :   1.1413 B(  3-C , 12-H ) :   0.9227
B(  3-C , 13-H ) :   0.9228 B(  4-C ,  5-C ) :   1.1836 B(  4-C , 14-H ) :   0.9112
B(  4-C , 15-H ) :   0.9236 B(  5-C , 16-H ) :   0.9236 B(  5-C , 17-H ) :   0.9112

Dispersion correction           -0.014900193
FINAL SINGLE POINT ENERGY      -235.267008266201

DIPOLE MOMENT
-------------

Method             : SCF
Type of density    : Electron Density
Multiplicity       :   1
Irrep              :   0
Energy             :  -235.3285903759747271 Eh
Relativity type    :
Basis              : AO
                                X                 Y                 Z
Electronic contribution:      0.000057244       0.000023324       0.000326266
Nuclear contribution   :      0.000011274      -0.000017711      -0.000225058
                        -----------------------------------------
Total Dipole Moment    :      0.000068518       0.000005613       0.000101209
                        -----------------------------------------
Magnitude (a.u.)       :      0.000122350
Magnitude (Debye)      :      0.000310988

Rotational constants in cm-1:             0.149368             0.140320             0.086563
Rotational constants in MHz :          4477.928294          4206.687282          2595.081536

                             ****ORCA TERMINATED NORMALLY****
TOTAL RUN TIME: 0 days 0 hours 0 minutes 7 seconds 213 msec
