                         Program Version 6.0.0  -   RELEASE  -
|  1> ! pbe def2-sv(p) def2/J RI DEFGRID1 loosescf d4 GCP(DFT/SV(P)) printgap
|  2> %output
|  3>     printlevel normal
|  4> end
|  5> * xyz 0 1
|  6> C 0.83056539 -2.723175929 -1.0455538103
|  7> C 1.1583810604 -1.457687725 -1.8102981252
|  8> O 1.1130131885 -0.2747828722 -0.9676564136
|  9> P 2.1284530128 0.0166562026 0.2084478106
| 10> S 2.5136727917 1.9170719834 0.4958481623
| 11> O 3.3856695074 -0.8622005379 -0.187068583
| 12> C 4.6143841721 -0.7750996755 0.5657912125
| 13> C 5.736929782 -1.2898420722 -0.3118653644
| 14> S 1.3682166343 -0.9596917554 1.9389339583
| 15> C -0.1318699095 0.0376697975 2.1260726204
| 16> S -1.584277065 -0.7154164854 1.3429048086
| 17> P -1.9358807693 0.5918536739 -0.3099147665
| 18> S -0.8634715879 2.2289733477 -0.3719040784
| 19> O -3.5047525464 0.851106529 -0.1942862591
| 20> C -4.0440225267 1.6963622063 0.8394343492
| 21> C -5.4803257341 2.0151784658 0.4768136308
| 22> O -1.8794209594 -0.2972744859 -1.6065969374
| 23> C -2.827013101 -1.3908938176 -1.7919173716
| 24> C -2.4363361847 -2.1543658062 -3.039135816
| 25> H 1.5973756335 -2.9244904711 -0.300633758
| 26> H -0.1282845689 -2.6295517991 -0.5403202662
| 27> H 0.7898329668 -3.5555285366 -1.7417441257
| 28> H 0.4135438962 -1.2332817036 -2.575490401
| 29> H 2.150317328 -1.5153748676 -2.2604119105
| 30> H 4.7728133487 0.269503311 0.8534617869
| 31> H 4.4985285016 -1.3813510441 1.4675799408
| 32> H 5.8277039342 -0.6741716125 -1.2025057645
| 33> H 6.6671809641 -1.2501212885 0.2450111117
| 34> H 5.5386631849 -2.3155637172 -0.6084685668
| 35> H 0.0353886192 1.0280981118 1.6902010399
| 36> H -0.3378655342 0.1029060671 3.1907093776
| 37> H -3.982912397 1.1558135704 1.788375485
| 38> H -3.4332033323 2.6032927598 0.9022181272
| 39> H -6.0573539496 1.0981427372 0.4038548792
| 40> H -5.9084610822 2.6498104321 1.2455921117
| 41> H -5.5170668118 2.5337406944 -0.4770366075
| 42> H -2.7990846591 -2.0231710643 -0.8999503801
| 43> H -3.8216075397 -0.9538928403 -1.8901696105
| 44> H -2.3736880352 -1.4752476914 -3.8847819269
| 45> H -1.4783153475 -2.6469498041 -2.9077766594
| 46> H -3.1960995984 -2.9031856413 -3.2396783546
| 47> *
| 48>
| 49>                          ****END OF INPUT****

CARTESIAN COORDINATES (ANGSTROEM)
---------------------------------
  C      0.830565   -2.723176   -1.045554
  C      1.158381   -1.457688   -1.810298
  O      1.113013   -0.274783   -0.967656
  P      2.128453    0.016656    0.208448
  S      2.513673    1.917072    0.495848
  O      3.385670   -0.862201   -0.187069
  C      4.614384   -0.775100    0.565791
  C      5.736930   -1.289842   -0.311865
  S      1.368217   -0.959692    1.938934
  C     -0.131870    0.037670    2.126073
  S     -1.584277   -0.715416    1.342905
  P     -1.935881    0.591854   -0.309915
  S     -0.863472    2.228973   -0.371904
  O     -3.504753    0.851107   -0.194286
  C     -4.044023    1.696362    0.839434
  C     -5.480326    2.015178    0.476814
  O     -1.879421   -0.297274   -1.606597
  C     -2.827013   -1.390894   -1.791917
  C     -2.436336   -2.154366   -3.039136
  H      1.597376   -2.924490   -0.300634
  H     -0.128285   -2.629552   -0.540320
  H      0.789833   -3.555529   -1.741744
  H      0.413544   -1.233282   -2.575490
  H      2.150317   -1.515375   -2.260412
  H      4.772813    0.269503    0.853462
  H      4.498529   -1.381351    1.467580
  H      5.827704   -0.674172   -1.202506
  H      6.667181   -1.250121    0.245011
  H      5.538663   -2.315564   -0.608469
  H      0.035389    1.028098    1.690201
  H     -0.337866    0.102906    3.190709
  H     -3.982912    1.155814    1.788375
  H     -3.433203    2.603293    0.902218
  H     -6.057354    1.098143    0.403855
  H     -5.908461    2.649810    1.245592
  H     -5.517067    2.533741   -0.477037
  H     -2.799085   -2.023171   -0.899950
  H     -3.821608   -0.953893   -1.890170
  H     -2.373688   -1.475248   -3.884782
  H     -1.478315   -2.646950   -2.907777
  H     -3.196100   -2.903186   -3.239678

 Total Charge           Charge          ....    0
 Multiplicity           Mult            ....    1
 Number of Electrons    NEL             ....  202
 Basis Dimension        Dim             ....  334

ORBITAL ENERGIES
----------------

  NO   OCC          E(Eh)            E(eV)
   0   2.0000     -88.041087     -2395.7198
   1   2.0000     -88.033995     -2395.5268
   2   2.0000     -87.979197     -2394.0357
   3   2.0000     -87.970735     -2393.8054
   4   2.0000     -76.422080     -2079.5505
   5   2.0000     -76.419436     -2079.4786
   6   2.0000     -18.796552      -511.4802
   7   2.0000     -18.794944      -511.4364
   8   2.0000     -18.789144      -511.2786
   9   2.0000     -18.785238      -511.1723
  10   2.0000      -9.962334      -271.0889
  11   2.0000      -9.953269      -270.8422
  12   2.0000      -9.952317      -270.8163
  13   2.0000      -9.949968      -270.7524
  14   2.0000      -9.949789      -270.7475
  15   2.0000      -9.897540      -269.3258
  16   2.0000      -9.889161      -269.0977
  17   2.0000      -9.887690      -269.0577
  18   2.0000      -9.883384      -268.9405
  19   2.0000      -7.685886      -209.1436
  20   2.0000      -7.679558      -208.9714
  21   2.0000      -7.624206      -207.4652
  22   2.0000      -7.616012      -207.2422
  23   2.0000      -6.419753      -174.6904
  24   2.0000      -6.416950      -174.6141
  25   2.0000      -5.713650      -155.4763
  26   2.0000      -5.710151      -155.3811
  27   2.0000      -5.707243      -155.3020
  28   2.0000      -5.704239      -155.2202
  29   2.0000      -5.703270      -155.1939
  30   2.0000      -5.696476      -155.0090
  31   2.0000      -5.653323      -153.8347
  32   2.0000      -5.645168      -153.6128
  33   2.0000      -5.644828      -153.6036
  34   2.0000      -5.644153      -153.5852
  35   2.0000      -5.636726      -153.3831
  36   2.0000      -5.635826      -153.3586
  37   2.0000      -4.642530      -126.3297
  38   2.0000      -4.641439      -126.3000
  39   2.0000      -4.640227      -126.2670
  40   2.0000      -4.640000      -126.2608
  41   2.0000      -4.638590      -126.2224
  42   2.0000      -4.636815      -126.1742
  43   2.0000      -0.990249       -26.9460
  44   2.0000      -0.986514       -26.8444
  45   2.0000      -0.943942       -25.6860
  46   2.0000      -0.940967       -25.6050
  47   2.0000      -0.757762       -20.6198
  48   2.0000      -0.721834       -19.6421
  49   2.0000      -0.711940       -19.3729
  50   2.0000      -0.694115       -18.8878
  51   2.0000      -0.691097       -18.8057
  52   2.0000      -0.673179       -18.3181
  53   2.0000      -0.644939       -17.5497
  54   2.0000      -0.626914       -17.0592
  55   2.0000      -0.588399       -16.0112
  56   2.0000      -0.581693       -15.8287
  57   2.0000      -0.575877       -15.6704
  58   2.0000      -0.572127       -15.5684
  59   2.0000      -0.562115       -15.2959
  60   2.0000      -0.512044       -13.9334
  61   2.0000      -0.503360       -13.6971
  62   2.0000      -0.484730       -13.1902
  63   2.0000      -0.471446       -12.8287
  64   2.0000      -0.457722       -12.4552
  65   2.0000      -0.447749       -12.1839
  66   2.0000      -0.441247       -12.0069
  67   2.0000      -0.439391       -11.9564
  68   2.0000      -0.430735       -11.7209
  69   2.0000      -0.415187       -11.2978
  70   2.0000      -0.406376       -11.0580
  71   2.0000      -0.401637       -10.9291
  72   2.0000      -0.394881       -10.7453
  73   2.0000      -0.378432       -10.2976
  74   2.0000      -0.377516       -10.2727
  75   2.0000      -0.368186       -10.0189
  76   2.0000      -0.366247        -9.9661
  77   2.0000      -0.360032        -9.7970
  78   2.0000      -0.352878        -9.6023
  79   2.0000      -0.350694        -9.5429
  80   2.0000      -0.348631        -9.4867
  81   2.0000      -0.346610        -9.4317
  82   2.0000      -0.341306        -9.2874
  83   2.0000      -0.335870        -9.1395
  84   2.0000      -0.333764        -9.0822
  85   2.0000      -0.319316        -8.6890
  86   2.0000      -0.319245        -8.6871
  87   2.0000      -0.305711        -8.3188
  88   2.0000      -0.302319        -8.2265
  89   2.0000      -0.297816        -8.1040
  90   2.0000      -0.290707        -7.9105
  91   2.0000      -0.272028        -7.4023
  92   2.0000      -0.270048        -7.3484
  93   2.0000      -0.257731        -7.0132
  94   2.0000      -0.252045        -6.8585
  95   2.0000      -0.232632        -6.3303
  96   2.0000      -0.217206        -5.9105
  97   2.0000      -0.211082        -5.7438
  98   2.0000      -0.199497        -5.4286
  99   2.0000      -0.181310        -4.9337
 100   2.0000      -0.175687        -4.7807
 101   0.0000      -0.035821        -0.9747
 102   0.0000      -0.028726        -0.7817
 103   0.0000      -0.016265        -0.4426
 104   0.0000       0.011073         0.3013
 105   0.0000       0.018880         0.5137

MULLIKEN ATOMIC CHARGES
-----------------------
   0 C :   -0.333484
   1 C :   -0.001983
   2 O :   -0.363386
   3 P :    0.605694
   4 S :   -0.293732
   5 O :   -0.389809
   6 C :   -0.011794
   7 C :   -0.281763
   8 S :   -0.110354
   9 C :   -0.342302
  10 S :   -0.128702
  11 P :    0.601335
  12 S :   -0.259282
  13 O :   -0.392726
  14 C :   -0.004318
  15 C :   -0.281076
  16 O :   -0.365742
  17 C :   -0.029802
  18 C :   -0.293605
  19 H :    0.121562
  20 H :    0.131704
  21 H :    0.110192
  22 H :    0.117681
  23 H :    0.108321
  24 H :    0.109129
  25 H :    0.104024
  26 H :    0.122662
  27 H :    0.113677
  28 H :    0.113246
  29 H :    0.198158
  30 H :    0.183244
  31 H :    0.095430
  32 H :    0.103558
  33 H :    0.111801
  34 H :    0.112180
  35 H :    0.120618
  36 H :    0.110888
  37 H :    0.117995
  38 H :    0.127752
  39 H :    0.128226
  40 H :    0.114786
Sum of atomic charges:   -0.0000000

LOEWDIN ATOMIC CHARGES
----------------------
   0 C :   -0.374156
   1 C :   -0.112360
   2 O :   -0.235556
   3 P :    0.572988
   4 S :   -0.307844
   5 O :   -0.247775
   6 C :   -0.120732
   7 C :   -0.350761
   8 S :    0.053454
   9 C :   -0.478433
  10 S :    0.053492
  11 P :    0.562110
  12 S :   -0.266080
  13 O :   -0.255487
  14 C :   -0.123363
  15 C :   -0.350522
  16 O :   -0.235536
  17 C :   -0.115624
  18 C :   -0.351376
  19 H :    0.119333
  20 H :    0.119274
  21 H :    0.126875
  22 H :    0.119147
  23 H :    0.113765
  24 H :    0.110069
  25 H :    0.110526
  26 H :    0.129953
  27 H :    0.131984
  28 H :    0.124856
  29 H :    0.125142
  30 H :    0.138249
  31 H :    0.104779
  32 H :    0.107940
  33 H :    0.124213
  34 H :    0.130900
  35 H :    0.128743
  36 H :    0.107321
  37 H :    0.117434
  38 H :    0.133222
  39 H :    0.126346
  40 H :    0.133489

  Mayer bond orders larger than 0.100000
B(  0-C ,  1-C ) :   1.1762 B(  0-C , 19-H ) :   0.9344 B(  0-C , 20-H ) :   0.9290
B(  0-C , 21-H ) :   0.9310 B(  1-C ,  2-O ) :   0.8891 B(  1-C , 22-H ) :   0.9211
B(  1-C , 23-H ) :   0.9241 B(  2-O ,  3-P ) :   1.1225 B(  3-P ,  4-S ) :   1.6733
B(  3-P ,  5-O ) :   1.0689 B(  3-P ,  8-S ) :   0.9433 B(  4-S ,  8-S ) :   0.1100
B(  5-O ,  6-C ) :   0.9001 B(  6-C ,  7-C ) :   1.1609 B(  6-C , 24-H ) :   0.9030
B(  6-C , 25-H ) :   0.9313 B(  7-C , 26-H ) :   0.9506 B(  7-C , 27-H ) :   0.9416
B(  7-C , 28-H ) :   0.9514 B(  8-S ,  9-C ) :   1.0043 B(  9-C , 10-S ) :   0.9999
B(  9-C , 29-H ) :   0.8379 B(  9-C , 30-H ) :   0.9121 B( 10-S , 11-P ) :   0.9414
B( 10-S , 12-S ) :   0.1179 B( 11-P , 12-S ) :   1.6815 B( 11-P , 13-O ) :   1.0555
B( 11-P , 16-O ) :   1.1184 B( 13-O , 14-C ) :   0.9102 B( 14-C , 15-C ) :   1.1598
B( 14-C , 31-H ) :   0.9233 B( 14-C , 32-H ) :   0.9089 B( 15-C , 33-H ) :   0.9516
B( 15-C , 34-H ) :   0.9423 B( 15-C , 35-H ) :   0.9513 B( 16-O , 17-C ) :   0.8927
B( 17-C , 18-C ) :   1.1667 B( 17-C , 36-H ) :   0.9149 B( 17-C , 37-H ) :   0.9256
B( 18-C , 38-H ) :   0.9463 B( 18-C , 39-H ) :   0.9397 B( 18-C , 40-H ) :   0.9384

Dispersion correction           -0.066064927
FINAL SINGLE POINT ENERGY     -2929.510464042279

DIPOLE MOMENT
-------------

Method             : SCF
Type of density    : Electron Density
Multiplicity       :   1
Irrep              :   0
Energy             : -2929.6315523133807801 Eh
Relativity type    :
Basis              : AO
                                X                 Y                 Z
Electronic contribution:      5.743017684      13.788858695       9.961319345
Nuclear contribution   :     -6.552404960     -15.672684772     -10.129507999
                        -----------------------------------------
Total Dipole Moment    :     -0.809387276      -1.883826077      -0.168188654
                        -----------------------------------------
Magnitude (a.u.)       :      2.057230146
Magnitude (Debye)      :      5.229063471

Rotational constants in cm-1:             0.013227             0.005076             0.004506
Rotational constants in MHz :           396.525977           152.172801           135.100646

                             ****ORCA TERMINATED NORMALLY****
TOTAL RUN TIME: 0 days 0 hours 0 minutes 21 seconds 424 msec
