                         Program Version 6.0.0  -   RELEASE  -
|  1> ! pbe def2-sv(p) def2/J RI DEFGRID1 loosescf d4 GCP(DFT/SV(P)) printgap
|  2> %output
|  3>     printlevel normal
|  4> end
|  5> * xyz 0 1
|  6> C 5.3743952976 -0.551234396 -2.1837037396
|  7> C 3.8976769711 -0.7234303023 -1.8905620036
|  8> O 3.5757318331 0.0881991018 -0.7464218072
|  9> P 2.0634126489 0.3891565951 -0.3431934828
| 10> S 1.0259691169 1.1469851365 -1.8204552201
| 11> O 2.2575511407 1.3889354026 0.8477022445
| 12> C 2.5929300751 1.0597473921 2.2171696203
| 13> C 3.818489608 0.1805857821 2.3282666629
| 14> S 1.3755644114 -1.4863407187 0.4019022012
| 15> C -0.0050912256 -1.8220695054 -0.7340596425
| 16> S -1.6039916219 -1.99850597 0.0991151796
| 17> P -2.0851593871 0.0153376533 0.4458869726
| 18> S -0.8806640987 1.1475758585 1.4913233556
| 19> O -3.4962281535 -0.045928152 1.1628382192
| 20> C -4.6320019797 -0.7643047298 0.618966354
| 21> C -4.8305420052 -2.0767802855 1.349715192
| 22> O -2.3272582305 0.4702243253 -1.069766145
| 23> C -2.3678722818 1.8547084122 -1.4534228741
| 24> C -3.6517553476 2.5208020052 -1.0040438646
| 25> H 5.6388796682 -1.1539369298 -3.0462262575
| 26> H 5.5922527893 0.4920805023 -2.3939125788
| 27> H 5.9626854085 -0.8682705321 -1.3277292757
| 28> H 3.6576073102 -1.76344335 -1.6504860089
| 29> H 3.280433488 -0.3974963782 -2.7349838784
| 30> H 2.7505821706 2.038977948 2.6715290684
| 31> H 1.7160714597 0.5891871036 2.6706543093
| 32> H 4.6564647322 0.639431328 1.80993656
| 33> H 4.0665238201 0.0544742175 3.3776040446
| 34> H 3.6230683228 -0.7980949673 1.8921663292
| 35> H 0.1814581989 -2.7829783734 -1.2061746314
| 36> H -0.0582797994 -1.0149581381 -1.4705500157
| 37> H -5.4795006189 -0.0943235229 0.7750788187
| 38> H -4.4764757353 -0.9231706461 -0.4509876887
| 39> H -3.9851430918 -2.73991262 1.1796359583
| 40> H -4.9252699109 -1.8956641622 2.416703465
| 41> H -5.7353949062 -2.5517859196 0.9840885032
| 42> H -1.495242712 2.3620220323 -1.0289782037
| 43> H -2.2709618352 1.8320305804 -2.5399466577
| 44> H -3.66486687 3.545740187 -1.361163617
| 45> H -4.5125308287 1.989390039 -1.4016386299
| 46> H -3.7039978203 2.5252842422 0.0844956109
| 47> *
| 48>
| 49>                          ****END OF INPUT****

CARTESIAN COORDINATES (ANGSTROEM)
---------------------------------
  C      5.374395   -0.551234   -2.183704
  C      3.897677   -0.723430   -1.890562
  O      3.575732    0.088199   -0.746422
  P      2.063413    0.389157   -0.343193
  S      1.025969    1.146985   -1.820455
  O      2.257551    1.388935    0.847702
  C      2.592930    1.059747    2.217170
  C      3.818490    0.180586    2.328267
  S      1.375564   -1.486341    0.401902
  C     -0.005091   -1.822070   -0.734060
  S     -1.603992   -1.998506    0.099115
  P     -2.085159    0.015338    0.445887
  S     -0.880664    1.147576    1.491323
  O     -3.496228   -0.045928    1.162838
  C     -4.632002   -0.764305    0.618966
  C     -4.830542   -2.076780    1.349715
  O     -2.327258    0.470224   -1.069766
  C     -2.367872    1.854708   -1.453423
  C     -3.651755    2.520802   -1.004044
  H      5.638880   -1.153937   -3.046226
  H      5.592253    0.492081   -2.393913
  H      5.962685   -0.868271   -1.327729
  H      3.657607   -1.763443   -1.650486
  H      3.280433   -0.397496   -2.734984
  H      2.750582    2.038978    2.671529
  H      1.716071    0.589187    2.670654
  H      4.656465    0.639431    1.809937
  H      4.066524    0.054474    3.377604
  H      3.623068   -0.798095    1.892166
  H      0.181458   -2.782978   -1.206175
  H     -0.058280   -1.014958   -1.470550
  H     -5.479501   -0.094324    0.775079
  H     -4.476476   -0.923171   -0.450988
  H     -3.985143   -2.739913    1.179636
  H     -4.925270   -1.895664    2.416703
  H     -5.735395   -2.551786    0.984089
  H     -1.495243    2.362022   -1.028978
  H     -2.270962    1.832031   -2.539947
  H     -3.664867    3.545740   -1.361164
  H     -4.512531    1.989390   -1.401639
  H     -3.703998    2.525284    0.084496

 Total Charge           Charge          ....    0
 Multiplicity           Mult            ....    1
 Number of Electrons    NEL             ....  202
 Basis Dimension        Dim             ....  334

ORBITAL ENERGIES
----------------

  NO   OCC          E(Eh)            E(eV)
   0   2.0000     -88.042028     -2395.7454
   1   2.0000     -88.041136     -2395.7211
   2   2.0000     -87.980446     -2394.0696
   3   2.0000     -87.976096     -2393.9513
   4   2.0000     -76.422424     -2079.5599
   5   2.0000     -76.419451     -2079.4790
   6   2.0000     -18.790793      -511.3235
   7   2.0000     -18.787363      -511.2301
   8   2.0000     -18.783610      -511.1280
   9   2.0000     -18.783155      -511.1156
  10   2.0000      -9.957171      -270.9484
  11   2.0000      -9.955493      -270.9027
  12   2.0000      -9.951223      -270.7865
  13   2.0000      -9.947973      -270.6981
  14   2.0000      -9.938757      -270.4473
  15   2.0000      -9.889086      -269.0957
  16   2.0000      -9.886547      -269.0266
  17   2.0000      -9.885817      -269.0068
  18   2.0000      -9.879502      -268.8349
  19   2.0000      -7.687637      -209.1912
  20   2.0000      -7.685867      -209.1431
  21   2.0000      -7.625476      -207.4997
  22   2.0000      -7.621086      -207.3803
  23   2.0000      -6.419635      -174.6871
  24   2.0000      -6.417447      -174.6276
  25   2.0000      -5.715493      -155.5265
  26   2.0000      -5.713746      -155.4789
  27   2.0000      -5.712041      -155.4325
  28   2.0000      -5.710325      -155.3858
  29   2.0000      -5.704607      -155.2303
  30   2.0000      -5.702971      -155.1857
  31   2.0000      -5.654342      -153.8625
  32   2.0000      -5.650170      -153.7489
  33   2.0000      -5.646364      -153.6454
  34   2.0000      -5.645315      -153.6168
  35   2.0000      -5.641665      -153.5175
  36   2.0000      -5.641078      -153.5015
  37   2.0000      -4.642222      -126.3213
  38   2.0000      -4.641506      -126.3018
  39   2.0000      -4.640423      -126.2723
  40   2.0000      -4.640018      -126.2613
  41   2.0000      -4.638979      -126.2330
  42   2.0000      -4.637741      -126.1993
  43   2.0000      -0.982304       -26.7299
  44   2.0000      -0.980692       -26.6860
  45   2.0000      -0.939513       -25.5654
  46   2.0000      -0.939477       -25.5645
  47   2.0000      -0.760673       -20.6990
  48   2.0000      -0.719113       -19.5681
  49   2.0000      -0.709783       -19.3142
  50   2.0000      -0.689971       -18.7751
  51   2.0000      -0.687908       -18.7189
  52   2.0000      -0.672054       -18.2875
  53   2.0000      -0.647214       -17.6116
  54   2.0000      -0.632229       -17.2038
  55   2.0000      -0.595565       -16.2062
  56   2.0000      -0.583271       -15.8716
  57   2.0000      -0.576000       -15.6738
  58   2.0000      -0.564127       -15.3507
  59   2.0000      -0.561714       -15.2850
  60   2.0000      -0.502020       -13.6607
  61   2.0000      -0.495680       -13.4881
  62   2.0000      -0.473489       -12.8843
  63   2.0000      -0.471024       -12.8172
  64   2.0000      -0.452409       -12.3107
  65   2.0000      -0.449060       -12.2195
  66   2.0000      -0.438735       -11.9386
  67   2.0000      -0.432015       -11.7557
  68   2.0000      -0.425284       -11.5726
  69   2.0000      -0.415387       -11.3033
  70   2.0000      -0.405690       -11.0394
  71   2.0000      -0.402261       -10.9461
  72   2.0000      -0.394459       -10.7338
  73   2.0000      -0.378885       -10.3100
  74   2.0000      -0.377470       -10.2715
  75   2.0000      -0.364607        -9.9215
  76   2.0000      -0.361562        -9.8386
  77   2.0000      -0.356928        -9.7125
  78   2.0000      -0.356104        -9.6901
  79   2.0000      -0.352446        -9.5905
  80   2.0000      -0.349660        -9.5147
  81   2.0000      -0.345765        -9.4088
  82   2.0000      -0.340610        -9.2685
  83   2.0000      -0.335653        -9.1336
  84   2.0000      -0.333896        -9.0858
  85   2.0000      -0.310933        -8.4609
  86   2.0000      -0.307445        -8.3660
  87   2.0000      -0.303509        -8.2589
  88   2.0000      -0.295694        -8.0462
  89   2.0000      -0.284738        -7.7481
  90   2.0000      -0.274008        -7.4561
  91   2.0000      -0.269988        -7.3468
  92   2.0000      -0.269206        -7.3255
  93   2.0000      -0.261789        -7.1236
  94   2.0000      -0.255321        -6.9476
  95   2.0000      -0.239333        -6.5126
  96   2.0000      -0.219408        -5.9704
  97   2.0000      -0.202796        -5.5183
  98   2.0000      -0.200086        -5.4446
  99   2.0000      -0.191103        -5.2002
 100   2.0000      -0.183284        -4.9874
 101   0.0000      -0.037684        -1.0254
 102   0.0000      -0.028664        -0.7800
 103   0.0000      -0.010266        -0.2793
 104   0.0000       0.008616         0.2345
 105   0.0000       0.022174         0.6034

MULLIKEN ATOMIC CHARGES
-----------------------
   0 C :   -0.279797
   1 C :   -0.005524
   2 O :   -0.374971
   3 P :    0.605509
   4 S :   -0.311840
   5 O :   -0.350067
   6 C :   -0.005541
   7 C :   -0.318803
   8 S :   -0.111516
   9 C :   -0.331827
  10 S :   -0.110534
  11 P :    0.616414
  12 S :   -0.308401
  13 O :   -0.366512
  14 C :   -0.034316
  15 C :   -0.291130
  16 O :   -0.385164
  17 C :   -0.017680
  18 C :   -0.310007
  19 H :    0.109498
  20 H :    0.121191
  21 H :    0.114144
  22 H :    0.090764
  23 H :    0.100000
  24 H :    0.111280
  25 H :    0.128553
  26 H :    0.124490
  27 H :    0.116216
  28 H :    0.125328
  29 H :    0.179996
  30 H :    0.198812
  31 H :    0.111299
  32 H :    0.111248
  33 H :    0.131346
  34 H :    0.123381
  35 H :    0.111269
  36 H :    0.132402
  37 H :    0.102000
  38 H :    0.113246
  39 H :    0.107273
  40 H :    0.127971
Sum of atomic charges:    0.0000000

LOEWDIN ATOMIC CHARGES
----------------------
   0 C :   -0.350204
   1 C :   -0.125265
   2 O :   -0.250199
   3 P :    0.575064
   4 S :   -0.296280
   5 O :   -0.221170
   6 C :   -0.112606
   7 C :   -0.367771
   8 S :    0.066812
   9 C :   -0.479810
  10 S :    0.082623
  11 P :    0.563151
  12 S :   -0.302644
  13 O :   -0.241526
  14 C :   -0.121241
  15 C :   -0.359812
  16 O :   -0.251541
  17 C :   -0.126716
  18 C :   -0.365833
  19 H :    0.129528
  20 H :    0.129211
  21 H :    0.125381
  22 H :    0.102562
  23 H :    0.105590
  24 H :    0.124285
  25 H :    0.113219
  26 H :    0.129181
  27 H :    0.133076
  28 H :    0.116036
  29 H :    0.136615
  30 H :    0.123992
  31 H :    0.120649
  32 H :    0.109657
  33 H :    0.119730
  34 H :    0.130846
  35 H :    0.130932
  36 H :    0.111212
  37 H :    0.116833
  38 H :    0.131451
  39 H :    0.119705
  40 H :    0.125276

  Mayer bond orders larger than 0.100000
B(  0-C ,  1-C ) :   1.1608 B(  0-C , 19-H ) :   0.9424 B(  0-C , 20-H ) :   0.9512
B(  0-C , 21-H ) :   0.9517 B(  1-C ,  2-O ) :   0.9142 B(  1-C , 22-H ) :   0.9222
B(  1-C , 23-H ) :   0.9088 B(  2-O ,  3-P ) :   1.0751 B(  3-P ,  4-S ) :   1.6123
B(  3-P ,  5-O ) :   1.1671 B(  3-P ,  8-S ) :   0.9406 B(  4-S ,  8-S ) :   0.1147
B(  4-S , 30-H ) :   0.1198 B(  5-O ,  6-C ) :   0.8926 B(  6-C ,  7-C ) :   1.1672
B(  6-C , 24-H ) :   0.9346 B(  6-C , 25-H ) :   0.9154 B(  7-C , 26-H ) :   0.9412
B(  7-C , 27-H ) :   0.9348 B(  7-C , 28-H ) :   0.9371 B(  8-S ,  9-C ) :   1.0020
B(  9-C , 10-S ) :   0.9962 B(  9-C , 29-H ) :   0.9127 B(  9-C , 30-H ) :   0.8420
B( 10-S , 11-P ) :   0.9675 B( 10-S , 12-S ) :   0.1084 B( 11-P , 12-S ) :   1.6597
B( 11-P , 13-O ) :   1.1124 B( 11-P , 16-O ) :   1.0756 B( 13-O , 14-C ) :   0.8968
B( 14-C , 15-C ) :   1.1670 B( 14-C , 31-H ) :   0.9323 B( 14-C , 32-H ) :   0.9141
B( 15-C , 33-H ) :   0.9369 B( 15-C , 34-H ) :   0.9455 B( 15-C , 35-H ) :   0.9390
B( 16-O , 17-C ) :   0.9020 B( 17-C , 18-C ) :   1.1559 B( 17-C , 36-H ) :   0.9046
B( 17-C , 37-H ) :   0.9361 B( 18-C , 38-H ) :   0.9407 B( 18-C , 39-H ) :   0.9454
B( 18-C , 40-H ) :   0.9375

Dispersion correction           -0.066458681
FINAL SINGLE POINT ENERGY     -2929.515225947956

DIPOLE MOMENT
-------------

Method             : SCF
Type of density    : Electron Density
Multiplicity       :   1
Irrep              :   0
Energy             : -2929.6343292489436863 Eh
Relativity type    :
Basis              : AO
                                X                 Y                 Z
Electronic contribution:     -0.935555665       0.226704416       2.378119517
Nuclear contribution   :      0.789747325      -1.157620471      -2.674656800
                        -----------------------------------------
Total Dipole Moment    :     -0.145808339      -0.930916054      -0.296537283
                        -----------------------------------------
Magnitude (a.u.)       :      0.987825456
Magnitude (Debye)      :      2.510852769

Rotational constants in cm-1:             0.013699             0.004749             0.004610
Rotational constants in MHz :           410.697263           142.378809           138.192743

                             ****ORCA TERMINATED NORMALLY****
TOTAL RUN TIME: 0 days 0 hours 0 minutes 21 seconds 4 msec
