                         Program Version 6.0.0  -   RELEASE  -
|  1> ! wb97x-v def2-tzvp def2/J RIJCOSX DEFGRID2 scfconv7 GCP(DFT/TZ) printgap
|  2> %output
|  3>     printlevel normal
|  4> end
|  5> * xyz 0 1
|  6> C 0.02451469107762718 -2.4453768074607574 0.09411704818630295
|  7> C 1.213504006941992 -1.7360324381468375 0.004726799707209391
|  8> C 1.1811516903888948 -0.3410912324141197 -0.053868516087825946
|  9> C -0.024189287268643472 0.345734702480738 -0.026154212129684065
| 10> C -1.2097499351364909 -0.38314675549501365 0.06368529550368209
| 11> C -1.1945283372793405 -1.7721732845466371 0.12585732850654693
| 12> C -2.498943527139883 0.3820872986172849 0.11314591101873486
| 13> F -2.6155506171874974 1.242726506316287 -0.9314790157202979
| 14> F -3.5862117118483776 -0.41671094848312373 0.09003128856156928
| 15> F -2.5887520177554704 1.1400680553929077 1.2393731700455537
| 16> C 2.4835952537635686 0.39710124625959536 -0.14527341425440668
| 17> F 3.176323715951061 0.06097584836970148 -1.2652397325051732
| 18> F 2.328581315342248 1.7377315205787227 -0.16589047886343355
| 19> F 3.2974381255609617 0.10797449802141897 0.9043184960259771
| 20> H 0.04324839255250264 -3.5283820998498645 0.14092893494183914
| 21> H 2.1631231052167634 -2.2611698269558254 -0.01849974281470565
| 22> H -0.0471816733562007 1.4286872065284735 -0.07163874207528975
| 23> H -2.1209918600918214 -2.3297281018642924 0.19747688166344715
| 24> *
| 25>
| 26>                          ****END OF INPUT****

CARTESIAN COORDINATES (ANGSTROEM)
---------------------------------
  C      0.024515   -2.445377    0.094117
  C      1.213504   -1.736032    0.004727
  C      1.181152   -0.341091   -0.053869
  C     -0.024189    0.345735   -0.026154
  C     -1.209750   -0.383147    0.063685
  C     -1.194528   -1.772173    0.125857
  C     -2.498944    0.382087    0.113146
  F     -2.615551    1.242727   -0.931479
  F     -3.586212   -0.416711    0.090031
  F     -2.588752    1.140068    1.239373
  C      2.483595    0.397101   -0.145273
  F      3.176324    0.060976   -1.265240
  F      2.328581    1.737732   -0.165890
  F      3.297438    0.107974    0.904318
  H      0.043248   -3.528382    0.140929
  H      2.163123   -2.261170   -0.018500
  H     -0.047182    1.428687   -0.071639
  H     -2.120992   -2.329728    0.197477

 Total Charge           Charge          ....    0
 Multiplicity           Mult            ....    1
 Number of Electrons    NEL             ....  106
 Basis Dimension        Dim             ....  458

ORBITAL ENERGIES
----------------

  NO   OCC          E(Eh)            E(eV)
   0   2.0000     -27.610023      -751.3069
   1   2.0000     -27.609577      -751.2948
   2   2.0000     -27.603842      -751.1387
   3   2.0000     -27.603631      -751.1330
   4   2.0000     -27.603488      -751.1291
   5   2.0000     -27.602545      -751.1034
   6   2.0000     -12.314108      -335.0839
   7   2.0000     -12.313982      -335.0805
   8   2.0000     -12.105890      -329.4180
   9   2.0000     -12.105582      -329.4096
  10   2.0000     -12.099951      -329.2564
  11   2.0000     -12.096812      -329.1710
  12   2.0000     -12.096780      -329.1701
  13   2.0000     -12.089922      -328.9835
  14   2.0000      -2.066599       -56.2350
  15   2.0000      -2.066581       -56.2345
  16   2.0000      -2.020384       -54.9774
  17   2.0000      -2.020182       -54.9719
  18   2.0000      -2.014657       -54.8216
  19   2.0000      -2.014127       -54.8072
  20   2.0000      -1.447693       -39.3937
  21   2.0000      -1.409465       -38.3535
  22   2.0000      -1.384975       -37.6871
  23   2.0000      -1.323317       -36.0093
  24   2.0000      -1.322256       -35.9804
  25   2.0000      -1.264994       -34.4222
  26   2.0000      -1.264315       -34.4038
  27   2.0000      -1.258803       -34.2538
  28   2.0000      -1.258347       -34.2414
  29   2.0000      -1.217994       -33.1433
  30   2.0000      -1.216815       -33.1112
  31   2.0000      -1.171671       -31.8828
  32   2.0000      -1.171098       -31.8672
  33   2.0000      -1.170624       -31.8543
  34   2.0000      -1.170473       -31.8502
  35   2.0000      -1.158156       -31.5150
  36   2.0000      -1.156844       -31.4793
  37   2.0000      -1.155557       -31.4443
  38   2.0000      -1.155337       -31.4383
  39   2.0000      -1.151368       -31.3303
  40   2.0000      -1.150954       -31.3191
  41   2.0000      -1.146069       -31.1861
  42   2.0000      -1.142234       -31.0818
  43   2.0000      -1.049493       -28.5582
  44   2.0000      -1.001889       -27.2628
  45   2.0000      -0.984996       -26.8031
  46   2.0000      -0.978814       -26.6349
  47   2.0000      -0.924931       -25.1687
  48   2.0000      -0.876295       -23.8452
  49   2.0000      -0.863083       -23.4857
  50   2.0000      -0.823482       -22.4081
  51   2.0000      -0.700748       -19.0683
  52   2.0000      -0.687171       -18.6989
  53   0.0000      -0.331572        -9.0225
  54   0.0000      -0.309985        -8.4351
  55   0.0000      -0.287921        -7.8347
  56   0.0000      -0.283219        -7.7068
  57   0.0000      -0.256735        -6.9861

MULLIKEN ATOMIC CHARGES
-----------------------
   0 C :   -0.079206
   1 C :   -0.203671
   2 C :    0.106969
   3 C :   -0.295885
   4 C :    0.128835
   5 C :   -0.188463
   6 C :    0.438830
   7 F :   -0.161579
   8 F :   -0.160740
   9 F :   -0.160399
  10 C :    0.444850
  11 F :   -0.161443
  12 F :   -0.159066
  13 F :   -0.161892
  14 H :    0.137475
  15 H :    0.148559
  16 H :    0.168646
  17 H :    0.158180
Sum of atomic charges:   -0.0000000

LOEWDIN ATOMIC CHARGES
----------------------
   0 C :   -0.115683
   1 C :   -0.070951
   2 C :   -0.123135
   3 C :   -0.038639
   4 C :   -0.123348
   5 C :   -0.074022
   6 C :   -0.596826
   7 F :    0.181872
   8 F :    0.194973
   9 F :    0.178470
  10 C :   -0.596499
  11 F :    0.180047
  12 F :    0.195792
  13 F :    0.180124
  14 H :    0.149645
  15 H :    0.157674
  16 H :    0.164446
  17 H :    0.156062

  Mayer bond orders larger than 0.100000
B(  0-C ,  1-C ) :   1.4490 B(  0-C ,  5-C ) :   1.3933 B(  0-C , 14-H ) :   0.9702
B(  1-C ,  2-C ) :   1.3808 B(  1-C , 15-H ) :   0.9548 B(  2-C ,  3-C ) :   1.4056
B(  2-C , 10-C ) :   1.0022 B(  3-C ,  4-C ) :   1.3649 B(  3-C , 16-H ) :   0.9387
B(  4-C ,  5-C ) :   1.4048 B(  4-C ,  6-C ) :   1.0035 B(  5-C , 17-H ) :   0.9490
B(  6-C ,  7-F ) :   1.1647 B(  6-C ,  8-F ) :   1.1652 B(  6-C ,  9-F ) :   1.1686
B( 10-C , 11-F ) :   1.1660 B( 10-C , 12-F ) :   1.1643 B( 10-C , 13-F ) :   1.1646

FINAL SINGLE POINT ENERGY      -906.429823568345

DIPOLE MOMENT
-------------

Method             : SCF
Type of density    : Electron Density
Multiplicity       :   1
Irrep              :   0
Energy             :  -906.4485087874450073 Eh
Relativity type    :
Basis              : AO
                                X                 Y                 Z
Electronic contribution:     -0.052388107       8.746691298      -0.317664275
Nuclear contribution   :      0.024599985      -9.864066808       0.351647940
                        -----------------------------------------
Total Dipole Moment    :     -0.027788123      -1.117375510       0.033983665
                        -----------------------------------------
Magnitude (a.u.)       :      1.118237497
Magnitude (Debye)      :      2.842333832

Rotational constants in cm-1:             0.043870             0.012740             0.011032
Rotational constants in MHz :          1315.180000           381.927300           330.744115

                             ****ORCA TERMINATED NORMALLY****
TOTAL RUN TIME: 0 days 0 hours 4 minutes 41 seconds 820 msec
