                         Program Version 6.0.0  -   RELEASE  -
|  1> ! wb97x-v def2-tzvp def2/J RIJCOSX DEFGRID2 scfconv7 GCP(DFT/TZ) printgap
|  2> %output
|  3>     printlevel normal
|  4> end
|  5> %cpcm
|  6>     smd true
|  7>     smdsolvent "water"
|  8> end
|  9> * xyz 0 1
| 10> C 0.02451469107762718 -2.4453768074607574 0.09411704818630295
| 11> C 1.213504006941992 -1.7360324381468375 0.004726799707209391
| 12> C 1.1811516903888948 -0.3410912324141197 -0.053868516087825946
| 13> C -0.024189287268643472 0.345734702480738 -0.026154212129684065
| 14> C -1.2097499351364909 -0.38314675549501365 0.06368529550368209
| 15> C -1.1945283372793405 -1.7721732845466371 0.12585732850654693
| 16> C -2.498943527139883 0.3820872986172849 0.11314591101873486
| 17> F -2.6155506171874974 1.242726506316287 -0.9314790157202979
| 18> F -3.5862117118483776 -0.41671094848312373 0.09003128856156928
| 19> F -2.5887520177554704 1.1400680553929077 1.2393731700455537
| 20> C 2.4835952537635686 0.39710124625959536 -0.14527341425440668
| 21> F 3.176323715951061 0.06097584836970148 -1.2652397325051732
| 22> F 2.328581315342248 1.7377315205787227 -0.16589047886343355
| 23> F 3.2974381255609617 0.10797449802141897 0.9043184960259771
| 24> H 0.04324839255250264 -3.5283820998498645 0.14092893494183914
| 25> H 2.1631231052167634 -2.2611698269558254 -0.01849974281470565
| 26> H -0.0471816733562007 1.4286872065284735 -0.07163874207528975
| 27> H -2.1209918600918214 -2.3297281018642924 0.19747688166344715
| 28> *
| 29>
| 30>                          ****END OF INPUT****

CARTESIAN COORDINATES (ANGSTROEM)
---------------------------------
  C      0.024515   -2.445377    0.094117
  C      1.213504   -1.736032    0.004727
  C      1.181152   -0.341091   -0.053869
  C     -0.024189    0.345735   -0.026154
  C     -1.209750   -0.383147    0.063685
  C     -1.194528   -1.772173    0.125857
  C     -2.498944    0.382087    0.113146
  F     -2.615551    1.242727   -0.931479
  F     -3.586212   -0.416711    0.090031
  F     -2.588752    1.140068    1.239373
  C      2.483595    0.397101   -0.145273
  F      3.176324    0.060976   -1.265240
  F      2.328581    1.737732   -0.165890
  F      3.297438    0.107974    0.904318
  H      0.043248   -3.528382    0.140929
  H      2.163123   -2.261170   -0.018500
  H     -0.047182    1.428687   -0.071639
  H     -2.120992   -2.329728    0.197477

 Total Charge           Charge          ....    0
 Multiplicity           Mult            ....    1
 Number of Electrons    NEL             ....  106
 Basis Dimension        Dim             ....  458

ORBITAL ENERGIES
----------------

  NO   OCC          E(Eh)            E(eV)
   0   2.0000     -27.606391      -751.2081
   1   2.0000     -27.606221      -751.2035
   2   2.0000     -27.601926      -751.0866
   3   2.0000     -27.601639      -751.0788
   4   2.0000     -27.601500      -751.0750
   5   2.0000     -27.600958      -751.0603
   6   2.0000     -12.308601      -334.9341
   7   2.0000     -12.308423      -334.9292
   8   2.0000     -12.089292      -328.9664
   9   2.0000     -12.088950      -328.9571
  10   2.0000     -12.082548      -328.7829
  11   2.0000     -12.076959      -328.6308
  12   2.0000     -12.076604      -328.6211
  13   2.0000     -12.067519      -328.3739
  14   2.0000      -2.064219       -56.1702
  15   2.0000      -2.064065       -56.1661
  16   2.0000      -2.017721       -54.9050
  17   2.0000      -2.017614       -54.9021
  18   2.0000      -2.013056       -54.7780
  19   2.0000      -2.012802       -54.7711
  20   2.0000      -1.433284       -39.0016
  21   2.0000      -1.403630       -38.1947
  22   2.0000      -1.377555       -37.4852
  23   2.0000      -1.310504       -35.6606
  24   2.0000      -1.304983       -35.5104
  25   2.0000      -1.262531       -34.3552
  26   2.0000      -1.261624       -34.3305
  27   2.0000      -1.257386       -34.2152
  28   2.0000      -1.257108       -34.2076
  29   2.0000      -1.212018       -32.9807
  30   2.0000      -1.208084       -32.8736
  31   2.0000      -1.169252       -31.8170
  32   2.0000      -1.168965       -31.8091
  33   2.0000      -1.168556       -31.7980
  34   2.0000      -1.168402       -31.7938
  35   2.0000      -1.155445       -31.4413
  36   2.0000      -1.154914       -31.4268
  37   2.0000      -1.153864       -31.3982
  38   2.0000      -1.153610       -31.3913
  39   2.0000      -1.150061       -31.2947
  40   2.0000      -1.149903       -31.2904
  41   2.0000      -1.131175       -30.7808
  42   2.0000      -1.129941       -30.7473
  43   2.0000      -1.037136       -28.2219
  44   2.0000      -0.983657       -26.7667
  45   2.0000      -0.965013       -26.2593
  46   2.0000      -0.963950       -26.2304
  47   2.0000      -0.902608       -24.5612
  48   2.0000      -0.854798       -23.2602
  49   2.0000      -0.841226       -22.8909
  50   2.0000      -0.806196       -21.9377
  51   2.0000      -0.684280       -18.6202
  52   2.0000      -0.668099       -18.1799
  53   0.0000      -0.316340        -8.6080
  54   0.0000      -0.296034        -8.0555
  55   0.0000      -0.284163        -7.7325
  56   0.0000      -0.279940        -7.6175
  57   0.0000      -0.248996        -6.7755

MULLIKEN ATOMIC CHARGES
-----------------------
   0 C :   -0.120878
   1 C :   -0.230187
   2 C :    0.127336
   3 C :   -0.315969
   4 C :    0.144157
   5 C :   -0.209046
   6 C :    0.451078
   7 F :   -0.175242
   8 F :   -0.168528
   9 F :   -0.175320
  10 C :    0.458640
  11 F :   -0.175359
  12 F :   -0.168416
  13 F :   -0.175469
  14 H :    0.175871
  15 H :    0.183678
  16 H :    0.189843
  17 H :    0.183811
Sum of atomic charges:   -0.0000000

LOEWDIN ATOMIC CHARGES
----------------------
   0 C :   -0.111850
   1 C :   -0.068401
   2 C :   -0.129876
   3 C :   -0.038715
   4 C :   -0.129829
   5 C :   -0.068057
   6 C :   -0.592350
   7 F :    0.173530
   8 F :    0.190638
   9 F :    0.169375
  10 C :   -0.592156
  11 F :    0.171833
  12 F :    0.190374
  13 F :    0.172055
  14 H :    0.160530
  15 H :    0.167376
  16 H :    0.171045
  17 H :    0.164477

  Mayer bond orders larger than 0.100000
B(  0-C ,  1-C ) :   1.4364 B(  0-C ,  5-C ) :   1.3880 B(  0-C , 14-H ) :   0.9723
B(  1-C ,  2-C ) :   1.3407 B(  1-C , 15-H ) :   0.9603 B(  2-C ,  3-C ) :   1.3817
B(  2-C , 10-C ) :   1.0058 B(  3-C ,  4-C ) :   1.3503 B(  3-C , 16-H ) :   0.9468
B(  4-C ,  5-C ) :   1.3609 B(  4-C ,  6-C ) :   1.0075 B(  5-C , 17-H ) :   0.9591
B(  6-C ,  7-F ) :   1.1568 B(  6-C ,  8-F ) :   1.1648 B(  6-C ,  9-F ) :   1.1590
B( 10-C , 11-F ) :   1.1580 B( 10-C , 12-F ) :   1.1614 B( 10-C , 13-F ) :   1.1569

FINAL SINGLE POINT ENERGY      -906.429195455389

DIPOLE MOMENT
-------------

Method             : SCF
Type of density    : Electron Density
Multiplicity       :   1
Irrep              :   0
Energy             :  -906.4478806744893973 Eh
Relativity type    :
Basis              : AO
                                X                 Y                 Z
Electronic contribution:     -0.064618387       8.427629719      -0.306993549
Nuclear contribution   :      0.024599985      -9.864066808       0.351647940
                        -----------------------------------------
Total Dipole Moment    :     -0.040018403      -1.436437089       0.044654391
                        -----------------------------------------
Magnitude (a.u.)       :      1.437688074
Magnitude (Debye)      :      3.654312671

Rotational constants in cm-1:             0.043870             0.012740             0.011032
Rotational constants in MHz :          1315.180000           381.927300           330.744115

                             ****ORCA TERMINATED NORMALLY****
TOTAL RUN TIME: 0 days 0 hours 5 minutes 9 seconds 532 msec
