                         Program Version 6.0.0  -   RELEASE  -
|  1> ! wb97x-v def2-tzvp def2/J RIJCOSX DEFGRID2 scfconv7 GCP(DFT/TZ) printgap
|  2> %output
|  3>     printlevel normal
|  4> end
|  5> %cpcm
|  6>     smd true
|  7>     smdsolvent "water"
|  8> end
|  9> * xyz 0 1
| 10> C 0.9534544532708524 0.8164323766757442 0.09747615320939836
| 11> C -0.3369453018094762 0.03985923860803444 0.014986880565652647
| 12> F -1.3953762390207562 0.8713413784397807 0.16276513555129135
| 13> F -0.4347533264192491 -0.9112860102742388 0.9753488188547681
| 14> F -0.4850506095509476 -0.5929746881546444 -1.1745381025366644
| 15> O 2.0192147404470777 -0.10853526253988234 -0.06647718734050675
| 16> H 0.9305709060919864 1.5751207382028205 -0.6954388189334147
| 17> H 0.9771219807047945 1.3133029689304703 1.0758180162805497
| 18> H 2.843147876643864 0.39156090260398047 -0.004751222057854948
| 19> *
| 20>
| 21>                          ****END OF INPUT****

CARTESIAN COORDINATES (ANGSTROEM)
---------------------------------
  C      0.953454    0.816432    0.097476
  C     -0.336945    0.039859    0.014987
  F     -1.395376    0.871341    0.162765
  F     -0.434753   -0.911286    0.975349
  F     -0.485051   -0.592975   -1.174538
  O      2.019215   -0.108535   -0.066477
  H      0.930571    1.575121   -0.695439
  H      0.977122    1.313303    1.075818
  H      2.843148    0.391561   -0.004751

 Total Charge           Charge          ....    0
 Multiplicity           Mult            ....    1
 Number of Electrons    NEL             ....   50
 Basis Dimension        Dim             ....  204

ORBITAL ENERGIES
----------------

  NO   OCC          E(Eh)            E(eV)
   0   2.0000     -27.602365      -751.0985
   1   2.0000     -27.600171      -751.0388
   2   2.0000     -27.599926      -751.0322
   3   2.0000     -21.691128      -590.2456
   4   2.0000     -12.299670      -334.6910
   5   2.0000     -12.115750      -329.6863
   6   2.0000      -2.061258       -56.0897
   7   2.0000      -2.014161       -54.8081
   8   2.0000      -2.012144       -54.7532
   9   2.0000      -1.695890       -46.1475
  10   2.0000      -1.394755       -37.9532
  11   2.0000      -1.266838       -34.4724
  12   2.0000      -1.258528       -34.2463
  13   2.0000      -1.257242       -34.2113
  14   2.0000      -1.170378       -31.8476
  15   2.0000      -1.165944       -31.7269
  16   2.0000      -1.165827       -31.7238
  17   2.0000      -1.151848       -31.3434
  18   2.0000      -1.151776       -31.3414
  19   2.0000      -1.148820       -31.2610
  20   2.0000      -1.060854       -28.8673
  21   2.0000      -1.001450       -27.2508
  22   2.0000      -0.960705       -26.1421
  23   2.0000      -0.896092       -24.3839
  24   2.0000      -0.824575       -22.4378
  25   0.0000      -0.277419        -7.5490
  26   0.0000      -0.259925        -7.0729
  27   0.0000      -0.223347        -6.0776
  28   0.0000      -0.103617        -2.8196
  29   0.0000      -0.039072        -1.0632

MULLIKEN ATOMIC CHARGES
-----------------------
   0 C :   -0.069205
   1 C :    0.449498
   2 F :   -0.176637
   3 F :   -0.179346
   4 F :   -0.179645
   5 O :   -0.522983
   6 H :    0.150809
   7 H :    0.151259
   8 H :    0.376249
Sum of atomic charges:    0.0000000

LOEWDIN ATOMIC CHARGES
----------------------
   0 C :   -0.297272
   1 C :   -0.650816
   2 F :    0.175089
   3 F :    0.170182
   4 F :    0.169760
   5 O :   -0.060315
   6 H :    0.145394
   7 H :    0.145367
   8 H :    0.202612

  Mayer bond orders larger than 0.100000
B(  0-C ,  1-C ) :   1.0044 B(  0-C ,  5-O ) :   1.0326 B(  0-C ,  6-H ) :   0.9491
B(  0-C ,  7-H ) :   0.9490 B(  1-C ,  2-F ) :   1.1348 B(  1-C ,  3-F ) :   1.1349
B(  1-C ,  4-F ) :   1.1341 B(  5-O ,  8-H ) :   0.8560

FINAL SINGLE POINT ENERGY      -452.824468368439

DIPOLE MOMENT
-------------

Method             : SCF
Type of density    : Electron Density
Multiplicity       :   1
Irrep              :   0
Energy             :  -452.8358374418391463 Eh
Relativity type    :
Basis              : AO
                                X                 Y                 Z
Electronic contribution:     -5.552684965      -2.242726235      -0.193944071
Nuclear contribution   :      6.631826040       3.662104420       0.385183345
                        -----------------------------------------
Total Dipole Moment    :      1.079141075       1.419378185       0.191239274
                        -----------------------------------------
Magnitude (a.u.)       :      1.793251893
Magnitude (Debye)      :      4.558084074

Rotational constants in cm-1:             0.175505             0.094116             0.092547
Rotational constants in MHz :          5261.505323          2821.521803          2774.482474

                             ****ORCA TERMINATED NORMALLY****
TOTAL RUN TIME: 0 days 0 hours 0 minutes 59 seconds 446 msec
