                         Program Version 6.0.0  -   RELEASE  -
|  1> ! pbe def2-sv(p) def2/J RI DEFGRID1 loosescf d4 GCP(DFT/SV(P)) printgap
|  2> %output
|  3>     printlevel normal
|  4> end
|  5> * xyz 0 1
|  6> C 3.4323273588 -0.8384273666 -3.0655761406
|  7> C 2.1648603275 -0.4978240422 -2.3111013449
|  8> O 2.4579264196 0.3625833654 -1.1832626977
|  9> P 2.6104903673 -0.1667394201 0.2920327523
| 10> S 3.1055642868 1.2658424379 1.5250168519
| 11> O 3.6562241464 -1.3539954575 0.1374261587
| 12> C 4.3919427876 -1.8906263508 1.2532357297
| 13> C 3.4979455287 -2.607468787 2.243791238
| 14> S 0.775780796 -1.1465560108 0.7274432311
| 15> C -0.0490415936 0.3378300706 1.4070325229
| 16> S -1.8198861723 0.0856309852 1.546083557
| 17> P -2.3927270975 0.763052972 -0.409485302
| 18> S -0.9545141725 1.0888801042 -1.6944245549
| 19> O -3.1708503926 2.1130671061 -0.1750403162
| 20> C -4.3031921414 2.2403114198 0.7206424344
| 21> C -5.6070413917 2.1531444101 -0.0460101154
| 22> O -3.5616618496 -0.23043389 -0.8163852471
| 23> C -3.4856320467 -1.6692492604 -0.7880911394
| 24> C -2.2869085667 -2.2091700502 -1.5385958351
| 25> H 3.1736285652 -1.4196269802 -3.9449141239
| 26> H 3.936732779 0.0734534488 -3.3731141289
| 27> H 4.1024161512 -1.4164252066 -2.4346909548
| 28> H 1.662808694 -1.3988744423 -1.9474753678
| 29> H 1.4691614205 0.0817254034 -2.9217560318
| 30> H 5.1051621883 -2.5725558226 0.7880719437
| 31> H 4.9250859752 -1.0681395709 1.739695982
| 32> H 2.8784458685 -3.3412323214 1.7342572371
| 33> H 4.1148010299 -3.1068189416 2.9840149282
| 34> H 2.8521814596 -1.8918339897 2.7501501739
| 35> H 0.1502533959 1.1780979077 0.739098507
| 36> H 0.3376177313 0.5309240569 2.4053385142
| 37> H -4.2370875041 1.4631176049 1.487472918
| 38> H -4.1777307019 3.2222828102 1.1804059339
| 39> H -6.4327407443 2.3140899783 0.6399633805
| 40> H -5.6324134385 2.9124071652 -0.8228638817
| 41> H -5.7088821981 1.175894177 -0.509580778
| 42> H -3.4625252757 -1.9875345114 0.2576385621
| 43> H -4.4216896038 -1.9833410195 -1.25305253
| 44> H -2.3440726493 -3.2920962075 -1.5776137708
| 45> H -2.2622924175 -1.8116747929 -2.5505997007
| 46> H -1.3653135182 -1.9248298266 -1.0314214104
| 47> *
| 48>
| 49>                          ****END OF INPUT****

CARTESIAN COORDINATES (ANGSTROEM)
---------------------------------
  C      3.432327   -0.838427   -3.065576
  C      2.164860   -0.497824   -2.311101
  O      2.457926    0.362583   -1.183263
  P      2.610490   -0.166739    0.292033
  S      3.105564    1.265842    1.525017
  O      3.656224   -1.353995    0.137426
  C      4.391943   -1.890626    1.253236
  C      3.497946   -2.607469    2.243791
  S      0.775781   -1.146556    0.727443
  C     -0.049042    0.337830    1.407033
  S     -1.819886    0.085631    1.546084
  P     -2.392727    0.763053   -0.409485
  S     -0.954514    1.088880   -1.694425
  O     -3.170850    2.113067   -0.175040
  C     -4.303192    2.240311    0.720642
  C     -5.607041    2.153144   -0.046010
  O     -3.561662   -0.230434   -0.816385
  C     -3.485632   -1.669249   -0.788091
  C     -2.286909   -2.209170   -1.538596
  H      3.173629   -1.419627   -3.944914
  H      3.936733    0.073453   -3.373114
  H      4.102416   -1.416425   -2.434691
  H      1.662809   -1.398874   -1.947475
  H      1.469161    0.081725   -2.921756
  H      5.105162   -2.572556    0.788072
  H      4.925086   -1.068140    1.739696
  H      2.878446   -3.341232    1.734257
  H      4.114801   -3.106819    2.984015
  H      2.852181   -1.891834    2.750150
  H      0.150253    1.178098    0.739099
  H      0.337618    0.530924    2.405339
  H     -4.237088    1.463118    1.487473
  H     -4.177731    3.222283    1.180406
  H     -6.432741    2.314090    0.639963
  H     -5.632413    2.912407   -0.822864
  H     -5.708882    1.175894   -0.509581
  H     -3.462525   -1.987535    0.257639
  H     -4.421690   -1.983341   -1.253053
  H     -2.344073   -3.292096   -1.577614
  H     -2.262292   -1.811675   -2.550600
  H     -1.365314   -1.924830   -1.031421

 Total Charge           Charge          ....    0
 Multiplicity           Mult            ....    1
 Number of Electrons    NEL             ....  202
 Basis Dimension        Dim             ....  334

ORBITAL ENERGIES
----------------

  NO   OCC          E(Eh)            E(eV)
   0   2.0000     -88.050719     -2395.9819
   1   2.0000     -88.038276     -2395.6433
   2   2.0000     -87.986398     -2394.2316
   3   2.0000     -87.981662     -2394.1027
   4   2.0000     -76.429000     -2079.7388
   5   2.0000     -76.422592     -2079.5645
   6   2.0000     -18.798657      -511.5375
   7   2.0000     -18.793191      -511.3887
   8   2.0000     -18.791326      -511.3380
   9   2.0000     -18.784637      -511.1559
  10   2.0000      -9.961275      -271.0601
  11   2.0000      -9.959374      -271.0084
  12   2.0000      -9.953797      -270.8566
  13   2.0000      -9.952409      -270.8188
  14   2.0000      -9.946957      -270.6705
  15   2.0000      -9.888877      -269.0900
  16   2.0000      -9.884791      -268.9789
  17   2.0000      -9.884526      -268.9716
  18   2.0000      -9.880363      -268.8584
  19   2.0000      -7.695373      -209.4018
  20   2.0000      -7.682811      -209.0599
  21   2.0000      -7.631390      -207.6607
  22   2.0000      -7.627019      -207.5417
  23   2.0000      -6.426369      -174.8704
  24   2.0000      -6.420124      -174.7005
  25   2.0000      -5.723089      -155.7332
  26   2.0000      -5.719823      -155.6443
  27   2.0000      -5.712649      -155.4491
  28   2.0000      -5.710634      -155.3942
  29   2.0000      -5.707541      -155.3101
  30   2.0000      -5.699711      -155.0970
  31   2.0000      -5.660532      -154.0309
  32   2.0000      -5.656030      -153.9084
  33   2.0000      -5.651919      -153.7965
  34   2.0000      -5.651395      -153.7823
  35   2.0000      -5.647539      -153.6773
  36   2.0000      -5.647150      -153.6668
  37   2.0000      -4.649093      -126.5082
  38   2.0000      -4.648376      -126.4887
  39   2.0000      -4.646478      -126.4371
  40   2.0000      -4.643003      -126.3425
  41   2.0000      -4.641860      -126.3114
  42   2.0000      -4.640347      -126.2703
  43   2.0000      -0.991858       -26.9898
  44   2.0000      -0.985313       -26.8117
  45   2.0000      -0.948178       -25.8012
  46   2.0000      -0.941993       -25.6329
  47   2.0000      -0.762856       -20.7584
  48   2.0000      -0.722177       -19.6514
  49   2.0000      -0.710982       -19.3468
  50   2.0000      -0.694065       -18.8865
  51   2.0000      -0.688503       -18.7351
  52   2.0000      -0.676704       -18.4140
  53   2.0000      -0.651125       -17.7180
  54   2.0000      -0.635953       -17.3051
  55   2.0000      -0.595821       -16.2131
  56   2.0000      -0.591224       -16.0880
  57   2.0000      -0.578307       -15.7365
  58   2.0000      -0.569694       -15.5022
  59   2.0000      -0.562063       -15.2945
  60   2.0000      -0.505832       -13.7644
  61   2.0000      -0.496794       -13.5184
  62   2.0000      -0.476244       -12.9592
  63   2.0000      -0.472487       -12.8570
  64   2.0000      -0.455509       -12.3950
  65   2.0000      -0.448112       -12.1938
  66   2.0000      -0.443152       -12.0588
  67   2.0000      -0.438098       -11.9212
  68   2.0000      -0.430062       -11.7026
  69   2.0000      -0.423472       -11.5233
  70   2.0000      -0.413944       -11.2640
  71   2.0000      -0.402831       -10.9616
  72   2.0000      -0.391971       -10.6661
  73   2.0000      -0.388490       -10.5713
  74   2.0000      -0.381900       -10.3920
  75   2.0000      -0.364614        -9.9216
  76   2.0000      -0.362106        -9.8534
  77   2.0000      -0.358311        -9.7501
  78   2.0000      -0.354046        -9.6341
  79   2.0000      -0.352080        -9.5806
  80   2.0000      -0.348967        -9.4959
  81   2.0000      -0.345016        -9.3884
  82   2.0000      -0.341433        -9.2909
  83   2.0000      -0.340333        -9.2609
  84   2.0000      -0.337099        -9.1729
  85   2.0000      -0.323083        -8.7915
  86   2.0000      -0.312134        -8.4936
  87   2.0000      -0.301097        -8.1933
  88   2.0000      -0.294499        -8.0137
  89   2.0000      -0.290561        -7.9066
  90   2.0000      -0.288555        -7.8520
  91   2.0000      -0.281272        -7.6538
  92   2.0000      -0.268793        -7.3142
  93   2.0000      -0.263222        -7.1626
  94   2.0000      -0.260569        -7.0904
  95   2.0000      -0.233631        -6.3574
  96   2.0000      -0.221753        -6.0342
  97   2.0000      -0.204820        -5.5734
  98   2.0000      -0.203009        -5.5242
  99   2.0000      -0.200962        -5.4685
 100   2.0000      -0.194431        -5.2907
 101   0.0000      -0.044876        -1.2211
 102   0.0000      -0.032558        -0.8859
 103   0.0000      -0.016331        -0.4444
 104   0.0000       0.008203         0.2232
 105   0.0000       0.015502         0.4218

MULLIKEN ATOMIC CHARGES
-----------------------
   0 C :   -0.281458
   1 C :   -0.019135
   2 O :   -0.346939
   3 P :    0.598649
   4 S :   -0.320397
   5 O :   -0.382296
   6 C :   -0.000010
   7 C :   -0.316120
   8 S :   -0.108440
   9 C :   -0.334234
  10 S :   -0.120939
  11 P :    0.590238
  12 S :   -0.296903
  13 O :   -0.348641
  14 C :   -0.014099
  15 C :   -0.287836
  16 O :   -0.379137
  17 C :   -0.001355
  18 C :   -0.336740
  19 H :    0.107109
  20 H :    0.119520
  21 H :    0.116437
  22 H :    0.101048
  23 H :    0.122750
  24 H :    0.104645
  25 H :    0.113482
  26 H :    0.116034
  27 H :    0.113234
  28 H :    0.128458
  29 H :    0.204629
  30 H :    0.188002
  31 H :    0.100250
  32 H :    0.114427
  33 H :    0.109872
  34 H :    0.122711
  35 H :    0.121055
  36 H :    0.110153
  37 H :    0.108053
  38 H :    0.110836
  39 H :    0.125221
  40 H :    0.147868
Sum of atomic charges:    0.0000000

LOEWDIN ATOMIC CHARGES
----------------------
   0 C :   -0.358897
   1 C :   -0.116263
   2 O :   -0.229780
   3 P :    0.572578
   4 S :   -0.313364
   5 O :   -0.247874
   6 C :   -0.115767
   7 C :   -0.370786
   8 S :    0.064470
   9 C :   -0.479864
  10 S :    0.068146
  11 P :    0.568188
  12 S :   -0.284137
  13 O :   -0.234617
  14 C :   -0.113712
  15 C :   -0.358974
  16 O :   -0.243654
  17 C :   -0.114703
  18 C :   -0.375148
  19 H :    0.128486
  20 H :    0.128759
  21 H :    0.124109
  22 H :    0.102909
  23 H :    0.118020
  24 H :    0.118249
  25 H :    0.113634
  26 H :    0.123164
  27 H :    0.131118
  28 H :    0.121696
  29 H :    0.125976
  30 H :    0.132761
  31 H :    0.102273
  32 H :    0.123500
  33 H :    0.129381
  34 H :    0.130442
  35 H :    0.126097
  36 H :    0.108388
  37 H :    0.120337
  38 H :    0.130371
  39 H :    0.129472
  40 H :    0.115016

  Mayer bond orders larger than 0.100000
B(  0-C ,  1-C ) :   1.1607 B(  0-C , 19-H ) :   0.9406 B(  0-C , 20-H ) :   0.9470
B(  0-C , 21-H ) :   0.9426 B(  1-C ,  2-O ) :   0.8900 B(  1-C , 22-H ) :   0.9152
B(  1-C , 23-H ) :   0.9275 B(  2-O ,  3-P ) :   1.1522 B(  3-P ,  4-S ) :   1.6244
B(  3-P ,  5-O ) :   1.0808 B(  3-P ,  8-S ) :   0.9631 B(  4-S ,  8-S ) :   0.1100
B(  5-O ,  6-C ) :   0.9066 B(  6-C ,  7-C ) :   1.1663 B(  6-C , 24-H ) :   0.9343
B(  6-C , 25-H ) :   0.9184 B(  7-C , 26-H ) :   0.9440 B(  7-C , 27-H ) :   0.9370
B(  7-C , 28-H ) :   0.9350 B(  8-S ,  9-C ) :   0.9700 B(  9-C , 10-S ) :   1.0077
B(  9-C , 29-H ) :   0.8637 B(  9-C , 30-H ) :   0.8961 B( 10-S , 11-P ) :   0.9267
B( 10-S , 12-S ) :   0.1153 B( 11-P , 12-S ) :   1.6596 B( 11-P , 13-O ) :   1.1415
B( 11-P , 16-O ) :   1.0877 B( 13-O , 14-C ) :   0.8946 B( 14-C , 15-C ) :   1.1640
B( 14-C , 31-H ) :   0.9156 B( 14-C , 32-H ) :   0.9358 B( 15-C , 33-H ) :   0.9398
B( 15-C , 34-H ) :   0.9466 B( 15-C , 35-H ) :   0.9425 B( 16-O , 17-C ) :   0.9066
B( 17-C , 18-C ) :   1.1686 B( 17-C , 36-H ) :   0.9249 B( 17-C , 37-H ) :   0.9330
B( 18-C , 38-H ) :   0.9340 B( 18-C , 39-H ) :   0.9416 B( 18-C , 40-H ) :   0.9192

Dispersion correction           -0.063772633
FINAL SINGLE POINT ENERGY     -2929.514200076635

DIPOLE MOMENT
-------------

Method             : SCF
Type of density    : Electron Density
Multiplicity       :   1
Irrep              :   0
Energy             : -2929.6354948832122318 Eh
Relativity type    :
Basis              : AO
                                X                 Y                 Z
Electronic contribution:      4.117531178      12.319041462       5.457334471
Nuclear contribution   :     -5.242283229     -13.938198141      -5.297102891
                        -----------------------------------------
Total Dipole Moment    :     -1.124752051      -1.619156679       0.160231580
                        -----------------------------------------
Magnitude (a.u.)       :      1.977981215
Magnitude (Debye)      :      5.027628696

Rotational constants in cm-1:             0.013607             0.004288             0.004101
Rotational constants in MHz :           407.941255           128.542569           122.934318

                             ****ORCA TERMINATED NORMALLY****
TOTAL RUN TIME: 0 days 0 hours 0 minutes 21 seconds 492 msec
