                         Program Version 6.0.0  -   RELEASE  -
|  1> ! pbe def2-sv(p) def2/J RI DEFGRID1 loosescf d4 GCP(DFT/SV(P)) printgap
|  2> %output
|  3>     printlevel normal
|  4> end
|  5> * xyz 0 1
|  6> C 5.4309980942 -0.4731092714 -0.7736268199
|  7> C 4.1000698812 -0.0965624653 -1.3903625469
|  8> O 3.2828865007 0.634383547 -0.4390058449
|  9> P 2.2033212167 -0.0448846419 0.4834057105
| 10> S 1.4867295382 1.1911842195 1.8175016332
| 11> O 2.9495129902 -1.3125049836 1.0780808969
| 12> C 2.2962084856 -2.1720020054 2.0359698618
| 13> C 3.3630323668 -3.0019664084 2.7205875846
| 14> S 0.8156470286 -0.9744258975 -0.86081704
| 15> C 0.2376563883 0.5180340436 -1.7119309264
| 16> S -0.8567085883 1.5667915925 -0.723363013
| 17> P -2.6107720921 0.3422498547 -0.7451544762
| 18> S -2.6061666591 -1.0647422926 -2.1047402843
| 19> O -3.8325690476 1.3041965863 -0.9894015424
| 20> C -4.394093428 2.2354739326 -0.0329549949
| 21> C -3.418914738 3.3244622318 0.3611586003
| 22> O -2.8547445315 -0.0681890577 0.7756052334
| 23> C -1.9430160344 -0.7882607255 1.6179473017
| 24> C -1.8897924345 -2.2638275083 1.2759347852
| 25> H 6.047936249 -0.9521416051 -1.5275724118
| 26> H 5.9366770743 0.4164082609 -0.4080261733
| 27> H 5.2811429349 -1.157561967 0.0566264291
| 28> H 3.552794397 -0.9825490079 -1.723117255
| 29> H 4.2314129125 0.5955647444 -2.2243085222
| 30> H 1.7539461233 -1.5453139049 2.7516855281
| 31> H 1.5846636291 -2.8011138346 1.4944745838
| 32> H 3.9011706509 -3.5960757263 1.9877732657
| 33> H 4.0659931381 -2.3542244467 3.2367878203
| 34> H 2.8914886175 -3.6626689842 3.4404374815
| 35> H -0.3020742336 0.1631586624 -2.5900518531
| 36> H 1.0872113842 1.1394650517 -1.985567597
| 37> H -5.2561818082 2.6428675482 -0.5633956375
| 38> H -4.7259034214 1.6708847393 0.8400821244
| 39> H -3.0427947245 3.8360900467 -0.5213225309
| 40> H -3.9258783705 4.0406854197 1.0004057395
| 41> H -2.5741712696 2.9053342119 0.9066528994
| 42> H -0.9518609498 -0.3256910105 1.5515036419
| 43> H -2.3380913491 -0.6298066177 2.6234746435
| 44> H -2.8916206043 -2.684920044 1.2921009693
| 45> H -1.4684294139 -2.4131808914 0.2836078197
| 46> H -1.2721157747 -2.7766268342 2.0065299475
| 47> *
| 48>
| 49>                          ****END OF INPUT****

CARTESIAN COORDINATES (ANGSTROEM)
---------------------------------
  C      5.430998   -0.473109   -0.773627
  C      4.100070   -0.096562   -1.390363
  O      3.282887    0.634384   -0.439006
  P      2.203321   -0.044885    0.483406
  S      1.486730    1.191184    1.817502
  O      2.949513   -1.312505    1.078081
  C      2.296208   -2.172002    2.035970
  C      3.363032   -3.001966    2.720588
  S      0.815647   -0.974426   -0.860817
  C      0.237656    0.518034   -1.711931
  S     -0.856709    1.566792   -0.723363
  P     -2.610772    0.342250   -0.745154
  S     -2.606167   -1.064742   -2.104740
  O     -3.832569    1.304197   -0.989402
  C     -4.394093    2.235474   -0.032955
  C     -3.418915    3.324462    0.361159
  O     -2.854745   -0.068189    0.775605
  C     -1.943016   -0.788261    1.617947
  C     -1.889792   -2.263828    1.275935
  H      6.047936   -0.952142   -1.527572
  H      5.936677    0.416408   -0.408026
  H      5.281143   -1.157562    0.056626
  H      3.552794   -0.982549   -1.723117
  H      4.231413    0.595565   -2.224309
  H      1.753946   -1.545314    2.751686
  H      1.584664   -2.801114    1.494475
  H      3.901171   -3.596076    1.987773
  H      4.065993   -2.354224    3.236788
  H      2.891489   -3.662669    3.440437
  H     -0.302074    0.163159   -2.590052
  H      1.087211    1.139465   -1.985568
  H     -5.256182    2.642868   -0.563396
  H     -4.725903    1.670885    0.840082
  H     -3.042795    3.836090   -0.521323
  H     -3.925878    4.040685    1.000406
  H     -2.574171    2.905334    0.906653
  H     -0.951861   -0.325691    1.551504
  H     -2.338091   -0.629807    2.623475
  H     -2.891621   -2.684920    1.292101
  H     -1.468429   -2.413181    0.283608
  H     -1.272116   -2.776627    2.006530

 Total Charge           Charge          ....    0
 Multiplicity           Mult            ....    1
 Number of Electrons    NEL             ....  202
 Basis Dimension        Dim             ....  334

ORBITAL ENERGIES
----------------

  NO   OCC          E(Eh)            E(eV)
   0   2.0000     -88.044413     -2395.8103
   1   2.0000     -88.037238     -2395.6150
   2   2.0000     -87.987176     -2394.2528
   3   2.0000     -87.980204     -2394.0631
   4   2.0000     -76.429937     -2079.7643
   5   2.0000     -76.422592     -2079.5645
   6   2.0000     -18.801085      -511.6035
   7   2.0000     -18.800756      -511.5946
   8   2.0000     -18.788220      -511.2535
   9   2.0000     -18.786344      -511.2024
  10   2.0000      -9.962589      -271.0958
  11   2.0000      -9.962174      -271.0845
  12   2.0000      -9.956026      -270.9173
  13   2.0000      -9.954074      -270.8641
  14   2.0000      -9.944470      -270.6028
  15   2.0000      -9.895824      -269.2791
  16   2.0000      -9.891262      -269.1549
  17   2.0000      -9.887677      -269.0574
  18   2.0000      -9.874615      -268.7019
  19   2.0000      -7.688732      -209.2210
  20   2.0000      -7.681841      -209.0335
  21   2.0000      -7.632173      -207.6820
  22   2.0000      -7.625470      -207.4996
  23   2.0000      -6.427465      -174.9002
  24   2.0000      -6.419718      -174.6894
  25   2.0000      -5.716346      -155.5497
  26   2.0000      -5.713345      -155.4680
  27   2.0000      -5.709835      -155.3725
  28   2.0000      -5.706273      -155.2756
  29   2.0000      -5.705991      -155.2679
  30   2.0000      -5.698854      -155.0737
  31   2.0000      -5.661212      -154.0494
  32   2.0000      -5.654539      -153.8678
  33   2.0000      -5.652761      -153.8194
  34   2.0000      -5.652242      -153.8053
  35   2.0000      -5.645824      -153.6307
  36   2.0000      -5.645690      -153.6270
  37   2.0000      -4.650621      -126.5498
  38   2.0000      -4.649273      -126.5132
  39   2.0000      -4.647304      -126.4596
  40   2.0000      -4.642592      -126.3314
  41   2.0000      -4.641484      -126.3012
  42   2.0000      -4.639995      -126.2607
  43   2.0000      -0.996651       -27.1203
  44   2.0000      -0.983422       -26.7603
  45   2.0000      -0.954715       -25.9791
  46   2.0000      -0.938372       -25.5344
  47   2.0000      -0.761519       -20.7220
  48   2.0000      -0.724723       -19.7207
  49   2.0000      -0.712335       -19.3836
  50   2.0000      -0.700092       -19.0505
  51   2.0000      -0.686104       -18.6698
  52   2.0000      -0.672207       -18.2917
  53   2.0000      -0.650841       -17.7103
  54   2.0000      -0.637827       -17.3562
  55   2.0000      -0.594033       -16.1645
  56   2.0000      -0.589208       -16.0332
  57   2.0000      -0.577378       -15.7113
  58   2.0000      -0.575344       -15.6559
  59   2.0000      -0.564869       -15.3709
  60   2.0000      -0.516553       -14.0561
  61   2.0000      -0.493035       -13.4162
  62   2.0000      -0.490130       -13.3371
  63   2.0000      -0.468766       -12.7558
  64   2.0000      -0.457119       -12.4388
  65   2.0000      -0.452068       -12.3014
  66   2.0000      -0.444499       -12.0954
  67   2.0000      -0.440620       -11.9899
  68   2.0000      -0.424198       -11.5430
  69   2.0000      -0.421126       -11.4594
  70   2.0000      -0.409463       -11.1421
  71   2.0000      -0.398140       -10.8340
  72   2.0000      -0.397005       -10.8031
  73   2.0000      -0.387194       -10.5361
  74   2.0000      -0.382219       -10.4007
  75   2.0000      -0.374101       -10.1798
  76   2.0000      -0.365607        -9.9487
  77   2.0000      -0.359711        -9.7882
  78   2.0000      -0.359106        -9.7718
  79   2.0000      -0.352938        -9.6039
  80   2.0000      -0.351949        -9.5770
  81   2.0000      -0.348725        -9.4893
  82   2.0000      -0.342331        -9.3153
  83   2.0000      -0.339128        -9.2281
  84   2.0000      -0.330435        -8.9916
  85   2.0000      -0.324922        -8.8416
  86   2.0000      -0.310759        -8.4562
  87   2.0000      -0.307826        -8.3764
  88   2.0000      -0.301034        -8.1915
  89   2.0000      -0.291603        -7.9349
  90   2.0000      -0.286241        -7.7890
  91   2.0000      -0.280351        -7.6287
  92   2.0000      -0.271958        -7.4003
  93   2.0000      -0.265229        -7.2173
  94   2.0000      -0.255851        -6.9621
  95   2.0000      -0.245316        -6.6754
  96   2.0000      -0.215752        -5.8709
  97   2.0000      -0.205491        -5.5917
  98   2.0000      -0.200243        -5.4489
  99   2.0000      -0.198229        -5.3941
 100   2.0000      -0.189356        -5.1526
 101   0.0000      -0.042536        -1.1575
 102   0.0000      -0.027484        -0.7479
 103   0.0000      -0.008250        -0.2245
 104   0.0000       0.001922         0.0523
 105   0.0000       0.011420         0.3108

MULLIKEN ATOMIC CHARGES
-----------------------
   0 C :   -0.292152
   1 C :   -0.015495
   2 O :   -0.360033
   3 P :    0.589421
   4 S :   -0.291239
   5 O :   -0.383790
   6 C :   -0.026851
   7 C :   -0.280984
   8 S :   -0.101769
   9 C :   -0.330560
  10 S :   -0.098310
  11 P :    0.618491
  12 S :   -0.321859
  13 O :   -0.361489
  14 C :    0.005142
  15 C :   -0.335044
  16 O :   -0.382905
  17 C :   -0.024607
  18 C :   -0.313515
  19 H :    0.111955
  20 H :    0.121673
  21 H :    0.125446
  22 H :    0.104659
  23 H :    0.110402
  24 H :    0.108640
  25 H :    0.114326
  26 H :    0.118381
  27 H :    0.124201
  28 H :    0.114846
  29 H :    0.195925
  30 H :    0.179134
  31 H :    0.110184
  32 H :    0.111343
  33 H :    0.128309
  34 H :    0.117036
  35 H :    0.138233
  36 H :    0.119557
  37 H :    0.098305
  38 H :    0.112603
  39 H :    0.141550
  40 H :    0.100841
Sum of atomic charges:   -0.0000000

LOEWDIN ATOMIC CHARGES
----------------------
   0 C :   -0.359193
   1 C :   -0.115717
   2 O :   -0.235884
   3 P :    0.560352
   4 S :   -0.300519
   5 O :   -0.249276
   6 C :   -0.121066
   7 C :   -0.349988
   8 S :    0.076510
   9 C :   -0.482049
  10 S :    0.086441
  11 P :    0.566940
  12 S :   -0.310197
  13 O :   -0.237130
  14 C :   -0.109254
  15 C :   -0.371279
  16 O :   -0.244420
  17 C :   -0.123827
  18 C :   -0.370179
  19 H :    0.130901
  20 H :    0.129642
  21 H :    0.126765
  22 H :    0.106076
  23 H :    0.120654
  24 H :    0.109602
  25 H :    0.111424
  26 H :    0.126938
  27 H :    0.130557
  28 H :    0.132571
  29 H :    0.132098
  30 H :    0.131808
  31 H :    0.122587
  32 H :    0.115088
  33 H :    0.129038
  34 H :    0.133511
  35 H :    0.120827
  36 H :    0.096889
  37 H :    0.116296
  38 H :    0.125606
  39 H :    0.117847
  40 H :    0.123012

  Mayer bond orders larger than 0.100000
B(  0-C ,  1-C ) :   1.1692 B(  0-C , 19-H ) :   0.9392 B(  0-C , 20-H ) :   0.9468
B(  0-C , 21-H ) :   0.9410 B(  1-C ,  2-O ) :   0.8872 B(  1-C , 22-H ) :   0.9092
B(  1-C , 23-H ) :   0.9345 B(  2-O ,  3-P ) :   1.1288 B(  3-P ,  4-S ) :   1.6763
B(  3-P ,  5-O ) :   1.0704 B(  3-P ,  8-S ) :   0.9510 B(  4-S ,  8-S ) :   0.1122
B(  5-O ,  6-C ) :   0.9058 B(  6-C ,  7-C ) :   1.1610 B(  6-C , 24-H ) :   0.9082
B(  6-C , 25-H ) :   0.9254 B(  7-C , 26-H ) :   0.9504 B(  7-C , 27-H ) :   0.9503
B(  7-C , 28-H ) :   0.9410 B(  8-S ,  9-C ) :   0.9892 B(  9-C , 10-S ) :   1.0185
B(  9-C , 29-H ) :   0.8738 B(  9-C , 30-H ) :   0.8980 B( 10-S , 11-P ) :   0.9438
B( 10-S , 12-S ) :   0.1134 B( 11-P , 12-S ) :   1.6426 B( 11-P , 13-O ) :   1.1408
B( 11-P , 16-O ) :   1.0766 B( 13-O , 14-C ) :   0.9015 B( 14-C , 15-C ) :   1.1691
B( 14-C , 31-H ) :   0.9338 B( 14-C , 32-H ) :   0.9266 B( 15-C , 33-H ) :   0.9429
B( 15-C , 34-H ) :   0.9355 B( 15-C , 35-H ) :   0.9316 B( 16-O , 17-C ) :   0.9096
B( 17-C , 18-C ) :   1.1649 B( 17-C , 36-H ) :   0.8950 B( 17-C , 37-H ) :   0.9355
B( 18-C , 38-H ) :   0.9432 B( 18-C , 39-H ) :   0.9284 B( 18-C , 40-H ) :   0.9361

Dispersion correction           -0.064925670
FINAL SINGLE POINT ENERGY     -2929.517966011779

DIPOLE MOMENT
-------------

Method             : SCF
Type of density    : Electron Density
Multiplicity       :   1
Irrep              :   0
Energy             : -2929.6378914719093700 Eh
Relativity type    :
Basis              : AO
                                X                 Y                 Z
Electronic contribution:    -10.269191985       7.909754993     -10.896228616
Nuclear contribution   :     11.259931309      -8.225886243      11.485590678
                        -----------------------------------------
Total Dipole Moment    :      0.990739323      -0.316131250       0.589362063
                        -----------------------------------------
Magnitude (a.u.)       :      1.195345563
Magnitude (Debye)      :      3.038326961

Rotational constants in cm-1:             0.012977             0.004624             0.004447
Rotational constants in MHz :           389.031699           138.613649           133.331484

                             ****ORCA TERMINATED NORMALLY****
TOTAL RUN TIME: 0 days 0 hours 0 minutes 21 seconds 143 msec
