                         Program Version 6.0.0  -   RELEASE  -
|  1> ! pbe def2-sv(p) def2/J RI DEFGRID1 loosescf d4 GCP(DFT/SV(P)) printgap
|  2> %output
|  3>     printlevel normal
|  4> end
|  5> * xyz 0 1
|  6> C 2.6696387728 -1.6626257451 2.8527647571
|  7> C 1.3975998428 -1.6319556515 2.0327261575
|  8> O 1.2972444455 -0.4099540724 1.2738866537
|  9> P 2.1852916799 -0.1325451149 -0.0022404412
| 10> S 2.8985201275 -1.6935631169 -0.9549398963
| 11> O 3.2756481554 0.8553798816 0.5915002779
| 12> C 4.3685417675 1.3441518402 -0.2136939741
| 13> C 5.4183054981 1.9095508741 0.7213086215
| 14> S 0.9421491773 1.1570077898 -1.1284007283
| 15> C 0.1180648907 -0.1382611561 -2.0937245912
| 16> S -0.8177791871 -1.3031349966 -1.0657012878
| 17> P -2.1671181387 0.1127778594 -0.2590926372
| 18> S -2.7574109775 1.5349937157 -1.4764473489
| 19> O -1.422264525 0.5559385013 1.0611412683
| 20> C -1.6041849071 1.8604893449 1.6480375674
| 21> C -2.9623236315 1.9796627178 2.3058576966
| 22> O -3.3251835731 -0.7969165453 0.3315000306
| 23> C -4.3333230079 -1.3832773732 -0.5178432856
| 24> C -5.4987339804 -1.7949538344 0.3587634771
| 25> H 2.6828498186 -2.5573588735 3.4670971107
| 26> H 3.5322880263 -1.6755632366 2.1873235771
| 27> H 2.7288176507 -0.7828388721 3.4878191263
| 28> H 0.5031151738 -1.6274967534 2.6572027907
| 29> H 1.3591238769 -2.4785029781 1.3389670493
| 30> H 4.7628056657 0.5120447328 -0.8067143194
| 31> H 3.9793544843 2.1110039071 -0.889112861
| 32> H 6.2381779786 2.3100940062 0.1342938112
| 33> H 4.9865511209 2.7019182161 1.325638701
| 34> H 5.7945466713 1.1304531163 1.3780081464
| 35> H 0.8625261132 -0.7276102181 -2.6280096498
| 36> H -0.558249388 0.3710535338 -2.779390948
| 37> H -0.7880193484 1.9406057331 2.3674411703
| 38> H -1.4814135837 2.6160965892 0.8648600076
| 39> H -3.0993535286 1.1832821933 3.0323902772
| 40> H -3.0416492658 2.9424151431 2.8007868474
| 41> H -3.7421747392 1.9039665993 1.5487249181
| 42> H -4.6339007016 -0.640922426 -1.2649451747
| 43> H -3.8917506439 -2.2442138097 -1.0271006137
| 44> H -5.1615326664 -2.4958850743 1.1166869223
| 45> H -5.9257316989 -0.9244846017 0.8485010604
| 46> H -6.2570043859 -2.2672184323 -0.2570414004
| 47> *
| 48>
| 49>                          ****END OF INPUT****

CARTESIAN COORDINATES (ANGSTROEM)
---------------------------------
  C      2.669639   -1.662626    2.852765
  C      1.397600   -1.631956    2.032726
  O      1.297244   -0.409954    1.273887
  P      2.185292   -0.132545   -0.002240
  S      2.898520   -1.693563   -0.954940
  O      3.275648    0.855380    0.591500
  C      4.368542    1.344152   -0.213694
  C      5.418305    1.909551    0.721309
  S      0.942149    1.157008   -1.128401
  C      0.118065   -0.138261   -2.093725
  S     -0.817779   -1.303135   -1.065701
  P     -2.167118    0.112778   -0.259093
  S     -2.757411    1.534994   -1.476447
  O     -1.422265    0.555939    1.061141
  C     -1.604185    1.860489    1.648038
  C     -2.962324    1.979663    2.305858
  O     -3.325184   -0.796917    0.331500
  C     -4.333323   -1.383277   -0.517843
  C     -5.498734   -1.794954    0.358763
  H      2.682850   -2.557359    3.467097
  H      3.532288   -1.675563    2.187324
  H      2.728818   -0.782839    3.487819
  H      0.503115   -1.627497    2.657203
  H      1.359124   -2.478503    1.338967
  H      4.762806    0.512045   -0.806714
  H      3.979354    2.111004   -0.889113
  H      6.238178    2.310094    0.134294
  H      4.986551    2.701918    1.325639
  H      5.794547    1.130453    1.378008
  H      0.862526   -0.727610   -2.628010
  H     -0.558249    0.371054   -2.779391
  H     -0.788019    1.940606    2.367441
  H     -1.481414    2.616097    0.864860
  H     -3.099354    1.183282    3.032390
  H     -3.041649    2.942415    2.800787
  H     -3.742175    1.903967    1.548725
  H     -4.633901   -0.640922   -1.264945
  H     -3.891751   -2.244214   -1.027101
  H     -5.161533   -2.495885    1.116687
  H     -5.925732   -0.924485    0.848501
  H     -6.257004   -2.267218   -0.257041

 Total Charge           Charge          ....    0
 Multiplicity           Mult            ....    1
 Number of Electrons    NEL             ....  202
 Basis Dimension        Dim             ....  334

ORBITAL ENERGIES
----------------

  NO   OCC          E(Eh)            E(eV)
   0   2.0000     -88.040281     -2395.6978
   1   2.0000     -88.040226     -2395.6964
   2   2.0000     -87.987372     -2394.2581
   3   2.0000     -87.987231     -2394.2543
   4   2.0000     -76.424815     -2079.6249
   5   2.0000     -76.424692     -2079.6216
   6   2.0000     -18.794389      -511.4213
   7   2.0000     -18.794354      -511.4204
   8   2.0000     -18.787223      -511.2263
   9   2.0000     -18.787205      -511.2258
  10   2.0000      -9.953337      -270.8441
  11   2.0000      -9.953306      -270.8432
  12   2.0000      -9.952568      -270.8231
  13   2.0000      -9.947738      -270.6917
  14   2.0000      -9.947577      -270.6873
  15   2.0000      -9.889215      -269.0992
  16   2.0000      -9.889197      -269.0987
  17   2.0000      -9.881900      -268.9002
  18   2.0000      -9.881763      -268.8965
  19   2.0000      -7.685346      -209.1289
  20   2.0000      -7.685298      -209.1276
  21   2.0000      -7.632347      -207.6867
  22   2.0000      -7.632215      -207.6831
  23   2.0000      -6.422503      -174.7652
  24   2.0000      -6.422392      -174.7622
  25   2.0000      -5.713167      -155.4632
  26   2.0000      -5.713114      -155.4617
  27   2.0000      -5.709958      -155.3759
  28   2.0000      -5.709914      -155.3746
  29   2.0000      -5.702262      -155.1664
  30   2.0000      -5.702210      -155.1650
  31   2.0000      -5.661111      -154.0467
  32   2.0000      -5.660963      -154.0426
  33   2.0000      -5.652958      -153.8248
  34   2.0000      -5.652852      -153.8219
  35   2.0000      -5.652688      -153.8175
  36   2.0000      -5.652547      -153.8136
  37   2.0000      -4.644810      -126.3917
  38   2.0000      -4.644703      -126.3888
  39   2.0000      -4.644298      -126.3778
  40   2.0000      -4.644201      -126.3751
  41   2.0000      -4.643127      -126.3459
  42   2.0000      -4.643003      -126.3425
  43   2.0000      -0.987222       -26.8637
  44   2.0000      -0.985990       -26.8302
  45   2.0000      -0.945859       -25.7381
  46   2.0000      -0.944400       -25.6984
  47   2.0000      -0.763856       -20.7856
  48   2.0000      -0.721808       -19.6414
  49   2.0000      -0.709418       -19.3042
  50   2.0000      -0.687636       -18.7115
  51   2.0000      -0.686736       -18.6870
  52   2.0000      -0.671317       -18.2675
  53   2.0000      -0.648794       -17.6546
  54   2.0000      -0.637705       -17.3528
  55   2.0000      -0.599558       -16.3148
  56   2.0000      -0.594307       -16.1719
  57   2.0000      -0.567390       -15.4395
  58   2.0000      -0.564104       -15.3501
  59   2.0000      -0.560343       -15.2477
  60   2.0000      -0.506461       -13.7815
  61   2.0000      -0.500465       -13.6183
  62   2.0000      -0.477328       -12.9887
  63   2.0000      -0.474445       -12.9103
  64   2.0000      -0.454356       -12.3637
  65   2.0000      -0.444728       -12.1017
  66   2.0000      -0.437201       -11.8969
  67   2.0000      -0.435505       -11.8507
  68   2.0000      -0.427926       -11.6444
  69   2.0000      -0.412261       -11.2182
  70   2.0000      -0.404506       -11.0072
  71   2.0000      -0.395250       -10.7553
  72   2.0000      -0.389199       -10.5906
  73   2.0000      -0.383304       -10.4302
  74   2.0000      -0.378705       -10.3051
  75   2.0000      -0.372359       -10.1324
  76   2.0000      -0.372244       -10.1293
  77   2.0000      -0.358234        -9.7481
  78   2.0000      -0.357562        -9.7297
  79   2.0000      -0.353047        -9.6069
  80   2.0000      -0.347450        -9.4546
  81   2.0000      -0.346315        -9.4237
  82   2.0000      -0.343290        -9.3414
  83   2.0000      -0.340473        -9.2647
  84   2.0000      -0.330241        -8.9863
  85   2.0000      -0.320068        -8.7095
  86   2.0000      -0.308644        -8.3986
  87   2.0000      -0.301484        -8.2038
  88   2.0000      -0.300939        -8.1890
  89   2.0000      -0.287033        -7.8106
  90   2.0000      -0.281291        -7.6543
  91   2.0000      -0.277482        -7.5507
  92   2.0000      -0.265573        -7.2266
  93   2.0000      -0.263978        -7.1832
  94   2.0000      -0.257663        -7.0114
  95   2.0000      -0.232616        -6.3298
  96   2.0000      -0.217476        -5.9178
  97   2.0000      -0.213716        -5.8155
  98   2.0000      -0.208074        -5.6620
  99   2.0000      -0.199469        -5.4278
 100   2.0000      -0.198911        -5.4126
 101   0.0000      -0.043320        -1.1788
 102   0.0000      -0.021433        -0.5832
 103   0.0000       0.004703         0.1280
 104   0.0000       0.006465         0.1759
 105   0.0000       0.012342         0.3359

MULLIKEN ATOMIC CHARGES
-----------------------
   0 C :   -0.303215
   1 C :   -0.002177
   2 O :   -0.350380
   3 P :    0.616340
   4 S :   -0.341516
   5 O :   -0.374709
   6 C :   -0.012224
   7 C :   -0.280138
   8 S :   -0.085418
   9 C :   -0.360989
  10 S :   -0.085286
  11 P :    0.615765
  12 S :   -0.341315
  13 O :   -0.350018
  14 C :   -0.002596
  15 C :   -0.303680
  16 O :   -0.374843
  17 C :   -0.012014
  18 C :   -0.280380
  19 H :    0.110820
  20 H :    0.120697
  21 H :    0.113635
  22 H :    0.104429
  23 H :    0.113353
  24 H :    0.106475
  25 H :    0.103654
  26 H :    0.112815
  27 H :    0.117039
  28 H :    0.119014
  29 H :    0.191977
  30 H :    0.192134
  31 H :    0.104643
  32 H :    0.113536
  33 H :    0.113745
  34 H :    0.110820
  35 H :    0.120963
  36 H :    0.106329
  37 H :    0.103908
  38 H :    0.116885
  39 H :    0.119210
  40 H :    0.112709
Sum of atomic charges:   -0.0000000

LOEWDIN ATOMIC CHARGES
----------------------
   0 C :   -0.364054
   1 C :   -0.116645
   2 O :   -0.228767
   3 P :    0.570309
   4 S :   -0.327015
   5 O :   -0.248033
   6 C :   -0.120374
   7 C :   -0.350102
   8 S :    0.084170
   9 C :   -0.479735
  10 S :    0.084131
  11 P :    0.570195
  12 S :   -0.326938
  13 O :   -0.228735
  14 C :   -0.116618
  15 C :   -0.364241
  16 O :   -0.248045
  17 C :   -0.120341
  18 C :   -0.350071
  19 H :    0.129706
  20 H :    0.121626
  21 H :    0.124871
  22 H :    0.118282
  23 H :    0.109938
  24 H :    0.108841
  25 H :    0.110095
  26 H :    0.131259
  27 H :    0.127204
  28 H :    0.127995
  29 H :    0.130424
  30 H :    0.130519
  31 H :    0.118397
  32 H :    0.110140
  33 H :    0.124913
  34 H :    0.129725
  35 H :    0.121571
  36 H :    0.108590
  37 H :    0.110453
  38 H :    0.127124
  39 H :    0.128006
  40 H :    0.131228

  Mayer bond orders larger than 0.100000
B(  0-C ,  1-C ) :   1.1627 B(  0-C , 19-H ) :   0.9402 B(  0-C , 20-H ) :   0.9362
B(  0-C , 21-H ) :   0.9468 B(  1-C ,  2-O ) :   0.9011 B(  1-C , 22-H ) :   0.9332
B(  1-C , 23-H ) :   0.9148 B(  2-O ,  3-P ) :   1.1433 B(  3-P ,  4-S ) :   1.5928
B(  3-P ,  5-O ) :   1.1135 B(  3-P ,  8-S ) :   0.9549 B(  4-S ,  8-S ) :   0.1083
B(  5-O ,  6-C ) :   0.9037 B(  6-C ,  7-C ) :   1.1606 B(  6-C , 24-H ) :   0.9107
B(  6-C , 25-H ) :   0.9283 B(  7-C , 26-H ) :   0.9419 B(  7-C , 27-H ) :   0.9505
B(  7-C , 28-H ) :   0.9515 B(  8-S ,  9-C ) :   1.0044 B(  9-C , 10-S ) :   1.0038
B(  9-C , 29-H ) :   0.8840 B(  9-C , 30-H ) :   0.8842 B( 10-S , 11-P ) :   0.9554
B( 10-S , 12-S ) :   0.1084 B( 11-P , 12-S ) :   1.5928 B( 11-P , 13-O ) :   1.1432
B( 11-P , 16-O ) :   1.1134 B( 13-O , 14-C ) :   0.9014 B( 14-C , 15-C ) :   1.1627
B( 14-C , 31-H ) :   0.9333 B( 14-C , 32-H ) :   0.9151 B( 15-C , 33-H ) :   0.9466
B( 15-C , 34-H ) :   0.9401 B( 15-C , 35-H ) :   0.9360 B( 16-O , 17-C ) :   0.9032
B( 17-C , 18-C ) :   1.1609 B( 17-C , 36-H ) :   0.9101 B( 17-C , 37-H ) :   0.9288
B( 18-C , 38-H ) :   0.9506 B( 18-C , 39-H ) :   0.9514 B( 18-C , 40-H ) :   0.9418

Dispersion correction           -0.064687572
FINAL SINGLE POINT ENERGY     -2929.528703465174

DIPOLE MOMENT
-------------

Method             : SCF
Type of density    : Electron Density
Multiplicity       :   1
Irrep              :   0
Energy             : -2929.6474770035047186 Eh
Relativity type    :
Basis              : AO
                                X                 Y                 Z
Electronic contribution:      1.041665082      -1.182012052     -17.158026413
Nuclear contribution   :     -1.105990638       1.249920170      18.150311297
                        -----------------------------------------
Total Dipole Moment    :     -0.064325555       0.067908118       0.992284884
                        -----------------------------------------
Magnitude (a.u.)       :      0.996683791
Magnitude (Debye)      :      2.533368868

Rotational constants in cm-1:             0.013221             0.004618             0.004573
Rotational constants in MHz :           396.351836           138.429756           137.088612

                             ****ORCA TERMINATED NORMALLY****
TOTAL RUN TIME: 0 days 0 hours 0 minutes 21 seconds 137 msec
