                         Program Version 6.0.0  -   RELEASE  -
|  1> ! pbe def2-sv(p) def2/J RI DEFGRID1 loosescf d4 GCP(DFT/SV(P)) printgap
|  2> %output
|  3>     printlevel normal
|  4> end
|  5> * xyz 0 1
|  6> C -0.6500854723 -0.998545715 -0.3844351824
|  7> C 0.6495787027 -0.9981374154 0.3845862456
|  8> Cl 1.6661829231 0.4182087598 -0.0657506155
|  9> Cl -1.665993411 0.4184452328 0.0656760019
| 10> H -1.2293343732 -1.886709718 -0.1378620001
| 11> H -0.4828801068 -0.9318619717 -1.4576996289
| 12> H 0.4824446424 -0.9305768403 1.4578085538
| 13> H 1.2291427322 -1.8863097236 0.1385774183
| 14> *
| 15>
| 16>                          ****END OF INPUT****

CARTESIAN COORDINATES (ANGSTROEM)
---------------------------------
  C     -0.650085   -0.998546   -0.384435
  C      0.649579   -0.998137    0.384586
  Cl     1.666183    0.418209   -0.065751
  Cl    -1.665993    0.418445    0.065676
  H     -1.229334   -1.886710   -0.137862
  H     -0.482880   -0.931862   -1.457700
  H      0.482445   -0.930577    1.457809
  H      1.229143   -1.886310    0.138577

 Total Charge           Charge          ....    0
 Multiplicity           Mult            ....    1
 Number of Electrons    NEL             ....   50
 Basis Dimension        Dim             ....   72

ORBITAL ENERGIES
----------------

  NO   OCC          E(Eh)            E(eV)
   0   2.0000    -100.625837     -2738.1682
   1   2.0000    -100.625809     -2738.1675
   2   2.0000      -9.957872      -270.9675
   3   2.0000      -9.957836      -270.9665
   4   2.0000      -9.161442      -249.2955
   5   2.0000      -9.161410      -249.2946
   6   2.0000      -6.993353      -190.2988
   7   2.0000      -6.993336      -190.2983
   8   2.0000      -6.981038      -189.9637
   9   2.0000      -6.981020      -189.9632
  10   2.0000      -6.980814      -189.9576
  11   2.0000      -6.980791      -189.9570
  12   2.0000      -0.803259       -21.8578
  13   2.0000      -0.755357       -20.5543
  14   2.0000      -0.655516       -17.8375
  15   2.0000      -0.556014       -15.1299
  16   2.0000      -0.445907       -12.1337
  17   2.0000      -0.435163       -11.8414
  18   2.0000      -0.396000       -10.7757
  19   2.0000      -0.359950        -9.7947
  20   2.0000      -0.353341        -9.6149
  21   2.0000      -0.260930        -7.1003
  22   2.0000      -0.258966        -7.0468
  23   2.0000      -0.251312        -6.8386
  24   2.0000      -0.246595        -6.7102
  25   0.0000      -0.014675        -0.3993
  26   0.0000       0.014121         0.3842
  27   0.0000       0.037850         1.0300
  28   0.0000       0.072965         1.9855
  29   0.0000       0.087702         2.3865

MULLIKEN ATOMIC CHARGES
-----------------------
   0 C :   -0.160192
   1 C :   -0.160370
   2 Cl:   -0.137879
   3 Cl:   -0.137852
   4 H :    0.146295
   5 H :    0.151851
   6 H :    0.151870
   7 H :    0.146276
Sum of atomic charges:   -0.0000000

LOEWDIN ATOMIC CHARGES
----------------------
   0 C :   -0.295708
   1 C :   -0.295775
   2 Cl:    0.030258
   3 Cl:    0.030287
   4 H :    0.133361
   5 H :    0.132128
   6 H :    0.132117
   7 H :    0.133333

  Mayer bond orders larger than 0.100000
B(  0-C ,  1-C ) :   1.0855 B(  0-C ,  3-Cl) :   1.0520 B(  0-C ,  4-H ) :   0.9151
B(  0-C ,  5-H ) :   0.9206 B(  1-C ,  2-Cl) :   1.0520 B(  1-C ,  6-H ) :   0.9206
B(  1-C ,  7-H ) :   0.9151

Dispersion correction           -0.006307193
FINAL SINGLE POINT ENERGY      -998.146053057949

DIPOLE MOMENT
-------------

Method             : SCF
Type of density    : Electron Density
Multiplicity       :   1
Irrep              :   0
Energy             :  -998.1712596131433202 Eh
Relativity type    :
Basis              : AO
                                X                 Y                 Z
Electronic contribution:      0.000569057       5.396421252      -0.000775950
Nuclear contribution   :     -0.000842698      -6.410008515       0.000873525
                        -----------------------------------------
Total Dipole Moment    :     -0.000273641      -1.013587263       0.000097575
                        -----------------------------------------
Magnitude (a.u.)       :      1.013587305
Magnitude (Debye)      :      2.576334185

Rotational constants in cm-1:             0.315366             0.077094             0.065912
Rotational constants in MHz :          9454.444017          2311.206806          1976.005763

                             ****ORCA TERMINATED NORMALLY****
TOTAL RUN TIME: 0 days 0 hours 0 minutes 6 seconds 691 msec
