                         Program Version 6.0.1  -  RELEASE   -
|  1> ! pbe def2-sv(p) def2/J RI DEFGRID1 loosescf d4 GCP(DFT/SV(P)) printgap
|  2> %output
|  3>     printlevel normal
|  4> end
|  5> * xyz 0 1
|  6> C 2.7131615483 -4.5496086539 -1.0995648253
|  7> C 3.7672100991 -3.463347645 -1.244121994
|  8> O 3.442988913 -2.3273636645 -0.4192317564
|  9> C 2.6253407198 -1.4147309718 -0.9023802719
| 10> O 2.1479616993 -1.4323759621 -2.0151601616
| 11> C 2.3685259016 -0.3151988631 0.11256446
| 12> C 0.9518310208 0.2141748685 -0.0530816666
| 13> H 0.7586064584 0.4061590427 -1.1167948012
| 14> C 0.6728522782 1.4957165704 0.7044431723
| 15> O -0.3569764482 1.659106355 1.3280816842
| 16> O 1.6316572166 2.369852802 0.58518169
| 17> C 1.4260682619 3.6891196797 1.1398881763
| 18> C 0.7120237408 4.5772053099 0.1347139515
| 19> S -0.2630218689 -1.02738333 0.5076335303
| 20> P -2.0371363393 0.0680061568 0.0480499722
| 21> S -1.9715946697 1.5725577317 -1.2018749776
| 22> O -2.907594324 -1.0756318153 -0.6396954458
| 23> C -3.2116505256 -2.3224805506 0.0072942922
| 24> O -2.8782835679 0.2407667061 1.3938790729
| 25> C -2.9497725187 1.384194392 2.2456118818
| 26> H 1.7532494302 -4.1869832146 -1.4610182829
| 27> H 3.0061591832 -5.4158983105 -1.6833295943
| 28> H 2.6109626375 -4.835177409 -0.0564253584
| 29> H 3.8414241809 -3.1313611623 -2.2835415026
| 30> H 4.7383376892 -3.797601255 -0.8793131624
| 31> H 3.0722826115 0.4986256064 -0.076265533
| 32> H 2.5326775533 -0.7104055018 1.1143093121
| 33> H 0.8450911098 3.5941241251 2.0604963072
| 34> H 2.431078665 4.0520119728 1.3534354991
| 35> H 1.2975651445 4.661526267 -0.7764089353
| 36> H -0.2596364325 4.1555495841 -0.1184537862
| 37> H 0.5687775568 5.563699095 0.5624543595
| 38> H -3.8765083857 -2.1488087589 0.8513159763
| 39> H -2.2916676319 -2.8003564622 0.3468160681
| 40> H -3.6995726485 -2.9265989824 -0.753347191
| 41> H -3.9304374483 1.3348067482 2.7140704026
| 42> H -2.8494637882 2.2983893164 1.6610964817
| 43> H -2.1579619924 1.3370214543 2.9902001375
| 44> *
| 45>
| 46>                          ****END OF INPUT****

CARTESIAN COORDINATES (ANGSTROEM)
---------------------------------
  C      2.713162   -4.549609   -1.099565
  C      3.767210   -3.463348   -1.244122
  O      3.442989   -2.327364   -0.419232
  C      2.625341   -1.414731   -0.902380
  O      2.147962   -1.432376   -2.015160
  C      2.368526   -0.315199    0.112564
  C      0.951831    0.214175   -0.053082
  H      0.758606    0.406159   -1.116795
  C      0.672852    1.495717    0.704443
  O     -0.356976    1.659106    1.328082
  O      1.631657    2.369853    0.585182
  C      1.426068    3.689120    1.139888
  C      0.712024    4.577205    0.134714
  S     -0.263022   -1.027383    0.507634
  P     -2.037136    0.068006    0.048050
  S     -1.971595    1.572558   -1.201875
  O     -2.907594   -1.075632   -0.639695
  C     -3.211651   -2.322481    0.007294
  O     -2.878284    0.240767    1.393879
  C     -2.949773    1.384194    2.245612
  H      1.753249   -4.186983   -1.461018
  H      3.006159   -5.415898   -1.683330
  H      2.610963   -4.835177   -0.056425
  H      3.841424   -3.131361   -2.283542
  H      4.738338   -3.797601   -0.879313
  H      3.072283    0.498626   -0.076266
  H      2.532678   -0.710406    1.114309
  H      0.845091    3.594124    2.060496
  H      2.431079    4.052012    1.353435
  H      1.297565    4.661526   -0.776409
  H     -0.259636    4.155550   -0.118454
  H      0.568778    5.563699    0.562454
  H     -3.876508   -2.148809    0.851316
  H     -2.291668   -2.800356    0.346816
  H     -3.699573   -2.926599   -0.753347
  H     -3.930437    1.334807    2.714070
  H     -2.849464    2.298389    1.661096
  H     -2.157962    1.337021    2.990200

 Total Charge           Charge          ....    0
 Multiplicity           Mult            ....    1
 Number of Electrons    NEL             ....  174
 Basis Dimension        Dim             ....  316

ORBITAL ENERGIES
----------------

  NO   OCC          E(Eh)            E(eV)
   0   2.0000     -88.030352     -2395.4277
   1   2.0000     -87.969968     -2393.7845
   2   2.0000     -76.416792     -2079.4066
   3   2.0000     -18.822578      -512.1884
   4   2.0000     -18.807598      -511.7808
   5   2.0000     -18.781957      -511.0830
   6   2.0000     -18.772840      -510.8350
   7   2.0000     -18.752681      -510.2864
   8   2.0000     -18.742921      -510.0208
   9   2.0000     -10.025050      -272.7955
  10   2.0000     -10.014628      -272.5119
  11   2.0000      -9.958293      -270.9789
  12   2.0000      -9.951458      -270.7929
  13   2.0000      -9.944490      -270.6033
  14   2.0000      -9.938545      -270.4415
  15   2.0000      -9.933498      -270.3042
  16   2.0000      -9.917695      -269.8742
  17   2.0000      -9.888754      -269.0867
  18   2.0000      -9.888578      -269.0819
  19   2.0000      -7.675371      -208.8575
  20   2.0000      -7.615325      -207.2235
  21   2.0000      -6.412861      -174.5028
  22   2.0000      -5.703223      -155.1926
  23   2.0000      -5.700325      -155.1137
  24   2.0000      -5.691963      -154.8862
  25   2.0000      -5.644651      -153.5988
  26   2.0000      -5.636015      -153.3638
  27   2.0000      -5.634924      -153.3341
  28   2.0000      -4.635685      -126.1434
  29   2.0000      -4.634740      -126.1177
  30   2.0000      -4.633346      -126.0798
  31   2.0000      -1.030885       -28.0518
  32   2.0000      -1.015425       -27.6311
  33   2.0000      -0.971440       -26.4342
  34   2.0000      -0.934449       -25.4276
  35   2.0000      -0.925903       -25.1951
  36   2.0000      -0.920403       -25.0454
  37   2.0000      -0.764860       -20.8129
  38   2.0000      -0.715182       -19.4611
  39   2.0000      -0.710526       -19.3344
  40   2.0000      -0.689233       -18.7550
  41   2.0000      -0.655249       -17.8302
  42   2.0000      -0.628880       -17.1127
  43   2.0000      -0.625777       -17.0283
  44   2.0000      -0.607293       -16.5253
  45   2.0000      -0.598564       -16.2878
  46   2.0000      -0.565075       -15.3765
  47   2.0000      -0.510876       -13.9016
  48   2.0000      -0.504343       -13.7239
  49   2.0000      -0.501331       -13.6419
  50   2.0000      -0.481057       -13.0902
  51   2.0000      -0.465991       -12.6803
  52   2.0000      -0.465202       -12.6588
  53   2.0000      -0.449724       -12.2376
  54   2.0000      -0.442489       -12.0407
  55   2.0000      -0.430295       -11.7089
  56   2.0000      -0.426045       -11.5933
  57   2.0000      -0.417430       -11.3589
  58   2.0000      -0.417193       -11.3524
  59   2.0000      -0.406340       -11.0571
  60   2.0000      -0.402044       -10.9402
  61   2.0000      -0.399215       -10.8632
  62   2.0000      -0.391707       -10.6589
  63   2.0000      -0.383974       -10.4485
  64   2.0000      -0.374539       -10.1917
  65   2.0000      -0.370865       -10.0917
  66   2.0000      -0.361907        -9.8480
  67   2.0000      -0.355561        -9.6753
  68   2.0000      -0.347983        -9.4691
  69   2.0000      -0.338980        -9.2241
  70   2.0000      -0.334331        -9.0976
  71   2.0000      -0.330289        -8.9876
  72   2.0000      -0.327660        -8.9161
  73   2.0000      -0.307196        -8.3592
  74   2.0000      -0.306000        -8.3267
  75   2.0000      -0.297973        -8.1083
  76   2.0000      -0.291506        -7.9323
  77   2.0000      -0.286508        -7.7963
  78   2.0000      -0.278007        -7.5650
  79   2.0000      -0.264779        -7.2050
  80   2.0000      -0.258501        -7.0342
  81   2.0000      -0.250873        -6.8266
  82   2.0000      -0.241223        -6.5640
  83   2.0000      -0.229542        -6.2462
  84   2.0000      -0.206492        -5.6189
  85   2.0000      -0.192327        -5.2335
  86   2.0000      -0.183467        -4.9924
  87   0.0000      -0.045019        -1.2250
  88   0.0000      -0.036892        -1.0039
  89   0.0000      -0.019372        -0.5271
  90   0.0000       0.004966         0.1351
  91   0.0000       0.034770         0.9461

MULLIKEN ATOMIC CHARGES
-----------------------
   0 C :   -0.306090
   1 C :   -0.013722
   2 O :   -0.226452
   3 C :    0.131376
   4 O :   -0.194703
   5 C :   -0.117190
   6 C :   -0.300149
   7 H :    0.172618
   8 C :    0.230831
   9 O :   -0.192066
  10 O :   -0.222120
  11 C :   -0.012817
  12 C :   -0.311584
  13 S :   -0.128586
  14 P :    0.645485
  15 S :   -0.330410
  16 O :   -0.366731
  17 C :   -0.109447
  18 O :   -0.398944
  19 C :   -0.078052
  20 H :    0.133288
  21 H :    0.114259
  22 H :    0.114553
  23 H :    0.110768
  24 H :    0.104194
  25 H :    0.138944
  26 H :    0.111353
  27 H :    0.110319
  28 H :    0.106757
  29 H :    0.118002
  30 H :    0.143742
  31 H :    0.113645
  32 H :    0.117985
  33 H :    0.117039
  34 H :    0.128985
  35 H :    0.114557
  36 H :    0.114572
  37 H :    0.115790
Sum of atomic charges:    0.0000000

LOEWDIN ATOMIC CHARGES
----------------------
   0 C :   -0.355731
   1 C :   -0.110515
   2 O :   -0.057292
   3 C :    0.029655
   4 O :   -0.158389
   5 C :   -0.252423
   6 C :   -0.265773
   7 H :    0.153534
   8 C :    0.022670
   9 O :   -0.159634
  10 O :   -0.037265
  11 C :   -0.106152
  12 C :   -0.357729
  13 S :    0.080674
  14 P :    0.589081
  15 S :   -0.323667
  16 O :   -0.252962
  17 C :   -0.213233
  18 O :   -0.253481
  19 C :   -0.205486
  20 H :    0.133327
  21 H :    0.131255
  22 H :    0.125264
  23 H :    0.121152
  24 H :    0.118348
  25 H :    0.155356
  26 H :    0.136011
  27 H :    0.120936
  28 H :    0.119557
  29 H :    0.127580
  30 H :    0.134001
  31 H :    0.131476
  32 H :    0.112722
  33 H :    0.103420
  34 H :    0.124657
  35 H :    0.114966
  36 H :    0.111261
  37 H :    0.112826

  Mayer bond orders larger than 0.100000
B(  0-C ,  1-C ) :   1.1752 B(  0-C , 20-H ) :   0.9445 B(  0-C , 21-H ) :   0.9438
B(  0-C , 22-H ) :   0.9486 B(  1-C ,  2-O ) :   0.9114 B(  1-C , 23-H ) :   0.9139
B(  1-C , 24-H ) :   0.9373 B(  2-O ,  3-C ) :   1.2467 B(  3-C ,  4-O ) :   2.0421
B(  3-C ,  5-C ) :   0.9959 B(  5-C ,  6-C ) :   1.0951 B(  5-C , 25-H ) :   0.8683
B(  5-C , 26-H ) :   0.9051 B(  6-C ,  7-H ) :   0.8285 B(  6-C ,  8-C ) :   0.9065
B(  6-C , 13-S ) :   1.0316 B(  8-C ,  9-O ) :   1.9588 B(  8-C , 10-O ) :   1.2763
B( 10-O , 11-C ) :   0.8967 B( 11-C , 12-C ) :   1.1791 B( 11-C , 27-H ) :   0.9132
B( 11-C , 28-H ) :   0.9362 B( 12-C , 29-H ) :   0.9481 B( 12-C , 30-H ) :   0.9336
B( 12-C , 31-H ) :   0.9417 B( 13-S , 14-P ) :   0.9213 B( 13-S , 15-S ) :   0.1096
B( 14-P , 15-S ) :   1.6026 B( 14-P , 16-O ) :   1.1080 B( 14-P , 18-O ) :   1.0904
B( 16-O , 17-C ) :   0.9346 B( 17-C , 32-H ) :   0.9468 B( 17-C , 33-H ) :   0.9357
B( 17-C , 34-H ) :   0.9606 B( 18-O , 19-C ) :   0.9274 B( 19-C , 35-H ) :   0.9538
B( 19-C , 36-H ) :   0.9421 B( 19-C , 37-H ) :   0.9527

Dispersion correction           -0.050110671
FINAL SINGLE POINT ENERGY     -1979.012492501783

DIPOLE MOMENT
-------------

Method             : SCF
Type of density    : Electron Density
Multiplicity       :   1
Irrep              :   0
Energy             : -1979.1447786150106367 Eh
Relativity type    :
Basis              : AO
                                X                 Y                 Z
Electronic contribution:     -8.533329347       1.748875126      -2.715654200
Nuclear contribution   :      9.773036735      -2.009373402       4.154818442
                        -----------------------------------------
Total Dipole Moment    :      1.239707388      -0.260498276       1.439164242
                        -----------------------------------------
Magnitude (a.u.)       :      1.917270840
Magnitude (Debye)      :      4.873315188

Rotational constants in cm-1:             0.011620             0.007070             0.005066
Rotational constants in MHz :           348.346342           211.966654           151.877042

                             ****ORCA TERMINATED NORMALLY****
TOTAL RUN TIME: 0 days 0 hours 0 minutes 31 seconds 260 msec
