                         Program Version 6.0.0  -   RELEASE  -
|  1> ! pbe def2-sv(p) def2/J RI DEFGRID1 loosescf d4 GCP(DFT/SV(P)) printgap
|  2> %output
|  3>     printlevel normal
|  4> end
|  5> * xyz 0 1
|  6> C 5.4252004639 -1.2646158468 -0.6668413583
|  7> C 4.1605625485 -2.0996921938 -0.7003753634
|  8> O 3.0452535319 -1.3689532499 -1.2540710576
|  9> P 2.2496630105 -0.2529030999 -0.4602909428
| 10> S 3.0659034371 1.5115167436 -0.183439298
| 11> O 1.8349353509 -0.9995660725 0.8888441624
| 12> C 1.8572508892 -0.3990812114 2.1959553911
| 13> C 3.0698749235 -0.881916698 2.9666023859
| 14> S 0.5574874946 -0.3010044901 -1.7205573431
| 15> C -0.1629999318 1.2640552987 -1.1461422794
| 16> S -0.7242430236 1.1854450218 0.5732470918
| 17> P -2.6212913288 0.2468800425 0.258231243
| 18> S -3.3410929943 0.4001114628 -1.5644419901
| 19> O -3.551022759 0.8322762264 1.3924849251
| 20> C -4.3743068229 1.9918661561 1.177565983
| 21> C -3.5529787999 3.262127871 1.0787567657
| 22> O -2.4997463736 -1.1886115318 0.9156364577
| 23> C -1.5819819891 -2.2257459229 0.5347417821
| 24> C -1.9383803303 -2.8539271957 -0.7982494359
| 25> H 6.2475239815 -1.8713719153 -0.3009467252
| 26> H 5.6618341846 -0.9014206452 -1.6635940617
| 27> H 5.2971039616 -0.4049534046 -0.0113134673
| 28> H 3.890228718 -2.4473233919 0.299959871
| 29> H 4.2666443933 -2.9540244765 -1.3711903772
| 30> H 1.8717958761 0.6901887887 2.0902680439
| 31> H 0.9253068816 -0.7035015898 2.6755200425
| 32> H 3.9806002744 -0.5406656394 2.4786842972
| 33> H 3.0361386985 -0.4748579587 3.9718694858
| 34> H 3.0773337001 -1.9671619192 3.0195283249
| 35> H -1.0123313633 1.4744642962 -1.797605844
| 36> H 0.5895296244 2.0504147038 -1.1967838815
| 37> H -4.9617517971 1.8406439062 0.2659975898
| 38> H -5.0352525971 2.0072742622 2.045161394
| 39> H -4.2184281552 4.1190343458 1.0518795609
| 40> H -2.8869926767 3.3481083852 1.9335678897
| 41> H -2.9563552792 3.2513915794 0.1676383222
| 42> H -0.5647518698 -1.8221496204 0.5120380828
| 43> H -1.6656399735 -2.950695269 1.3469988795
| 44> H -1.2871370159 -3.7031471698 -0.9786591295
| 45> H -2.9730284436 -3.1868897031 -0.7901622633
| 46> H -1.8079675243 -2.1367534731 -1.6067638281
| 47> *
| 48>
| 49>                          ****END OF INPUT****

CARTESIAN COORDINATES (ANGSTROEM)
---------------------------------
  C      5.425200   -1.264616   -0.666841
  C      4.160563   -2.099692   -0.700375
  O      3.045254   -1.368953   -1.254071
  P      2.249663   -0.252903   -0.460291
  S      3.065903    1.511517   -0.183439
  O      1.834935   -0.999566    0.888844
  C      1.857251   -0.399081    2.195955
  C      3.069875   -0.881917    2.966602
  S      0.557487   -0.301004   -1.720557
  C     -0.163000    1.264055   -1.146142
  S     -0.724243    1.185445    0.573247
  P     -2.621291    0.246880    0.258231
  S     -3.341093    0.400111   -1.564442
  O     -3.551023    0.832276    1.392485
  C     -4.374307    1.991866    1.177566
  C     -3.552979    3.262128    1.078757
  O     -2.499746   -1.188612    0.915636
  C     -1.581982   -2.225746    0.534742
  C     -1.938380   -2.853927   -0.798249
  H      6.247524   -1.871372   -0.300947
  H      5.661834   -0.901421   -1.663594
  H      5.297104   -0.404953   -0.011313
  H      3.890229   -2.447323    0.299960
  H      4.266644   -2.954024   -1.371190
  H      1.871796    0.690189    2.090268
  H      0.925307   -0.703502    2.675520
  H      3.980600   -0.540666    2.478684
  H      3.036139   -0.474858    3.971869
  H      3.077334   -1.967162    3.019528
  H     -1.012331    1.474464   -1.797606
  H      0.589530    2.050415   -1.196784
  H     -4.961752    1.840644    0.265998
  H     -5.035253    2.007274    2.045161
  H     -4.218428    4.119034    1.051880
  H     -2.886993    3.348108    1.933568
  H     -2.956355    3.251392    0.167638
  H     -0.564752   -1.822150    0.512038
  H     -1.665640   -2.950695    1.346999
  H     -1.287137   -3.703147   -0.978659
  H     -2.973028   -3.186890   -0.790162
  H     -1.807968   -2.136753   -1.606764

 Total Charge           Charge          ....    0
 Multiplicity           Mult            ....    1
 Number of Electrons    NEL             ....  202
 Basis Dimension        Dim             ....  334

ORBITAL ENERGIES
----------------

  NO   OCC          E(Eh)            E(eV)
   0   2.0000     -88.045484     -2395.8394
   1   2.0000     -88.043883     -2395.7959
   2   2.0000     -87.994858     -2394.4618
   3   2.0000     -87.992054     -2394.3855
   4   2.0000     -76.432508     -2079.8343
   5   2.0000     -76.428889     -2079.7358
   6   2.0000     -18.800028      -511.5748
   7   2.0000     -18.799191      -511.5520
   8   2.0000     -18.791467      -511.3418
   9   2.0000     -18.789044      -511.2759
  10   2.0000      -9.962859      -271.1032
  11   2.0000      -9.954450      -270.8744
  12   2.0000      -9.952845      -270.8307
  13   2.0000      -9.951730      -270.8003
  14   2.0000      -9.948942      -270.7245
  15   2.0000      -9.891954      -269.1738
  16   2.0000      -9.888848      -269.0892
  17   2.0000      -9.883352      -268.9397
  18   2.0000      -9.875333      -268.7215
  19   2.0000      -7.689918      -209.2533
  20   2.0000      -7.688941      -209.2267
  21   2.0000      -7.639711      -207.8871
  22   2.0000      -7.636901      -207.8107
  23   2.0000      -6.429982      -174.9687
  24   2.0000      -6.426056      -174.8619
  25   2.0000      -5.717737      -155.5875
  26   2.0000      -5.716800      -155.5620
  27   2.0000      -5.714396      -155.4966
  28   2.0000      -5.713582      -155.4745
  29   2.0000      -5.707089      -155.2978
  30   2.0000      -5.705784      -155.2623
  31   2.0000      -5.668513      -154.2481
  32   2.0000      -5.665704      -154.1716
  33   2.0000      -5.660591      -154.0325
  34   2.0000      -5.659746      -154.0095
  35   2.0000      -5.657479      -153.9478
  36   2.0000      -5.657248      -153.9416
  37   2.0000      -4.652835      -126.6101
  38   2.0000      -4.651439      -126.5721
  39   2.0000      -4.650488      -126.5462
  40   2.0000      -4.648295      -126.4865
  41   2.0000      -4.648125      -126.4819
  42   2.0000      -4.646546      -126.4390
  43   2.0000      -0.993266       -27.0281
  44   2.0000      -0.989426       -26.9237
  45   2.0000      -0.950963       -25.8770
  46   2.0000      -0.944023       -25.6882
  47   2.0000      -0.765907       -20.8414
  48   2.0000      -0.726252       -19.7623
  49   2.0000      -0.712080       -19.3767
  50   2.0000      -0.694134       -18.8883
  51   2.0000      -0.681353       -18.5406
  52   2.0000      -0.676363       -18.4048
  53   2.0000      -0.655620       -17.8403
  54   2.0000      -0.642219       -17.4757
  55   2.0000      -0.603368       -16.4185
  56   2.0000      -0.596462       -16.2306
  57   2.0000      -0.582979       -15.8637
  58   2.0000      -0.568206       -15.4617
  59   2.0000      -0.561475       -15.2785
  60   2.0000      -0.506636       -13.7863
  61   2.0000      -0.493790       -13.4367
  62   2.0000      -0.483118       -13.1463
  63   2.0000      -0.468726       -12.7547
  64   2.0000      -0.462039       -12.5727
  65   2.0000      -0.447404       -12.1745
  66   2.0000      -0.441219       -12.0062
  67   2.0000      -0.436804       -11.8860
  68   2.0000      -0.419922       -11.4267
  69   2.0000      -0.419108       -11.4045
  70   2.0000      -0.413242       -11.2449
  71   2.0000      -0.406627       -11.0649
  72   2.0000      -0.397459       -10.8154
  73   2.0000      -0.385516       -10.4904
  74   2.0000      -0.382339       -10.4040
  75   2.0000      -0.378877       -10.3098
  76   2.0000      -0.371982       -10.1221
  77   2.0000      -0.360427        -9.8077
  78   2.0000      -0.357454        -9.7268
  79   2.0000      -0.355692        -9.6789
  80   2.0000      -0.348039        -9.4706
  81   2.0000      -0.344751        -9.3812
  82   2.0000      -0.342216        -9.3122
  83   2.0000      -0.338438        -9.2094
  84   2.0000      -0.334835        -9.1113
  85   2.0000      -0.324832        -8.8391
  86   2.0000      -0.310934        -8.4609
  87   2.0000      -0.299404        -8.1472
  88   2.0000      -0.298926        -8.1342
  89   2.0000      -0.296565        -8.0700
  90   2.0000      -0.287400        -7.8205
  91   2.0000      -0.283562        -7.7161
  92   2.0000      -0.271666        -7.3924
  93   2.0000      -0.267167        -7.2700
  94   2.0000      -0.260688        -7.0937
  95   2.0000      -0.238265        -6.4835
  96   2.0000      -0.220375        -5.9967
  97   2.0000      -0.217342        -5.9142
  98   2.0000      -0.208432        -5.6717
  99   2.0000      -0.205880        -5.6023
 100   2.0000      -0.204529        -5.5655
 101   0.0000      -0.050674        -1.3789
 102   0.0000      -0.029999        -0.8163
 103   0.0000      -0.006665        -0.1814
 104   0.0000      -0.002863        -0.0779
 105   0.0000       0.010353         0.2817

MULLIKEN ATOMIC CHARGES
-----------------------
   0 C :   -0.314682
   1 C :   -0.016318
   2 O :   -0.374104
   3 P :    0.639425
   4 S :   -0.325279
   5 O :   -0.378486
   6 C :   -0.015733
   7 C :   -0.293104
   8 S :   -0.074307
   9 C :   -0.364239
  10 S :   -0.110153
  11 P :    0.607130
  12 S :   -0.327117
  13 O :   -0.356785
  14 C :   -0.004701
  15 C :   -0.310265
  16 O :   -0.353264
  17 C :   -0.036065
  18 C :   -0.303812
  19 H :    0.110932
  20 H :    0.123982
  21 H :    0.136392
  22 H :    0.109301
  23 H :    0.111859
  24 H :    0.117089
  25 H :    0.106535
  26 H :    0.117677
  27 H :    0.115305
  28 H :    0.116413
  29 H :    0.193405
  30 H :    0.196352
  31 H :    0.114428
  32 H :    0.107118
  33 H :    0.112535
  34 H :    0.117653
  35 H :    0.121745
  36 H :    0.128141
  37 H :    0.101713
  38 H :    0.104651
  39 H :    0.115118
  40 H :    0.133516
Sum of atomic charges:   -0.0000000

LOEWDIN ATOMIC CHARGES
----------------------
   0 C :   -0.365635
   1 C :   -0.111772
   2 O :   -0.244237
   3 P :    0.569322
   4 S :   -0.308014
   5 O :   -0.244018
   6 C :   -0.127586
   7 C :   -0.358744
   8 S :    0.105633
   9 C :   -0.488753
  10 S :    0.081289
  11 P :    0.572183
  12 S :   -0.305406
  13 O :   -0.233299
  14 C :   -0.118836
  15 C :   -0.367734
  16 O :   -0.231742
  17 C :   -0.123525
  18 C :   -0.367138
  19 H :    0.130029
  20 H :    0.131393
  21 H :    0.121939
  22 H :    0.110223
  23 H :    0.122588
  24 H :    0.104500
  25 H :    0.114558
  26 H :    0.123334
  27 H :    0.132963
  28 H :    0.123240
  29 H :    0.126780
  30 H :    0.130535
  31 H :    0.110806
  32 H :    0.119804
  33 H :    0.130543
  34 H :    0.124861
  35 H :    0.119823
  36 H :    0.101753
  37 H :    0.117759
  38 H :    0.128107
  39 H :    0.126029
  40 H :    0.116445

  Mayer bond orders larger than 0.100000
B(  0-C ,  1-C ) :   1.1640 B(  0-C , 19-H ) :   0.9379 B(  0-C , 20-H ) :   0.9452
B(  0-C , 21-H ) :   0.9323 B(  1-C ,  2-O ) :   0.9091 B(  1-C , 22-H ) :   0.9218
B(  1-C , 23-H ) :   0.9351 B(  2-O ,  3-P ) :   1.1286 B(  3-P ,  4-S ) :   1.6135
B(  3-P ,  5-O ) :   1.0712 B(  3-P ,  8-S ) :   0.9634 B(  4-S ,  8-S ) :   0.1079
B(  5-O ,  6-C ) :   0.8974 B(  6-C ,  7-C ) :   1.1639 B(  6-C , 24-H ) :   0.9009
B(  6-C , 25-H ) :   0.9300 B(  7-C , 26-H ) :   0.9406 B(  7-C , 27-H ) :   0.9397
B(  7-C , 28-H ) :   0.9447 B(  8-S ,  9-C ) :   1.0047 B(  9-C , 10-S ) :   1.0032
B(  9-C , 29-H ) :   0.8659 B(  9-C , 30-H ) :   0.8744 B( 10-S , 11-P ) :   0.9230
B( 10-S , 12-S ) :   0.1191 B( 11-P , 12-S ) :   1.6018 B( 11-P , 13-O ) :   1.1346
B( 11-P , 16-O ) :   1.1379 B( 13-O , 14-C ) :   0.9109 B( 14-C , 15-C ) :   1.1636
B( 14-C , 31-H ) :   0.9147 B( 14-C , 32-H ) :   0.9339 B( 15-C , 33-H ) :   0.9384
B( 15-C , 34-H ) :   0.9450 B( 15-C , 35-H ) :   0.9383 B( 16-O , 17-C ) :   0.9129
B( 17-C , 18-C ) :   1.1657 B( 17-C , 36-H ) :   0.8975 B( 17-C , 37-H ) :   0.9346
B( 18-C , 38-H ) :   0.9385 B( 18-C , 39-H ) :   0.9451 B( 18-C , 40-H ) :   0.9303

Dispersion correction           -0.065984314
FINAL SINGLE POINT ENERGY     -2929.526348811756

DIPOLE MOMENT
-------------

Method             : SCF
Type of density    : Electron Density
Multiplicity       :   1
Irrep              :   0
Energy             : -2929.6453698930954488 Eh
Relativity type    :
Basis              : AO
                                X                 Y                 Z
Electronic contribution:     -8.572268757       6.240190693     -10.551380985
Nuclear contribution   :      9.216126707      -6.948989134      11.684492366
                        -----------------------------------------
Total Dipole Moment    :      0.643857950      -0.708798441       1.133111381
                        -----------------------------------------
Magnitude (a.u.)       :      1.483539582
Magnitude (Debye)      :      3.770857942

Rotational constants in cm-1:             0.013782             0.004608             0.004417
Rotational constants in MHz :           413.180025           138.136514           132.415671

                             ****ORCA TERMINATED NORMALLY****
TOTAL RUN TIME: 0 days 0 hours 0 minutes 21 seconds 285 msec
