                         Program Version 6.0.0  -   RELEASE  -
|  1> ! pbe def2-sv(p) def2/J RI DEFGRID1 loosescf d4 GCP(DFT/SV(P)) printgap
|  2> %output
|  3>     printlevel normal
|  4> end
|  5> * xyz 0 1
|  6> C 1.3276471391 -2.5350488498 2.1673114662
|  7> C 2.1178214247 -1.2704233479 2.435065587
|  8> O 1.6814100489 -0.1961003338 1.5628847343
|  9> P 2.4303292962 0.1515526183 0.2157799286
| 10> S 3.3447812858 -1.3354312741 -0.6847892199
| 11> O 3.3522831989 1.3554732363 0.6934046326
| 12> C 4.2858585304 2.0093509924 -0.1910757518
| 13> C 5.676372491 1.4256322622 -0.030484246
| 14> S 0.9260266168 1.120877881 -0.9090005537
| 15> C 0.1948794923 -0.3885270886 -1.601121024
| 16> S -0.9231642136 -1.2026249202 -0.4443793879
| 17> P -2.4423234736 0.299812316 -0.4977510006
| 18> S -2.689309029 1.0881278538 -2.2743979943
| 19> O -2.1230127327 1.3972180445 0.5842814268
| 20> C -2.3823659567 1.3003798337 2.0074981613
| 21> C -1.6188695928 0.1688279975 2.6609151734
| 22> O -3.7063812098 -0.4384474059 0.1135073687
| 23> C -4.4121832281 -1.4473240202 -0.640784683
| 24> C -5.7687924525 -1.6446119891 0.0042789306
| 25> H 0.2631474999 -2.3468265834 2.2683927446
| 26> H 1.5213637081 -2.8921718907 1.1580821105
| 27> H 1.6301073815 -3.2982994844 2.8768880094
| 28> H 3.1868368393 -1.4408915886 2.28480113
| 29> H 1.9431293933 -0.8915346386 3.442919629
| 30> H 3.9355344254 1.9133500299 -1.2228546356
| 31> H 4.2576382506 3.0597497599 0.1045863377
| 32> H 6.3698223401 1.9775504726 -0.6567377711
| 33> H 5.9925857051 1.4959848772 1.0064592285
| 34> H 5.683242456 0.3800963761 -0.3308355589
| 35> H 0.9878868924 -1.0966533073 -1.8457871097
| 36> H -0.3634034726 -0.0893870936 -2.4888417883
| 37> H -2.0598827625 2.273242474 2.3820338873
| 38> H -3.4581832105 1.1827313469 2.1485459522
| 39> H -0.5561306284 0.2613218205 2.449252724
| 40> H -1.7747989287 0.2094923279 3.7345120655
| 41> H -1.9736040767 -0.78932863 2.2854123204
| 42> H -4.5048823584 -1.1055013308 -1.6767665957
| 43> H -3.8188961544 -2.365034753 -0.6180112704
| 44> H -6.3328321739 -0.7163958374 -0.0202139345
| 45> H -6.3133454926 -2.4074651096 -0.542227717
| 46> H -5.6491772331 -1.9587434817 1.0369138749
| 47> *
| 48>
| 49>                          ****END OF INPUT****

CARTESIAN COORDINATES (ANGSTROEM)
---------------------------------
  C      1.327647   -2.535049    2.167311
  C      2.117821   -1.270423    2.435066
  O      1.681410   -0.196100    1.562885
  P      2.430329    0.151553    0.215780
  S      3.344781   -1.335431   -0.684789
  O      3.352283    1.355473    0.693405
  C      4.285859    2.009351   -0.191076
  C      5.676372    1.425632   -0.030484
  S      0.926027    1.120878   -0.909001
  C      0.194879   -0.388527   -1.601121
  S     -0.923164   -1.202625   -0.444379
  P     -2.442323    0.299812   -0.497751
  S     -2.689309    1.088128   -2.274398
  O     -2.123013    1.397218    0.584281
  C     -2.382366    1.300380    2.007498
  C     -1.618870    0.168828    2.660915
  O     -3.706381   -0.438447    0.113507
  C     -4.412183   -1.447324   -0.640785
  C     -5.768792   -1.644612    0.004279
  H      0.263147   -2.346827    2.268393
  H      1.521364   -2.892172    1.158082
  H      1.630107   -3.298299    2.876888
  H      3.186837   -1.440892    2.284801
  H      1.943129   -0.891535    3.442920
  H      3.935534    1.913350   -1.222855
  H      4.257638    3.059750    0.104586
  H      6.369822    1.977550   -0.656738
  H      5.992586    1.495985    1.006459
  H      5.683242    0.380096   -0.330836
  H      0.987887   -1.096653   -1.845787
  H     -0.363403   -0.089387   -2.488842
  H     -2.059883    2.273242    2.382034
  H     -3.458183    1.182731    2.148546
  H     -0.556131    0.261322    2.449253
  H     -1.774799    0.209492    3.734512
  H     -1.973604   -0.789329    2.285412
  H     -4.504882   -1.105501   -1.676767
  H     -3.818896   -2.365035   -0.618011
  H     -6.332832   -0.716396   -0.020214
  H     -6.313345   -2.407465   -0.542228
  H     -5.649177   -1.958743    1.036914

 Total Charge           Charge          ....    0
 Multiplicity           Mult            ....    1
 Number of Electrons    NEL             ....  202
 Basis Dimension        Dim             ....  334

ORBITAL ENERGIES
----------------

  NO   OCC          E(Eh)            E(eV)
   0   2.0000     -88.040689     -2395.7090
   1   2.0000     -88.039129     -2395.6665
   2   2.0000     -87.990389     -2394.3402
   3   2.0000     -87.982358     -2394.1217
   4   2.0000     -76.428342     -2079.7209
   5   2.0000     -76.426389     -2079.6678
   6   2.0000     -18.800363      -511.5839
   7   2.0000     -18.794140      -511.4145
   8   2.0000     -18.793776      -511.4046
   9   2.0000     -18.790918      -511.3269
  10   2.0000      -9.957287      -270.9515
  11   2.0000      -9.956539      -270.9312
  12   2.0000      -9.956258      -270.9235
  13   2.0000      -9.955397      -270.9001
  14   2.0000      -9.948465      -270.7115
  15   2.0000      -9.892540      -269.1897
  16   2.0000      -9.885758      -269.0052
  17   2.0000      -9.882122      -268.9062
  18   2.0000      -9.882088      -268.9053
  19   2.0000      -7.685971      -209.1459
  20   2.0000      -7.684090      -209.0947
  21   2.0000      -7.635352      -207.7685
  22   2.0000      -7.627679      -207.5597
  23   2.0000      -6.426129      -174.8639
  24   2.0000      -6.423819      -174.8010
  25   2.0000      -5.713756      -155.4792
  26   2.0000      -5.711782      -155.4255
  27   2.0000      -5.710597      -155.3932
  28   2.0000      -5.708734      -155.3425
  29   2.0000      -5.702892      -155.1836
  30   2.0000      -5.701146      -155.1361
  31   2.0000      -5.664134      -154.1289
  32   2.0000      -5.656645      -153.9251
  33   2.0000      -5.656015      -153.9080
  34   2.0000      -5.655597      -153.8966
  35   2.0000      -5.648382      -153.7003
  36   2.0000      -5.647659      -153.6806
  37   2.0000      -4.648651      -126.4962
  38   2.0000      -4.647852      -126.4745
  39   2.0000      -4.646969      -126.4505
  40   2.0000      -4.646631      -126.4413
  41   2.0000      -4.645386      -126.4074
  42   2.0000      -4.643924      -126.3676
  43   2.0000      -0.991474       -26.9794
  44   2.0000      -0.988920       -26.9099
  45   2.0000      -0.947284       -25.7769
  46   2.0000      -0.946890       -25.7662
  47   2.0000      -0.763288       -20.7701
  48   2.0000      -0.723345       -19.6832
  49   2.0000      -0.711867       -19.3709
  50   2.0000      -0.695282       -18.9196
  51   2.0000      -0.686598       -18.6833
  52   2.0000      -0.675424       -18.3792
  53   2.0000      -0.650246       -17.6941
  54   2.0000      -0.635927       -17.3045
  55   2.0000      -0.596996       -16.2451
  56   2.0000      -0.591605       -16.0984
  57   2.0000      -0.576034       -15.6747
  58   2.0000      -0.573228       -15.5983
  59   2.0000      -0.559368       -15.2212
  60   2.0000      -0.509631       -13.8678
  61   2.0000      -0.504245       -13.7212
  62   2.0000      -0.478805       -13.0290
  63   2.0000      -0.474776       -12.9193
  64   2.0000      -0.458662       -12.4808
  65   2.0000      -0.447297       -12.1716
  66   2.0000      -0.442634       -12.0447
  67   2.0000      -0.437900       -11.9159
  68   2.0000      -0.430861       -11.7243
  69   2.0000      -0.416576       -11.3356
  70   2.0000      -0.404230       -10.9997
  71   2.0000      -0.401562       -10.9271
  72   2.0000      -0.399121       -10.8606
  73   2.0000      -0.386033       -10.5045
  74   2.0000      -0.376639       -10.2489
  75   2.0000      -0.371116       -10.0986
  76   2.0000      -0.369973       -10.0675
  77   2.0000      -0.358994        -9.7687
  78   2.0000      -0.356420        -9.6987
  79   2.0000      -0.351711        -9.5705
  80   2.0000      -0.349314        -9.5053
  81   2.0000      -0.346372        -9.4253
  82   2.0000      -0.342992        -9.3333
  83   2.0000      -0.338834        -9.2201
  84   2.0000      -0.333014        -9.0618
  85   2.0000      -0.324422        -8.8280
  86   2.0000      -0.308863        -8.4046
  87   2.0000      -0.305891        -8.3237
  88   2.0000      -0.300710        -8.1827
  89   2.0000      -0.295107        -8.0303
  90   2.0000      -0.290507        -7.9051
  91   2.0000      -0.281050        -7.6478
  92   2.0000      -0.274387        -7.4665
  93   2.0000      -0.265359        -7.2208
  94   2.0000      -0.255537        -6.9535
  95   2.0000      -0.233581        -6.3561
  96   2.0000      -0.220769        -6.0074
  97   2.0000      -0.211137        -5.7453
  98   2.0000      -0.202637        -5.5140
  99   2.0000      -0.201939        -5.4950
 100   2.0000      -0.195196        -5.3116
 101   0.0000      -0.045416        -1.2358
 102   0.0000      -0.024747        -0.6734
 103   0.0000      -0.004620        -0.1257
 104   0.0000       0.000597         0.0162
 105   0.0000       0.014918         0.4059

MULLIKEN ATOMIC CHARGES
-----------------------
   0 C :   -0.297836
   1 C :   -0.000764
   2 O :   -0.361980
   3 P :    0.603278
   4 S :   -0.336979
   5 O :   -0.371806
   6 C :   -0.009843
   7 C :   -0.291403
   8 S :   -0.055963
   9 C :   -0.383674
  10 S :   -0.102475
  11 P :    0.614396
  12 S :   -0.317977
  13 O :   -0.353977
  14 C :    0.017464
  15 C :   -0.367026
  16 O :   -0.390289
  17 C :   -0.010926
  18 C :   -0.281221
  19 H :    0.125136
  20 H :    0.122601
  21 H :    0.107114
  22 H :    0.108822
  23 H :    0.106676
  24 H :    0.105385
  25 H :    0.109131
  26 H :    0.108873
  27 H :    0.111596
  28 H :    0.128328
  29 H :    0.189605
  30 H :    0.198967
  31 H :    0.110745
  32 H :    0.107848
  33 H :    0.159267
  34 H :    0.109245
  35 H :    0.123404
  36 H :    0.109722
  37 H :    0.105410
  38 H :    0.122097
  39 H :    0.114860
  40 H :    0.114168
Sum of atomic charges:    0.0000000

LOEWDIN ATOMIC CHARGES
----------------------
   0 C :   -0.363284
   1 C :   -0.111776
   2 O :   -0.237337
   3 P :    0.570982
   4 S :   -0.320558
   5 O :   -0.248019
   6 C :   -0.115466
   7 C :   -0.362391
   8 S :    0.094865
   9 C :   -0.491504
  10 S :    0.070981
  11 P :    0.570202
  12 S :   -0.312448
  13 O :   -0.232586
  14 C :   -0.103934
  15 C :   -0.377903
  16 O :   -0.250212
  17 C :   -0.119185
  18 C :   -0.350375
  19 H :    0.123628
  20 H :    0.123065
  21 H :    0.128619
  22 H :    0.110912
  23 H :    0.118071
  24 H :    0.109384
  25 H :    0.119668
  26 H :    0.129415
  27 H :    0.124834
  28 H :    0.124637
  29 H :    0.126149
  30 H :    0.128620
  31 H :    0.123631
  32 H :    0.113652
  33 H :    0.131593
  34 H :    0.129268
  35 H :    0.115645
  36 H :    0.111493
  37 H :    0.110003
  38 H :    0.129664
  39 H :    0.132529
  40 H :    0.125470

  Mayer bond orders larger than 0.100000
B(  0-C ,  1-C ) :   1.1747 B(  0-C , 19-H ) :   0.9419 B(  0-C , 20-H ) :   0.9351
B(  0-C , 21-H ) :   0.9379 B(  1-C ,  2-O ) :   0.8739 B(  1-C , 22-H ) :   0.9140
B(  1-C , 23-H ) :   0.9326 B(  2-O ,  3-P ) :   1.1305 B(  3-P ,  4-S ) :   1.5787
B(  3-P ,  5-O ) :   1.1209 B(  3-P ,  8-S ) :   0.9793 B(  4-S ,  8-S ) :   0.1098
B(  5-O ,  6-C ) :   0.9003 B(  6-C ,  7-C ) :   1.1670 B(  6-C , 24-H ) :   0.9151
B(  6-C , 25-H ) :   0.9355 B(  7-C , 26-H ) :   0.9398 B(  7-C , 27-H ) :   0.9476
B(  7-C , 28-H ) :   0.9336 B(  8-S ,  9-C ) :   1.0045 B(  9-C , 10-S ) :   1.0093
B(  9-C , 29-H ) :   0.8658 B(  9-C , 30-H ) :   0.8668 B( 10-S , 11-P ) :   0.9405
B( 10-S , 12-S ) :   0.1130 B( 11-P , 12-S ) :   1.6446 B( 11-P , 13-O ) :   1.1467
B( 11-P , 16-O ) :   1.0749 B( 13-O , 14-C ) :   0.8965 B( 14-C , 15-C ) :   1.1691
B( 14-C , 31-H ) :   0.9334 B( 14-C , 32-H ) :   0.9292 B( 15-C , 33-H ) :   0.9193
B( 15-C , 34-H ) :   0.9340 B( 15-C , 35-H ) :   0.9355 B( 16-O , 17-C ) :   0.8981
B( 17-C , 18-C ) :   1.1600 B( 17-C , 36-H ) :   0.9097 B( 17-C , 37-H ) :   0.9288
B( 18-C , 38-H ) :   0.9505 B( 18-C , 39-H ) :   0.9415 B( 18-C , 40-H ) :   0.9513

Dispersion correction           -0.064366406
FINAL SINGLE POINT ENERGY     -2929.521418377781

DIPOLE MOMENT
-------------

Method             : SCF
Type of density    : Electron Density
Multiplicity       :   1
Irrep              :   0
Energy             : -2929.6417726849394967 Eh
Relativity type    :
Basis              : AO
                                X                 Y                 Z
Electronic contribution:      0.780793280       8.071428939     -15.504442882
Nuclear contribution   :     -0.990045608      -8.472628811      17.097963213
                        -----------------------------------------
Total Dipole Moment    :     -0.209252328      -0.401199872       1.593520331
                        -----------------------------------------
Magnitude (a.u.)       :      1.656518916
Magnitude (Debye)      :      4.210536468

Rotational constants in cm-1:             0.014078             0.004464             0.004163
Rotational constants in MHz :           422.052863           133.828149           124.799623

                             ****ORCA TERMINATED NORMALLY****
TOTAL RUN TIME: 0 days 0 hours 0 minutes 21 seconds 24 msec
