                         Program Version 6.0.0  -   RELEASE  -
|  1> ! pbe def2-sv(p) def2/J RI DEFGRID1 loosescf d4 GCP(DFT/SV(P)) printgap
|  2> %output
|  3>     printlevel normal
|  4> end
|  5> * xyz 0 1
|  6> C 5.2750229303 -2.5388346051 -1.333433016
|  7> C 4.2464039974 -1.4519188161 -1.5717119569
|  8> O 3.2768585152 -1.51978042 -0.5068731895
|  9> P 2.3148732506 -0.3033225893 -0.1618474817
| 10> S 3.2226738306 1.4339281642 -0.0276792084
| 11> O 1.6036792966 -0.8437532969 1.1427492914
| 12> C 2.1184758357 -0.5847636678 2.4723704481
| 13> C 1.2382018512 0.4242608094 3.1818209624
| 14> S 0.7696332373 -0.4670184785 -1.5876382939
| 15> C 0.1076632667 1.2087240743 -1.3618970624
| 16> S -0.6827634572 1.439342831 0.2427557286
| 17> P -2.57233279 0.5224730353 -0.2013232977
| 18> S -2.9672687269 0.2416309715 -2.0951088544
| 19> O -3.6353837333 1.488575472 0.4362064869
| 20> C -3.5851626911 1.9555168765 1.8083380738
| 21> C -4.4730400456 1.1111828425 2.6992595857
| 22> O -2.6453282196 -0.7284938616 0.7842077393
| 23> C -1.7466133628 -1.849633418 0.7947998344
| 24> C -1.9366563357 -2.7584245704 -0.4027921625
| 25> H 6.0028327629 -2.5226389587 -2.1379677998
| 26> H 5.7822771352 -2.3734765839 -0.3871906712
| 27> H 4.7876802508 -3.5090731838 -1.3073181248
| 28> H 3.7222509945 -1.598628633 -2.5197815253
| 29> H 4.7035319334 -0.4564948892 -1.5647558219
| 30> H 2.1088928379 -1.5534703789 2.9739051865
| 31> H 3.1459877415 -0.2190790555 2.3953650352
| 32> H 0.2110050781 0.0719763899 3.211853146
| 33> H 1.6012949226 0.5644742853 4.1947360939
| 34> H 1.2640268482 1.3772614572 2.6572875314
| 35> H -0.6232627374 1.3622907781 -2.1562798454
| 36> H 0.9244444774 1.9279605873 -1.4164332336
| 37> H -2.5460471662 1.9429799247 2.1487837108
| 38> H -3.9399973543 2.9862806215 1.7562529482
| 39> H -5.4916185733 1.1192371105 2.3213150826
| 40> H -4.1189488406 0.0844869638 2.7241064541
| 41> H -4.4598703662 1.5215813063 3.704118065
| 42> H -0.7167375594 -1.4834879973 0.8450039054
| 43> H -1.9930837763 -2.3682267698 1.723639939
| 44> H -1.6562293013 -2.2462166021 -1.3212929109
| 45> H -1.3089114809 -3.6361791876 -0.2868709166
| 46> H -2.9765882103 -3.0649551672 -0.4808468827
| 47> *
| 48>
| 49>                          ****END OF INPUT****

CARTESIAN COORDINATES (ANGSTROEM)
---------------------------------
  C      5.275023   -2.538835   -1.333433
  C      4.246404   -1.451919   -1.571712
  O      3.276859   -1.519780   -0.506873
  P      2.314873   -0.303323   -0.161847
  S      3.222674    1.433928   -0.027679
  O      1.603679   -0.843753    1.142749
  C      2.118476   -0.584764    2.472370
  C      1.238202    0.424261    3.181821
  S      0.769633   -0.467018   -1.587638
  C      0.107663    1.208724   -1.361897
  S     -0.682763    1.439343    0.242756
  P     -2.572333    0.522473   -0.201323
  S     -2.967269    0.241631   -2.095109
  O     -3.635384    1.488575    0.436206
  C     -3.585163    1.955517    1.808338
  C     -4.473040    1.111183    2.699260
  O     -2.645328   -0.728494    0.784208
  C     -1.746613   -1.849633    0.794800
  C     -1.936656   -2.758425   -0.402792
  H      6.002833   -2.522639   -2.137968
  H      5.782277   -2.373477   -0.387191
  H      4.787680   -3.509073   -1.307318
  H      3.722251   -1.598629   -2.519782
  H      4.703532   -0.456495   -1.564756
  H      2.108893   -1.553470    2.973905
  H      3.145988   -0.219079    2.395365
  H      0.211005    0.071976    3.211853
  H      1.601295    0.564474    4.194736
  H      1.264027    1.377261    2.657288
  H     -0.623263    1.362291   -2.156280
  H      0.924444    1.927961   -1.416433
  H     -2.546047    1.942980    2.148784
  H     -3.939997    2.986281    1.756253
  H     -5.491619    1.119237    2.321315
  H     -4.118949    0.084487    2.724106
  H     -4.459870    1.521581    3.704118
  H     -0.716738   -1.483488    0.845004
  H     -1.993084   -2.368227    1.723640
  H     -1.656229   -2.246217   -1.321293
  H     -1.308911   -3.636179   -0.286871
  H     -2.976588   -3.064955   -0.480847

 Total Charge           Charge          ....    0
 Multiplicity           Mult            ....    1
 Number of Electrons    NEL             ....  202
 Basis Dimension        Dim             ....  334

ORBITAL ENERGIES
----------------

  NO   OCC          E(Eh)            E(eV)
   0   2.0000     -88.046590     -2395.8695
   1   2.0000     -88.041786     -2395.7388
   2   2.0000     -87.993185     -2394.4163
   3   2.0000     -87.985637     -2394.2109
   4   2.0000     -76.430898     -2079.7905
   5   2.0000     -76.426371     -2079.6673
   6   2.0000     -18.797323      -511.5012
   7   2.0000     -18.796482      -511.4783
   8   2.0000     -18.792420      -511.3677
   9   2.0000     -18.791385      -511.3396
  10   2.0000      -9.960710      -271.0447
  11   2.0000      -9.959137      -271.0019
  12   2.0000      -9.955853      -270.9125
  13   2.0000      -9.953288      -270.8427
  14   2.0000      -9.947779      -270.6928
  15   2.0000      -9.891336      -269.1569
  16   2.0000      -9.888667      -269.0843
  17   2.0000      -9.887185      -269.0440
  18   2.0000      -9.874101      -268.6879
  19   2.0000      -7.691652      -209.3005
  20   2.0000      -7.686429      -209.1584
  21   2.0000      -7.638115      -207.8437
  22   2.0000      -7.630871      -207.6466
  23   2.0000      -6.428732      -174.9347
  24   2.0000      -6.423734      -174.7987
  25   2.0000      -5.719414      -155.6332
  26   2.0000      -5.716247      -155.5470
  27   2.0000      -5.714269      -155.4932
  28   2.0000      -5.710956      -155.4030
  29   2.0000      -5.708647      -155.3402
  30   2.0000      -5.703488      -155.1998
  31   2.0000      -5.666894      -154.2040
  32   2.0000      -5.659955      -154.0152
  33   2.0000      -5.658848      -153.9851
  34   2.0000      -5.658329      -153.9710
  35   2.0000      -5.651450      -153.7838
  36   2.0000      -5.650850      -153.7674
  37   2.0000      -4.651174      -126.5649
  38   2.0000      -4.650518      -126.5470
  39   2.0000      -4.649222      -126.5118
  40   2.0000      -4.646447      -126.4363
  41   2.0000      -4.645617      -126.4137
  42   2.0000      -4.643994      -126.3695
  43   2.0000      -0.992113       -26.9968
  44   2.0000      -0.987837       -26.8804
  45   2.0000      -0.950311       -25.8593
  46   2.0000      -0.943840       -25.6832
  47   2.0000      -0.765890       -20.8409
  48   2.0000      -0.725558       -19.7434
  49   2.0000      -0.713966       -19.4280
  50   2.0000      -0.692400       -18.8411
  51   2.0000      -0.687584       -18.7101
  52   2.0000      -0.675096       -18.3703
  53   2.0000      -0.650952       -17.7133
  54   2.0000      -0.641479       -17.4555
  55   2.0000      -0.599632       -16.3168
  56   2.0000      -0.587655       -15.9909
  57   2.0000      -0.575510       -15.6604
  58   2.0000      -0.573715       -15.6116
  59   2.0000      -0.563619       -15.3369
  60   2.0000      -0.514098       -13.9893
  61   2.0000      -0.500955       -13.6317
  62   2.0000      -0.483047       -13.1444
  63   2.0000      -0.474624       -12.9152
  64   2.0000      -0.460038       -12.5183
  65   2.0000      -0.447936       -12.1890
  66   2.0000      -0.444157       -12.0861
  67   2.0000      -0.439201       -11.9513
  68   2.0000      -0.429036       -11.6747
  69   2.0000      -0.418346       -11.3838
  70   2.0000      -0.404935       -11.0188
  71   2.0000      -0.400367       -10.8946
  72   2.0000      -0.389244       -10.5919
  73   2.0000      -0.387870       -10.5545
  74   2.0000      -0.385588       -10.4924
  75   2.0000      -0.379421       -10.3246
  76   2.0000      -0.365792        -9.9537
  77   2.0000      -0.357944        -9.7402
  78   2.0000      -0.357246        -9.7211
  79   2.0000      -0.355118        -9.6632
  80   2.0000      -0.351619        -9.5680
  81   2.0000      -0.346025        -9.4158
  82   2.0000      -0.341058        -9.2806
  83   2.0000      -0.340259        -9.2589
  84   2.0000      -0.332228        -9.0404
  85   2.0000      -0.323405        -8.8003
  86   2.0000      -0.313488        -8.5304
  87   2.0000      -0.304758        -8.2929
  88   2.0000      -0.298780        -8.1302
  89   2.0000      -0.289854        -7.8873
  90   2.0000      -0.287535        -7.8242
  91   2.0000      -0.282306        -7.6819
  92   2.0000      -0.277239        -7.5441
  93   2.0000      -0.266480        -7.2513
  94   2.0000      -0.258775        -7.0416
  95   2.0000      -0.238213        -6.4821
  96   2.0000      -0.218970        -5.9585
  97   2.0000      -0.214889        -5.8474
  98   2.0000      -0.207366        -5.6427
  99   2.0000      -0.203709        -5.5432
 100   2.0000      -0.199319        -5.4237
 101   0.0000      -0.048389        -1.3167
 102   0.0000      -0.029987        -0.8160
 103   0.0000      -0.008478        -0.2307
 104   0.0000       0.000907         0.0247
 105   0.0000       0.006407         0.1744

MULLIKEN ATOMIC CHARGES
-----------------------
   0 C :   -0.280987
   1 C :   -0.012132
   2 O :   -0.375724
   3 P :    0.611922
   4 S :   -0.336455
   5 O :   -0.359777
   6 C :   -0.003147
   7 C :   -0.289750
   8 S :   -0.082233
   9 C :   -0.353697
  10 S :   -0.118436
  11 P :    0.606727
  12 S :   -0.305910
  13 O :   -0.354524
  14 C :   -0.019463
  15 C :   -0.288786
  16 O :   -0.379231
  17 C :   -0.045829
  18 C :   -0.302472
  19 H :    0.113988
  20 H :    0.117572
  21 H :    0.117660
  22 H :    0.104327
  23 H :    0.107899
  24 H :    0.107495
  25 H :    0.107587
  26 H :    0.114116
  27 H :    0.109098
  28 H :    0.129862
  29 H :    0.195268
  30 H :    0.195109
  31 H :    0.108988
  32 H :    0.115033
  33 H :    0.122560
  34 H :    0.123808
  35 H :    0.109371
  36 H :    0.140580
  37 H :    0.096701
  38 H :    0.135878
  39 H :    0.104085
  40 H :    0.112917
Sum of atomic charges:   -0.0000000

LOEWDIN ATOMIC CHARGES
----------------------
   0 C :   -0.350394
   1 C :   -0.120084
   2 O :   -0.250049
   3 P :    0.566867
   4 S :   -0.323895
   5 O :   -0.237480
   6 C :   -0.111634
   7 C :   -0.358996
   8 S :    0.096233
   9 C :   -0.484412
  10 S :    0.069885
  11 P :    0.567818
  12 S :   -0.294980
  13 O :   -0.234953
  14 C :   -0.111324
  15 C :   -0.358961
  16 O :   -0.245649
  17 C :   -0.126820
  18 C :   -0.367687
  19 H :    0.131814
  20 H :    0.127681
  21 H :    0.127333
  22 H :    0.111395
  23 H :    0.108614
  24 H :    0.118294
  25 H :    0.110558
  26 H :    0.122412
  27 H :    0.128721
  28 H :    0.125316
  29 H :    0.128999
  30 H :    0.130353
  31 H :    0.104191
  32 H :    0.123839
  33 H :    0.130581
  34 H :    0.127186
  35 H :    0.129177
  36 H :    0.105194
  37 H :    0.114746
  38 H :    0.117030
  39 H :    0.127915
  40 H :    0.125165

  Mayer bond orders larger than 0.100000
B(  0-C ,  1-C ) :   1.1607 B(  0-C , 19-H ) :   0.9418 B(  0-C , 20-H ) :   0.9513
B(  0-C , 21-H ) :   0.9508 B(  1-C ,  2-O ) :   0.9034 B(  1-C , 22-H ) :   0.9294
B(  1-C , 23-H ) :   0.9097 B(  2-O ,  3-P ) :   1.1165 B(  3-P ,  4-S ) :   1.5986
B(  3-P ,  5-O ) :   1.1274 B(  3-P ,  8-S ) :   0.9716 B(  4-S ,  8-S ) :   0.1084
B(  5-O ,  6-C ) :   0.8819 B(  6-C ,  7-C ) :   1.1726 B(  6-C , 24-H ) :   0.9338
B(  6-C , 25-H ) :   0.9098 B(  7-C , 26-H ) :   0.9479 B(  7-C , 27-H ) :   0.9393
B(  7-C , 28-H ) :   0.9384 B(  8-S ,  9-C ) :   0.9981 B(  9-C , 10-S ) :   1.0180
B(  9-C , 29-H ) :   0.8665 B(  9-C , 30-H ) :   0.8749 B( 10-S , 11-P ) :   0.9325
B( 10-S , 12-S ) :   0.1120 B( 11-P , 12-S ) :   1.6531 B( 11-P , 13-O ) :   1.1457
B( 11-P , 16-O ) :   1.0813 B( 13-O , 14-C ) :   0.8938 B( 14-C , 15-C ) :   1.1648
B( 14-C , 31-H ) :   0.9152 B( 14-C , 32-H ) :   0.9356 B( 15-C , 33-H ) :   0.9465
B( 15-C , 34-H ) :   0.9413 B( 15-C , 35-H ) :   0.9394 B( 16-O , 17-C ) :   0.9071
B( 17-C , 18-C ) :   1.1676 B( 17-C , 36-H ) :   0.8945 B( 17-C , 37-H ) :   0.9341
B( 18-C , 38-H ) :   0.9284 B( 18-C , 39-H ) :   0.9381 B( 18-C , 40-H ) :   0.9453

Dispersion correction           -0.064484430
FINAL SINGLE POINT ENERGY     -2929.523889003523

DIPOLE MOMENT
-------------

Method             : SCF
Type of density    : Electron Density
Multiplicity       :   1
Irrep              :   0
Energy             : -2929.6441025278031702 Eh
Relativity type    :
Basis              : AO
                                X                 Y                 Z
Electronic contribution:     -3.642891021      10.873111669     -15.004258979
Nuclear contribution   :      4.348864591     -11.623129940      16.474116791
                        -----------------------------------------
Total Dipole Moment    :      0.705973570      -0.750018271       1.469857812
                        -----------------------------------------
Magnitude (a.u.)       :      1.794828147
Magnitude (Debye)      :      4.562090594

Rotational constants in cm-1:             0.012955             0.004746             0.004387
Rotational constants in MHz :           388.393239           142.276224           131.527256

                             ****ORCA TERMINATED NORMALLY****
TOTAL RUN TIME: 0 days 0 hours 0 minutes 21 seconds 148 msec
