                         Program Version 6.0.0  -   RELEASE  -
|  1> ! r2scan-3c def2/J RI DEFGRID2 scfconv6 printgap
|  2> %output
|  3>     printlevel normal
|  4> end
|  5> * xyz 0 1
|  6> C 5.2538303458 -1.5754872634 -0.9827558301
|  7> C 4.2357161493 -0.4881418172 -1.2635314838
|  8> O 3.1572242624 -0.6351761122 -0.3207264633
|  9> P 2.2110733953 0.5866639405 0.0741993911
| 10> S 3.1205691384 2.2996762227 0.3413284547
| 11> O 1.4173815972 0.0027923643 1.3103298835
| 12> C 1.9063360465 0.1468528175 2.6632205649
| 13> C 3.1927461084 -0.6189303416 2.8836126169
| 14> S 0.6979260675 0.577927724 -1.4045099079
| 15> C 0.1722705756 -1.1609295777 -1.2596620123
| 16> S -0.9459057004 -1.4780502631 0.1268493644
| 17> P -2.4414495636 -0.0668814498 -0.4249501004
| 18> S -2.7925626447 0.1322482563 -2.3364466931
| 19> O -1.9923676184 1.2951329372 0.2397564796
| 20> C -1.6945702304 1.4517922992 1.6458698557
| 21> C -2.8956399608 1.9836297107 2.399642935
| 22> O -3.689508828 -0.4864163115 0.4674659814
| 23> C -4.6665793242 -1.4483851662 0.0269836533
| 24> C -4.0869257195 -2.8412927442 -0.1077286994
| 25> H 4.7884233869 -2.5531577795 -1.0662417552
| 26> H 6.061019316 -1.4994991428 -1.7038408355
| 27> H 5.6580774318 -1.4616820899 0.019001431
| 28> H 3.8244616906 -0.575967126 -2.273090546
| 29> H 4.6709501203 0.5099174029 -1.1442860211
| 30> H 2.0509930284 1.2125710729 2.8654703587
| 31> H 1.092057663 -0.2444997845 3.2743369893
| 32> H 3.0682357446 -1.656487356 2.5856234959
| 33> H 3.9923783692 -0.1725962746 2.2941673599
| 34> H 3.4620660127 -0.5727721694 3.9341876462
| 35> H 1.0396225391 -1.8003610624 -1.1169184838
| 36> H -0.3443647349 -1.3819213402 -2.1928147793
| 37> H -1.3686957671 0.4878319327 2.0480746672
| 38> H -0.8615137341 2.1593031775 1.6708694244
| 39> H -3.7083982202 1.2632655646 2.3670415124
| 40> H -2.6142053009 2.1640553723 3.4324058798
| 41> H -3.2321991439 2.9144489391 1.9513061702
| 42> H -5.4376848356 -1.405534007 0.7974991063
| 43> H -5.0756603363 -1.1077557388 -0.9289142429
| 44> H -3.3805063559 -2.8719489976 -0.935493692
| 45> H -3.5722092551 -3.1285934558 0.8056146228
| 46> H -4.8902827789 -3.5434685652 -0.3061050022
| 47> *
| 48>
| 49>                          ****END OF INPUT****

CARTESIAN COORDINATES (ANGSTROEM)
---------------------------------
  C      5.253830   -1.575487   -0.982756
  C      4.235716   -0.488142   -1.263531
  O      3.157224   -0.635176   -0.320726
  P      2.211073    0.586664    0.074199
  S      3.120569    2.299676    0.341328
  O      1.417382    0.002792    1.310330
  C      1.906336    0.146853    2.663221
  C      3.192746   -0.618930    2.883613
  S      0.697926    0.577928   -1.404510
  C      0.172271   -1.160930   -1.259662
  S     -0.945906   -1.478050    0.126849
  P     -2.441450   -0.066881   -0.424950
  S     -2.792563    0.132248   -2.336447
  O     -1.992368    1.295133    0.239756
  C     -1.694570    1.451792    1.645870
  C     -2.895640    1.983630    2.399643
  O     -3.689509   -0.486416    0.467466
  C     -4.666579   -1.448385    0.026984
  C     -4.086926   -2.841293   -0.107729
  H      4.788423   -2.553158   -1.066242
  H      6.061019   -1.499499   -1.703841
  H      5.658077   -1.461682    0.019001
  H      3.824462   -0.575967   -2.273091
  H      4.670950    0.509917   -1.144286
  H      2.050993    1.212571    2.865470
  H      1.092058   -0.244500    3.274337
  H      3.068236   -1.656487    2.585623
  H      3.992378   -0.172596    2.294167
  H      3.462066   -0.572772    3.934188
  H      1.039623   -1.800361   -1.116918
  H     -0.344365   -1.381921   -2.192815
  H     -1.368696    0.487832    2.048075
  H     -0.861514    2.159303    1.670869
  H     -3.708398    1.263266    2.367042
  H     -2.614205    2.164055    3.432406
  H     -3.232199    2.914449    1.951306
  H     -5.437685   -1.405534    0.797499
  H     -5.075660   -1.107756   -0.928914
  H     -3.380506   -2.871949   -0.935494
  H     -3.572209   -3.128593    0.805615
  H     -4.890283   -3.543469   -0.306105

 Total Charge           Charge          ....    0
 Multiplicity           Mult            ....    1
 Number of Electrons    NEL             ....  202
 Basis Dimension        Dim             ....  539

ORBITAL ENERGIES
----------------

  NO   OCC          E(Eh)            E(eV)
   0   2.0000     -88.573448     -2410.2060
   1   2.0000     -88.572543     -2410.1814
   2   2.0000     -88.521799     -2408.8006
   3   2.0000     -88.519305     -2408.7328
   4   2.0000     -76.914542     -2092.9511
   5   2.0000     -76.913433     -2092.9209
   6   2.0000     -18.994899      -516.8775
   7   2.0000     -18.994319      -516.8617
   8   2.0000     -18.993898      -516.8502
   9   2.0000     -18.986304      -516.6436
  10   2.0000     -10.108414      -275.0639
  11   2.0000     -10.104370      -274.9539
  12   2.0000     -10.101082      -274.8644
  13   2.0000     -10.100770      -274.8559
  14   2.0000     -10.097564      -274.7687
  15   2.0000     -10.036888      -273.1176
  16   2.0000     -10.034189      -273.0442
  17   2.0000     -10.030374      -272.9404
  18   2.0000     -10.028313      -272.8843
  19   2.0000      -7.867238      -214.0784
  20   2.0000      -7.867197      -214.0773
  21   2.0000      -7.816421      -212.6956
  22   2.0000      -7.814039      -212.6308
  23   2.0000      -6.593031      -179.4055
  24   2.0000      -6.591729      -179.3701
  25   2.0000      -5.814540      -158.2217
  26   2.0000      -5.814099      -158.2097
  27   2.0000      -5.811078      -158.1275
  28   2.0000      -5.810714      -158.1176
  29   2.0000      -5.804309      -157.9433
  30   2.0000      -5.804266      -157.9421
  31   2.0000      -5.764028      -156.8472
  32   2.0000      -5.761765      -156.7856
  33   2.0000      -5.756770      -156.6497
  34   2.0000      -5.756418      -156.6401
  35   2.0000      -5.754267      -156.5816
  36   2.0000      -5.754019      -156.5748
  37   2.0000      -4.738392      -128.9382
  38   2.0000      -4.738170      -128.9322
  39   2.0000      -4.737570      -128.9158
  40   2.0000      -4.736685      -128.8917
  41   2.0000      -4.736657      -128.8910
  42   2.0000      -4.735197      -128.8513
  43   2.0000      -1.053114       -28.6567
  44   2.0000      -1.049728       -28.5646
  45   2.0000      -1.014445       -27.6044
  46   2.0000      -1.008814       -27.4512
  47   2.0000      -0.800621       -21.7860
  48   2.0000      -0.760924       -20.7058
  49   2.0000      -0.750436       -20.4204
  50   2.0000      -0.737897       -20.0792
  51   2.0000      -0.734300       -19.9813
  52   2.0000      -0.710688       -19.3388
  53   2.0000      -0.688549       -18.7364
  54   2.0000      -0.668768       -18.1981
  55   2.0000      -0.632833       -17.2202
  56   2.0000      -0.625373       -17.0173
  57   2.0000      -0.606442       -16.5021
  58   2.0000      -0.604202       -16.4412
  59   2.0000      -0.594220       -16.1695
  60   2.0000      -0.532683       -14.4950
  61   2.0000      -0.522914       -14.2292
  62   2.0000      -0.500320       -13.6144
  63   2.0000      -0.493521       -13.4294
  64   2.0000      -0.482004       -13.1160
  65   2.0000      -0.466374       -12.6907
  66   2.0000      -0.458333       -12.4719
  67   2.0000      -0.453494       -12.3402
  68   2.0000      -0.444861       -12.1053
  69   2.0000      -0.438047       -11.9199
  70   2.0000      -0.432321       -11.7640
  71   2.0000      -0.422237       -11.4897
  72   2.0000      -0.407931       -11.1004
  73   2.0000      -0.399210       -10.8631
  74   2.0000      -0.396403       -10.7867
  75   2.0000      -0.387857       -10.5541
  76   2.0000      -0.382037       -10.3958
  77   2.0000      -0.377537       -10.2733
  78   2.0000      -0.376006       -10.2317
  79   2.0000      -0.368309       -10.0222
  80   2.0000      -0.367946       -10.0123
  81   2.0000      -0.362188        -9.8556
  82   2.0000      -0.360561        -9.8114
  83   2.0000      -0.357559        -9.7297
  84   2.0000      -0.347729        -9.4622
  85   2.0000      -0.336101        -9.1458
  86   2.0000      -0.329473        -8.9654
  87   2.0000      -0.314490        -8.5577
  88   2.0000      -0.311056        -8.4643
  89   2.0000      -0.309089        -8.4107
  90   2.0000      -0.305342        -8.3088
  91   2.0000      -0.293978        -7.9995
  92   2.0000      -0.283654        -7.7186
  93   2.0000      -0.278475        -7.5777
  94   2.0000      -0.274020        -7.4565
  95   2.0000      -0.242521        -6.5993
  96   2.0000      -0.230259        -6.2657
  97   2.0000      -0.222102        -6.0437
  98   2.0000      -0.219654        -5.9771
  99   2.0000      -0.214829        -5.8458
 100   2.0000      -0.212936        -5.7943
 101   0.0000      -0.042808        -1.1649
 102   0.0000      -0.018158        -0.4941
 103   0.0000      -0.009494        -0.2584
 104   0.0000       0.003849         0.1047
 105   0.0000       0.008649         0.2353

MULLIKEN ATOMIC CHARGES
-----------------------
   0 C :   -0.438422
   1 C :   -0.144852
   2 O :   -0.286935
   3 P :    0.671252
   4 S :   -0.467595
   5 O :   -0.252507
   6 C :   -0.162906
   7 C :   -0.445394
   8 S :   -0.116538
   9 C :   -0.262488
  10 S :   -0.155604
  11 P :    0.653528
  12 S :   -0.436420
  13 O :   -0.257119
  14 C :   -0.105711
  15 C :   -0.480105
  16 O :   -0.290218
  17 C :   -0.166919
  18 C :   -0.445322
  19 H :    0.150639
  20 H :    0.148955
  21 H :    0.153991
  22 H :    0.152368
  23 H :    0.172746
  24 H :    0.174672
  25 H :    0.150563
  26 H :    0.157361
  27 H :    0.169823
  28 H :    0.148485
  29 H :    0.197356
  30 H :    0.214922
  31 H :    0.158945
  32 H :    0.166417
  33 H :    0.163972
  34 H :    0.144224
  35 H :    0.160678
  36 H :    0.147800
  37 H :    0.176559
  38 H :    0.179418
  39 H :    0.152500
  40 H :    0.147883
Sum of atomic charges:    0.0000000

LOEWDIN ATOMIC CHARGES
----------------------
   0 C :   -0.386047
   1 C :    0.020108
   2 O :   -0.689295
   3 P :    0.364491
   4 S :   -0.116346
   5 O :   -0.689955
   6 C :    0.019904
   7 C :   -0.399067
   8 S :    0.195147
   9 C :   -0.414162
  10 S :    0.149111
  11 P :    0.377096
  12 S :   -0.095644
  13 O :   -0.653691
  14 C :    0.019633
  15 C :   -0.393519
  16 O :   -0.672214
  17 C :    0.021388
  18 C :   -0.409397
  19 H :    0.158340
  20 H :    0.160717
  21 H :    0.159490
  22 H :    0.171695
  23 H :    0.182707
  24 H :    0.180596
  25 H :    0.179180
  26 H :    0.161707
  27 H :    0.166224
  28 H :    0.159926
  29 H :    0.188437
  30 H :    0.191108
  31 H :    0.175985
  32 H :    0.185157
  33 H :    0.165250
  34 H :    0.157762
  35 H :    0.163035
  36 H :    0.178984
  37 H :    0.181133
  38 H :    0.166207
  39 H :    0.159548
  40 H :    0.159271

  Mayer bond orders larger than 0.100000
B(  0-C ,  1-C ) :   0.9526 B(  0-C , 19-H ) :   0.9720 B(  0-C , 20-H ) :   0.9656
B(  0-C , 21-H ) :   0.9717 B(  1-C ,  2-O ) :   0.7774 B(  1-C , 22-H ) :   0.9462
B(  1-C , 23-H ) :   0.9490 B(  2-O ,  3-P ) :   1.0462 B(  3-P ,  4-S ) :   1.8022
B(  3-P ,  5-O ) :   1.1294 B(  3-P ,  8-S ) :   1.0658 B(  5-O ,  6-C ) :   0.7807
B(  6-C ,  7-C ) :   0.9255 B(  6-C , 24-H ) :   0.9609 B(  6-C , 25-H ) :   0.9609
B(  7-C , 26-H ) :   0.9725 B(  7-C , 27-H ) :   0.9606 B(  7-C , 28-H ) :   0.9602
B(  8-S ,  9-C ) :   0.9128 B(  9-C , 10-S ) :   0.9134 B(  9-C , 29-H ) :   0.9160
B(  9-C , 30-H ) :   0.9162 B( 10-S , 11-P ) :   1.0144 B( 11-P , 12-S ) :   1.8342
B( 11-P , 13-O ) :   1.1486 B( 11-P , 16-O ) :   1.0341 B( 13-O , 14-C ) :   0.7381
B( 14-C , 15-C ) :   0.9327 B( 14-C , 31-H ) :   0.9656 B( 14-C , 32-H ) :   0.9548
B( 15-C , 33-H ) :   0.9695 B( 15-C , 34-H ) :   0.9659 B( 15-C , 35-H ) :   0.9740
B( 16-O , 17-C ) :   0.8177 B( 17-C , 18-C ) :   0.9155 B( 17-C , 36-H ) :   0.9617
B( 17-C , 37-H ) :   0.9696 B( 18-C , 38-H ) :   0.9643 B( 18-C , 39-H ) :   0.9671
B( 18-C , 40-H ) :   0.9565

Dispersion correction           -0.021357236
FINAL SINGLE POINT ENERGY     -2932.460178342813

DIPOLE MOMENT
-------------

Method             : SCF
Type of density    : Electron Density
Multiplicity       :   1
Irrep              :   0
Energy             : -2932.4851164366555167 Eh
Relativity type    :
Basis              : AO
                                X                 Y                 Z
Electronic contribution:     -4.831280636      11.217773986     -14.355657021
Nuclear contribution   :      5.086789899     -12.950867735      15.798543480
                        -----------------------------------------
Total Dipole Moment    :      0.255509264      -1.733093750       1.442886459
                        -----------------------------------------
Magnitude (a.u.)       :      2.269541862
Magnitude (Debye)      :      5.768716965

Rotational constants in cm-1:             0.012947             0.004694             0.004374
Rotational constants in MHz :           388.152503           140.712148           131.115723

                             ****ORCA TERMINATED NORMALLY****
TOTAL RUN TIME: 0 days 0 hours 1 minutes 20 seconds 677 msec
