                         Program Version 6.0.0  -   RELEASE  -
|  1> ! r2scan-3c def2/J RI DEFGRID2 scfconv6 printgap
|  2> %output
|  3>     printlevel normal
|  4> end
|  5> %cpcm
|  6>     smd true
|  7>     smdsolvent "water"
|  8> end
|  9> * xyz 0 1
| 10> C 5.2538303458 -1.5754872634 -0.9827558301
| 11> C 4.2357161493 -0.4881418172 -1.2635314838
| 12> O 3.1572242624 -0.6351761122 -0.3207264633
| 13> P 2.2110733953 0.5866639405 0.0741993911
| 14> S 3.1205691384 2.2996762227 0.3413284547
| 15> O 1.4173815972 0.0027923643 1.3103298835
| 16> C 1.9063360465 0.1468528175 2.6632205649
| 17> C 3.1927461084 -0.6189303416 2.8836126169
| 18> S 0.6979260675 0.577927724 -1.4045099079
| 19> C 0.1722705756 -1.1609295777 -1.2596620123
| 20> S -0.9459057004 -1.4780502631 0.1268493644
| 21> P -2.4414495636 -0.0668814498 -0.4249501004
| 22> S -2.7925626447 0.1322482563 -2.3364466931
| 23> O -1.9923676184 1.2951329372 0.2397564796
| 24> C -1.6945702304 1.4517922992 1.6458698557
| 25> C -2.8956399608 1.9836297107 2.399642935
| 26> O -3.689508828 -0.4864163115 0.4674659814
| 27> C -4.6665793242 -1.4483851662 0.0269836533
| 28> C -4.0869257195 -2.8412927442 -0.1077286994
| 29> H 4.7884233869 -2.5531577795 -1.0662417552
| 30> H 6.061019316 -1.4994991428 -1.7038408355
| 31> H 5.6580774318 -1.4616820899 0.019001431
| 32> H 3.8244616906 -0.575967126 -2.273090546
| 33> H 4.6709501203 0.5099174029 -1.1442860211
| 34> H 2.0509930284 1.2125710729 2.8654703587
| 35> H 1.092057663 -0.2444997845 3.2743369893
| 36> H 3.0682357446 -1.656487356 2.5856234959
| 37> H 3.9923783692 -0.1725962746 2.2941673599
| 38> H 3.4620660127 -0.5727721694 3.9341876462
| 39> H 1.0396225391 -1.8003610624 -1.1169184838
| 40> H -0.3443647349 -1.3819213402 -2.1928147793
| 41> H -1.3686957671 0.4878319327 2.0480746672
| 42> H -0.8615137341 2.1593031775 1.6708694244
| 43> H -3.7083982202 1.2632655646 2.3670415124
| 44> H -2.6142053009 2.1640553723 3.4324058798
| 45> H -3.2321991439 2.9144489391 1.9513061702
| 46> H -5.4376848356 -1.405534007 0.7974991063
| 47> H -5.0756603363 -1.1077557388 -0.9289142429
| 48> H -3.3805063559 -2.8719489976 -0.935493692
| 49> H -3.5722092551 -3.1285934558 0.8056146228
| 50> H -4.8902827789 -3.5434685652 -0.3061050022
| 51> *
| 52>
| 53>                          ****END OF INPUT****

CARTESIAN COORDINATES (ANGSTROEM)
---------------------------------
  C      5.253830   -1.575487   -0.982756
  C      4.235716   -0.488142   -1.263531
  O      3.157224   -0.635176   -0.320726
  P      2.211073    0.586664    0.074199
  S      3.120569    2.299676    0.341328
  O      1.417382    0.002792    1.310330
  C      1.906336    0.146853    2.663221
  C      3.192746   -0.618930    2.883613
  S      0.697926    0.577928   -1.404510
  C      0.172271   -1.160930   -1.259662
  S     -0.945906   -1.478050    0.126849
  P     -2.441450   -0.066881   -0.424950
  S     -2.792563    0.132248   -2.336447
  O     -1.992368    1.295133    0.239756
  C     -1.694570    1.451792    1.645870
  C     -2.895640    1.983630    2.399643
  O     -3.689509   -0.486416    0.467466
  C     -4.666579   -1.448385    0.026984
  C     -4.086926   -2.841293   -0.107729
  H      4.788423   -2.553158   -1.066242
  H      6.061019   -1.499499   -1.703841
  H      5.658077   -1.461682    0.019001
  H      3.824462   -0.575967   -2.273091
  H      4.670950    0.509917   -1.144286
  H      2.050993    1.212571    2.865470
  H      1.092058   -0.244500    3.274337
  H      3.068236   -1.656487    2.585623
  H      3.992378   -0.172596    2.294167
  H      3.462066   -0.572772    3.934188
  H      1.039623   -1.800361   -1.116918
  H     -0.344365   -1.381921   -2.192815
  H     -1.368696    0.487832    2.048075
  H     -0.861514    2.159303    1.670869
  H     -3.708398    1.263266    2.367042
  H     -2.614205    2.164055    3.432406
  H     -3.232199    2.914449    1.951306
  H     -5.437685   -1.405534    0.797499
  H     -5.075660   -1.107756   -0.928914
  H     -3.380506   -2.871949   -0.935494
  H     -3.572209   -3.128593    0.805615
  H     -4.890283   -3.543469   -0.306105

 Total Charge           Charge          ....    0
 Multiplicity           Mult            ....    1
 Number of Electrons    NEL             ....  202
 Basis Dimension        Dim             ....  539

ORBITAL ENERGIES
----------------

  NO   OCC          E(Eh)            E(eV)
   0   2.0000     -88.577993     -2410.3297
   1   2.0000     -88.574405     -2410.2321
   2   2.0000     -88.529674     -2409.0149
   3   2.0000     -88.529404     -2409.0075
   4   2.0000     -76.919516     -2093.0864
   5   2.0000     -76.918390     -2093.0558
   6   2.0000     -18.995549      -516.8952
   7   2.0000     -18.992731      -516.8185
   8   2.0000     -18.992414      -516.8099
   9   2.0000     -18.991947      -516.7971
  10   2.0000     -10.105363      -274.9809
  11   2.0000     -10.090722      -274.5825
  12   2.0000     -10.090480      -274.5759
  13   2.0000     -10.090350      -274.5724
  14   2.0000     -10.088721      -274.5281
  15   2.0000     -10.019213      -272.6366
  16   2.0000     -10.018977      -272.6302
  17   2.0000     -10.018287      -272.6115
  18   2.0000     -10.017767      -272.5973
  19   2.0000      -7.871979      -214.2074
  20   2.0000      -7.868962      -214.1254
  21   2.0000      -7.824798      -212.9236
  22   2.0000      -7.824420      -212.9133
  23   2.0000      -6.597885      -179.5376
  24   2.0000      -6.596871      -179.5100
  25   2.0000      -5.819234      -158.3494
  26   2.0000      -5.815856      -158.2575
  27   2.0000      -5.815441      -158.2462
  28   2.0000      -5.812839      -158.1754
  29   2.0000      -5.809182      -158.0759
  30   2.0000      -5.805992      -157.9891
  31   2.0000      -5.772397      -157.0749
  32   2.0000      -5.771922      -157.0620
  33   2.0000      -5.764993      -156.8734
  34   2.0000      -5.764863      -156.8699
  35   2.0000      -5.764782      -156.8677
  36   2.0000      -5.764435      -156.8582
  37   2.0000      -4.743678      -129.0820
  38   2.0000      -4.742764      -129.0572
  39   2.0000      -4.742129      -129.0399
  40   2.0000      -4.741989      -129.0361
  41   2.0000      -4.741478      -129.0222
  42   2.0000      -4.740702      -129.0010
  43   2.0000      -1.052426       -28.6380
  44   2.0000      -1.051126       -28.6026
  45   2.0000      -1.011769       -27.5316
  46   2.0000      -1.011361       -27.5205
  47   2.0000      -0.800954       -21.7951
  48   2.0000      -0.755809       -20.5666
  49   2.0000      -0.744035       -20.2462
  50   2.0000      -0.725536       -19.7428
  51   2.0000      -0.724520       -19.7152
  52   2.0000      -0.708855       -19.2889
  53   2.0000      -0.691690       -18.8218
  54   2.0000      -0.674726       -18.3602
  55   2.0000      -0.627566       -17.0769
  56   2.0000      -0.620640       -16.8885
  57   2.0000      -0.602215       -16.3871
  58   2.0000      -0.593531       -16.1508
  59   2.0000      -0.589631       -16.0447
  60   2.0000      -0.526983       -14.3399
  61   2.0000      -0.518904       -14.1201
  62   2.0000      -0.493181       -13.4201
  63   2.0000      -0.489894       -13.3307
  64   2.0000      -0.478575       -13.0227
  65   2.0000      -0.462402       -12.5826
  66   2.0000      -0.451382       -12.2827
  67   2.0000      -0.444164       -12.0863
  68   2.0000      -0.438573       -11.9342
  69   2.0000      -0.435107       -11.8399
  70   2.0000      -0.426348       -11.6015
  71   2.0000      -0.413984       -11.2651
  72   2.0000      -0.404281       -11.0010
  73   2.0000      -0.395269       -10.7558
  74   2.0000      -0.391450       -10.6519
  75   2.0000      -0.385122       -10.4797
  76   2.0000      -0.377755       -10.2792
  77   2.0000      -0.370665       -10.0863
  78   2.0000      -0.363416        -9.8891
  79   2.0000      -0.362108        -9.8535
  80   2.0000      -0.356011        -9.6875
  81   2.0000      -0.353109        -9.6086
  82   2.0000      -0.349990        -9.5237
  83   2.0000      -0.348724        -9.4893
  84   2.0000      -0.343368        -9.3435
  85   2.0000      -0.330027        -8.9805
  86   2.0000      -0.324932        -8.8419
  87   2.0000      -0.309437        -8.4202
  88   2.0000      -0.306647        -8.3443
  89   2.0000      -0.303131        -8.2486
  90   2.0000      -0.301289        -8.1985
  91   2.0000      -0.289021        -7.8646
  92   2.0000      -0.282432        -7.6854
  93   2.0000      -0.277319        -7.5462
  94   2.0000      -0.274156        -7.4602
  95   2.0000      -0.247083        -6.7235
  96   2.0000      -0.237494        -6.4625
  97   2.0000      -0.231754        -6.3063
  98   2.0000      -0.230080        -6.2608
  99   2.0000      -0.223413        -6.0794
 100   2.0000      -0.219571        -5.9748
 101   0.0000      -0.046592        -1.2678
 102   0.0000      -0.024143        -0.6570
 103   0.0000      -0.013803        -0.3756
 104   0.0000       0.000365         0.0099
 105   0.0000       0.007500         0.2041

MULLIKEN ATOMIC CHARGES
-----------------------
   0 C :   -0.484509
   1 C :   -0.130259
   2 O :   -0.299337
   3 P :    0.703631
   4 S :   -0.530945
   5 O :   -0.271499
   6 C :   -0.155868
   7 C :   -0.483821
   8 S :   -0.165648
   9 C :   -0.263198
  10 S :   -0.147384
  11 P :    0.664879
  12 S :   -0.496171
  13 O :   -0.289817
  14 C :   -0.095574
  15 C :   -0.526144
  16 O :   -0.308454
  17 C :   -0.159469
  18 C :   -0.482160
  19 H :    0.166114
  20 H :    0.169029
  21 H :    0.165746
  22 H :    0.171103
  23 H :    0.169860
  24 H :    0.179059
  25 H :    0.180362
  26 H :    0.171031
  27 H :    0.169449
  28 H :    0.173329
  29 H :    0.236373
  30 H :    0.233635
  31 H :    0.177300
  32 H :    0.179494
  33 H :    0.170077
  34 H :    0.170912
  35 H :    0.168439
  36 H :    0.175768
  37 H :    0.179949
  38 H :    0.174286
  39 H :    0.168060
  40 H :    0.172373
Sum of atomic charges:   -0.0000000

LOEWDIN ATOMIC CHARGES
----------------------
   0 C :   -0.389871
   1 C :    0.025350
   2 O :   -0.690876
   3 P :    0.370132
   4 S :   -0.159719
   5 O :   -0.694485
   6 C :    0.027014
   7 C :   -0.402267
   8 S :    0.165585
   9 C :   -0.402771
  10 S :    0.161064
  11 P :    0.379249
  12 S :   -0.141154
  13 O :   -0.679813
  14 C :    0.024856
  15 C :   -0.396063
  16 O :   -0.676945
  17 C :    0.027058
  18 C :   -0.411639
  19 H :    0.162926
  20 H :    0.168464
  21 H :    0.162135
  22 H :    0.179340
  23 H :    0.181692
  24 H :    0.182426
  25 H :    0.191370
  26 H :    0.164924
  27 H :    0.163529
  28 H :    0.169140
  29 H :    0.203040
  30 H :    0.197718
  31 H :    0.183759
  32 H :    0.190057
  33 H :    0.165821
  34 H :    0.168565
  35 H :    0.163900
  36 H :    0.191019
  37 H :    0.181735
  38 H :    0.161763
  39 H :    0.163714
  40 H :    0.168257

  Mayer bond orders larger than 0.100000
B(  0-C ,  1-C ) :   0.9478 B(  0-C , 19-H ) :   0.9692 B(  0-C , 20-H ) :   0.9597
B(  0-C , 21-H ) :   0.9694 B(  1-C ,  2-O ) :   0.7697 B(  1-C , 22-H ) :   0.9379
B(  1-C , 23-H ) :   0.9478 B(  2-O ,  3-P ) :   1.0621 B(  3-P ,  4-S ) :   1.7575
B(  3-P ,  5-O ) :   1.1449 B(  3-P ,  8-S ) :   1.0730 B(  5-O ,  6-C ) :   0.7701
B(  6-C ,  7-C ) :   0.9086 B(  6-C , 24-H ) :   0.9583 B(  6-C , 25-H ) :   0.9513
B(  7-C , 26-H ) :   0.9707 B(  7-C , 27-H ) :   0.9596 B(  7-C , 28-H ) :   0.9547
B(  8-S ,  9-C ) :   0.9044 B(  9-C , 10-S ) :   0.9060 B(  9-C , 29-H ) :   0.9047
B(  9-C , 30-H ) :   0.9090 B( 10-S , 11-P ) :   1.0332 B( 11-P , 12-S ) :   1.8077
B( 11-P , 13-O ) :   1.1511 B( 11-P , 16-O ) :   1.0458 B( 13-O , 14-C ) :   0.7261
B( 14-C , 15-C ) :   0.9268 B( 14-C , 31-H ) :   0.9538 B( 14-C , 32-H ) :   0.9475
B( 15-C , 33-H ) :   0.9683 B( 15-C , 34-H ) :   0.9590 B( 15-C , 35-H ) :   0.9731
B( 16-O , 17-C ) :   0.8056 B( 17-C , 18-C ) :   0.9046 B( 17-C , 36-H ) :   0.9507
B( 17-C , 37-H ) :   0.9682 B( 18-C , 38-H ) :   0.9657 B( 18-C , 39-H ) :   0.9642
B( 18-C , 40-H ) :   0.9514

Dispersion correction           -0.021357236
FINAL SINGLE POINT ENERGY     -2932.472025449469

DIPOLE MOMENT
-------------

Method             : SCF
Type of density    : Electron Density
Multiplicity       :   1
Irrep              :   0
Energy             : -2932.4969635433112671 Eh
Relativity type    :
Basis              : AO
                                X                 Y                 Z
Electronic contribution:     -4.730178585      10.344429305     -13.729083699
Nuclear contribution   :      5.086789899     -12.950867735      15.798543480
                        -----------------------------------------
Total Dipole Moment    :      0.356611314      -2.606438430       2.069459781
                        -----------------------------------------
Magnitude (a.u.)       :      3.347141572
Magnitude (Debye)      :      8.507757753

Rotational constants in cm-1:             0.012947             0.004694             0.004374
Rotational constants in MHz :           388.152503           140.712148           131.115723

                             ****ORCA TERMINATED NORMALLY****
TOTAL RUN TIME: 0 days 0 hours 1 minutes 57 seconds 27 msec
