                         Program Version 6.0.0  -   RELEASE  -
|  1> ! pbe def2-sv(p) def2/J RI DEFGRID1 loosescf d4 GCP(DFT/SV(P)) printgap
|  2> %output
|  3>     printlevel normal
|  4> end
|  5> * xyz 0 1
|  6> C 4.5488054748 1.5073751757 0.1761906672
|  7> C 3.4206250465 1.2530854581 -0.8027036439
|  8> O 2.7671173074 -0.0003579762 -0.5309796383
|  9> P 1.771811755 -0.1831881156 0.7093300147
| 10> S 0.9691855144 1.4581434569 1.4010617087
| 11> O 2.5887630254 -0.8629165189 1.8861890667
| 12> C 3.4024616262 -2.050179104 1.7222369824
| 13> C 2.7179427331 -3.2505268094 2.3445575758
| 14> S 0.6346372552 -1.7982852476 -0.0636573113
| 15> C 0.3133474331 -1.1993487505 -1.749399159
| 16> S -0.1857659098 0.5388795572 -1.832646942
| 17> P -2.1045231966 0.2925402375 -1.0058591082
| 18> S -3.2257559454 -1.1142777139 -1.759137331
| 19> O -2.7839179978 1.7137566418 -1.1692736927
| 20> C -2.2173073571 2.9285737947 -0.6095023404
| 21> C -3.2639808943 3.6081909776 0.2493055398
| 22> O -1.71719015 0.1316641634 0.5369095033
| 23> C -2.688144175 -0.3001293748 1.5143411132
| 24> C -2.514458195 -1.7727162305 1.8258869767
| 25> H 5.0428695751 2.4397200501 -0.07785006
| 26> H 4.1468829834 1.5839672611 1.1862596653
| 27> H 5.2709693382 0.6957704824 0.1425960633
| 28> H 3.7826162471 1.1500195483 -1.8264414481
| 29> H 2.6755406463 2.0532403832 -0.7523150263
| 30> H 3.5956524681 -2.2088856215 0.6586406017
| 31> H 4.3365475067 -1.8185884397 2.2371490532
| 32> H 2.4918359323 -3.0491520173 3.3879297952
| 33> H 1.7907466676 -3.4731134524 1.8205850386
| 34> H 3.3781693539 -4.1095346747 2.2796933052
| 35> H -0.4869606162 -1.8251328027 -2.1473535573
| 36> H 1.2198124644 -1.2895812632 -2.3425889831
| 37> H -1.3255587373 2.6828837952 -0.024857524
| 38> H -1.9348412861 3.548669819 -1.462013705
| 39> H -3.5189332884 2.9827843286 1.1013478006
| 40> H -2.8665078151 4.5519048336 0.6086536702
| 41> H -4.1616135021 3.7911671745 -0.3347995167
| 42> H -2.489036765 0.319996121 2.3910253334
| 43> H -3.6941888751 -0.0958388387 1.1340913222
| 44> H -2.7016585836 -2.368967866 0.9353397066
| 45> H -1.5005248201 -1.9637636858 2.1678733527
| 46> H -3.2176067557 -2.0581828148 2.6015326565
| 47> *
| 48>
| 49>                          ****END OF INPUT****

CARTESIAN COORDINATES (ANGSTROEM)
---------------------------------
  C      4.548805    1.507375    0.176191
  C      3.420625    1.253085   -0.802704
  O      2.767117   -0.000358   -0.530980
  P      1.771812   -0.183188    0.709330
  S      0.969186    1.458143    1.401062
  O      2.588763   -0.862917    1.886189
  C      3.402462   -2.050179    1.722237
  C      2.717943   -3.250527    2.344558
  S      0.634637   -1.798285   -0.063657
  C      0.313347   -1.199349   -1.749399
  S     -0.185766    0.538880   -1.832647
  P     -2.104523    0.292540   -1.005859
  S     -3.225756   -1.114278   -1.759137
  O     -2.783918    1.713757   -1.169274
  C     -2.217307    2.928574   -0.609502
  C     -3.263981    3.608191    0.249306
  O     -1.717190    0.131664    0.536910
  C     -2.688144   -0.300129    1.514341
  C     -2.514458   -1.772716    1.825887
  H      5.042870    2.439720   -0.077850
  H      4.146883    1.583967    1.186260
  H      5.270969    0.695770    0.142596
  H      3.782616    1.150020   -1.826441
  H      2.675541    2.053240   -0.752315
  H      3.595652   -2.208886    0.658641
  H      4.336548   -1.818588    2.237149
  H      2.491836   -3.049152    3.387930
  H      1.790747   -3.473113    1.820585
  H      3.378169   -4.109535    2.279693
  H     -0.486961   -1.825133   -2.147354
  H      1.219812   -1.289581   -2.342589
  H     -1.325559    2.682884   -0.024858
  H     -1.934841    3.548670   -1.462014
  H     -3.518933    2.982784    1.101348
  H     -2.866508    4.551905    0.608654
  H     -4.161614    3.791167   -0.334800
  H     -2.489037    0.319996    2.391025
  H     -3.694189   -0.095839    1.134091
  H     -2.701659   -2.368968    0.935340
  H     -1.500525   -1.963764    2.167873
  H     -3.217607   -2.058183    2.601533

 Total Charge           Charge          ....    0
 Multiplicity           Mult            ....    1
 Number of Electrons    NEL             ....  202
 Basis Dimension        Dim             ....  334

ORBITAL ENERGIES
----------------

  NO   OCC          E(Eh)            E(eV)
   0   2.0000     -88.042908     -2395.7693
   1   2.0000     -88.042648     -2395.7622
   2   2.0000     -87.982172     -2394.1166
   3   2.0000     -87.980275     -2394.0650
   4   2.0000     -76.426850     -2079.6803
   5   2.0000     -76.420869     -2079.5176
   6   2.0000     -18.796067      -511.4670
   7   2.0000     -18.794061      -511.4124
   8   2.0000     -18.789561      -511.2900
   9   2.0000     -18.780662      -511.0478
  10   2.0000      -9.959347      -271.0076
  11   2.0000      -9.959104      -271.0010
  12   2.0000      -9.953591      -270.8510
  13   2.0000      -9.951944      -270.8062
  14   2.0000      -9.945616      -270.6340
  15   2.0000      -9.890292      -269.1285
  16   2.0000      -9.887746      -269.0592
  17   2.0000      -9.887412      -269.0502
  18   2.0000      -9.872120      -268.6340
  19   2.0000      -7.688208      -209.2068
  20   2.0000      -7.687523      -209.1881
  21   2.0000      -7.627307      -207.5496
  22   2.0000      -7.625694      -207.5057
  23   2.0000      -6.424135      -174.8096
  24   2.0000      -6.418862      -174.6661
  25   2.0000      -5.716108      -155.5432
  26   2.0000      -5.715635      -155.5303
  27   2.0000      -5.712815      -155.4536
  28   2.0000      -5.711921      -155.4293
  29   2.0000      -5.704949      -155.2396
  30   2.0000      -5.704338      -155.2229
  31   2.0000      -5.656438      -153.9195
  32   2.0000      -5.654678      -153.8716
  33   2.0000      -5.647758      -153.6833
  34   2.0000      -5.647330      -153.6717
  35   2.0000      -5.646568      -153.6509
  36   2.0000      -5.645454      -153.6206
  37   2.0000      -4.647288      -126.4591
  38   2.0000      -4.645691      -126.4157
  39   2.0000      -4.644340      -126.3789
  40   2.0000      -4.641967      -126.3143
  41   2.0000      -4.640304      -126.2691
  42   2.0000      -4.639142      -126.2375
  43   2.0000      -0.987002       -26.8577
  44   2.0000      -0.979440       -26.6519
  45   2.0000      -0.947884       -25.7932
  46   2.0000      -0.937036       -25.4981
  47   2.0000      -0.765908       -20.8414
  48   2.0000      -0.721977       -19.6460
  49   2.0000      -0.709701       -19.3119
  50   2.0000      -0.694248       -18.8914
  51   2.0000      -0.685085       -18.6421
  52   2.0000      -0.670650       -18.2493
  53   2.0000      -0.649800       -17.6820
  54   2.0000      -0.638400       -17.3717
  55   2.0000      -0.592660       -16.1271
  56   2.0000      -0.581221       -15.8158
  57   2.0000      -0.578536       -15.7428
  58   2.0000      -0.572705       -15.5841
  59   2.0000      -0.559233       -15.2175
  60   2.0000      -0.507623       -13.8131
  61   2.0000      -0.500526       -13.6200
  62   2.0000      -0.482261       -13.1230
  63   2.0000      -0.474012       -12.8985
  64   2.0000      -0.459165       -12.4945
  65   2.0000      -0.444239       -12.0884
  66   2.0000      -0.438785       -11.9400
  67   2.0000      -0.436566       -11.8796
  68   2.0000      -0.423770       -11.5314
  69   2.0000      -0.413797       -11.2600
  70   2.0000      -0.404377       -11.0037
  71   2.0000      -0.400553       -10.8996
  72   2.0000      -0.387856       -10.5541
  73   2.0000      -0.383690       -10.4407
  74   2.0000      -0.379417       -10.3245
  75   2.0000      -0.372121       -10.1259
  76   2.0000      -0.361207        -9.8289
  77   2.0000      -0.358818        -9.7639
  78   2.0000      -0.357639        -9.7318
  79   2.0000      -0.354175        -9.6376
  80   2.0000      -0.350433        -9.5358
  81   2.0000      -0.347570        -9.4579
  82   2.0000      -0.345461        -9.4005
  83   2.0000      -0.336442        -9.1551
  84   2.0000      -0.332137        -9.0379
  85   2.0000      -0.318395        -8.6640
  86   2.0000      -0.309848        -8.4314
  87   2.0000      -0.305447        -8.3116
  88   2.0000      -0.301931        -8.2160
  89   2.0000      -0.284213        -7.7338
  90   2.0000      -0.275501        -7.4968
  91   2.0000      -0.275340        -7.4924
  92   2.0000      -0.270889        -7.3713
  93   2.0000      -0.267130        -7.2690
  94   2.0000      -0.263932        -7.1819
  95   2.0000      -0.234865        -6.3910
  96   2.0000      -0.219763        -5.9801
  97   2.0000      -0.205029        -5.5791
  98   2.0000      -0.199997        -5.4422
  99   2.0000      -0.192316        -5.2332
 100   2.0000      -0.189118        -5.1462
 101   0.0000      -0.051445        -1.3999
 102   0.0000      -0.021617        -0.5882
 103   0.0000      -0.013491        -0.3671
 104   0.0000       0.006029         0.1641
 105   0.0000       0.018639         0.5072

MULLIKEN ATOMIC CHARGES
-----------------------
   0 C :   -0.310058
   1 C :   -0.007686
   2 O :   -0.393647
   3 P :    0.622646
   4 S :   -0.298797
   5 O :   -0.364480
   6 C :   -0.023558
   7 C :   -0.292965
   8 S :   -0.105070
   9 C :   -0.325058
  10 S :   -0.093861
  11 P :    0.615753
  12 S :   -0.318604
  13 O :   -0.370568
  14 C :   -0.047229
  15 C :   -0.282148
  16 O :   -0.366542
  17 C :   -0.017875
  18 C :   -0.280001
  19 H :    0.113542
  20 H :    0.129707
  21 H :    0.110098
  22 H :    0.101396
  23 H :    0.113362
  24 H :    0.106543
  25 H :    0.109710
  26 H :    0.121361
  27 H :    0.129222
  28 H :    0.111273
  29 H :    0.186347
  30 H :    0.185371
  31 H :    0.135783
  32 H :    0.108600
  33 H :    0.116626
  34 H :    0.112800
  35 H :    0.121924
  36 H :    0.106647
  37 H :    0.102404
  38 H :    0.119616
  39 H :    0.115065
  40 H :    0.102353
Sum of atomic charges:    0.0000000

LOEWDIN ATOMIC CHARGES
----------------------
   0 C :   -0.365141
   1 C :   -0.123040
   2 O :   -0.256678
   3 P :    0.567170
   4 S :   -0.300590
   5 O :   -0.242752
   6 C :   -0.120728
   7 C :   -0.359804
   8 S :    0.091337
   9 C :   -0.472370
  10 S :    0.090001
  11 P :    0.568262
  12 S :   -0.318169
  13 O :   -0.245656
  14 C :   -0.122673
  15 C :   -0.350595
  16 O :   -0.248013
  17 C :   -0.116846
  18 C :   -0.361802
  19 H :    0.131574
  20 H :    0.126029
  21 H :    0.122167
  22 H :    0.116061
  23 H :    0.109518
  24 H :    0.108043
  25 H :    0.120188
  26 H :    0.129498
  27 H :    0.120258
  28 H :    0.130961
  29 H :    0.131559
  30 H :    0.134068
  31 H :    0.111415
  32 H :    0.117740
  33 H :    0.125729
  34 H :    0.131547
  35 H :    0.129222
  36 H :    0.116996
  37 H :    0.106625
  38 H :    0.122822
  39 H :    0.120358
  40 H :    0.125707

  Mayer bond orders larger than 0.100000
B(  0-C ,  1-C ) :   1.1636 B(  0-C , 19-H ) :   0.9400 B(  0-C , 20-H ) :   0.9347
B(  0-C , 21-H ) :   0.9473 B(  1-C ,  2-O ) :   0.9045 B(  1-C , 22-H ) :   0.9337
B(  1-C , 23-H ) :   0.9106 B(  2-O ,  3-P ) :   1.0573 B(  3-P ,  4-S ) :   1.6370
B(  3-P ,  5-O ) :   1.1224 B(  3-P ,  8-S ) :   0.9595 B(  4-S ,  8-S ) :   0.1075
B(  5-O ,  6-C ) :   0.8967 B(  6-C ,  7-C ) :   1.1674 B(  6-C , 24-H ) :   0.9144
B(  6-C , 25-H ) :   0.9317 B(  7-C , 26-H ) :   0.9459 B(  7-C , 27-H ) :   0.9374
B(  7-C , 28-H ) :   0.9393 B(  8-S ,  9-C ) :   0.9884 B(  9-C , 10-S ) :   1.0222
B(  9-C , 29-H ) :   0.8795 B(  9-C , 30-H ) :   0.9067 B( 10-S , 11-P ) :   0.9603
B( 10-S , 12-S ) :   0.1014 B( 11-P , 12-S ) :   1.6379 B( 11-P , 13-O ) :   1.1321
B( 11-P , 16-O ) :   1.0907 B( 13-O , 14-C ) :   0.8900 B( 14-C , 15-C ) :   1.1711
B( 14-C , 31-H ) :   0.8997 B( 14-C , 32-H ) :   0.9330 B( 15-C , 33-H ) :   0.9480
B( 15-C , 34-H ) :   0.9401 B( 15-C , 35-H ) :   0.9490 B( 16-O , 17-C ) :   0.8981
B( 17-C , 18-C ) :   1.1739 B( 17-C , 36-H ) :   0.9288 B( 17-C , 37-H ) :   0.9129
B( 18-C , 38-H ) :   0.9368 B( 18-C , 39-H ) :   0.9430 B( 18-C , 40-H ) :   0.9396

Dispersion correction           -0.067395074
FINAL SINGLE POINT ENERGY     -2929.515021030292

DIPOLE MOMENT
-------------

Method             : SCF
Type of density    : Electron Density
Multiplicity       :   1
Irrep              :   0
Energy             : -2929.6324266155629630 Eh
Relativity type    :
Basis              : AO
                                X                 Y                 Z
Electronic contribution:     -8.056431117      -1.242044584     -12.775034742
Nuclear contribution   :      9.588447109       1.387546599      13.179323512
                        -----------------------------------------
Total Dipole Moment    :      1.532015992       0.145502015       0.404288770
                        -----------------------------------------
Magnitude (a.u.)       :      1.591129550
Magnitude (Debye)      :      4.044329908

Rotational constants in cm-1:             0.011554             0.005718             0.005063
Rotational constants in MHz :           346.375661           171.435636           151.795867

                             ****ORCA TERMINATED NORMALLY****
TOTAL RUN TIME: 0 days 0 hours 0 minutes 21 seconds 602 msec
