                         Program Version 6.0.0  -   RELEASE  -
|  1> ! pbe def2-sv(p) def2/J RI DEFGRID1 loosescf d4 GCP(DFT/SV(P)) printgap
|  2> %output
|  3>     printlevel normal
|  4> end
|  5> * xyz 0 1
|  6> C 4.2138005385 -2.6035607683 0.0122988566
|  7> C 4.5547828653 -1.1753397862 0.3857227444
|  8> O 3.3969913842 -0.4335122404 0.810019783
|  9> P 2.2252997181 -0.0398639563 -0.1891255181
| 10> S 2.8146757428 0.5023199222 -1.9830208833
| 11> O 1.4505977579 1.0543066455 0.6629802779
| 12> C 1.6876553329 2.4634931395 0.4966737222
| 13> C 3.037433195 2.8714910368 1.0482132889
| 14> S 0.8741912619 -1.6439536118 -0.0405202576
| 15> C -0.1467865126 -1.2340525258 -1.4846348885
| 16> S -0.7762696222 0.4744085674 -1.5153757302
| 17> P -2.1605636667 0.4034079329 0.078245671
| 18> S -3.2448315402 2.0168990219 0.309624064
| 19> O -1.2246384932 0.0056931912 1.287292453
| 20> C -1.6111469313 0.2320427124 2.6581361703
| 21> C -2.7437974355 -0.6806465272 3.0760467002
| 22> O -2.9767999276 -0.9438909114 -0.1655821162
| 23> C -4.1213134759 -0.9925426124 -1.0395912779
| 24> C -4.9393143685 -2.212346281 -0.6653614308
| 25> H 3.6622802916 -3.0834048741 0.8168328587
| 26> H 3.6020039403 -2.6168140519 -0.8885671739
| 27> H 5.1303681353 -3.1532774662 -0.1763081881
| 28> H 5.0056266357 -0.6536307606 -0.4645785262
| 29> H 5.2229877829 -1.1310608998 1.2467476559
| 30> H 1.6113477274 2.705923629 -0.5692595281
| 31> H 0.8649668021 2.9380204315 1.0353858405
| 32> H 3.1332697707 2.5478420394 2.0813105375
| 33> H 3.8296376842 2.4114241215 0.4586803101
| 34> H 3.13711779 3.9510006026 0.9939869034
| 35> H -0.9741789366 -1.9387589099 -1.4848549514
| 36> H 0.4530418656 -1.3234029695 -2.3894078832
| 37> H -0.6966458546 0.0348780844 3.219491891
| 38> H -1.8984225046 1.2829282435 2.7677197225
| 39> H -2.4848814107 -1.7161403293 2.8716098071
| 40> H -2.9337376642 -0.5555255087 4.1374726077
| 41> H -3.645419816 -0.4230755071 2.5219378991
| 42> H -4.6950488223 -0.0680957472 -0.9148716633
| 43> H -3.7664227763 -1.0500133735 -2.0725579378
| 44> H -4.3321687601 -3.1088408113 -0.7506429955
| 45> H -5.2962524947 -2.1257311839 0.356812907
| 46> H -5.7893945916 -2.2886867457 -1.335213268
| 47> *
| 48>
| 49>                          ****END OF INPUT****

CARTESIAN COORDINATES (ANGSTROEM)
---------------------------------
  C      4.213801   -2.603561    0.012299
  C      4.554783   -1.175340    0.385723
  O      3.396991   -0.433512    0.810020
  P      2.225300   -0.039864   -0.189126
  S      2.814676    0.502320   -1.983021
  O      1.450598    1.054307    0.662980
  C      1.687655    2.463493    0.496674
  C      3.037433    2.871491    1.048213
  S      0.874191   -1.643954   -0.040520
  C     -0.146787   -1.234053   -1.484635
  S     -0.776270    0.474409   -1.515376
  P     -2.160564    0.403408    0.078246
  S     -3.244832    2.016899    0.309624
  O     -1.224638    0.005693    1.287292
  C     -1.611147    0.232043    2.658136
  C     -2.743797   -0.680647    3.076047
  O     -2.976800   -0.943891   -0.165582
  C     -4.121313   -0.992543   -1.039591
  C     -4.939314   -2.212346   -0.665361
  H      3.662280   -3.083405    0.816833
  H      3.602004   -2.616814   -0.888567
  H      5.130368   -3.153277   -0.176308
  H      5.005627   -0.653631   -0.464579
  H      5.222988   -1.131061    1.246748
  H      1.611348    2.705924   -0.569260
  H      0.864967    2.938020    1.035386
  H      3.133270    2.547842    2.081311
  H      3.829638    2.411424    0.458680
  H      3.137118    3.951001    0.993987
  H     -0.974179   -1.938759   -1.484855
  H      0.453042   -1.323403   -2.389408
  H     -0.696646    0.034878    3.219492
  H     -1.898423    1.282928    2.767720
  H     -2.484881   -1.716140    2.871610
  H     -2.933738   -0.555526    4.137473
  H     -3.645420   -0.423076    2.521938
  H     -4.695049   -0.068096   -0.914872
  H     -3.766423   -1.050013   -2.072558
  H     -4.332169   -3.108841   -0.750643
  H     -5.296252   -2.125731    0.356813
  H     -5.789395   -2.288687   -1.335213

 Total Charge           Charge          ....    0
 Multiplicity           Mult            ....    1
 Number of Electrons    NEL             ....  202
 Basis Dimension        Dim             ....  334

ORBITAL ENERGIES
----------------

  NO   OCC          E(Eh)            E(eV)
   0   2.0000     -88.041556     -2395.7325
   1   2.0000     -88.040491     -2395.7036
   2   2.0000     -87.987928     -2394.2732
   3   2.0000     -87.986404     -2394.2318
   4   2.0000     -76.425855     -2079.6532
   5   2.0000     -76.424324     -2079.6116
   6   2.0000     -18.796094      -511.4677
   7   2.0000     -18.794288      -511.4186
   8   2.0000     -18.786889      -511.2172
   9   2.0000     -18.783878      -511.1353
  10   2.0000      -9.959520      -271.0123
  11   2.0000      -9.955348      -270.8988
  12   2.0000      -9.953095      -270.8375
  13   2.0000      -9.950057      -270.7548
  14   2.0000      -9.943912      -270.5876
  15   2.0000      -9.891844      -269.1708
  16   2.0000      -9.885023      -268.9851
  17   2.0000      -9.883741      -268.9503
  18   2.0000      -9.879439      -268.8332
  19   2.0000      -7.686410      -209.1579
  20   2.0000      -7.685927      -209.1447
  21   2.0000      -7.632852      -207.7005
  22   2.0000      -7.631609      -207.6666
  23   2.0000      -6.423148      -174.7827
  24   2.0000      -6.422346      -174.7609
  25   2.0000      -5.714689      -155.5046
  26   2.0000      -5.713870      -155.4823
  27   2.0000      -5.710653      -155.3948
  28   2.0000      -5.710589      -155.3930
  29   2.0000      -5.703261      -155.1936
  30   2.0000      -5.702539      -155.1740
  31   2.0000      -5.661664      -154.0617
  32   2.0000      -5.660506      -154.0302
  33   2.0000      -5.653520      -153.8401
  34   2.0000      -5.653127      -153.8294
  35   2.0000      -5.652145      -153.8027
  36   2.0000      -5.651884      -153.7956
  37   2.0000      -4.645489      -126.4102
  38   2.0000      -4.644921      -126.3947
  39   2.0000      -4.644664      -126.3877
  40   2.0000      -4.644367      -126.3797
  41   2.0000      -4.643864      -126.3660
  42   2.0000      -4.642745      -126.3355
  43   2.0000      -0.987214       -26.8635
  44   2.0000      -0.984477       -26.7890
  45   2.0000      -0.946289       -25.7498
  46   2.0000      -0.942743       -25.6533
  47   2.0000      -0.764005       -20.7896
  48   2.0000      -0.722082       -19.6489
  49   2.0000      -0.707465       -19.2511
  50   2.0000      -0.689833       -18.7713
  51   2.0000      -0.684776       -18.6337
  52   2.0000      -0.672781       -18.3073
  53   2.0000      -0.653566       -17.7844
  54   2.0000      -0.637935       -17.3591
  55   2.0000      -0.601145       -16.3580
  56   2.0000      -0.595478       -16.2038
  57   2.0000      -0.570100       -15.5132
  58   2.0000      -0.568077       -15.4582
  59   2.0000      -0.562344       -15.3021
  60   2.0000      -0.506560       -13.7842
  61   2.0000      -0.491059       -13.3624
  62   2.0000      -0.477002       -12.9799
  63   2.0000      -0.470538       -12.8040
  64   2.0000      -0.458989       -12.4897
  65   2.0000      -0.443057       -12.0562
  66   2.0000      -0.438243       -11.9252
  67   2.0000      -0.435617       -11.8537
  68   2.0000      -0.426656       -11.6099
  69   2.0000      -0.417557       -11.3623
  70   2.0000      -0.411178       -11.1887
  71   2.0000      -0.398064       -10.8319
  72   2.0000      -0.388445       -10.5701
  73   2.0000      -0.386497       -10.5171
  74   2.0000      -0.381281       -10.3752
  75   2.0000      -0.375832       -10.2269
  76   2.0000      -0.366467        -9.9721
  77   2.0000      -0.360066        -9.7979
  78   2.0000      -0.358425        -9.7532
  79   2.0000      -0.351919        -9.5762
  80   2.0000      -0.347366        -9.4523
  81   2.0000      -0.346416        -9.4265
  82   2.0000      -0.343443        -9.3456
  83   2.0000      -0.339408        -9.2358
  84   2.0000      -0.331514        -9.0210
  85   2.0000      -0.321055        -8.7363
  86   2.0000      -0.313330        -8.5261
  87   2.0000      -0.298096        -8.1116
  88   2.0000      -0.295130        -8.0309
  89   2.0000      -0.290270        -7.8987
  90   2.0000      -0.278802        -7.5866
  91   2.0000      -0.274010        -7.4562
  92   2.0000      -0.266132        -7.2418
  93   2.0000      -0.263072        -7.1585
  94   2.0000      -0.261654        -7.1200
  95   2.0000      -0.230113        -6.2617
  96   2.0000      -0.218400        -5.9430
  97   2.0000      -0.208967        -5.6863
  98   2.0000      -0.206491        -5.6189
  99   2.0000      -0.201252        -5.4764
 100   2.0000      -0.199917        -5.4400
 101   0.0000      -0.042006        -1.1430
 102   0.0000      -0.017201        -0.4681
 103   0.0000      -0.007694        -0.2094
 104   0.0000       0.003972         0.1081
 105   0.0000       0.009745         0.2652

MULLIKEN ATOMIC CHARGES
-----------------------
   0 C :   -0.315784
   1 C :   -0.004465
   2 O :   -0.370549
   3 P :    0.611061
   4 S :   -0.337453
   5 O :   -0.355143
   6 C :   -0.007433
   7 C :   -0.302199
   8 S :   -0.072278
   9 C :   -0.353340
  10 S :   -0.069909
  11 P :    0.618780
  12 S :   -0.331114
  13 O :   -0.354313
  14 C :   -0.002507
  15 C :   -0.309055
  16 O :   -0.389076
  17 C :   -0.012340
  18 C :   -0.281885
  19 H :    0.117784
  20 H :    0.126143
  21 H :    0.113280
  22 H :    0.111456
  23 H :    0.105730
  24 H :    0.114641
  25 H :    0.107196
  26 H :    0.113198
  27 H :    0.118947
  28 H :    0.111328
  29 H :    0.181204
  30 H :    0.192143
  31 H :    0.106737
  32 H :    0.110757
  33 H :    0.116920
  34 H :    0.111236
  35 H :    0.121569
  36 H :    0.110834
  37 H :    0.099465
  38 H :    0.113657
  39 H :    0.121051
  40 H :    0.113728
Sum of atomic charges:    0.0000000

LOEWDIN ATOMIC CHARGES
----------------------
   0 C :   -0.370044
   1 C :   -0.119329
   2 O :   -0.244305
   3 P :    0.572432
   4 S :   -0.328920
   5 O :   -0.235340
   6 C :   -0.119712
   7 C :   -0.363818
   8 S :    0.099417
   9 C :   -0.476500
  10 S :    0.099297
  11 P :    0.562698
  12 S :   -0.326199
  13 O :   -0.232376
  14 C :   -0.114970
  15 C :   -0.365077
  16 O :   -0.253097
  17 C :   -0.121505
  18 C :   -0.350151
  19 H :    0.124057
  20 H :    0.120758
  21 H :    0.131137
  22 H :    0.110653
  23 H :    0.118882
  24 H :    0.110478
  25 H :    0.118654
  26 H :    0.124697
  27 H :    0.121118
  28 H :    0.129844
  29 H :    0.131583
  30 H :    0.134974
  31 H :    0.119719
  32 H :    0.110286
  33 H :    0.126314
  34 H :    0.129965
  35 H :    0.120992
  36 H :    0.109506
  37 H :    0.108857
  38 H :    0.125186
  39 H :    0.128254
  40 H :    0.131586

  Mayer bond orders larger than 0.100000
B(  0-C ,  1-C ) :   1.1664 B(  0-C , 19-H ) :   0.9446 B(  0-C , 20-H ) :   0.9351
B(  0-C , 21-H ) :   0.9376 B(  1-C ,  2-O ) :   0.9085 B(  1-C , 22-H ) :   0.9159
B(  1-C , 23-H ) :   0.9340 B(  2-O ,  3-P ) :   1.1110 B(  3-P ,  4-S ) :   1.5839
B(  3-P ,  5-O ) :   1.1280 B(  3-P ,  8-S ) :   0.9744 B(  4-S ,  8-S ) :   0.1106
B(  5-O ,  6-C ) :   0.9067 B(  6-C ,  7-C ) :   1.1620 B(  6-C , 24-H ) :   0.9157
B(  6-C , 25-H ) :   0.9325 B(  7-C , 26-H ) :   0.9465 B(  7-C , 27-H ) :   0.9381
B(  7-C , 28-H ) :   0.9403 B(  8-S ,  9-C ) :   0.9998 B(  9-C , 10-S ) :   0.9908
B(  9-C , 29-H ) :   0.9005 B(  9-C , 30-H ) :   0.8939 B( 10-S , 11-P ) :   0.9711
B( 11-P , 12-S ) :   1.6425 B( 11-P , 13-O ) :   1.1369 B( 11-P , 16-O ) :   1.0637
B( 13-O , 14-C ) :   0.9047 B( 14-C , 15-C ) :   1.1628 B( 14-C , 31-H ) :   0.9329
B( 14-C , 32-H ) :   0.9174 B( 15-C , 33-H ) :   0.9465 B( 15-C , 34-H ) :   0.9384
B( 15-C , 35-H ) :   0.9359 B( 16-O , 17-C ) :   0.9011 B( 17-C , 18-C ) :   1.1608
B( 17-C , 36-H ) :   0.9087 B( 17-C , 37-H ) :   0.9276 B( 18-C , 38-H ) :   0.9513
B( 18-C , 39-H ) :   0.9510 B( 18-C , 40-H ) :   0.9416

Dispersion correction           -0.065726987
FINAL SINGLE POINT ENERGY     -2929.522217225571

DIPOLE MOMENT
-------------

Method             : SCF
Type of density    : Electron Density
Multiplicity       :   1
Irrep              :   0
Energy             : -2929.6412489895960789 Eh
Relativity type    :
Basis              : AO
                                X                 Y                 Z
Electronic contribution:      0.909072683       7.937412432     -10.264214427
Nuclear contribution   :     -0.845412682      -9.154053862      10.984047861
                        -----------------------------------------
Total Dipole Moment    :      0.063660001      -1.216641430       0.719833434
                        -----------------------------------------
Magnitude (a.u.)       :      1.415072132
Magnitude (Debye)      :      3.596827514

Rotational constants in cm-1:             0.012785             0.004964             0.004660
Rotational constants in MHz :           383.288861           148.830421           139.695065

                             ****ORCA TERMINATED NORMALLY****
TOTAL RUN TIME: 0 days 0 hours 0 minutes 21 seconds 439 msec
