                         Program Version 6.0.0  -   RELEASE  -
|  1> ! pbe def2-sv(p) def2/J RI DEFGRID1 loosescf d4 GCP(DFT/SV(P)) printgap
|  2> %output
|  3>     printlevel normal
|  4> end
|  5> * xyz 0 1
|  6> C 3.9748507826 2.1836241253 0.2496736258
|  7> C 2.5924695783 2.1345757738 0.8642057459
|  8> O 1.8399900312 0.9895413063 0.4108837796
|  9> P 2.2402666728 -0.4936266559 0.7987756166
| 10> S 2.9922149543 -0.7620997184 2.58558652
| 11> O 3.2083156208 -0.8898278869 -0.4111878748
| 12> C 4.0978082649 -2.0134374143 -0.3292657845
| 13> C 3.3517457592 -3.332350994 -0.3701125154
| 14> S 0.4010104932 -1.4510132949 0.3747921735
| 15> C 0.1609761404 -0.8061874593 -1.31113136
| 16> S -0.6377890647 0.8131329336 -1.3632556798
| 17> P -2.6230870467 0.1920817081 -0.8614001062
| 18> S -2.9839448524 -1.7248202158 -0.9944933821
| 19> O -3.5389985207 1.0310794549 -1.8239405907
| 20> C -3.4052863641 2.4539559841 -2.0706635555
| 21> C -4.2046064068 3.2678473001 -1.0744447732
| 22> O -2.9523306624 0.8399080038 0.5607114656
| 23> C -2.4819949484 0.3017668598 1.8072429837
| 24> C -1.3349662306 1.1339411642 2.3487413957
| 25> H 4.5708831304 1.3466262178 0.6109918856
| 26> H 3.9076134903 2.1285899741 -0.8336201436
| 27> H 4.4615554592 3.1109629139 0.535153533
| 28> H 1.9805651679 2.982634279 0.5541103023
| 29> H 2.6558776404 2.0947288807 1.9559791795
| 30> H 4.7570278038 -1.8952239247 -1.1904343713
| 31> H 4.6750432292 -1.9314428818 0.5973888358
| 32> H 2.7298790168 -3.3949854974 -1.2597697071
| 33> H 4.0658986162 -4.1495440415 -0.3751331091
| 34> H 2.7155816853 -3.4267046039 0.5099639323
| 35> H -0.4722977893 -1.533325688 -1.8184468676
| 36> H 1.1261137606 -0.6961596241 -1.79825774
| 37> H -2.344363799 2.7171985715 -2.0401175125
| 38> H -3.7876664002 2.5797962441 -3.0850730132
| 39> H -5.245589748 2.9567163323 -1.0897348294
| 40> H -3.8141532784 3.1297909266 -0.0702050634
| 41> H -4.1403410023 4.3176424932 -1.3434435957
| 42> H -3.3433345247 0.3387590851 2.477130246
| 43> H -2.1855472149 -0.7428726651 1.6634296815
| 44> H -0.4918278588 1.120026547 1.6610371352
| 45> H -1.6514468846 2.1632397136 2.490556004
| 46> H -1.0131467271 0.7211015813 3.3000057602
| 47> *
| 48>
| 49>                          ****END OF INPUT****

CARTESIAN COORDINATES (ANGSTROEM)
---------------------------------
  C      3.974851    2.183624    0.249674
  C      2.592470    2.134576    0.864206
  O      1.839990    0.989541    0.410884
  P      2.240267   -0.493627    0.798776
  S      2.992215   -0.762100    2.585587
  O      3.208316   -0.889828   -0.411188
  C      4.097808   -2.013437   -0.329266
  C      3.351746   -3.332351   -0.370113
  S      0.401010   -1.451013    0.374792
  C      0.160976   -0.806187   -1.311131
  S     -0.637789    0.813133   -1.363256
  P     -2.623087    0.192082   -0.861400
  S     -2.983945   -1.724820   -0.994493
  O     -3.538999    1.031079   -1.823941
  C     -3.405286    2.453956   -2.070664
  C     -4.204606    3.267847   -1.074445
  O     -2.952331    0.839908    0.560711
  C     -2.481995    0.301767    1.807243
  C     -1.334966    1.133941    2.348741
  H      4.570883    1.346626    0.610992
  H      3.907613    2.128590   -0.833620
  H      4.461555    3.110963    0.535154
  H      1.980565    2.982634    0.554110
  H      2.655878    2.094729    1.955979
  H      4.757028   -1.895224   -1.190434
  H      4.675043   -1.931443    0.597389
  H      2.729879   -3.394985   -1.259770
  H      4.065899   -4.149544   -0.375133
  H      2.715582   -3.426705    0.509964
  H     -0.472298   -1.533326   -1.818447
  H      1.126114   -0.696160   -1.798258
  H     -2.344364    2.717199   -2.040118
  H     -3.787666    2.579796   -3.085073
  H     -5.245590    2.956716   -1.089735
  H     -3.814153    3.129791   -0.070205
  H     -4.140341    4.317642   -1.343444
  H     -3.343335    0.338759    2.477130
  H     -2.185547   -0.742873    1.663430
  H     -0.491828    1.120027    1.661037
  H     -1.651447    2.163240    2.490556
  H     -1.013147    0.721102    3.300006

 Total Charge           Charge          ....    0
 Multiplicity           Mult            ....    1
 Number of Electrons    NEL             ....  202
 Basis Dimension        Dim             ....  334

ORBITAL ENERGIES
----------------

  NO   OCC          E(Eh)            E(eV)
   0   2.0000     -88.045379     -2395.8366
   1   2.0000     -88.042033     -2395.7455
   2   2.0000     -87.993389     -2394.4218
   3   2.0000     -87.986602     -2394.2372
   4   2.0000     -76.430371     -2079.7761
   5   2.0000     -76.426643     -2079.6747
   6   2.0000     -18.797822      -511.5147
   7   2.0000     -18.796424      -511.4767
   8   2.0000     -18.794462      -511.4233
   9   2.0000     -18.788865      -511.2710
  10   2.0000      -9.962201      -271.0853
  11   2.0000      -9.957480      -270.9568
  12   2.0000      -9.957453      -270.9561
  13   2.0000      -9.955956      -270.9153
  14   2.0000      -9.945898      -270.6416
  15   2.0000      -9.889324      -269.1022
  16   2.0000      -9.888920      -269.0912
  17   2.0000      -9.886805      -269.0337
  18   2.0000      -9.876276      -268.7471
  19   2.0000      -7.690025      -209.2562
  20   2.0000      -7.686870      -209.1704
  21   2.0000      -7.638486      -207.8538
  22   2.0000      -7.631882      -207.6741
  23   2.0000      -6.427980      -174.9142
  24   2.0000      -6.424195      -174.8112
  25   2.0000      -5.718259      -155.6017
  26   2.0000      -5.714684      -155.5045
  27   2.0000      -5.714401      -155.4967
  28   2.0000      -5.711442      -155.4162
  29   2.0000      -5.706834      -155.2908
  30   2.0000      -5.703878      -155.2104
  31   2.0000      -5.667387      -154.2174
  32   2.0000      -5.660901      -154.0410
  33   2.0000      -5.659148      -153.9933
  34   2.0000      -5.658651      -153.9797
  35   2.0000      -5.652459      -153.8112
  36   2.0000      -5.651943      -153.7972
  37   2.0000      -4.650369      -126.5430
  38   2.0000      -4.649963      -126.5319
  39   2.0000      -4.648400      -126.4894
  40   2.0000      -4.646934      -126.4495
  41   2.0000      -4.645891      -126.4211
  42   2.0000      -4.644571      -126.3852
  43   2.0000      -0.992093       -26.9962
  44   2.0000      -0.987349       -26.8671
  45   2.0000      -0.951356       -25.8877
  46   2.0000      -0.944053       -25.6890
  47   2.0000      -0.764546       -20.8044
  48   2.0000      -0.724498       -19.7146
  49   2.0000      -0.712483       -19.3876
  50   2.0000      -0.691278       -18.8106
  51   2.0000      -0.687768       -18.7151
  52   2.0000      -0.676513       -18.4089
  53   2.0000      -0.654960       -17.8224
  54   2.0000      -0.640174       -17.4200
  55   2.0000      -0.602833       -16.4039
  56   2.0000      -0.592780       -16.1304
  57   2.0000      -0.577252       -15.7078
  58   2.0000      -0.575634       -15.6638
  59   2.0000      -0.561659       -15.2835
  60   2.0000      -0.503430       -13.6990
  61   2.0000      -0.497119       -13.5273
  62   2.0000      -0.479897       -13.0587
  63   2.0000      -0.477940       -13.0054
  64   2.0000      -0.463911       -12.6236
  65   2.0000      -0.447411       -12.1747
  66   2.0000      -0.444832       -12.1045
  67   2.0000      -0.438887       -11.9427
  68   2.0000      -0.428337       -11.6557
  69   2.0000      -0.422205       -11.4888
  70   2.0000      -0.405931       -11.0459
  71   2.0000      -0.399750       -10.8778
  72   2.0000      -0.397018       -10.8034
  73   2.0000      -0.393726       -10.7138
  74   2.0000      -0.383520       -10.4361
  75   2.0000      -0.373390       -10.1605
  76   2.0000      -0.366559        -9.9746
  77   2.0000      -0.359707        -9.7881
  78   2.0000      -0.357069        -9.7164
  79   2.0000      -0.353255        -9.6126
  80   2.0000      -0.351346        -9.5606
  81   2.0000      -0.347607        -9.4589
  82   2.0000      -0.344761        -9.3814
  83   2.0000      -0.335085        -9.1181
  84   2.0000      -0.332604        -9.0506
  85   2.0000      -0.324133        -8.8201
  86   2.0000      -0.319620        -8.6973
  87   2.0000      -0.301034        -8.1915
  88   2.0000      -0.295090        -8.0298
  89   2.0000      -0.292306        -7.9541
  90   2.0000      -0.287761        -7.8304
  91   2.0000      -0.278779        -7.5860
  92   2.0000      -0.277856        -7.5608
  93   2.0000      -0.268470        -7.3054
  94   2.0000      -0.257424        -7.0049
  95   2.0000      -0.231995        -6.3129
  96   2.0000      -0.218624        -5.9491
  97   2.0000      -0.211393        -5.7523
  98   2.0000      -0.208836        -5.6827
  99   2.0000      -0.207172        -5.6374
 100   2.0000      -0.201702        -5.4886
 101   0.0000      -0.043760        -1.1908
 102   0.0000      -0.029365        -0.7991
 103   0.0000      -0.014587        -0.3969
 104   0.0000      -0.001115        -0.0303
 105   0.0000       0.009391         0.2555

MULLIKEN ATOMIC CHARGES
-----------------------
   0 C :   -0.304174
   1 C :   -0.004813
   2 O :   -0.373117
   3 P :    0.598508
   4 S :   -0.318186
   5 O :   -0.380822
   6 C :   -0.009837
   7 C :   -0.310726
   8 S :   -0.056817
   9 C :   -0.346325
  10 S :   -0.115958
  11 P :    0.607301
  12 S :   -0.308331
  13 O :   -0.356145
  14 C :   -0.021896
  15 C :   -0.293846
  16 O :   -0.379882
  17 C :   -0.007338
  18 C :   -0.318696
  19 H :    0.123997
  20 H :    0.116526
  21 H :    0.113992
  22 H :    0.106270
  23 H :    0.113975
  24 H :    0.105485
  25 H :    0.112753
  26 H :    0.115602
  27 H :    0.114476
  28 H :    0.129304
  29 H :    0.197624
  30 H :    0.185074
  31 H :    0.113076
  32 H :    0.114934
  33 H :    0.122406
  34 H :    0.126482
  35 H :    0.109932
  36 H :    0.105044
  37 H :    0.113479
  38 H :    0.144935
  39 H :    0.103311
  40 H :    0.112422
Sum of atomic charges:    0.0000000

LOEWDIN ATOMIC CHARGES
----------------------
   0 C :   -0.364825
   1 C :   -0.114804
   2 O :   -0.241204
   3 P :    0.567266
   4 S :   -0.318590
   5 O :   -0.248605
   6 C :   -0.122569
   7 C :   -0.366765
   8 S :    0.109639
   9 C :   -0.480223
  10 S :    0.068090
  11 P :    0.568532
  12 S :   -0.303029
  13 O :   -0.234889
  14 C :   -0.110917
  15 C :   -0.361272
  16 O :   -0.247998
  17 C :   -0.119817
  18 C :   -0.367930
  19 H :    0.123296
  20 H :    0.126411
  21 H :    0.131552
  22 H :    0.119233
  23 H :    0.112919
  24 H :    0.118263
  25 H :    0.110024
  26 H :    0.124321
  27 H :    0.131828
  28 H :    0.122831
  29 H :    0.131756
  30 H :    0.131998
  31 H :    0.104399
  32 H :    0.123962
  33 H :    0.130603
  34 H :    0.126499
  35 H :    0.129542
  36 H :    0.117798
  37 H :    0.104511
  38 H :    0.116835
  39 H :    0.119873
  40 H :    0.131455

  Mayer bond orders larger than 0.100000
B(  0-C ,  1-C ) :   1.1690 B(  0-C , 19-H ) :   0.9366 B(  0-C , 20-H ) :   0.9458
B(  0-C , 21-H ) :   0.9382 B(  1-C ,  2-O ) :   0.8978 B(  1-C , 22-H ) :   0.9332
B(  1-C , 23-H ) :   0.9190 B(  2-O ,  3-P ) :   1.0968 B(  3-P ,  4-S ) :   1.6398
B(  3-P ,  5-O ) :   1.0596 B(  3-P ,  8-S ) :   0.9776 B(  5-O ,  6-C ) :   0.9089
B(  6-C ,  7-C ) :   1.1642 B(  6-C , 24-H ) :   0.9337 B(  6-C , 25-H ) :   0.9135
B(  7-C , 26-H ) :   0.9468 B(  7-C , 27-H ) :   0.9384 B(  7-C , 28-H ) :   0.9356
B(  8-S ,  9-C ) :   0.9789 B(  9-C , 10-S ) :   1.0145 B(  9-C , 29-H ) :   0.8735
B(  9-C , 30-H ) :   0.8883 B( 10-S , 11-P ) :   0.9388 B( 10-S , 12-S ) :   0.1129
B( 11-P , 12-S ) :   1.6456 B( 11-P , 13-O ) :   1.1491 B( 11-P , 16-O ) :   1.0852
B( 13-O , 14-C ) :   0.8980 B( 14-C , 15-C ) :   1.1631 B( 14-C , 31-H ) :   0.9145
B( 14-C , 32-H ) :   0.9359 B( 15-C , 33-H ) :   0.9465 B( 15-C , 34-H ) :   0.9386
B( 15-C , 35-H ) :   0.9384 B( 16-O , 17-C ) :   0.8981 B( 17-C , 18-C ) :   1.1663
B( 17-C , 36-H ) :   0.9349 B( 17-C , 37-H ) :   0.9030 B( 18-C , 38-H ) :   0.9243
B( 18-C , 39-H ) :   0.9469 B( 18-C , 40-H ) :   0.9397

Dispersion correction           -0.064982848
FINAL SINGLE POINT ENERGY     -2929.521355502708

DIPOLE MOMENT
-------------

Method             : SCF
Type of density    : Electron Density
Multiplicity       :   1
Irrep              :   0
Energy             : -2929.6426567312596490 Eh
Relativity type    :
Basis              : AO
                                X                 Y                 Z
Electronic contribution:     -8.055225353     -12.009078342      -1.981034778
Nuclear contribution   :      8.917500030      13.464893692       1.381564031
                        -----------------------------------------
Total Dipole Moment    :      0.862274677       1.455815351      -0.599470747
                        -----------------------------------------
Magnitude (a.u.)       :      1.795071344
Magnitude (Debye)      :      4.562708753

Rotational constants in cm-1:             0.012968             0.004650             0.004292
Rotational constants in MHz :           388.763274           139.402773           128.667257

                             ****ORCA TERMINATED NORMALLY****
TOTAL RUN TIME: 0 days 0 hours 0 minutes 21 seconds 138 msec
