                         Program Version 6.0.0  -   RELEASE  -
|  1> ! r2scan-3c def2/J RI DEFGRID2 scfconv6 printgap
|  2> %output
|  3>     printlevel normal
|  4> end
|  5> * xyz 0 1
|  6> C 0.8480026818 1.3897366976 -0.6306712539
|  7> C 1.5951772455 0.1827186424 -0.047903025
|  8> H 2.5750719917 0.1043926104 -0.5421739937
|  9> C 0.7852919359 -1.1011256673 -0.3347610131
| 10> H 1.225090192 -1.9256316463 0.2438705781
| 11> C -0.6644808927 -0.9180241522 0.1443933967
| 12> H -1.2677916354 -1.7598289146 -0.2115214767
| 13> C -1.2614940816 0.3775497043 -0.448834496
| 14> H -1.3138250123 0.290120465 -1.5456309973
| 15> O -0.4571206729 1.4916484665 -0.1004059814
| 16> O -2.5397793857 0.60162628 0.0110014967
| 17> O -0.7728867813 -0.9041182134 1.5436294379
| 18> O 0.7501931518 -1.3915182531 -1.708719084
| 19> O 1.7537680279 0.2707358886 1.3495613549
| 20> H 0.8043202354 1.2848245145 -1.7228431266
| 21> H 1.3389376628 2.3274223432 -0.3674255798
| 22> H -2.5463426581 0.4683197443 0.9758616501
| 23> H -0.0545802429 -0.3490169998 1.899209878
| 24> H 1.588842336 -1.7890435194 -1.9854813428
| 25> H 2.222318935 1.0870585493 1.5767948833
| 26> *
| 27>
| 28>                          ****END OF INPUT****

CARTESIAN COORDINATES (ANGSTROEM)
---------------------------------
  C      0.848003    1.389737   -0.630671
  C      1.595177    0.182719   -0.047903
  H      2.575072    0.104393   -0.542174
  C      0.785292   -1.101126   -0.334761
  H      1.225090   -1.925632    0.243871
  C     -0.664481   -0.918024    0.144393
  H     -1.267792   -1.759829   -0.211521
  C     -1.261494    0.377550   -0.448834
  H     -1.313825    0.290120   -1.545631
  O     -0.457121    1.491648   -0.100406
  O     -2.539779    0.601626    0.011001
  O     -0.772887   -0.904118    1.543629
  O      0.750193   -1.391518   -1.708719
  O      1.753768    0.270736    1.349561
  H      0.804320    1.284825   -1.722843
  H      1.338938    2.327422   -0.367426
  H     -2.546343    0.468320    0.975862
  H     -0.054580   -0.349017    1.899210
  H      1.588842   -1.789044   -1.985481
  H      2.222319    1.087059    1.576795

 Total Charge           Charge          ....    0
 Multiplicity           Mult            ....    1
 Number of Electrons    NEL             ....   80
 Basis Dimension        Dim             ....  265

ORBITAL ENERGIES
----------------

  NO   OCC          E(Eh)            E(eV)
   0   2.0000     -18.983023      -516.5543
   1   2.0000     -18.974958      -516.3349
   2   2.0000     -18.957132      -515.8498
   3   2.0000     -18.950606      -515.6722
   4   2.0000     -18.950106      -515.6586
   5   2.0000     -10.122557      -275.4488
   6   2.0000     -10.103131      -274.9202
   7   2.0000     -10.100246      -274.8417
   8   2.0000     -10.088654      -274.5262
   9   2.0000     -10.083520      -274.3865
  10   2.0000      -1.042363       -28.3641
  11   2.0000      -1.020151       -27.7597
  12   2.0000      -1.011308       -27.5191
  13   2.0000      -0.987285       -26.8654
  14   2.0000      -0.969275       -26.3753
  15   2.0000      -0.749806       -20.4033
  16   2.0000      -0.714702       -19.4480
  17   2.0000      -0.630846       -17.1662
  18   2.0000      -0.614875       -16.7316
  19   2.0000      -0.561377       -15.2758
  20   2.0000      -0.519935       -14.1481
  21   2.0000      -0.513743       -13.9797
  22   2.0000      -0.488623       -13.2961
  23   2.0000      -0.461163       -12.5489
  24   2.0000      -0.453500       -12.3404
  25   2.0000      -0.445363       -12.1189
  26   2.0000      -0.438535       -11.9331
  27   2.0000      -0.410141       -11.1605
  28   2.0000      -0.391466       -10.6523
  29   2.0000      -0.372754       -10.1432
  30   2.0000      -0.350430        -9.5357
  31   2.0000      -0.342621        -9.3232
  32   2.0000      -0.319752        -8.7009
  33   2.0000      -0.308858        -8.4045
  34   2.0000      -0.292801        -7.9675
  35   2.0000      -0.279287        -7.5998
  36   2.0000      -0.267369        -7.2755
  37   2.0000      -0.258013        -7.0209
  38   2.0000      -0.244481        -6.6527
  39   2.0000      -0.215179        -5.8553
  40   0.0000       0.023124         0.6292
  41   0.0000       0.041704         1.1348
  42   0.0000       0.073078         1.9885
  43   0.0000       0.091941         2.5018
  44   0.0000       0.102777         2.7967

MULLIKEN ATOMIC CHARGES
-----------------------
   0 C :   -0.257567
   1 C :    0.003440
   2 H :    0.140564
   3 C :   -0.044626
   4 H :    0.147055
   5 C :   -0.016185
   6 H :    0.160908
   7 C :   -0.062837
   8 H :    0.150529
   9 O :   -0.181183
  10 O :   -0.376605
  11 O :   -0.436188
  12 O :   -0.406726
  13 O :   -0.407802
  14 H :    0.167925
  15 H :    0.151323
  16 H :    0.323487
  17 H :    0.342226
  18 H :    0.301177
  19 H :    0.301085
Sum of atomic charges:   -0.0000000

LOEWDIN ATOMIC CHARGES
----------------------
   0 C :    0.037637
   1 C :    0.088010
   2 H :    0.173279
   3 C :    0.119486
   4 H :    0.185365
   5 C :    0.118616
   6 H :    0.200859
   7 C :    0.281964
   8 H :    0.199030
   9 O :   -0.677151
  10 O :   -0.479498
  11 O :   -0.564972
  12 O :   -0.583360
  13 O :   -0.595140
  14 H :    0.183293
  15 H :    0.183052
  16 H :    0.287625
  17 H :    0.288570
  18 H :    0.275375
  19 H :    0.277961

  Mayer bond orders larger than 0.100000
B(  0-C ,  1-C ) :   0.8921 B(  0-C ,  9-O ) :   0.9145 B(  0-C , 14-H ) :   0.9759
B(  0-C , 15-H ) :   0.9617 B(  1-C ,  2-H ) :   0.9539 B(  1-C ,  3-C ) :   0.8784
B(  1-C , 13-O ) :   0.9125 B(  3-C ,  4-H ) :   0.9689 B(  3-C ,  5-C ) :   0.9458
B(  3-C , 12-O ) :   0.9516 B(  5-C ,  6-H ) :   0.9438 B(  5-C ,  7-C ) :   0.9071
B(  5-C , 11-O ) :   1.0011 B(  7-C ,  8-H ) :   0.9875 B(  7-C ,  9-O ) :   0.9128
B(  7-C , 10-O ) :   1.1441 B( 10-O , 16-H ) :   0.8522 B( 11-O , 17-H ) :   0.8302
B( 12-O , 18-H ) :   0.8957 B( 13-O , 19-H ) :   0.8948

Dispersion correction           -0.006467208
FINAL SINGLE POINT ENERGY      -572.561556008803

DIPOLE MOMENT
-------------

Method             : SCF
Type of density    : Electron Density
Multiplicity       :   1
Irrep              :   0
Energy             :  -572.5722104877374932 Eh
Relativity type    :
Basis              : AO
                                X                 Y                 Z
Electronic contribution:     -2.393573873       0.249083652       1.342456805
Nuclear contribution   :      4.270600436      -0.244208654      -1.559283299
                        -----------------------------------------
Total Dipole Moment    :      1.877026563       0.004874998      -0.216826494
                        -----------------------------------------
Magnitude (a.u.)       :      1.889514809
Magnitude (Debye)      :      4.802764961

Rotational constants in cm-1:             0.058020             0.040851             0.038800
Rotational constants in MHz :          1739.389598          1224.689610          1163.188930

                             ****ORCA TERMINATED NORMALLY****
TOTAL RUN TIME: 0 days 0 hours 0 minutes 45 seconds 624 msec
