                         Program Version 6.0.0  -   RELEASE  -
|  1> ! r2scan-3c def2/J RI DEFGRID2 scfconv6 printgap
|  2> %output
|  3>     printlevel normal
|  4> end
|  5> %cpcm
|  6>     smd true
|  7>     smdsolvent "water"
|  8> end
|  9> * xyz 0 1
| 10> C 0.8480026818 1.3897366976 -0.6306712539
| 11> C 1.5951772455 0.1827186424 -0.047903025
| 12> H 2.5750719917 0.1043926104 -0.5421739937
| 13> C 0.7852919359 -1.1011256673 -0.3347610131
| 14> H 1.225090192 -1.9256316463 0.2438705781
| 15> C -0.6644808927 -0.9180241522 0.1443933967
| 16> H -1.2677916354 -1.7598289146 -0.2115214767
| 17> C -1.2614940816 0.3775497043 -0.448834496
| 18> H -1.3138250123 0.290120465 -1.5456309973
| 19> O -0.4571206729 1.4916484665 -0.1004059814
| 20> O -2.5397793857 0.60162628 0.0110014967
| 21> O -0.7728867813 -0.9041182134 1.5436294379
| 22> O 0.7501931518 -1.3915182531 -1.708719084
| 23> O 1.7537680279 0.2707358886 1.3495613549
| 24> H 0.8043202354 1.2848245145 -1.7228431266
| 25> H 1.3389376628 2.3274223432 -0.3674255798
| 26> H -2.5463426581 0.4683197443 0.9758616501
| 27> H -0.0545802429 -0.3490169998 1.899209878
| 28> H 1.588842336 -1.7890435194 -1.9854813428
| 29> H 2.222318935 1.0870585493 1.5767948833
| 30> *
| 31>
| 32>                          ****END OF INPUT****

CARTESIAN COORDINATES (ANGSTROEM)
---------------------------------
  C      0.848003    1.389737   -0.630671
  C      1.595177    0.182719   -0.047903
  H      2.575072    0.104393   -0.542174
  C      0.785292   -1.101126   -0.334761
  H      1.225090   -1.925632    0.243871
  C     -0.664481   -0.918024    0.144393
  H     -1.267792   -1.759829   -0.211521
  C     -1.261494    0.377550   -0.448834
  H     -1.313825    0.290120   -1.545631
  O     -0.457121    1.491648   -0.100406
  O     -2.539779    0.601626    0.011001
  O     -0.772887   -0.904118    1.543629
  O      0.750193   -1.391518   -1.708719
  O      1.753768    0.270736    1.349561
  H      0.804320    1.284825   -1.722843
  H      1.338938    2.327422   -0.367426
  H     -2.546343    0.468320    0.975862
  H     -0.054580   -0.349017    1.899210
  H      1.588842   -1.789044   -1.985481
  H      2.222319    1.087059    1.576795

 Total Charge           Charge          ....    0
 Multiplicity           Mult            ....    1
 Number of Electrons    NEL             ....   80
 Basis Dimension        Dim             ....  265

ORBITAL ENERGIES
----------------

  NO   OCC          E(Eh)            E(eV)
   0   2.0000     -18.966763      -516.1119
   1   2.0000     -18.965664      -516.0819
   2   2.0000     -18.964664      -516.0548
   3   2.0000     -18.963275      -516.0169
   4   2.0000     -18.958916      -515.8983
   5   2.0000     -10.128632      -275.6141
   6   2.0000     -10.089513      -274.5496
   7   2.0000     -10.085747      -274.4471
   8   2.0000     -10.084189      -274.4047
   9   2.0000     -10.076128      -274.1854
  10   2.0000      -1.048875       -28.5413
  11   2.0000      -1.010383       -27.4939
  12   2.0000      -0.997674       -27.1481
  13   2.0000      -0.993496       -27.0344
  14   2.0000      -0.978908       -26.6374
  15   2.0000      -0.739808       -20.1312
  16   2.0000      -0.711524       -19.3615
  17   2.0000      -0.624113       -16.9830
  18   2.0000      -0.612880       -16.6773
  19   2.0000      -0.557033       -15.1576
  20   2.0000      -0.518654       -14.1133
  21   2.0000      -0.505865       -13.7653
  22   2.0000      -0.477587       -12.9958
  23   2.0000      -0.460824       -12.5396
  24   2.0000      -0.449704       -12.2371
  25   2.0000      -0.440753       -11.9935
  26   2.0000      -0.435266       -11.8442
  27   2.0000      -0.404541       -11.0081
  28   2.0000      -0.389901       -10.6098
  29   2.0000      -0.368061       -10.0154
  30   2.0000      -0.352159        -9.5827
  31   2.0000      -0.334646        -9.1062
  32   2.0000      -0.326877        -8.8948
  33   2.0000      -0.315459        -8.5841
  34   2.0000      -0.291535        -7.9331
  35   2.0000      -0.289729        -7.8839
  36   2.0000      -0.268685        -7.3113
  37   2.0000      -0.252493        -6.8707
  38   2.0000      -0.244226        -6.6457
  39   2.0000      -0.219296        -5.9673
  40   0.0000       0.041949         1.1415
  41   0.0000       0.069654         1.8954
  42   0.0000       0.084072         2.2877
  43   0.0000       0.104432         2.8417
  44   0.0000       0.109963         2.9922

MULLIKEN ATOMIC CHARGES
-----------------------
   0 C :   -0.275357
   1 C :    0.015404
   2 H :    0.173254
   3 C :   -0.051754
   4 H :    0.173802
   5 C :   -0.012539
   6 H :    0.176919
   7 C :   -0.050823
   8 H :    0.169743
   9 O :   -0.249239
  10 O :   -0.444571
  11 O :   -0.487115
  12 O :   -0.470480
  13 O :   -0.468334
  14 H :    0.182228
  15 H :    0.179581
  16 H :    0.362756
  17 H :    0.369771
  18 H :    0.354609
  19 H :    0.352145
Sum of atomic charges:   -0.0000000

LOEWDIN ATOMIC CHARGES
----------------------
   0 C :    0.044278
   1 C :    0.098174
   2 H :    0.189494
   3 C :    0.122496
   4 H :    0.192967
   5 C :    0.115547
   6 H :    0.205222
   7 C :    0.277706
   8 H :    0.207214
   9 O :   -0.712447
  10 O :   -0.513565
  11 O :   -0.590752
  12 O :   -0.601244
  13 O :   -0.607172
  14 H :    0.189034
  15 H :    0.196878
  16 H :    0.299302
  17 H :    0.294357
  18 H :    0.295812
  19 H :    0.296698

  Mayer bond orders larger than 0.100000
B(  0-C ,  1-C ) :   0.8831 B(  0-C ,  9-O ) :   0.8939 B(  0-C , 14-H ) :   0.9729
B(  0-C , 15-H ) :   0.9470 B(  1-C ,  2-H ) :   0.9522 B(  1-C ,  3-C ) :   0.8732
B(  1-C , 13-O ) :   0.9213 B(  3-C ,  4-H ) :   0.9804 B(  3-C ,  5-C ) :   0.9244
B(  3-C , 12-O ) :   0.9497 B(  5-C ,  6-H ) :   0.9441 B(  5-C ,  7-C ) :   0.9024
B(  5-C , 11-O ) :   0.9765 B(  7-C ,  8-H ) :   0.9825 B(  7-C ,  9-O ) :   0.9162
B(  7-C , 10-O ) :   1.1129 B( 10-O , 16-H ) :   0.8334 B( 11-O , 17-H ) :   0.8131
B( 12-O , 18-H ) :   0.8678 B( 13-O , 19-H ) :   0.8691

Dispersion correction           -0.006467208
FINAL SINGLE POINT ENERGY      -572.590286655649

DIPOLE MOMENT
-------------

Method             : SCF
Type of density    : Electron Density
Multiplicity       :   1
Irrep              :   0
Energy             :  -572.6009411345831950 Eh
Relativity type    :
Basis              : AO
                                X                 Y                 Z
Electronic contribution:     -1.639413302       0.250802885       1.213223935
Nuclear contribution   :      4.270600436      -0.244208654      -1.559283299
                        -----------------------------------------
Total Dipole Moment    :      2.631187134       0.006594231      -0.346059364
                        -----------------------------------------
Magnitude (a.u.)       :      2.653854989
Magnitude (Debye)      :      6.745563303

Rotational constants in cm-1:             0.058020             0.040851             0.038800
Rotational constants in MHz :          1739.389598          1224.689610          1163.188930

                             ****ORCA TERMINATED NORMALLY****
TOTAL RUN TIME: 0 days 0 hours 0 minutes 51 seconds 108 msec
