                         Program Version 6.0.0  -   RELEASE  -
|  1> ! pbe def2-sv(p) def2/J RI DEFGRID1 loosescf d4 GCP(DFT/SV(P)) printgap
|  2> %output
|  3>     printlevel normal
|  4> end
|  5> * xyz 0 1
|  6> C -0.7338716693 -1.1930298368 0.2326289854
|  7> C 0.7239358564 -1.1639785463 -0.228068819
|  8> O 1.3827358934 0.0014230049 0.2342832373
|  9> C 0.721549288 1.1654696111 -0.2280868026
| 10> C -0.7363045769 1.1915084081 0.232648529
| 11> N -1.3949029947 -0.0014301777 -0.2775372956
| 12> H -0.7529885649 -1.240588284 1.3358178398
| 13> H -1.22897413 -2.0758831919 -0.172260431
| 14> H 1.2827667422 -2.0061501311 0.180616966
| 15> H 0.7569976617 -1.1906775102 -1.325867105
| 16> H 1.2786533646 2.0087796175 0.1805951097
| 17> H 0.7545719204 1.1922431735 -1.3258835469
| 18> H -0.7555290196 1.2390015857 1.3358426136
| 19> H -1.2332040566 2.0733539789 -0.1722367519
| 20> H -2.3726663568 -0.002431027 -0.0074270418
| 21> *
| 22>
| 23>                          ****END OF INPUT****

CARTESIAN COORDINATES (ANGSTROEM)
---------------------------------
  C     -0.733872   -1.193030    0.232629
  C      0.723936   -1.163979   -0.228069
  O      1.382736    0.001423    0.234283
  C      0.721549    1.165470   -0.228087
  C     -0.736305    1.191508    0.232649
  N     -1.394903   -0.001430   -0.277537
  H     -0.752989   -1.240588    1.335818
  H     -1.228974   -2.075883   -0.172260
  H      1.282767   -2.006150    0.180617
  H      0.756998   -1.190678   -1.325867
  H      1.278653    2.008780    0.180595
  H      0.754572    1.192243   -1.325884
  H     -0.755529    1.239002    1.335843
  H     -1.233204    2.073354   -0.172237
  H     -2.372666   -0.002431   -0.007427

 Total Charge           Charge          ....    0
 Multiplicity           Mult            ....    1
 Number of Electrons    NEL             ....   48
 Basis Dimension        Dim             ....  102

ORBITAL ENERGIES
----------------

  NO   OCC          E(Eh)            E(eV)
   0   2.0000     -18.748980      -510.1857
   1   2.0000     -13.978129      -380.3642
   2   2.0000      -9.925304      -270.0813
   3   2.0000      -9.925302      -270.0812
   4   2.0000      -9.908881      -269.6344
   5   2.0000      -9.908879      -269.6343
   6   2.0000      -0.936389       -25.4804
   7   2.0000      -0.820682       -22.3319
   8   2.0000      -0.690264       -18.7830
   9   2.0000      -0.607770       -16.5383
  10   2.0000      -0.581032       -15.8107
  11   2.0000      -0.502023       -13.6607
  12   2.0000      -0.472407       -12.8548
  13   2.0000      -0.422919       -11.5082
  14   2.0000      -0.412081       -11.2133
  15   2.0000      -0.402990       -10.9659
  16   2.0000      -0.378158       -10.2902
  17   2.0000      -0.365134        -9.9358
  18   2.0000      -0.346363        -9.4250
  19   2.0000      -0.311503        -8.4764
  20   2.0000      -0.308355        -8.3908
  21   2.0000      -0.256332        -6.9751
  22   2.0000      -0.205658        -5.5962
  23   2.0000      -0.181390        -4.9359
  24   0.0000       0.032490         0.8841
  25   0.0000       0.061747         1.6802
  26   0.0000       0.072045         1.9604
  27   0.0000       0.078711         2.1418
  28   0.0000       0.098950         2.6926

MULLIKEN ATOMIC CHARGES
-----------------------
   0 C :   -0.077260
   1 C :    0.023983
   2 O :   -0.338242
   3 C :    0.023984
   4 C :   -0.077260
   5 N :   -0.373465
   6 H :    0.062443
   7 H :    0.086337
   8 H :    0.091735
   9 H :    0.065044
  10 H :    0.091734
  11 H :    0.065050
  12 H :    0.062446
  13 H :    0.086335
  14 H :    0.207138
Sum of atomic charges:    0.0000000

LOEWDIN ATOMIC CHARGES
----------------------
   0 C :   -0.187041
   1 C :   -0.118184
   2 O :   -0.175033
   3 C :   -0.118183
   4 C :   -0.187037
   5 N :   -0.271733
   6 H :    0.093586
   7 H :    0.116927
   8 H :    0.113678
   9 H :    0.099877
  10 H :    0.113679
  11 H :    0.099880
  12 H :    0.093587
  13 H :    0.116927
  14 H :    0.209071

  Mayer bond orders larger than 0.100000
B(  0-C ,  1-C ) :   1.1402 B(  0-C ,  5-N ) :   1.0643 B(  0-C ,  6-H ) :   0.8888
B(  0-C ,  7-H ) :   0.9204 B(  1-C ,  2-O ) :   1.0312 B(  1-C ,  8-H ) :   0.9318
B(  1-C ,  9-H ) :   0.8965 B(  2-O ,  3-C ) :   1.0312 B(  3-C ,  4-C ) :   1.1402
B(  3-C , 10-H ) :   0.9318 B(  3-C , 11-H ) :   0.8965 B(  4-C ,  5-N ) :   1.0643
B(  4-C , 12-H ) :   0.8888 B(  4-C , 13-H ) :   0.9204 B(  5-N , 14-H ) :   0.8802

Dispersion correction           -0.011652255
FINAL SINGLE POINT ENERGY      -287.135267611904

DIPOLE MOMENT
-------------

Method             : SCF
Type of density    : Electron Density
Multiplicity       :   1
Irrep              :   0
Energy             :  -287.1990496740439198 Eh
Relativity type    :
Basis              : AO
                                X                 Y                 Z
Electronic contribution:      1.508838005       0.001579993       0.075023992
Nuclear contribution   :     -2.117133118      -0.002193111       0.029345948
                        -----------------------------------------
Total Dipole Moment    :     -0.608295113      -0.000613119       0.104369940
                        -----------------------------------------
Magnitude (a.u.)       :      0.617184255
Magnitude (Debye)      :      1.568757706

Rotational constants in cm-1:             0.166468             0.153978             0.090047
Rotational constants in MHz :          4990.570865          4616.131354          2699.550494

                             ****ORCA TERMINATED NORMALLY****
TOTAL RUN TIME: 0 days 0 hours 0 minutes 6 seconds 190 msec
