                         Program Version 6.0.1  -  RELEASE   -
|  1> ! pbe def2-sv(p) def2/J RI DEFGRID1 loosescf d4 GCP(DFT/SV(P)) printgap
|  2> %output
|  3>     printlevel normal
|  4> end
|  5> * xyz 0 1
|  6> C 2.8289927332 -3.3117336607 0.9045818572
|  7> C 3.0192917692 -1.8211072885 1.1273135879
|  8> O 2.8324652816 -1.1084115385 -0.1134095093
|  9> C 1.7381716196 -0.438884181 -0.3329435819
| 10> O 0.8267035618 -0.299134002 0.4768467238
| 11> C 1.6878259477 0.2100140717 -1.6906765557
| 12> C 0.462699617 1.1106093417 -1.7358444426
| 13> H 0.441973732 1.6989558344 -2.6567341292
| 14> C 0.4007645957 2.0608311151 -0.5484902973
| 15> O -0.6244972002 2.4132723809 -0.0153750019
| 16> O 1.6080515918 2.4662493454 -0.203817338
| 17> C 1.7248289973 3.4345507674 0.8591769668
| 18> C 1.5890935153 4.8488237539 0.3196437351
| 19> S -1.1077156333 0.170973285 -1.8289026341
| 20> P -1.5225956008 -0.8062253945 -0.0020406419
| 21> S -0.8695895845 -2.6055005724 0.468171054
| 22> O -1.7665581237 0.1577115881 1.2497452712
| 23> C -1.0292375767 0.1560691488 2.4651635751
| 24> O -3.0430809919 -0.9110441922 -0.5292001467
| 25> C -4.0276650879 -1.6923673832 0.1474147712
| 26> H 1.7953305831 -3.5243420589 0.6373042035
| 27> H 3.4805968391 -3.6559933236 0.1070910925
| 28> H 3.0679815169 -3.842780316 1.8197708618
| 29> H 4.0430020184 -1.5934607763 1.4280523354
| 30> H 2.3095436079 -1.4414140143 1.8664366073
| 31> H 1.6226936398 -0.561615216 -2.4594949394
| 32> H 2.6032272558 0.7819763625 -1.8472511148
| 33> H 0.9540317815 3.2286147021 1.6075123294
| 34> H 2.7166050291 3.2594279924 1.2764195111
| 35> H 0.5921682521 4.9993565317 -0.0883642758
| 36> H 1.7490307564 5.5555996354 1.1271090892
| 37> H 2.3234525666 5.0232170995 -0.4614941508
| 38> H -0.2220513285 0.8842039691 2.4032405926
| 39> H -0.6178566395 -0.8376841092 2.6537055889
| 40> H -1.7371347536 0.4342849523 3.2429486126
| 41> H -4.3875428687 -1.1582577875 1.0267090015
| 42> H -3.605207139 -2.6553918795 0.4453670712
| 43> H -4.8330555398 -1.8379583318 -0.5682572752
| 44> *
| 45>
| 46>                          ****END OF INPUT****

CARTESIAN COORDINATES (ANGSTROEM)
---------------------------------
  C      2.828993   -3.311734    0.904582
  C      3.019292   -1.821107    1.127314
  O      2.832465   -1.108412   -0.113410
  C      1.738172   -0.438884   -0.332944
  O      0.826704   -0.299134    0.476847
  C      1.687826    0.210014   -1.690677
  C      0.462700    1.110609   -1.735844
  H      0.441974    1.698956   -2.656734
  C      0.400765    2.060831   -0.548490
  O     -0.624497    2.413272   -0.015375
  O      1.608052    2.466249   -0.203817
  C      1.724829    3.434551    0.859177
  C      1.589094    4.848824    0.319644
  S     -1.107716    0.170973   -1.828903
  P     -1.522596   -0.806225   -0.002041
  S     -0.869590   -2.605501    0.468171
  O     -1.766558    0.157712    1.249745
  C     -1.029238    0.156069    2.465164
  O     -3.043081   -0.911044   -0.529200
  C     -4.027665   -1.692367    0.147415
  H      1.795331   -3.524342    0.637304
  H      3.480597   -3.655993    0.107091
  H      3.067982   -3.842780    1.819771
  H      4.043002   -1.593461    1.428052
  H      2.309544   -1.441414    1.866437
  H      1.622694   -0.561615   -2.459495
  H      2.603227    0.781976   -1.847251
  H      0.954032    3.228615    1.607512
  H      2.716605    3.259428    1.276420
  H      0.592168    4.999357   -0.088364
  H      1.749031    5.555600    1.127109
  H      2.323453    5.023217   -0.461494
  H     -0.222051    0.884204    2.403241
  H     -0.617857   -0.837684    2.653706
  H     -1.737135    0.434285    3.242949
  H     -4.387543   -1.158258    1.026709
  H     -3.605207   -2.655392    0.445367
  H     -4.833056   -1.837958   -0.568257

 Total Charge           Charge          ....    0
 Multiplicity           Mult            ....    1
 Number of Electrons    NEL             ....  174
 Basis Dimension        Dim             ....  316

ORBITAL ENERGIES
----------------

  NO   OCC          E(Eh)            E(eV)
   0   2.0000     -88.027934     -2395.3619
   1   2.0000     -87.961540     -2393.5552
   2   2.0000     -76.412199     -2079.2816
   3   2.0000     -18.821118      -512.1486
   4   2.0000     -18.811515      -511.8873
   5   2.0000     -18.773590      -510.8554
   6   2.0000     -18.764462      -510.6070
   7   2.0000     -18.762120      -510.5432
   8   2.0000     -18.739960      -509.9402
   9   2.0000     -10.030625      -272.9472
  10   2.0000     -10.017872      -272.6002
  11   2.0000      -9.957132      -270.9473
  12   2.0000      -9.955356      -270.8990
  13   2.0000      -9.949634      -270.7433
  14   2.0000      -9.926809      -270.1222
  15   2.0000      -9.922420      -270.0028
  16   2.0000      -9.920397      -269.9477
  17   2.0000      -9.894292      -269.2374
  18   2.0000      -9.884050      -268.9587
  19   2.0000      -7.672643      -208.7832
  20   2.0000      -7.606738      -206.9899
  21   2.0000      -6.407718      -174.3629
  22   2.0000      -5.701404      -155.1431
  23   2.0000      -5.696998      -155.0232
  24   2.0000      -5.688871      -154.8021
  25   2.0000      -5.635784      -153.3575
  26   2.0000      -5.627315      -153.1270
  27   2.0000      -5.626724      -153.1109
  28   2.0000      -4.630668      -126.0069
  29   2.0000      -4.629711      -125.9808
  30   2.0000      -4.628103      -125.9371
  31   2.0000      -1.031237       -28.0614
  32   2.0000      -1.018252       -27.7080
  33   2.0000      -0.961613       -26.1668
  34   2.0000      -0.938306       -25.5326
  35   2.0000      -0.921271       -25.0691
  36   2.0000      -0.917721       -24.9725
  37   2.0000      -0.765673       -20.8350
  38   2.0000      -0.719521       -19.5792
  39   2.0000      -0.709366       -19.3028
  40   2.0000      -0.686733       -18.6870
  41   2.0000      -0.651294       -17.7226
  42   2.0000      -0.623889       -16.9769
  43   2.0000      -0.612588       -16.6694
  44   2.0000      -0.609455       -16.5841
  45   2.0000      -0.598027       -16.2732
  46   2.0000      -0.566413       -15.4129
  47   2.0000      -0.514181       -13.9916
  48   2.0000      -0.512802       -13.9541
  49   2.0000      -0.493678       -13.4337
  50   2.0000      -0.489076       -13.3084
  51   2.0000      -0.467009       -12.7080
  52   2.0000      -0.460326       -12.5261
  53   2.0000      -0.450600       -12.2614
  54   2.0000      -0.444262       -12.0890
  55   2.0000      -0.429949       -11.6995
  56   2.0000      -0.425381       -11.5752
  57   2.0000      -0.415187       -11.2978
  58   2.0000      -0.405775       -11.0417
  59   2.0000      -0.400767       -10.9054
  60   2.0000      -0.399210       -10.8630
  61   2.0000      -0.393059       -10.6957
  62   2.0000      -0.389036       -10.5862
  63   2.0000      -0.382240       -10.4013
  64   2.0000      -0.380562       -10.3556
  65   2.0000      -0.371980       -10.1221
  66   2.0000      -0.360467        -9.8088
  67   2.0000      -0.357393        -9.7252
  68   2.0000      -0.344163        -9.3651
  69   2.0000      -0.343013        -9.3339
  70   2.0000      -0.335184        -9.1208
  71   2.0000      -0.334345        -9.0980
  72   2.0000      -0.324575        -8.8321
  73   2.0000      -0.307178        -8.3587
  74   2.0000      -0.304512        -8.2862
  75   2.0000      -0.297708        -8.1010
  76   2.0000      -0.284549        -7.7430
  77   2.0000      -0.276219        -7.5163
  78   2.0000      -0.266805        -7.2601
  79   2.0000      -0.263923        -7.1817
  80   2.0000      -0.252982        -6.8840
  81   2.0000      -0.250237        -6.8093
  82   2.0000      -0.242560        -6.6004
  83   2.0000      -0.225532        -6.1370
  84   2.0000      -0.208904        -5.6846
  85   2.0000      -0.179430        -4.8825
  86   2.0000      -0.175816        -4.7842
  87   0.0000      -0.053621        -1.4591
  88   0.0000      -0.030383        -0.8268
  89   0.0000      -0.021882        -0.5954
  90   0.0000       0.003537         0.0963
  91   0.0000       0.031914         0.8684

MULLIKEN ATOMIC CHARGES
-----------------------
   0 C :   -0.306255
   1 C :   -0.023138
   2 O :   -0.208474
   3 C :    0.150313
   4 O :   -0.235396
   5 C :   -0.050480
   6 C :   -0.321692
   7 H :    0.147217
   8 C :    0.192905
   9 O :   -0.169071
  10 O :   -0.246211
  11 C :   -0.023218
  12 C :   -0.302113
  13 S :   -0.056521
  14 P :    0.673897
  15 S :   -0.371514
  16 O :   -0.371647
  17 C :   -0.097066
  18 O :   -0.400487
  19 C :   -0.094961
  20 H :    0.146174
  21 H :    0.111224
  22 H :    0.110790
  23 H :    0.104478
  24 H :    0.120449
  25 H :    0.136398
  26 H :    0.124308
  27 H :    0.123265
  28 H :    0.101892
  29 H :    0.130984
  30 H :    0.115627
  31 H :    0.113298
  32 H :    0.116231
  33 H :    0.112498
  34 H :    0.112749
  35 H :    0.105832
  36 H :    0.111191
  37 H :    0.116525
Sum of atomic charges:    0.0000000

LOEWDIN ATOMIC CHARGES
----------------------
   0 C :   -0.358892
   1 C :   -0.105988
   2 O :   -0.030562
   3 C :    0.053223
   4 O :   -0.166299
   5 C :   -0.254307
   6 C :   -0.268663
   7 H :    0.152598
   8 C :    0.007841
   9 O :   -0.146867
  10 O :   -0.063186
  11 C :   -0.109402
  12 C :   -0.355399
  13 S :    0.138726
  14 P :    0.590486
  15 S :   -0.350660
  16 O :   -0.234896
  17 C :   -0.215448
  18 O :   -0.272054
  19 C :   -0.217624
  20 H :    0.128045
  21 H :    0.124323
  22 H :    0.131105
  23 H :    0.118259
  24 H :    0.123033
  25 H :    0.150546
  26 H :    0.147352
  27 H :    0.122141
  28 H :    0.117476
  29 H :    0.132633
  30 H :    0.132297
  31 H :    0.124686
  32 H :    0.105511
  33 H :    0.103830
  34 H :    0.115108
  35 H :    0.108865
  36 H :    0.104138
  37 H :    0.118025

  Mayer bond orders larger than 0.100000
B(  0-C ,  1-C ) :   1.1806 B(  0-C , 20-H ) :   0.9255 B(  0-C , 21-H ) :   0.9474
B(  0-C , 22-H ) :   0.9414 B(  1-C ,  2-O ) :   0.8906 B(  1-C , 23-H ) :   0.9347
B(  1-C , 24-H ) :   0.9078 B(  2-O ,  3-C ) :   1.3023 B(  3-C ,  4-O ) :   1.8245
B(  3-C ,  5-C ) :   1.0162 B(  4-O , 14-P ) :   0.1259 B(  5-C ,  6-C ) :   1.0266
B(  5-C , 25-H ) :   0.8794 B(  5-C , 26-H ) :   0.8718 B(  6-C ,  7-H ) :   0.8645
B(  6-C ,  8-C ) :   0.8773 B(  6-C , 13-S ) :   1.0494 B(  8-C ,  9-O ) :   2.0924
B(  8-C , 10-O ) :   1.2148 B( 10-O , 11-C ) :   0.9103 B( 11-C , 12-C ) :   1.1759
B( 11-C , 27-H ) :   0.9088 B( 11-C , 28-H ) :   0.9373 B( 12-C , 29-H ) :   0.9451
B( 12-C , 30-H ) :   0.9436 B( 12-C , 31-H ) :   0.9484 B( 13-S , 14-P ) :   0.9543
B( 13-S , 15-S ) :   0.1015 B( 14-P , 15-S ) :   1.5455 B( 14-P , 16-O ) :   1.0916
B( 14-P , 18-O ) :   1.0509 B( 16-O , 17-C ) :   0.9424 B( 17-C , 32-H ) :   0.9435
B( 17-C , 33-H ) :   0.9290 B( 17-C , 34-H ) :   0.9534 B( 18-O , 19-C ) :   0.9439
B( 19-C , 35-H ) :   0.9524 B( 19-C , 36-H ) :   0.9269 B( 19-C , 37-H ) :   0.9606

Dispersion correction           -0.054536535
FINAL SINGLE POINT ENERGY     -1979.001762872259

DIPOLE MOMENT
-------------

Method             : SCF
Type of density    : Electron Density
Multiplicity       :   1
Irrep              :   0
Energy             : -1979.1327207088525029 Eh
Relativity type    :
Basis              : AO
                                X                 Y                 Z
Electronic contribution:    -11.109820182      -4.358662877     -10.371417751
Nuclear contribution   :     12.951712699       5.293743987      10.899349539
                        -----------------------------------------
Total Dipole Moment    :      1.841892517       0.935081110       0.527931788
                        -----------------------------------------
Magnitude (a.u.)       :      2.132054572
Magnitude (Debye)      :      5.419252047

Rotational constants in cm-1:             0.011868             0.008975             0.006604
Rotational constants in MHz :           355.796814           269.050237           197.983126

                             ****ORCA TERMINATED NORMALLY****
TOTAL RUN TIME: 0 days 0 hours 0 minutes 29 seconds 926 msec
