                         Program Version 6.0.1  -  RELEASE   -
|  1> ! r2scan-3c def2/J RI DEFGRID2 scfconv6 printgap
|  2> %output
|  3>     printlevel normal
|  4> end
|  5> * xyz 0 1
|  6> C 5.417779063 -1.2806660492 -0.4430577091
|  7> C 4.7207947114 -1.8636239213 -1.6618706667
|  8> O 3.3642747062 -2.2183431768 -1.3318669737
|  9> C 2.4009167512 -1.3636192891 -1.6052069452
| 10> O 2.5463062608 -0.3165345017 -2.1985992056
| 11> C 1.0542378738 -1.8825782875 -1.1304083998
| 12> C 0.2770347469 -0.7243059375 -0.5231702504
| 13> H 0.1568141536 0.0767749142 -1.2676238404
| 14> C 1.0339316508 -0.1061961499 0.6368123858
| 15> O 2.2334043201 -0.1941028868 0.7624663482
| 16> O 0.230720819 0.5372835685 1.4579476976
| 17> C 0.8112117876 1.2808776806 2.5493148995
| 18> C 1.1962661999 2.6796628442 2.1003839585
| 19> S -1.3902999872 -1.239406199 -0.0082925339
| 20> P -2.2694688772 0.693608428 0.1884425445
| 21> S -1.4359264054 2.1517960014 -0.8175887056
| 22> O -3.7871750793 0.3947916228 -0.2307044444
| 23> C -4.1387805145 0.0917901853 -1.5844101995
| 24> O -2.4686925695 1.0123039632 1.721438601
| 25> C -3.1583504178 0.1051840226 2.6049375683
| 26> H 4.8743685106 -0.4049238869 -0.0942142084
| 27> H 5.443826718 -2.012868104 0.358710475
| 28> H 6.4304946153 -0.9938842573 -0.7058703875
| 29> H 5.1871309864 -2.7959814276 -1.9822762559
| 30> H 4.7015260767 -1.1426642052 -2.4841584724
| 31> H 1.2143181372 -2.6788070162 -0.4047584066
| 32> H 0.5093726143 -2.2781652906 -1.9886224288
| 33> H 0.0268367388 1.3086467711 3.3054400764
| 34> H 1.6831581204 0.7291230179 2.9110162457
| 35> H 1.9782474473 2.6313635795 1.3452535524
| 36> H 0.3327925775 3.1840125965 1.6722648182
| 37> H 1.5581504328 3.2454112671 2.9521490864
| 38> H -3.695359118 0.8238385245 -2.261373996
| 39> H -5.2235935806 0.1468965783 -1.624997911
| 40> H -3.7946854384 -0.9099703665 -1.8411994525
| 41> H -2.6738710631 -0.8711106589 2.5876383722
| 42> H -4.19885259 0.0102264403 2.3013385516
| 43> H -3.0845509485 0.5566184861 3.5908666446
| 44> *
| 45>
| 46>                          ****END OF INPUT****

CARTESIAN COORDINATES (ANGSTROEM)
---------------------------------
  C      5.417779   -1.280666   -0.443058
  C      4.720795   -1.863624   -1.661871
  O      3.364275   -2.218343   -1.331867
  C      2.400917   -1.363619   -1.605207
  O      2.546306   -0.316535   -2.198599
  C      1.054238   -1.882578   -1.130408
  C      0.277035   -0.724306   -0.523170
  H      0.156814    0.076775   -1.267624
  C      1.033932   -0.106196    0.636812
  O      2.233404   -0.194103    0.762466
  O      0.230721    0.537284    1.457948
  C      0.811212    1.280878    2.549315
  C      1.196266    2.679663    2.100384
  S     -1.390300   -1.239406   -0.008293
  P     -2.269469    0.693608    0.188443
  S     -1.435926    2.151796   -0.817589
  O     -3.787175    0.394792   -0.230704
  C     -4.138781    0.091790   -1.584410
  O     -2.468693    1.012304    1.721439
  C     -3.158350    0.105184    2.604938
  H      4.874369   -0.404924   -0.094214
  H      5.443827   -2.012868    0.358710
  H      6.430495   -0.993884   -0.705870
  H      5.187131   -2.795981   -1.982276
  H      4.701526   -1.142664   -2.484158
  H      1.214318   -2.678807   -0.404758
  H      0.509373   -2.278165   -1.988622
  H      0.026837    1.308647    3.305440
  H      1.683158    0.729123    2.911016
  H      1.978247    2.631364    1.345254
  H      0.332793    3.184013    1.672265
  H      1.558150    3.245411    2.952149
  H     -3.695359    0.823839   -2.261374
  H     -5.223594    0.146897   -1.624998
  H     -3.794685   -0.909970   -1.841199
  H     -2.673871   -0.871111    2.587638
  H     -4.198853    0.010226    2.301339
  H     -3.084551    0.556618    3.590867

 Total Charge           Charge          ....    0
 Multiplicity           Mult            ....    1
 Number of Electrons    NEL             ....  174
 Basis Dimension        Dim             ....  510

ORBITAL ENERGIES
----------------

  NO   OCC          E(Eh)            E(eV)
   0   2.0000     -88.579316     -2410.3657
   1   2.0000     -88.520315     -2408.7602
   2   2.0000     -76.916856     -2093.0141
   3   2.0000     -19.005609      -517.1689
   4   2.0000     -18.998326      -516.9707
   5   2.0000     -18.994058      -516.8546
   6   2.0000     -18.993819      -516.8481
   7   2.0000     -18.942748      -515.4584
   8   2.0000     -18.923662      -514.9390
   9   2.0000     -10.165551      -276.6187
  10   2.0000     -10.154671      -276.3227
  11   2.0000     -10.102397      -274.9002
  12   2.0000     -10.094903      -274.6963
  13   2.0000     -10.093631      -274.6617
  14   2.0000     -10.093438      -274.6564
  15   2.0000     -10.085368      -274.4368
  16   2.0000     -10.058964      -273.7183
  17   2.0000     -10.023266      -272.7469
  18   2.0000     -10.019815      -272.6530
  19   2.0000      -7.873503      -214.2489
  20   2.0000      -7.814941      -212.6554
  21   2.0000      -6.595084      -179.4613
  22   2.0000      -5.820280      -158.3779
  23   2.0000      -5.817435      -158.3004
  24   2.0000      -5.810675      -158.1165
  25   2.0000      -5.762881      -156.8160
  26   2.0000      -5.755200      -156.6070
  27   2.0000      -5.754701      -156.5934
  28   2.0000      -4.740838      -129.0048
  29   2.0000      -4.740128      -128.9854
  30   2.0000      -4.738524      -128.9418
  31   2.0000      -1.085501       -29.5380
  32   2.0000      -1.069979       -29.1156
  33   2.0000      -1.054759       -28.7015
  34   2.0000      -1.012212       -27.5437
  35   2.0000      -0.992427       -27.0053
  36   2.0000      -0.973888       -26.5008
  37   2.0000      -0.811351       -22.0780
  38   2.0000      -0.751503       -20.4494
  39   2.0000      -0.741625       -20.1807
  40   2.0000      -0.731739       -19.9116
  41   2.0000      -0.697926       -18.9915
  42   2.0000      -0.679654       -18.4943
  43   2.0000      -0.660247       -17.9662
  44   2.0000      -0.650823       -17.7098
  45   2.0000      -0.624797       -17.0016
  46   2.0000      -0.593391       -16.1470
  47   2.0000      -0.544726       -14.8227
  48   2.0000      -0.528320       -14.3763
  49   2.0000      -0.521347       -14.1866
  50   2.0000      -0.499371       -13.5886
  51   2.0000      -0.494363       -13.4523
  52   2.0000      -0.487875       -13.2758
  53   2.0000      -0.461169       -12.5491
  54   2.0000      -0.458320       -12.4715
  55   2.0000      -0.452754       -12.3201
  56   2.0000      -0.449704       -12.2371
  57   2.0000      -0.440688       -11.9917
  58   2.0000      -0.437655       -11.9092
  59   2.0000      -0.434638       -11.8271
  60   2.0000      -0.422011       -11.4835
  61   2.0000      -0.417379       -11.3575
  62   2.0000      -0.412443       -11.2232
  63   2.0000      -0.398426       -10.8417
  64   2.0000      -0.387399       -10.5417
  65   2.0000      -0.379278       -10.3207
  66   2.0000      -0.368037       -10.0148
  67   2.0000      -0.366541        -9.9741
  68   2.0000      -0.362216        -9.8564
  69   2.0000      -0.353592        -9.6217
  70   2.0000      -0.344397        -9.3715
  71   2.0000      -0.340663        -9.2699
  72   2.0000      -0.334525        -9.1029
  73   2.0000      -0.331117        -9.0102
  74   2.0000      -0.324475        -8.8294
  75   2.0000      -0.317420        -8.6374
  76   2.0000      -0.310237        -8.4420
  77   2.0000      -0.301267        -8.1979
  78   2.0000      -0.290629        -7.9084
  79   2.0000      -0.283988        -7.7277
  80   2.0000      -0.278717        -7.5843
  81   2.0000      -0.267319        -7.2741
  82   2.0000      -0.264450        -7.1960
  83   2.0000      -0.236271        -6.4293
  84   2.0000      -0.229829        -6.2540
  85   2.0000      -0.219854        -5.9825
  86   2.0000      -0.214819        -5.8455
  87   0.0000      -0.048122        -1.3095
  88   0.0000      -0.028300        -0.7701
  89   0.0000      -0.008319        -0.2264
  90   0.0000       0.004764         0.1296
  91   0.0000       0.016911         0.4602

MULLIKEN ATOMIC CHARGES
-----------------------
   0 C :   -0.457860
   1 C :   -0.152426
   2 O :   -0.149968
   3 C :    0.346095
   4 O :   -0.404100
   5 C :   -0.426361
   6 C :    0.043914
   7 H :    0.265192
   8 C :    0.241508
   9 O :   -0.391734
  10 O :   -0.117894
  11 C :   -0.142349
  12 C :   -0.470951
  13 S :   -0.220954
  14 P :    0.776171
  15 S :   -0.443418
  16 O :   -0.350760
  17 C :   -0.294874
  18 O :   -0.313252
  19 C :   -0.290717
  20 H :    0.180961
  21 H :    0.147440
  22 H :    0.143164
  23 H :    0.144655
  24 H :    0.176064
  25 H :    0.189512
  26 H :    0.185425
  27 H :    0.149430
  28 H :    0.166240
  29 H :    0.169649
  30 H :    0.176007
  31 H :    0.145850
  32 H :    0.176180
  33 H :    0.151888
  34 H :    0.157950
  35 H :    0.168103
  36 H :    0.170562
  37 H :    0.155660
Sum of atomic charges:   -0.0000000

LOEWDIN ATOMIC CHARGES
----------------------
   0 C :   -0.387392
   1 C :    0.030974
   2 O :   -0.579576
   3 C :    0.360840
   4 O :   -0.431912
   5 C :   -0.204412
   6 C :   -0.203474
   7 H :    0.224844
   8 C :    0.367283
   9 O :   -0.412318
  10 O :   -0.619766
  11 C :    0.035945
  12 C :   -0.388033
  13 S :    0.192342
  14 P :    0.399384
  15 S :   -0.084293
  16 O :   -0.687322
  17 C :   -0.059398
  18 O :   -0.648858
  19 C :   -0.051208
  20 H :    0.172324
  21 H :    0.157034
  22 H :    0.156488
  23 H :    0.175968
  24 H :    0.191472
  25 H :    0.190792
  26 H :    0.188971
  27 H :    0.180518
  28 H :    0.189328
  29 H :    0.166419
  30 H :    0.168059
  31 H :    0.157529
  32 H :    0.177418
  33 H :    0.177137
  34 H :    0.168906
  35 H :    0.173061
  36 H :    0.175576
  37 H :    0.179350

  Mayer bond orders larger than 0.100000
B(  0-C ,  1-C ) :   0.9459 B(  0-C , 20-H ) :   0.9652 B(  0-C , 21-H ) :   0.9710
B(  0-C , 22-H ) :   0.9686 B(  1-C ,  2-O ) :   0.7965 B(  1-C , 23-H ) :   0.9617
B(  1-C , 24-H ) :   0.9693 B(  2-O ,  3-C ) :   1.0956 B(  3-C ,  4-O ) :   1.8742
B(  3-C ,  5-C ) :   0.8798 B(  5-C ,  6-C ) :   0.8985 B(  5-C , 25-H ) :   1.0050
B(  5-C , 26-H ) :   0.9414 B(  6-C ,  7-H ) :   0.8729 B(  6-C ,  8-C ) :   0.9546
B(  6-C , 13-S ) :   0.8122 B(  8-C ,  9-O ) :   1.8075 B(  8-C , 10-O ) :   1.1768
B( 10-O , 11-C ) :   0.7712 B( 11-C , 12-C ) :   0.9302 B( 11-C , 27-H ) :   0.9627
B( 11-C , 28-H ) :   0.9599 B( 12-C , 29-H ) :   0.9694 B( 12-C , 30-H ) :   0.9667
B( 12-C , 31-H ) :   0.9674 B( 13-S , 14-P ) :   0.9833 B( 14-P , 15-S ) :   1.8123
B( 14-P , 16-O ) :   1.0332 B( 14-P , 18-O ) :   1.1415 B( 16-O , 17-C ) :   0.8314
B( 17-C , 32-H ) :   0.9587 B( 17-C , 33-H ) :   0.9673 B( 17-C , 34-H ) :   0.9563
B( 18-O , 19-C ) :   0.7953 B( 19-C , 35-H ) :   0.9560 B( 19-C , 36-H ) :   0.9603
B( 19-C , 37-H ) :   0.9656

Dispersion correction           -0.017383257
FINAL SINGLE POINT ENERGY     -1981.454919371885

DIPOLE MOMENT
-------------

Method             : SCF
Type of density    : Electron Density
Multiplicity       :   1
Irrep              :   0
Energy             : -1981.4750196487416360 Eh
Relativity type    :
Basis              : AO
                                X                 Y                 Z
Electronic contribution:    -13.565324042       0.805469213      -4.771340968
Nuclear contribution   :     12.860643056      -1.948196170       5.833969289
                        -----------------------------------------
Total Dipole Moment    :     -0.704680985      -1.142726956       1.062628321
                        -----------------------------------------
Magnitude (a.u.)       :      1.712185486
Magnitude (Debye)      :      4.352029643

Rotational constants in cm-1:             0.016586             0.005919             0.005218
Rotational constants in MHz :           497.222715           177.439344           156.429479

                             ****ORCA TERMINATED NORMALLY****
TOTAL RUN TIME: 0 days 0 hours 1 minutes 36 seconds 265 msec
