                         Program Version 6.0.0  -   RELEASE  -
|  1> ! r2scan-3c def2/J RI DEFGRID2 scfconv6 printgap
|  2> %output
|  3>     printlevel normal
|  4> end
|  5> * xyz 0 1
|  6> C 4.2867165119 -0.561963754 -2.1324690922
|  7> C 4.4796453467 -0.6288269964 -0.6309605171
|  8> O 3.2255691563 -0.6344443544 0.0710772219
|  9> P 2.3013869738 0.6669566428 0.1327787175
| 10> S 3.2975236428 2.3492387616 0.265190722
| 11> O 1.3351501708 0.3442472104 1.3461894264
| 12> C 1.8190348773 0.2813188331 2.7082987137
| 13> C 2.1113412901 -1.1515722128 3.1043913234
| 14> S 0.9053910019 0.4890631363 -1.4400670786
| 15> C 0.4362966092 -1.2557990647 -1.207298162
| 16> S -0.7189755401 -1.5366547156 0.1562105412
| 17> P -2.2352615809 -0.2007623472 -0.5072260848
| 18> S -2.4957821303 -0.1113247725 -2.442307526
| 19> O -1.9166461846 1.2071456231 0.1268695947
| 20> C -1.7749693048 1.4251450704 1.5511140738
| 21> C -3.0652834846 1.9499627688 2.1449535915
| 22> O -3.4933408385 -0.6826677629 0.3353990087
| 23> C -4.1627011004 -1.9226270187 0.0196017327
| 24> C -5.5061345681 -1.9173518891 0.7199445337
| 25> H 3.6716379533 -1.3877843485 -2.480736718
| 26> H 3.8005495098 0.3761942363 -2.4007528618
| 27> H 5.2545674527 -0.6062636834 -2.6214336494
| 28> H 5.06543536 0.2280953403 -0.2837204382
| 29> H 4.9609601871 -1.5588347369 -0.3256565379
| 30> H 2.7059792696 0.9169546179 2.7971030387
| 31> H 1.0104464713 0.7022003347 3.3090938494
| 32> H 1.2310465484 -1.7665610949 2.9359634056
| 33> H 2.9330159624 -1.5486867122 2.5147021904
| 34> H 2.3784188366 -1.182013878 4.1559741406
| 35> H 1.3189603391 -1.854575704 -0.9980690893
| 36> H -0.0395449601 -1.5485009947 -2.1424548019
| 37> H -1.4717633509 0.4861218122 2.0231778443
| 38> H -0.9672142994 2.1561557413 1.6356161181
| 39> H -2.9097916966 2.1674608779 3.1970706805
| 40> H -3.3672255033 2.8586426482 1.6312619444
| 41> H -3.8538392939 1.2096088734 2.0412498942
| 42> H -4.27530807 -1.9880244807 -1.0673557315
| 43> H -3.533175776 -2.7465122989 0.3658824341
| 44> H -6.0251517911 -2.8440182294 0.4985137628
| 45> H -5.3672343244 -1.831318653 1.7937142612
| 46> H -6.1053591633 -1.0803949862 0.3723833952
| 47> *
| 48>
| 49>                          ****END OF INPUT****

CARTESIAN COORDINATES (ANGSTROEM)
---------------------------------
  C      4.286717   -0.561964   -2.132469
  C      4.479645   -0.628827   -0.630961
  O      3.225569   -0.634444    0.071077
  P      2.301387    0.666957    0.132779
  S      3.297524    2.349239    0.265191
  O      1.335150    0.344247    1.346189
  C      1.819035    0.281319    2.708299
  C      2.111341   -1.151572    3.104391
  S      0.905391    0.489063   -1.440067
  C      0.436297   -1.255799   -1.207298
  S     -0.718976   -1.536655    0.156211
  P     -2.235262   -0.200762   -0.507226
  S     -2.495782   -0.111325   -2.442308
  O     -1.916646    1.207146    0.126870
  C     -1.774969    1.425145    1.551114
  C     -3.065283    1.949963    2.144954
  O     -3.493341   -0.682668    0.335399
  C     -4.162701   -1.922627    0.019602
  C     -5.506135   -1.917352    0.719945
  H      3.671638   -1.387784   -2.480737
  H      3.800550    0.376194   -2.400753
  H      5.254567   -0.606264   -2.621434
  H      5.065435    0.228095   -0.283720
  H      4.960960   -1.558835   -0.325657
  H      2.705979    0.916955    2.797103
  H      1.010446    0.702200    3.309094
  H      1.231047   -1.766561    2.935963
  H      2.933016   -1.548687    2.514702
  H      2.378419   -1.182014    4.155974
  H      1.318960   -1.854576   -0.998069
  H     -0.039545   -1.548501   -2.142455
  H     -1.471763    0.486122    2.023178
  H     -0.967214    2.156156    1.635616
  H     -2.909792    2.167461    3.197071
  H     -3.367226    2.858643    1.631262
  H     -3.853839    1.209609    2.041250
  H     -4.275308   -1.988024   -1.067356
  H     -3.533176   -2.746512    0.365882
  H     -6.025152   -2.844018    0.498514
  H     -5.367234   -1.831319    1.793714
  H     -6.105359   -1.080395    0.372383

 Total Charge           Charge          ....    0
 Multiplicity           Mult            ....    1
 Number of Electrons    NEL             ....  202
 Basis Dimension        Dim             ....  539

ORBITAL ENERGIES
----------------

  NO   OCC          E(Eh)            E(eV)
   0   2.0000     -88.575970     -2410.2747
   1   2.0000     -88.574205     -2410.2266
   2   2.0000     -88.520088     -2408.7541
   3   2.0000     -88.518738     -2408.7173
   4   2.0000     -76.914201     -2092.9418
   5   2.0000     -76.913890     -2092.9333
   6   2.0000     -18.996281      -516.9151
   7   2.0000     -18.996221      -516.9134
   8   2.0000     -18.991132      -516.7750
   9   2.0000     -18.989994      -516.7440
  10   2.0000     -10.109833      -275.1025
  11   2.0000     -10.103334      -274.9257
  12   2.0000     -10.102110      -274.8924
  13   2.0000     -10.101015      -274.8626
  14   2.0000     -10.100008      -274.8352
  15   2.0000     -10.036999      -273.1206
  16   2.0000     -10.034237      -273.0455
  17   2.0000     -10.031459      -272.9699
  18   2.0000     -10.029920      -272.9280
  19   2.0000      -7.869766      -214.1472
  20   2.0000      -7.868878      -214.1231
  21   2.0000      -7.814687      -212.6484
  22   2.0000      -7.813459      -212.6150
  23   2.0000      -6.592675      -179.3958
  24   2.0000      -6.592338      -179.3866
  25   2.0000      -5.817167      -158.2932
  26   2.0000      -5.815720      -158.2538
  27   2.0000      -5.813319      -158.1885
  28   2.0000      -5.812672      -158.1708
  29   2.0000      -5.806722      -158.0089
  30   2.0000      -5.806026      -157.9900
  31   2.0000      -5.762324      -156.8008
  32   2.0000      -5.761212      -156.7705
  33   2.0000      -5.755123      -156.6048
  34   2.0000      -5.754566      -156.5897
  35   2.0000      -5.753703      -156.5662
  36   2.0000      -5.753399      -156.5580
  37   2.0000      -4.738251      -128.9344
  38   2.0000      -4.738149      -128.9316
  39   2.0000      -4.737765      -128.9211
  40   2.0000      -4.737389      -128.9109
  41   2.0000      -4.736162      -128.8775
  42   2.0000      -4.735689      -128.8646
  43   2.0000      -1.052882       -28.6504
  44   2.0000      -1.052242       -28.6330
  45   2.0000      -1.013753       -27.5856
  46   2.0000      -1.011225       -27.5168
  47   2.0000      -0.802266       -21.8308
  48   2.0000      -0.761090       -20.7103
  49   2.0000      -0.752332       -20.4720
  50   2.0000      -0.737680       -20.0733
  51   2.0000      -0.736039       -20.0286
  52   2.0000      -0.711190       -19.3525
  53   2.0000      -0.686380       -18.6774
  54   2.0000      -0.668897       -18.2016
  55   2.0000      -0.630630       -17.1603
  56   2.0000      -0.620824       -16.8935
  57   2.0000      -0.610966       -16.6252
  58   2.0000      -0.604156       -16.4399
  59   2.0000      -0.597613       -16.2619
  60   2.0000      -0.535315       -14.5667
  61   2.0000      -0.525922       -14.3111
  62   2.0000      -0.501124       -13.6363
  63   2.0000      -0.496695       -13.5158
  64   2.0000      -0.482635       -13.1332
  65   2.0000      -0.464975       -12.6526
  66   2.0000      -0.464331       -12.6351
  67   2.0000      -0.455807       -12.4031
  68   2.0000      -0.448362       -12.2006
  69   2.0000      -0.435095       -11.8395
  70   2.0000      -0.424659       -11.5556
  71   2.0000      -0.415252       -11.2996
  72   2.0000      -0.408328       -11.1112
  73   2.0000      -0.406089       -11.0502
  74   2.0000      -0.398983       -10.8569
  75   2.0000      -0.389772       -10.6062
  76   2.0000      -0.386895       -10.5279
  77   2.0000      -0.376504       -10.2452
  78   2.0000      -0.375816       -10.2265
  79   2.0000      -0.369898       -10.0654
  80   2.0000      -0.364974        -9.9314
  81   2.0000      -0.363473        -9.8906
  82   2.0000      -0.360552        -9.8111
  83   2.0000      -0.358578        -9.7574
  84   2.0000      -0.345790        -9.4094
  85   2.0000      -0.336085        -9.1453
  86   2.0000      -0.330946        -9.0055
  87   2.0000      -0.318726        -8.6730
  88   2.0000      -0.311407        -8.4738
  89   2.0000      -0.308377        -8.3914
  90   2.0000      -0.306752        -8.3471
  91   2.0000      -0.296260        -8.0616
  92   2.0000      -0.288211        -7.8426
  93   2.0000      -0.280809        -7.6412
  94   2.0000      -0.273726        -7.4485
  95   2.0000      -0.244996        -6.6667
  96   2.0000      -0.230452        -6.2709
  97   2.0000      -0.221578        -6.0294
  98   2.0000      -0.218047        -5.9334
  99   2.0000      -0.214450        -5.8355
 100   2.0000      -0.211455        -5.7540
 101   0.0000      -0.044941        -1.2229
 102   0.0000      -0.021464        -0.5841
 103   0.0000      -0.010099        -0.2748
 104   0.0000       0.003572         0.0972
 105   0.0000       0.006471         0.1761

MULLIKEN ATOMIC CHARGES
-----------------------
   0 C :   -0.431711
   1 C :   -0.158625
   2 O :   -0.301133
   3 P :    0.646491
   4 S :   -0.454819
   5 O :   -0.237109
   6 C :   -0.159614
   7 C :   -0.446824
   8 S :   -0.104056
   9 C :   -0.261060
  10 S :   -0.177531
  11 P :    0.677114
  12 S :   -0.439805
  13 O :   -0.257185
  14 C :   -0.118077
  15 C :   -0.481893
  16 O :   -0.284061
  17 C :   -0.153083
  18 C :   -0.442461
  19 H :    0.145790
  20 H :    0.178536
  21 H :    0.148581
  22 H :    0.173737
  23 H :    0.146493
  24 H :    0.171768
  25 H :    0.150740
  26 H :    0.158689
  27 H :    0.165072
  28 H :    0.147737
  29 H :    0.196733
  30 H :    0.216289
  31 H :    0.160000
  32 H :    0.171196
  33 H :    0.144454
  34 H :    0.161703
  35 H :    0.165751
  36 H :    0.171671
  37 H :    0.151544
  38 H :    0.147860
  39 H :    0.150343
  40 H :    0.160755
Sum of atomic charges:   -0.0000000

LOEWDIN ATOMIC CHARGES
----------------------
   0 C :   -0.402103
   1 C :    0.016113
   2 O :   -0.690820
   3 P :    0.366589
   4 S :   -0.115541
   5 O :   -0.695606
   6 C :    0.021347
   7 C :   -0.396028
   8 S :    0.199865
   9 C :   -0.414531
  10 S :    0.144502
  11 P :    0.371073
  12 S :   -0.096713
  13 O :   -0.644153
  14 C :    0.020427
  15 C :   -0.392944
  16 O :   -0.677049
  17 C :    0.018213
  18 C :   -0.386575
  19 H :    0.155815
  20 H :    0.168821
  21 H :    0.160526
  22 H :    0.181959
  23 H :    0.177565
  24 H :    0.181772
  25 H :    0.177279
  26 H :    0.161491
  27 H :    0.164752
  28 H :    0.158250
  29 H :    0.188339
  30 H :    0.192410
  31 H :    0.175703
  32 H :    0.186434
  33 H :    0.158077
  34 H :    0.163375
  35 H :    0.166286
  36 H :    0.181803
  37 H :    0.171939
  38 H :    0.160790
  39 H :    0.158116
  40 H :    0.162433

  Mayer bond orders larger than 0.100000
B(  0-C ,  1-C ) :   0.9321 B(  0-C , 19-H ) :   0.9698 B(  0-C , 20-H ) :   0.9587
B(  0-C , 21-H ) :   0.9599 B(  1-C ,  2-O ) :   0.8108 B(  1-C , 22-H ) :   0.9589
B(  1-C , 23-H ) :   0.9599 B(  2-O ,  3-P ) :   0.9986 B(  3-P ,  4-S ) :   1.8488
B(  3-P ,  5-O ) :   1.1081 B(  3-P ,  8-S ) :   1.0770 B(  5-O ,  6-C ) :   0.7507
B(  6-C ,  7-C ) :   0.9274 B(  6-C , 24-H ) :   0.9597 B(  6-C , 25-H ) :   0.9685
B(  7-C , 26-H ) :   0.9728 B(  7-C , 27-H ) :   0.9667 B(  7-C , 28-H ) :   0.9666
B(  8-S ,  9-C ) :   0.9062 B(  9-C , 10-S ) :   0.9271 B(  9-C , 29-H ) :   0.9150
B(  9-C , 30-H ) :   0.9153 B( 10-S , 11-P ) :   0.9742 B( 11-P , 12-S ) :   1.8318
B( 11-P , 13-O ) :   1.1682 B( 11-P , 16-O ) :   1.0489 B( 13-O , 14-C ) :   0.7300
B( 14-C , 15-C ) :   0.9301 B( 14-C , 31-H ) :   0.9693 B( 14-C , 32-H ) :   0.9555
B( 15-C , 33-H ) :   0.9659 B( 15-C , 34-H ) :   0.9736 B( 15-C , 35-H ) :   0.9688
B( 16-O , 17-C ) :   0.7872 B( 17-C , 18-C ) :   0.9554 B( 17-C , 36-H ) :   0.9499
B( 17-C , 37-H ) :   0.9419 B( 18-C , 38-H ) :   0.9633 B( 18-C , 39-H ) :   0.9719
B( 18-C , 40-H ) :   0.9711

Dispersion correction           -0.021476598
FINAL SINGLE POINT ENERGY     -2932.460620038292

DIPOLE MOMENT
-------------

Method             : SCF
Type of density    : Electron Density
Multiplicity       :   1
Irrep              :   0
Energy             : -2932.4855457599178408 Eh
Relativity type    :
Basis              : AO
                                X                 Y                 Z
Electronic contribution:      3.490301782       8.863667208     -14.736412852
Nuclear contribution   :     -3.463227100     -10.619244336      16.366037309
                        -----------------------------------------
Total Dipole Moment    :      0.027074683      -1.755577128       1.629624457
                        -----------------------------------------
Magnitude (a.u.)       :      2.395508288
Magnitude (Debye)      :      6.088898177

Rotational constants in cm-1:             0.012990             0.004817             0.004429
Rotational constants in MHz :           389.442599           144.412865           132.792522

                             ****ORCA TERMINATED NORMALLY****
TOTAL RUN TIME: 0 days 0 hours 1 minutes 20 seconds 910 msec
