                         Program Version 6.0.0  -   RELEASE  -
|  1> ! r2scan-3c def2/J RI DEFGRID2 scfconv6 printgap
|  2> %output
|  3>     printlevel normal
|  4> end
|  5> %cpcm
|  6>     smd true
|  7>     smdsolvent "water"
|  8> end
|  9> * xyz 0 1
| 10> C 4.2867165119 -0.561963754 -2.1324690922
| 11> C 4.4796453467 -0.6288269964 -0.6309605171
| 12> O 3.2255691563 -0.6344443544 0.0710772219
| 13> P 2.3013869738 0.6669566428 0.1327787175
| 14> S 3.2975236428 2.3492387616 0.265190722
| 15> O 1.3351501708 0.3442472104 1.3461894264
| 16> C 1.8190348773 0.2813188331 2.7082987137
| 17> C 2.1113412901 -1.1515722128 3.1043913234
| 18> S 0.9053910019 0.4890631363 -1.4400670786
| 19> C 0.4362966092 -1.2557990647 -1.207298162
| 20> S -0.7189755401 -1.5366547156 0.1562105412
| 21> P -2.2352615809 -0.2007623472 -0.5072260848
| 22> S -2.4957821303 -0.1113247725 -2.442307526
| 23> O -1.9166461846 1.2071456231 0.1268695947
| 24> C -1.7749693048 1.4251450704 1.5511140738
| 25> C -3.0652834846 1.9499627688 2.1449535915
| 26> O -3.4933408385 -0.6826677629 0.3353990087
| 27> C -4.1627011004 -1.9226270187 0.0196017327
| 28> C -5.5061345681 -1.9173518891 0.7199445337
| 29> H 3.6716379533 -1.3877843485 -2.480736718
| 30> H 3.8005495098 0.3761942363 -2.4007528618
| 31> H 5.2545674527 -0.6062636834 -2.6214336494
| 32> H 5.06543536 0.2280953403 -0.2837204382
| 33> H 4.9609601871 -1.5588347369 -0.3256565379
| 34> H 2.7059792696 0.9169546179 2.7971030387
| 35> H 1.0104464713 0.7022003347 3.3090938494
| 36> H 1.2310465484 -1.7665610949 2.9359634056
| 37> H 2.9330159624 -1.5486867122 2.5147021904
| 38> H 2.3784188366 -1.182013878 4.1559741406
| 39> H 1.3189603391 -1.854575704 -0.9980690893
| 40> H -0.0395449601 -1.5485009947 -2.1424548019
| 41> H -1.4717633509 0.4861218122 2.0231778443
| 42> H -0.9672142994 2.1561557413 1.6356161181
| 43> H -2.9097916966 2.1674608779 3.1970706805
| 44> H -3.3672255033 2.8586426482 1.6312619444
| 45> H -3.8538392939 1.2096088734 2.0412498942
| 46> H -4.27530807 -1.9880244807 -1.0673557315
| 47> H -3.533175776 -2.7465122989 0.3658824341
| 48> H -6.0251517911 -2.8440182294 0.4985137628
| 49> H -5.3672343244 -1.831318653 1.7937142612
| 50> H -6.1053591633 -1.0803949862 0.3723833952
| 51> *
| 52>
| 53>                          ****END OF INPUT****

CARTESIAN COORDINATES (ANGSTROEM)
---------------------------------
  C      4.286717   -0.561964   -2.132469
  C      4.479645   -0.628827   -0.630961
  O      3.225569   -0.634444    0.071077
  P      2.301387    0.666957    0.132779
  S      3.297524    2.349239    0.265191
  O      1.335150    0.344247    1.346189
  C      1.819035    0.281319    2.708299
  C      2.111341   -1.151572    3.104391
  S      0.905391    0.489063   -1.440067
  C      0.436297   -1.255799   -1.207298
  S     -0.718976   -1.536655    0.156211
  P     -2.235262   -0.200762   -0.507226
  S     -2.495782   -0.111325   -2.442308
  O     -1.916646    1.207146    0.126870
  C     -1.774969    1.425145    1.551114
  C     -3.065283    1.949963    2.144954
  O     -3.493341   -0.682668    0.335399
  C     -4.162701   -1.922627    0.019602
  C     -5.506135   -1.917352    0.719945
  H      3.671638   -1.387784   -2.480737
  H      3.800550    0.376194   -2.400753
  H      5.254567   -0.606264   -2.621434
  H      5.065435    0.228095   -0.283720
  H      4.960960   -1.558835   -0.325657
  H      2.705979    0.916955    2.797103
  H      1.010446    0.702200    3.309094
  H      1.231047   -1.766561    2.935963
  H      2.933016   -1.548687    2.514702
  H      2.378419   -1.182014    4.155974
  H      1.318960   -1.854576   -0.998069
  H     -0.039545   -1.548501   -2.142455
  H     -1.471763    0.486122    2.023178
  H     -0.967214    2.156156    1.635616
  H     -2.909792    2.167461    3.197071
  H     -3.367226    2.858643    1.631262
  H     -3.853839    1.209609    2.041250
  H     -4.275308   -1.988024   -1.067356
  H     -3.533176   -2.746512    0.365882
  H     -6.025152   -2.844018    0.498514
  H     -5.367234   -1.831319    1.793714
  H     -6.105359   -1.080395    0.372383

 Total Charge           Charge          ....    0
 Multiplicity           Mult            ....    1
 Number of Electrons    NEL             ....  202
 Basis Dimension        Dim             ....  539

ORBITAL ENERGIES
----------------

  NO   OCC          E(Eh)            E(eV)
   0   2.0000     -88.579879     -2410.3811
   1   2.0000     -88.575454     -2410.2606
   2   2.0000     -88.529343     -2409.0059
   3   2.0000     -88.528225     -2408.9755
   4   2.0000     -76.919719     -2093.0920
   5   2.0000     -76.917919     -2093.0430
   6   2.0000     -18.996153      -516.9116
   7   2.0000     -18.995055      -516.8817
   8   2.0000     -18.993610      -516.8424
   9   2.0000     -18.989378      -516.7273
  10   2.0000     -10.106087      -275.0006
  11   2.0000     -10.091863      -274.6136
  12   2.0000     -10.090875      -274.5867
  13   2.0000     -10.089246      -274.5423
  14   2.0000     -10.088274      -274.5159
  15   2.0000     -10.020002      -272.6581
  16   2.0000     -10.018317      -272.6123
  17   2.0000     -10.018245      -272.6103
  18   2.0000     -10.017409      -272.5876
  19   2.0000      -7.873904      -214.2598
  20   2.0000      -7.869969      -214.1528
  21   2.0000      -7.824471      -212.9147
  22   2.0000      -7.823254      -212.8816
  23   2.0000      -6.598236      -179.5471
  24   2.0000      -6.596378      -179.4966
  25   2.0000      -5.821232      -158.4038
  26   2.0000      -5.817400      -158.2995
  27   2.0000      -5.816833      -158.2841
  28   2.0000      -5.813795      -158.2014
  29   2.0000      -5.810980      -158.1248
  30   2.0000      -5.807091      -158.0190
  31   2.0000      -5.772082      -157.0663
  32   2.0000      -5.770769      -157.0306
  33   2.0000      -5.764682      -156.8650
  34   2.0000      -5.764509      -156.8603
  35   2.0000      -5.763673      -156.8375
  36   2.0000      -5.763191      -156.8244
  37   2.0000      -4.743999      -129.0908
  38   2.0000      -4.743220      -129.0696
  39   2.0000      -4.741832      -129.0318
  40   2.0000      -4.741732      -129.0291
  41   2.0000      -4.741452      -129.0215
  42   2.0000      -4.740063      -128.9837
  43   2.0000      -1.054607       -28.6973
  44   2.0000      -1.049982       -28.5715
  45   2.0000      -1.013197       -27.5705
  46   2.0000      -1.010241       -27.4901
  47   2.0000      -0.802062       -21.8252
  48   2.0000      -0.756127       -20.5753
  49   2.0000      -0.744163       -20.2497
  50   2.0000      -0.727338       -19.7919
  51   2.0000      -0.723489       -19.6871
  52   2.0000      -0.708269       -19.2730
  53   2.0000      -0.689644       -18.7662
  54   2.0000      -0.674815       -18.3626
  55   2.0000      -0.625373       -17.0173
  56   2.0000      -0.615825       -16.7575
  57   2.0000      -0.601852       -16.3772
  58   2.0000      -0.596473       -16.2308
  59   2.0000      -0.591889       -16.1061
  60   2.0000      -0.530864       -14.4455
  61   2.0000      -0.518819       -14.1178
  62   2.0000      -0.497545       -13.5389
  63   2.0000      -0.488906       -13.3038
  64   2.0000      -0.478943       -13.0327
  65   2.0000      -0.459465       -12.5027
  66   2.0000      -0.457042       -12.4367
  67   2.0000      -0.448243       -12.1973
  68   2.0000      -0.438993       -11.9456
  69   2.0000      -0.429970       -11.7001
  70   2.0000      -0.420900       -11.4533
  71   2.0000      -0.408972       -11.1287
  72   2.0000      -0.403620       -10.9830
  73   2.0000      -0.397448       -10.8151
  74   2.0000      -0.390970       -10.6388
  75   2.0000      -0.386667       -10.5218
  76   2.0000      -0.382860       -10.4182
  77   2.0000      -0.367742       -10.0068
  78   2.0000      -0.364151        -9.9091
  79   2.0000      -0.361646        -9.8409
  80   2.0000      -0.355449        -9.6723
  81   2.0000      -0.351668        -9.5694
  82   2.0000      -0.350414        -9.5352
  83   2.0000      -0.348123        -9.4729
  84   2.0000      -0.341985        -9.3059
  85   2.0000      -0.331003        -9.0071
  86   2.0000      -0.325338        -8.8529
  87   2.0000      -0.314566        -8.5598
  88   2.0000      -0.304548        -8.2872
  89   2.0000      -0.303212        -8.2508
  90   2.0000      -0.299754        -8.1567
  91   2.0000      -0.290306        -7.8996
  92   2.0000      -0.286176        -7.7872
  93   2.0000      -0.278424        -7.5763
  94   2.0000      -0.274095        -7.4585
  95   2.0000      -0.249160        -6.7800
  96   2.0000      -0.236803        -6.4437
  97   2.0000      -0.231537        -6.3004
  98   2.0000      -0.228915        -6.2291
  99   2.0000      -0.222973        -6.0674
 100   2.0000      -0.219342        -5.9686
 101   0.0000      -0.047930        -1.3042
 102   0.0000      -0.027298        -0.7428
 103   0.0000      -0.014030        -0.3818
 104   0.0000       0.000129         0.0035
 105   0.0000       0.006418         0.1746

MULLIKEN ATOMIC CHARGES
-----------------------
   0 C :   -0.471377
   1 C :   -0.149258
   2 O :   -0.306927
   3 P :    0.679618
   4 S :   -0.524717
   5 O :   -0.257063
   6 C :   -0.146180
   7 C :   -0.485626
   8 S :   -0.152109
   9 C :   -0.261752
  10 S :   -0.164782
  11 P :    0.682627
  12 S :   -0.501130
  13 O :   -0.291433
  14 C :   -0.103105
  15 C :   -0.527481
  16 O :   -0.302291
  17 C :   -0.139940
  18 C :   -0.482348
  19 H :    0.169603
  20 H :    0.166381
  21 H :    0.171131
  22 H :    0.173759
  23 H :    0.174676
  24 H :    0.171015
  25 H :    0.180293
  26 H :    0.166998
  27 H :    0.170092
  28 H :    0.170030
  29 H :    0.237005
  30 H :    0.234371
  31 H :    0.180242
  32 H :    0.182460
  33 H :    0.171672
  34 H :    0.169453
  35 H :    0.170353
  36 H :    0.172758
  37 H :    0.170110
  38 H :    0.169677
  39 H :    0.166210
  40 H :    0.166983
Sum of atomic charges:   -0.0000000

LOEWDIN ATOMIC CHARGES
----------------------
   0 C :   -0.406245
   1 C :    0.023230
   2 O :   -0.686535
   3 P :    0.372240
   4 S :   -0.164103
   5 O :   -0.700986
   6 C :    0.027985
   7 C :   -0.397846
   8 S :    0.171411
   9 C :   -0.402951
  10 S :    0.159802
  11 P :    0.371703
  12 S :   -0.145562
  13 O :   -0.670834
  14 C :    0.026512
  15 C :   -0.395176
  16 O :   -0.683150
  17 C :    0.023682
  18 C :   -0.389434
  19 H :    0.163039
  20 H :    0.161732
  21 H :    0.168139
  22 H :    0.181415
  23 H :    0.189994
  24 H :    0.182689
  25 H :    0.189112
  26 H :    0.163317
  27 H :    0.164529
  28 H :    0.167086
  29 H :    0.203509
  30 H :    0.198664
  31 H :    0.184394
  32 H :    0.191250
  33 H :    0.169126
  34 H :    0.164242
  35 H :    0.166376
  36 H :    0.181964
  37 H :    0.179812
  38 H :    0.169246
  39 H :    0.163251
  40 H :    0.163370

  Mayer bond orders larger than 0.100000
B(  0-C ,  1-C ) :   0.9205 B(  0-C , 19-H ) :   0.9660 B(  0-C , 20-H ) :   0.9622
B(  0-C , 21-H ) :   0.9556 B(  1-C ,  2-O ) :   0.7979 B(  1-C , 22-H ) :   0.9593
B(  1-C , 23-H ) :   0.9498 B(  2-O ,  3-P ) :   1.0196 B(  3-P ,  4-S ) :   1.7947
B(  3-P ,  5-O ) :   1.1271 B(  3-P ,  8-S ) :   1.0851 B(  5-O ,  6-C ) :   0.7417
B(  6-C ,  7-C ) :   0.9210 B(  6-C , 24-H ) :   0.9542 B(  6-C , 25-H ) :   0.9577
B(  7-C , 26-H ) :   0.9719 B(  7-C , 27-H ) :   0.9662 B(  7-C , 28-H ) :   0.9606
B(  8-S ,  9-C ) :   0.8983 B(  9-C , 10-S ) :   0.9201 B(  9-C , 29-H ) :   0.9030
B(  9-C , 30-H ) :   0.9077 B( 10-S , 11-P ) :   0.9987 B( 11-P , 12-S ) :   1.8040
B( 11-P , 13-O ) :   1.1696 B( 11-P , 16-O ) :   1.0602 B( 13-O , 14-C ) :   0.7187
B( 14-C , 15-C ) :   0.9260 B( 14-C , 31-H ) :   0.9560 B( 14-C , 32-H ) :   0.9473
B( 15-C , 33-H ) :   0.9590 B( 15-C , 34-H ) :   0.9727 B( 15-C , 35-H ) :   0.9676
B( 16-O , 17-C ) :   0.7779 B( 17-C , 18-C ) :   0.9548 B( 17-C , 36-H ) :   0.9474
B( 17-C , 37-H ) :   0.9324 B( 18-C , 38-H ) :   0.9577 B( 18-C , 39-H ) :   0.9681
B( 18-C , 40-H ) :   0.9692

Dispersion correction           -0.021476598
FINAL SINGLE POINT ENERGY     -2932.472990527834

DIPOLE MOMENT
-------------

Method             : SCF
Type of density    : Electron Density
Multiplicity       :   1
Irrep              :   0
Energy             : -2932.4979162494596494 Eh
Relativity type    :
Basis              : AO
                                X                 Y                 Z
Electronic contribution:      3.696921919       7.886067114     -13.984703238
Nuclear contribution   :     -3.463227100     -10.619244336      16.366037309
                        -----------------------------------------
Total Dipole Moment    :      0.233694820      -2.733177222       2.381334071
                        -----------------------------------------
Magnitude (a.u.)       :      3.632578004
Magnitude (Debye)      :      9.233279505

Rotational constants in cm-1:             0.012990             0.004817             0.004429
Rotational constants in MHz :           389.442599           144.412865           132.792522

                             ****ORCA TERMINATED NORMALLY****
TOTAL RUN TIME: 0 days 0 hours 1 minutes 51 seconds 130 msec
