                         Program Version 6.0.0  -   RELEASE  -
|  1> ! pbe def2-sv(p) def2/J RI DEFGRID1 loosescf d4 GCP(DFT/SV(P)) printgap
|  2> %output
|  3>     printlevel normal
|  4> end
|  5> * xyz 0 1
|  6> C 5.2140076092 -1.2650913784 -0.3993396718
|  7> C 4.6100039894 -0.4135184983 -1.4955480757
|  8> O 3.1880479362 -0.2432138487 -1.3154038258
|  9> P 2.6013324229 0.6222796874 -0.1232931759
| 10> S 3.6603354859 2.1605041592 0.4645577255
| 11> O 2.3503866972 -0.496683305 0.9803401084
| 12> C 1.9311058032 -0.146423837 2.3154821436
| 13> C 1.5684731725 -1.429284793 3.0338641065
| 14> S 0.6871131346 1.062414831 -0.9062448564
| 15> C 0.0824078206 -0.6548248029 -1.0624446646
| 16> S -0.9958409859 -1.1297552973 0.2966885533
| 17> P -2.7305455693 -0.1133497423 -0.4203427975
| 18> S -2.9704574108 -0.2471182644 -2.3617703383
| 19> O -2.6594024862 1.414488162 -0.0365916548
| 20> C -2.846225396 1.992433363 1.2772020291
| 21> C -1.6450543921 1.7749808656 2.1745784026
| 22> O -3.8831451504 -0.6354647732 0.5367058561
| 23> C -4.1239999167 -2.0179456369 0.8656969236
| 24> C -4.3321751578 -2.8825197231 -0.3594537529
| 25> H 5.1340760133 -0.7455500502 0.554564688
| 26> H 4.6928007638 -2.2160175577 -0.328968482
| 27> H 6.2623953593 -1.4417774913 -0.6182406477
| 28> H 4.6935999261 -0.886559781 -2.4748683165
| 29> H 5.0768959113 0.5761923793 -1.5180822314
| 30> H 2.7560589569 0.3806841486 2.8033820545
| 31> H 1.0739551588 0.5296247796 2.2527774059
| 32> H 1.2622483262 -1.1937381428 4.0474550951
| 33> H 0.7519719281 -1.9237291947 2.5136261004
| 34> H 2.4255403843 -2.0951055946 3.0626749711
| 35> H 0.9290432701 -1.3346226653 -1.0739691503
| 36> H -0.4867317635 -0.7059891228 -1.9927462344
| 37> H -2.9949766959 3.0520351862 1.0631825377
| 38> H -3.7512055342 1.5702953506 1.717081577
| 39> H -1.7796050131 2.3435099899 3.0895522333
| 40> H -1.5392063669 0.7214954932 2.4243742384
| 41> H -0.7424060595 2.1206792808 1.6734366322
| 42> H -3.2778204769 -2.3800851031 1.4554370705
| 43> H -5.0220088681 -1.9801432653 1.484788909
| 44> H -5.1324008508 -2.4810762054 -0.9767212951
| 45> H -3.4226073195 -2.9135461703 -0.9574339694
| 46> H -4.5877795327 -3.8908011574 -0.0502433545
| 47> *
| 48>
| 49>                          ****END OF INPUT****

CARTESIAN COORDINATES (ANGSTROEM)
---------------------------------
  C      5.214008   -1.265091   -0.399340
  C      4.610004   -0.413518   -1.495548
  O      3.188048   -0.243214   -1.315404
  P      2.601332    0.622280   -0.123293
  S      3.660335    2.160504    0.464558
  O      2.350387   -0.496683    0.980340
  C      1.931106   -0.146424    2.315482
  C      1.568473   -1.429285    3.033864
  S      0.687113    1.062415   -0.906245
  C      0.082408   -0.654825   -1.062445
  S     -0.995841   -1.129755    0.296689
  P     -2.730546   -0.113350   -0.420343
  S     -2.970457   -0.247118   -2.361770
  O     -2.659402    1.414488   -0.036592
  C     -2.846225    1.992433    1.277202
  C     -1.645054    1.774981    2.174578
  O     -3.883145   -0.635465    0.536706
  C     -4.124000   -2.017946    0.865697
  C     -4.332175   -2.882520   -0.359454
  H      5.134076   -0.745550    0.554565
  H      4.692801   -2.216018   -0.328968
  H      6.262395   -1.441777   -0.618241
  H      4.693600   -0.886560   -2.474868
  H      5.076896    0.576192   -1.518082
  H      2.756059    0.380684    2.803382
  H      1.073955    0.529625    2.252777
  H      1.262248   -1.193738    4.047455
  H      0.751972   -1.923729    2.513626
  H      2.425540   -2.095106    3.062675
  H      0.929043   -1.334623   -1.073969
  H     -0.486732   -0.705989   -1.992746
  H     -2.994977    3.052035    1.063183
  H     -3.751206    1.570295    1.717082
  H     -1.779605    2.343510    3.089552
  H     -1.539206    0.721495    2.424374
  H     -0.742406    2.120679    1.673437
  H     -3.277820   -2.380085    1.455437
  H     -5.022009   -1.980143    1.484789
  H     -5.132401   -2.481076   -0.976721
  H     -3.422607   -2.913546   -0.957434
  H     -4.587780   -3.890801   -0.050243

 Total Charge           Charge          ....    0
 Multiplicity           Mult            ....    1
 Number of Electrons    NEL             ....  202
 Basis Dimension        Dim             ....  334

ORBITAL ENERGIES
----------------

  NO   OCC          E(Eh)            E(eV)
   0   2.0000     -88.050123     -2395.9657
   1   2.0000     -88.041092     -2395.7199
   2   2.0000     -87.987388     -2394.2586
   3   2.0000     -87.984530     -2394.1808
   4   2.0000     -76.431681     -2079.8118
   5   2.0000     -76.426176     -2079.6620
   6   2.0000     -18.804378      -511.6931
   7   2.0000     -18.795076      -511.4400
   8   2.0000     -18.793255      -511.3905
   9   2.0000     -18.792974      -511.3828
  10   2.0000      -9.967001      -271.2159
  11   2.0000      -9.957619      -270.9606
  12   2.0000      -9.955540      -270.9040
  13   2.0000      -9.955292      -270.8973
  14   2.0000      -9.953918      -270.8599
  15   2.0000      -9.890743      -269.1408
  16   2.0000      -9.888885      -269.0903
  17   2.0000      -9.888614      -269.0829
  18   2.0000      -9.886051      -269.0131
  19   2.0000      -7.694646      -209.3820
  20   2.0000      -7.686235      -209.1531
  21   2.0000      -7.632589      -207.6933
  22   2.0000      -7.629823      -207.6180
  23   2.0000      -6.428824      -174.9372
  24   2.0000      -6.424174      -174.8107
  25   2.0000      -5.722217      -155.7094
  26   2.0000      -5.719211      -155.6277
  27   2.0000      -5.714393      -155.4965
  28   2.0000      -5.711955      -155.4302
  29   2.0000      -5.710556      -155.3921
  30   2.0000      -5.703108      -155.1895
  31   2.0000      -5.661563      -154.0590
  32   2.0000      -5.658936      -153.9875
  33   2.0000      -5.653148      -153.8300
  34   2.0000      -5.652779      -153.8199
  35   2.0000      -5.650465      -153.7570
  36   2.0000      -5.649728      -153.7369
  37   2.0000      -4.651912      -126.5850
  38   2.0000      -4.650692      -126.5518
  39   2.0000      -4.648750      -126.4989
  40   2.0000      -4.646584      -126.4400
  41   2.0000      -4.646143      -126.4280
  42   2.0000      -4.644534      -126.3842
  43   2.0000      -0.994952       -27.0740
  44   2.0000      -0.989373       -26.9222
  45   2.0000      -0.949740       -25.8437
  46   2.0000      -0.948070       -25.7983
  47   2.0000      -0.766372       -20.8540
  48   2.0000      -0.726642       -19.7729
  49   2.0000      -0.715315       -19.4647
  50   2.0000      -0.696621       -18.9560
  51   2.0000      -0.691453       -18.8154
  52   2.0000      -0.677355       -18.4318
  53   2.0000      -0.654755       -17.8168
  54   2.0000      -0.638860       -17.3843
  55   2.0000      -0.598536       -16.2870
  56   2.0000      -0.595185       -16.1958
  57   2.0000      -0.586004       -15.9460
  58   2.0000      -0.567849       -15.4519
  59   2.0000      -0.564957       -15.3733
  60   2.0000      -0.508896       -13.8478
  61   2.0000      -0.503582       -13.7032
  62   2.0000      -0.479823       -13.0567
  63   2.0000      -0.476982       -12.9793
  64   2.0000      -0.466283       -12.6882
  65   2.0000      -0.452642       -12.3170
  66   2.0000      -0.441699       -12.0192
  67   2.0000      -0.437486       -11.9046
  68   2.0000      -0.433907       -11.8072
  69   2.0000      -0.419093       -11.4041
  70   2.0000      -0.417718       -11.3667
  71   2.0000      -0.410362       -11.1665
  72   2.0000      -0.399542       -10.8721
  73   2.0000      -0.392647       -10.6845
  74   2.0000      -0.382268       -10.4021
  75   2.0000      -0.366044        -9.9606
  76   2.0000      -0.365109        -9.9351
  77   2.0000      -0.360523        -9.8103
  78   2.0000      -0.358786        -9.7631
  79   2.0000      -0.357951        -9.7403
  80   2.0000      -0.349889        -9.5210
  81   2.0000      -0.348742        -9.4898
  82   2.0000      -0.345686        -9.4066
  83   2.0000      -0.343588        -9.3495
  84   2.0000      -0.339124        -9.2280
  85   2.0000      -0.326128        -8.8744
  86   2.0000      -0.316790        -8.6203
  87   2.0000      -0.304561        -8.2875
  88   2.0000      -0.303289        -8.2529
  89   2.0000      -0.294694        -8.0190
  90   2.0000      -0.290299        -7.8994
  91   2.0000      -0.281813        -7.6685
  92   2.0000      -0.276609        -7.5269
  93   2.0000      -0.268932        -7.3180
  94   2.0000      -0.259321        -7.0565
  95   2.0000      -0.239451        -6.5158
  96   2.0000      -0.221123        -6.0171
  97   2.0000      -0.208060        -5.6616
  98   2.0000      -0.204422        -5.5626
  99   2.0000      -0.203590        -5.5400
 100   2.0000      -0.196631        -5.3506
 101   0.0000      -0.044979        -1.2239
 102   0.0000      -0.026977        -0.7341
 103   0.0000      -0.020377        -0.5545
 104   0.0000       0.000031         0.0008
 105   0.0000       0.009393         0.2556

MULLIKEN ATOMIC CHARGES
-----------------------
   0 C :   -0.306212
   1 C :   -0.005889
   2 O :   -0.376982
   3 P :    0.593197
   4 S :   -0.324950
   5 O :   -0.386315
   6 C :   -0.026469
   7 C :   -0.285334
   8 S :   -0.049054
   9 C :   -0.362785
  10 S :   -0.123766
  11 P :    0.614305
  12 S :   -0.304829
  13 O :   -0.349843
  14 C :    0.007261
  15 C :   -0.346489
  16 O :   -0.383684
  17 C :   -0.014571
  18 C :   -0.308131
  19 H :    0.123151
  20 H :    0.114287
  21 H :    0.113355
  22 H :    0.107744
  23 H :    0.116017
  24 H :    0.109580
  25 H :    0.117960
  26 H :    0.109977
  27 H :    0.119553
  28 H :    0.116191
  29 H :    0.193173
  30 H :    0.198702
  31 H :    0.113220
  32 H :    0.108214
  33 H :    0.111908
  34 H :    0.121930
  35 H :    0.150581
  36 H :    0.113661
  37 H :    0.111483
  38 H :    0.129170
  39 H :    0.127732
  40 H :    0.112950
Sum of atomic charges:    0.0000000

LOEWDIN ATOMIC CHARGES
----------------------
   0 C :   -0.365268
   1 C :   -0.115116
   2 O :   -0.247090
   3 P :    0.563672
   4 S :   -0.325102
   5 O :   -0.251230
   6 C :   -0.122473
   7 C :   -0.353321
   8 S :    0.097271
   9 C :   -0.483587
  10 S :    0.075275
  11 P :    0.569505
  12 S :   -0.301995
  13 O :   -0.232098
  14 C :   -0.108735
  15 C :   -0.373644
  16 O :   -0.243652
  17 C :   -0.114098
  18 C :   -0.368570
  19 H :    0.122689
  20 H :    0.125078
  21 H :    0.131134
  22 H :    0.120023
  23 H :    0.113399
  24 H :    0.112946
  25 H :    0.110955
  26 H :    0.130324
  27 H :    0.118259
  28 H :    0.127199
  29 H :    0.135379
  30 H :    0.128708
  31 H :    0.124437
  32 H :    0.112485
  33 H :    0.130225
  34 H :    0.113742
  35 H :    0.127694
  36 H :    0.107551
  37 H :    0.122192
  38 H :    0.132153
  39 H :    0.122566
  40 H :    0.131117

  Mayer bond orders larger than 0.100000
B(  0-C ,  1-C ) :   1.1633 B(  0-C , 19-H ) :   0.9349 B(  0-C , 20-H ) :   0.9466
B(  0-C , 21-H ) :   0.9382 B(  1-C ,  2-O ) :   0.9038 B(  1-C , 22-H ) :   0.9352
B(  1-C , 23-H ) :   0.9172 B(  2-O ,  3-P ) :   1.1037 B(  3-P ,  4-S ) :   1.6485
B(  3-P ,  5-O ) :   1.0694 B(  3-P ,  8-S ) :   0.9957 B(  5-O ,  6-C ) :   0.8957
B(  6-C ,  7-C ) :   1.1593 B(  6-C , 24-H ) :   0.9223 B(  6-C , 25-H ) :   0.9095
B(  7-C , 26-H ) :   0.9416 B(  7-C , 27-H ) :   0.9429 B(  7-C , 28-H ) :   0.9492
B(  8-S ,  9-C ) :   0.9748 B(  9-C , 10-S ) :   1.0088 B(  9-C , 29-H ) :   0.8895
B(  9-C , 30-H ) :   0.8550 B( 10-S , 11-P ) :   0.9252 B( 10-S , 12-S ) :   0.1110
B( 11-P , 12-S ) :   1.6484 B( 11-P , 13-O ) :   1.1446 B( 11-P , 16-O ) :   1.0859
B( 12-S , 30-H ) :   0.1066 B( 13-O , 14-C ) :   0.9008 B( 14-C , 15-C ) :   1.1660
B( 14-C , 31-H ) :   0.9334 B( 14-C , 32-H ) :   0.9255 B( 15-C , 33-H ) :   0.9348
B( 15-C , 34-H ) :   0.9368 B( 15-C , 35-H ) :   0.9272 B( 16-O , 17-C ) :   0.9084
B( 17-C , 18-C ) :   1.1678 B( 17-C , 36-H ) :   0.9257 B( 17-C , 37-H ) :   0.9328
B( 18-C , 38-H ) :   0.9433 B( 18-C , 39-H ) :   0.9309 B( 18-C , 40-H ) :   0.9347

Dispersion correction           -0.064013688
FINAL SINGLE POINT ENERGY     -2929.516006543148

DIPOLE MOMENT
-------------

Method             : SCF
Type of density    : Electron Density
Multiplicity       :   1
Irrep              :   0
Energy             : -2929.6378296193820461 Eh
Relativity type    :
Basis              : AO
                                X                 Y                 Z
Electronic contribution:     -2.510477870      13.053670526     -15.939302056
Nuclear contribution   :      2.267830737     -14.480931709      17.589562630
                        -----------------------------------------
Total Dipole Moment    :     -0.242647133      -1.427261183       1.650260573
                        -----------------------------------------
Magnitude (a.u.)       :      2.195293164
Magnitude (Debye)      :      5.579991773

Rotational constants in cm-1:             0.013350             0.004276             0.004188
Rotational constants in MHz :           400.224608           128.184712           125.560194

                             ****ORCA TERMINATED NORMALLY****
TOTAL RUN TIME: 0 days 0 hours 0 minutes 21 seconds 194 msec
