                         Program Version 6.0.1  -  RELEASE   -
|  1> ! pbe def2-sv(p) def2/J RI DEFGRID1 loosescf d4 GCP(DFT/SV(P)) printgap
|  2> %output
|  3>     printlevel normal
|  4> end
|  5> * xyz 0 1
|  6> C 5.1254159913 -2.9838355881 -0.9102060116
|  7> C 4.5260866209 -1.8871710343 -0.0437368459
|  8> O 3.086963853 -1.9141326271 -0.0923555139
|  9> C 2.484083422 -1.2847100876 -1.0778506932
| 10> O 3.0485010811 -0.6941560469 -1.9743151729
| 11> C 0.9739038819 -1.4144647084 -0.980109574
| 12> C 0.3577205163 -0.0595833986 -1.3032861713
| 13> H 0.7144360089 0.2599107226 -2.291126578
| 14> C 0.8354244143 1.0011561135 -0.3287636136
| 15> O 1.9105173767 0.9301298352 0.2204864307
| 16> O 0.008493617 2.0254359279 -0.248792654
| 17> C 0.4371127109 3.1883222655 0.493294749
| 18> C 0.2185652136 3.0364579547 1.9881950742
| 19> S -1.4488777326 -0.1061333791 -1.4678302159
| 20> P -2.0523745623 0.1055823415 0.5610633475
| 21> S -0.7848443105 -0.4479088263 1.9483220059
| 22> O -2.5902528099 1.5751187664 0.7702789586
| 23> C -3.5796087567 2.1591219337 -0.1012469386
| 24> O -3.4321733248 -0.7044905227 0.5647827419
| 25> C -3.4577824988 -2.1319889708 0.4534693298
| 26> H 4.7351039006 -3.9520601473 -0.6093066448
| 27> H 4.8798322982 -2.8091260268 -1.9550860218
| 28> H 6.2042646578 -2.9799604433 -0.7957533145
| 29> H 4.862620615 -0.899844765 -0.3729800365
| 30> H 4.7626189248 -2.0348152161 1.0100629795
| 31> H 0.7141504657 -1.746078199 0.0258226731
| 32> H 0.6389521132 -2.1514476702 -1.7115275961
| 33> H 1.4969693842 3.3498048062 0.2764956501
| 34> H -0.1676271746 3.9964816171 0.0817214109
| 35> H 0.8233858 2.2193711472 2.3766118698
| 36> H 0.5075703917 3.9570552076 2.4840952026
| 37> H -0.826402348 2.8236542062 2.2000810746
| 38> H -4.5173578737 1.6145459261 -0.0132731736
| 39> H -3.2263796828 2.1341911945 -1.1319871547
| 40> H -3.6931976346 3.1835648634 0.2432327692
| 41> H -3.2136458677 -2.4276468289 -0.5664580384
| 42> H -4.4731487944 -2.4268286725 0.7057070447
| 43> H -2.7480703341 -2.5760497111 1.153083639
| 44> *
| 45>
| 46>                          ****END OF INPUT****

CARTESIAN COORDINATES (ANGSTROEM)
---------------------------------
  C      5.125416   -2.983836   -0.910206
  C      4.526087   -1.887171   -0.043737
  O      3.086964   -1.914133   -0.092356
  C      2.484083   -1.284710   -1.077851
  O      3.048501   -0.694156   -1.974315
  C      0.973904   -1.414465   -0.980110
  C      0.357721   -0.059583   -1.303286
  H      0.714436    0.259911   -2.291127
  C      0.835424    1.001156   -0.328764
  O      1.910517    0.930130    0.220486
  O      0.008494    2.025436   -0.248793
  C      0.437113    3.188322    0.493295
  C      0.218565    3.036458    1.988195
  S     -1.448878   -0.106133   -1.467830
  P     -2.052375    0.105582    0.561063
  S     -0.784844   -0.447909    1.948322
  O     -2.590253    1.575119    0.770279
  C     -3.579609    2.159122   -0.101247
  O     -3.432173   -0.704491    0.564783
  C     -3.457782   -2.131989    0.453469
  H      4.735104   -3.952060   -0.609307
  H      4.879832   -2.809126   -1.955086
  H      6.204265   -2.979960   -0.795753
  H      4.862621   -0.899845   -0.372980
  H      4.762619   -2.034815    1.010063
  H      0.714150   -1.746078    0.025823
  H      0.638952   -2.151448   -1.711528
  H      1.496969    3.349805    0.276496
  H     -0.167627    3.996482    0.081721
  H      0.823386    2.219371    2.376612
  H      0.507570    3.957055    2.484095
  H     -0.826402    2.823654    2.200081
  H     -4.517358    1.614546   -0.013273
  H     -3.226380    2.134191   -1.131987
  H     -3.693198    3.183565    0.243233
  H     -3.213646   -2.427647   -0.566458
  H     -4.473149   -2.426829    0.705707
  H     -2.748070   -2.576050    1.153084

 Total Charge           Charge          ....    0
 Multiplicity           Mult            ....    1
 Number of Electrons    NEL             ....  174
 Basis Dimension        Dim             ....  316

ORBITAL ENERGIES
----------------

  NO   OCC          E(Eh)            E(eV)
   0   2.0000     -88.045084     -2395.8285
   1   2.0000     -87.990199     -2394.3350
   2   2.0000     -76.431606     -2079.8097
   3   2.0000     -18.807411      -511.7757
   4   2.0000     -18.800706      -511.5932
   5   2.0000     -18.798585      -511.5355
   6   2.0000     -18.788710      -511.2668
   7   2.0000     -18.738365      -509.8968
   8   2.0000     -18.724944      -509.5316
   9   2.0000     -10.017167      -272.5810
  10   2.0000      -9.998843      -272.0823
  11   2.0000      -9.955069      -270.8912
  12   2.0000      -9.949790      -270.7476
  13   2.0000      -9.948150      -270.7029
  14   2.0000      -9.946309      -270.6528
  15   2.0000      -9.936876      -270.3961
  16   2.0000      -9.898357      -269.3480
  17   2.0000      -9.879167      -268.8258
  18   2.0000      -9.872964      -268.6570
  19   2.0000      -7.689903      -209.2529
  20   2.0000      -7.635023      -207.7595
  21   2.0000      -6.428673      -174.9331
  22   2.0000      -5.717779      -155.5887
  23   2.0000      -5.714297      -155.4939
  24   2.0000      -5.707007      -155.2955
  25   2.0000      -5.664140      -154.1291
  26   2.0000      -5.655390      -153.8910
  27   2.0000      -5.655202      -153.8859
  28   2.0000      -4.651427      -126.5718
  29   2.0000      -4.650537      -126.5476
  30   2.0000      -4.648989      -126.5054
  31   2.0000      -1.014333       -27.6014
  32   2.0000      -0.997238       -27.1362
  33   2.0000      -0.993786       -27.0423
  34   2.0000      -0.949399       -25.8345
  35   2.0000      -0.920038       -25.0355
  36   2.0000      -0.902156       -24.5489
  37   2.0000      -0.765118       -20.8199
  38   2.0000      -0.707402       -19.2494
  39   2.0000      -0.701123       -19.0785
  40   2.0000      -0.689949       -18.7745
  41   2.0000      -0.657515       -17.8919
  42   2.0000      -0.643093       -17.4995
  43   2.0000      -0.627988       -17.0884
  44   2.0000      -0.613446       -16.6927
  45   2.0000      -0.591205       -16.0875
  46   2.0000      -0.559972       -15.2376
  47   2.0000      -0.522007       -14.2045
  48   2.0000      -0.494972       -13.4689
  49   2.0000      -0.490565       -13.3490
  50   2.0000      -0.480903       -13.0860
  51   2.0000      -0.478753       -13.0275
  52   2.0000      -0.456265       -12.4156
  53   2.0000      -0.439870       -11.9695
  54   2.0000      -0.438336       -11.9277
  55   2.0000      -0.431520       -11.7422
  56   2.0000      -0.421741       -11.4762
  57   2.0000      -0.418524       -11.3886
  58   2.0000      -0.413483       -11.2514
  59   2.0000      -0.408802       -11.1241
  60   2.0000      -0.406656       -11.0657
  61   2.0000      -0.393313       -10.7026
  62   2.0000      -0.389204       -10.5908
  63   2.0000      -0.384439       -10.4611
  64   2.0000      -0.367544       -10.0014
  65   2.0000      -0.362003        -9.8506
  66   2.0000      -0.352869        -9.6021
  67   2.0000      -0.348399        -9.4804
  68   2.0000      -0.340101        -9.2546
  69   2.0000      -0.336169        -9.1476
  70   2.0000      -0.327450        -8.9104
  71   2.0000      -0.320494        -8.7211
  72   2.0000      -0.318227        -8.6594
  73   2.0000      -0.313592        -8.5333
  74   2.0000      -0.310148        -8.4396
  75   2.0000      -0.303897        -8.2695
  76   2.0000      -0.295288        -8.0352
  77   2.0000      -0.283064        -7.7026
  78   2.0000      -0.275759        -7.5038
  79   2.0000      -0.268187        -7.2977
  80   2.0000      -0.261047        -7.1034
  81   2.0000      -0.246088        -6.6964
  82   2.0000      -0.240783        -6.5520
  83   2.0000      -0.220188        -5.9916
  84   2.0000      -0.210781        -5.7356
  85   2.0000      -0.206944        -5.6312
  86   2.0000      -0.203941        -5.5495
  87   0.0000      -0.041430        -1.1274
  88   0.0000      -0.031921        -0.8686
  89   0.0000      -0.005736        -0.1561
  90   0.0000       0.003743         0.1019
  91   0.0000       0.010854         0.2953

MULLIKEN ATOMIC CHARGES
-----------------------
   0 C :   -0.306205
   1 C :   -0.006825
   2 O :   -0.222076
   3 C :    0.112270
   4 O :   -0.222440
   5 C :   -0.036992
   6 C :   -0.296556
   7 H :    0.165218
   8 C :    0.171385
   9 O :   -0.176286
  10 O :   -0.229956
  11 C :   -0.007868
  12 C :   -0.313282
  13 S :   -0.093413
  14 P :    0.604504
  15 S :   -0.287322
  16 O :   -0.359498
  17 C :   -0.108586
  18 O :   -0.388360
  19 C :   -0.101313
  20 H :    0.110586
  21 H :    0.125172
  22 H :    0.109902
  23 H :    0.111437
  24 H :    0.102501
  25 H :    0.115339
  26 H :    0.108696
  27 H :    0.106972
  28 H :    0.095938
  29 H :    0.137951
  30 H :    0.103736
  31 H :    0.128131
  32 H :    0.127058
  33 H :    0.124419
  34 H :    0.130764
  35 H :    0.117169
  36 H :    0.127433
  37 H :    0.120395
Sum of atomic charges:    0.0000000

LOEWDIN ATOMIC CHARGES
----------------------
   0 C :   -0.357555
   1 C :   -0.107670
   2 O :   -0.050981
   3 C :    0.030639
   4 O :   -0.182990
   5 C :   -0.254774
   6 C :   -0.267311
   7 H :    0.158861
   8 C :    0.011273
   9 O :   -0.138069
  10 O :   -0.062230
  11 C :   -0.104787
  12 C :   -0.364092
  13 S :    0.099084
  14 P :    0.570889
  15 S :   -0.273957
  16 O :   -0.233577
  17 C :   -0.210836
  18 O :   -0.259676
  19 C :   -0.215678
  20 H :    0.123092
  21 H :    0.129361
  22 H :    0.129023
  23 H :    0.122160
  24 H :    0.118141
  25 H :    0.131367
  26 H :    0.140866
  27 H :    0.119683
  28 H :    0.115058
  29 H :    0.131763
  30 H :    0.126515
  31 H :    0.124935
  32 H :    0.117638
  33 H :    0.111736
  34 H :    0.125630
  35 H :    0.109796
  36 H :    0.123708
  37 H :    0.112966

  Mayer bond orders larger than 0.100000
B(  0-C ,  1-C ) :   1.1702 B(  0-C , 20-H ) :   0.9488 B(  0-C , 21-H ) :   0.9460
B(  0-C , 22-H ) :   0.9449 B(  1-C ,  2-O ) :   0.9195 B(  1-C , 23-H ) :   0.9161
B(  1-C , 24-H ) :   0.9381 B(  2-O ,  3-C ) :   1.2490 B(  3-C ,  4-O ) :   2.0155
B(  3-C ,  5-C ) :   0.9969 B(  5-C ,  6-C ) :   1.0381 B(  5-C , 25-H ) :   0.8838
B(  5-C , 26-H ) :   0.8827 B(  6-C ,  7-H ) :   0.8455 B(  6-C ,  8-C ) :   0.9184
B(  6-C , 13-S ) :   1.0019 B(  8-C ,  9-O ) :   2.0331 B(  8-C , 10-O ) :   1.2432
B( 10-O , 11-C ) :   0.9045 B( 11-C , 12-C ) :   1.1771 B( 11-C , 27-H ) :   0.9205
B( 11-C , 28-H ) :   0.9374 B( 12-C , 29-H ) :   0.9392 B( 12-C , 30-H ) :   0.9391
B( 12-C , 31-H ) :   0.9378 B( 13-S , 14-P ) :   0.9619 B( 13-S , 15-S ) :   0.1138
B( 14-P , 15-S ) :   1.6397 B( 14-P , 16-O ) :   1.1168 B( 14-P , 18-O ) :   1.0709
B( 16-O , 17-C ) :   0.9156 B( 17-C , 32-H ) :   0.9475 B( 17-C , 33-H ) :   0.9372
B( 17-C , 34-H ) :   0.9587 B( 18-O , 19-C ) :   0.9292 B( 19-C , 35-H ) :   0.9469
B( 19-C , 36-H ) :   0.9584 B( 19-C , 37-H ) :   0.9360

Dispersion correction           -0.053689131
FINAL SINGLE POINT ENERGY     -1979.022471012911

DIPOLE MOMENT
-------------

Method             : SCF
Type of density    : Electron Density
Multiplicity       :   1
Irrep              :   0
Energy             : -1979.1525578350388059 Eh
Relativity type    :
Basis              : AO
                                X                 Y                 Z
Electronic contribution:    -10.111690520       0.633114626      -0.886657569
Nuclear contribution   :      8.940530671      -0.496772829       0.514344328
                        -----------------------------------------
Total Dipole Moment    :     -1.171159848       0.136341797      -0.372313241
                        -----------------------------------------
Magnitude (a.u.)       :      1.236455266
Magnitude (Debye)      :      3.142819523

Rotational constants in cm-1:             0.015809             0.006380             0.005590
Rotational constants in MHz :           473.955243           191.255678           167.580500

                             ****ORCA TERMINATED NORMALLY****
TOTAL RUN TIME: 0 days 0 hours 0 minutes 44 seconds 539 msec
