                         Program Version 6.0.0  -   RELEASE  -
|  1> ! r2scan-3c def2/J RI DEFGRID2 scfconv6 printgap
|  2> %output
|  3>     printlevel normal
|  4> end
|  5> * xyz 0 1
|  6> C 3.66045167 1.9983502646 1.3671498954
|  7> C 2.6224235051 1.7036478985 0.3051241693
|  8> O 1.6476729753 0.7442478904 0.7915928638
|  9> P 1.7321927083 -0.8026004131 0.5249035273
| 10> S 0.2471882042 -1.7833063535 1.3371697737
| 11> O 3.1744543393 -1.1832228307 1.0658035392
| 12> C 3.6369621242 -2.5503809486 1.0564346431
| 13> C 4.8707430012 -2.6285026262 1.9321221817
| 14> S 1.9594406247 -1.0755723021 -1.5729304647
| 15> C 0.2357625072 -0.8210043766 -2.0429600792
| 16> S -0.2952281528 0.9142560854 -1.8447495904
| 17> P -1.8805189685 0.6994161302 -0.4757156504
| 18> S -2.8097448209 -1.0308689604 -0.4988385124
| 19> O -2.7636471404 1.9753069642 -0.8280793966
| 20> C -3.572667113 2.047691841 -2.0188950165
| 21> C -5.0044204879 1.6428571826 -1.7257465732
| 22> O -1.2324508798 1.1685747322 0.8874297135
| 23> C -1.8302190765 0.8777965676 2.1659622781
| 24> C -3.1591480461 1.5800888948 2.3382836654
| 25> H 4.3373098792 2.7617234337 0.9963181995
| 26> H 3.1778490241 2.3553368983 2.2728016934
| 27> H 4.2244682711 1.0995713875 1.6011458055
| 28> H 3.0843541457 1.3095095403 -0.6045344361
| 29> H 2.0296315573 2.5878796536 0.0622657706
| 30> H 2.8331982515 -3.191167755 1.4333112716
| 31> H 3.8600971233 -2.8269343246 0.0226613069
| 32> H 4.6277626113 -2.3282553345 2.947521857
| 33> H 5.2363393176 -3.6499671011 1.9391289352
| 34> H 5.6447574518 -1.9728282023 1.5441974633
| 35> H -0.4167591556 -1.4590167814 -1.439508027
| 36> H 0.1681492695 -1.0757732147 -3.0973617118
| 37> H -3.5095939743 3.0916939543 -2.3310571633
| 38> H -3.1362527996 1.4088709147 -2.7921530534
| 39> H -5.5999901609 1.7601256965 -2.6252046876
| 40> H -5.0430698277 0.6028627464 -1.4087164952
| 41> H -5.4159666015 2.2671075216 -0.9375762104
| 42> H -1.9438123556 -0.2079116433 2.2566843669
| 43> H -1.0838082822 1.2228576162 2.8831224098
| 44> H -3.8800285369 1.1801508267 1.6259271399
| 45> H -3.5261077608 1.4107754487 3.3457620394
| 46> H -3.0448084308 2.6468267292 2.1641157619
| 47> *
| 48>
| 49>                          ****END OF INPUT****

CARTESIAN COORDINATES (ANGSTROEM)
---------------------------------
  C      3.660452    1.998350    1.367150
  C      2.622424    1.703648    0.305124
  O      1.647673    0.744248    0.791593
  P      1.732193   -0.802600    0.524904
  S      0.247188   -1.783306    1.337170
  O      3.174454   -1.183223    1.065804
  C      3.636962   -2.550381    1.056435
  C      4.870743   -2.628503    1.932122
  S      1.959441   -1.075572   -1.572930
  C      0.235763   -0.821004   -2.042960
  S     -0.295228    0.914256   -1.844750
  P     -1.880519    0.699416   -0.475716
  S     -2.809745   -1.030869   -0.498839
  O     -2.763647    1.975307   -0.828079
  C     -3.572667    2.047692   -2.018895
  C     -5.004420    1.642857   -1.725747
  O     -1.232451    1.168575    0.887430
  C     -1.830219    0.877797    2.165962
  C     -3.159148    1.580089    2.338284
  H      4.337310    2.761723    0.996318
  H      3.177849    2.355337    2.272802
  H      4.224468    1.099571    1.601146
  H      3.084354    1.309510   -0.604534
  H      2.029632    2.587880    0.062266
  H      2.833198   -3.191168    1.433311
  H      3.860097   -2.826934    0.022661
  H      4.627763   -2.328255    2.947522
  H      5.236339   -3.649967    1.939129
  H      5.644757   -1.972828    1.544197
  H     -0.416759   -1.459017   -1.439508
  H      0.168149   -1.075773   -3.097362
  H     -3.509594    3.091694   -2.331057
  H     -3.136253    1.408871   -2.792153
  H     -5.599990    1.760126   -2.625205
  H     -5.043070    0.602863   -1.408716
  H     -5.415967    2.267108   -0.937576
  H     -1.943812   -0.207912    2.256684
  H     -1.083808    1.222858    2.883122
  H     -3.880029    1.180151    1.625927
  H     -3.526108    1.410775    3.345762
  H     -3.044808    2.646827    2.164116

 Total Charge           Charge          ....    0
 Multiplicity           Mult            ....    1
 Number of Electrons    NEL             ....  202
 Basis Dimension        Dim             ....  539

ORBITAL ENERGIES
----------------

  NO   OCC          E(Eh)            E(eV)
   0   2.0000     -88.575157     -2410.2526
   1   2.0000     -88.572488     -2410.1799
   2   2.0000     -88.513007     -2408.5614
   3   2.0000     -88.512291     -2408.5419
   4   2.0000     -76.910614     -2092.8442
   5   2.0000     -76.907877     -2092.7697
   6   2.0000     -18.993718      -516.8453
   7   2.0000     -18.989541      -516.7317
   8   2.0000     -18.985668      -516.6263
   9   2.0000     -18.979009      -516.4451
  10   2.0000     -10.104579      -274.9596
  11   2.0000     -10.100566      -274.8504
  12   2.0000     -10.099385      -274.8182
  13   2.0000     -10.095721      -274.7185
  14   2.0000     -10.084539      -274.4142
  15   2.0000     -10.035456      -273.0786
  16   2.0000     -10.030325      -272.9390
  17   2.0000     -10.022215      -272.7183
  18   2.0000     -10.019557      -272.6460
  19   2.0000      -7.869679      -214.1448
  20   2.0000      -7.867037      -214.0730
  21   2.0000      -7.807791      -212.4608
  22   2.0000      -7.807135      -212.4429
  23   2.0000      -6.589179      -179.3007
  24   2.0000      -6.586203      -179.2197
  25   2.0000      -5.816466      -158.2741
  26   2.0000      -5.813830      -158.2024
  27   2.0000      -5.813326      -158.1886
  28   2.0000      -5.810845      -158.1211
  29   2.0000      -5.807053      -158.0179
  30   2.0000      -5.804227      -157.9411
  31   2.0000      -5.755429      -156.6132
  32   2.0000      -5.754928      -156.5995
  33   2.0000      -5.748265      -156.4183
  34   2.0000      -5.747612      -156.4005
  35   2.0000      -5.747303      -156.3921
  36   2.0000      -5.747093      -156.3864
  37   2.0000      -4.735007      -128.8461
  38   2.0000      -4.734309      -128.8271
  39   2.0000      -4.732397      -128.7751
  40   2.0000      -4.731590      -128.7531
  41   2.0000      -4.731065      -128.7388
  42   2.0000      -4.730126      -128.7133
  43   2.0000      -1.051072       -28.6011
  44   2.0000      -1.042330       -28.3632
  45   2.0000      -1.010582       -27.4993
  46   2.0000      -1.001814       -27.2607
  47   2.0000      -0.798258       -21.7217
  48   2.0000      -0.757755       -20.6196
  49   2.0000      -0.745982       -20.2992
  50   2.0000      -0.736981       -20.0543
  51   2.0000      -0.723777       -19.6950
  52   2.0000      -0.707386       -19.2489
  53   2.0000      -0.681766       -18.5518
  54   2.0000      -0.662146       -18.0179
  55   2.0000      -0.624015       -16.9803
  56   2.0000      -0.618521       -16.8308
  57   2.0000      -0.603893       -16.4328
  58   2.0000      -0.598674       -16.2907
  59   2.0000      -0.591405       -16.0930
  60   2.0000      -0.533240       -14.5102
  61   2.0000      -0.517200       -14.0737
  62   2.0000      -0.500106       -13.6086
  63   2.0000      -0.485478       -13.2105
  64   2.0000      -0.465292       -12.6612
  65   2.0000      -0.463674       -12.6172
  66   2.0000      -0.453539       -12.3414
  67   2.0000      -0.451397       -12.2831
  68   2.0000      -0.448953       -12.2166
  69   2.0000      -0.429057       -11.6752
  70   2.0000      -0.419697       -11.4205
  71   2.0000      -0.412618       -11.2279
  72   2.0000      -0.406323       -11.0566
  73   2.0000      -0.398223       -10.8362
  74   2.0000      -0.397122       -10.8062
  75   2.0000      -0.383858       -10.4453
  76   2.0000      -0.379842       -10.3360
  77   2.0000      -0.372409       -10.1338
  78   2.0000      -0.368435       -10.0256
  79   2.0000      -0.366129        -9.9629
  80   2.0000      -0.359843        -9.7918
  81   2.0000      -0.356152        -9.6914
  82   2.0000      -0.352145        -9.5824
  83   2.0000      -0.347790        -9.4638
  84   2.0000      -0.342634        -9.3236
  85   2.0000      -0.330008        -8.9800
  86   2.0000      -0.322554        -8.7771
  87   2.0000      -0.316353        -8.6084
  88   2.0000      -0.307071        -8.3558
  89   2.0000      -0.305013        -8.2998
  90   2.0000      -0.292701        -7.9648
  91   2.0000      -0.287367        -7.8196
  92   2.0000      -0.278645        -7.5823
  93   2.0000      -0.275109        -7.4861
  94   2.0000      -0.270860        -7.3705
  95   2.0000      -0.248608        -6.7650
  96   2.0000      -0.233328        -6.3492
  97   2.0000      -0.225032        -6.1234
  98   2.0000      -0.214397        -5.8340
  99   2.0000      -0.203877        -5.5478
 100   2.0000      -0.195893        -5.3305
 101   0.0000      -0.040000        -1.0885
 102   0.0000      -0.029191        -0.7943
 103   0.0000      -0.004858        -0.1322
 104   0.0000       0.017330         0.4716
 105   0.0000       0.019233         0.5234

MULLIKEN ATOMIC CHARGES
-----------------------
   0 C :   -0.460152
   1 C :   -0.113812
   2 O :   -0.256954
   3 P :    0.674125
   4 S :   -0.421605
   5 O :   -0.295679
   6 C :   -0.160312
   7 C :   -0.441112
   8 S :   -0.180009
   9 C :   -0.210932
  10 S :   -0.144128
  11 P :    0.641353
  12 S :   -0.458103
  13 O :   -0.289547
  14 C :   -0.131016
  15 C :   -0.460966
  16 O :   -0.266755
  17 C :   -0.146723
  18 C :   -0.453869
  19 H :    0.146159
  20 H :    0.156172
  21 H :    0.165325
  22 H :    0.163404
  23 H :    0.164132
  24 H :    0.173879
  25 H :    0.149101
  26 H :    0.159777
  27 H :    0.148098
  28 H :    0.150485
  29 H :    0.218958
  30 H :    0.194545
  31 H :    0.148753
  32 H :    0.153061
  33 H :    0.143578
  34 H :    0.184529
  35 H :    0.150669
  36 H :    0.182008
  37 H :    0.154288
  38 H :    0.167743
  39 H :    0.146057
  40 H :    0.155477
Sum of atomic charges:   -0.0000000

LOEWDIN ATOMIC CHARGES
----------------------
   0 C :   -0.393615
   1 C :    0.018768
   2 O :   -0.651036
   3 P :    0.374182
   4 S :   -0.073636
   5 O :   -0.675789
   6 C :    0.019594
   7 C :   -0.386192
   8 S :    0.118482
   9 C :   -0.413487
  10 S :    0.167504
  11 P :    0.370472
  12 S :   -0.126113
  13 O :   -0.667129
  14 C :    0.018574
  15 C :   -0.403363
  16 O :   -0.661461
  17 C :    0.013494
  18 C :   -0.401586
  19 H :    0.158478
  20 H :    0.160848
  21 H :    0.166278
  22 H :    0.177054
  23 H :    0.183402
  24 H :    0.182270
  25 H :    0.171542
  26 H :    0.162229
  27 H :    0.160770
  28 H :    0.158113
  29 H :    0.202788
  30 H :    0.179986
  31 H :    0.177553
  32 H :    0.175929
  33 H :    0.157408
  34 H :    0.169293
  35 H :    0.157222
  36 H :    0.184735
  37 H :    0.182632
  38 H :    0.164974
  39 H :    0.158721
  40 H :    0.160114

  Mayer bond orders larger than 0.100000
B(  0-C ,  1-C ) :   0.9363 B(  0-C , 19-H ) :   0.9664 B(  0-C , 20-H ) :   0.9734
B(  0-C , 21-H ) :   0.9660 B(  1-C ,  2-O ) :   0.7381 B(  1-C , 22-H ) :   0.9643
B(  1-C , 23-H ) :   0.9614 B(  2-O ,  3-P ) :   1.1406 B(  3-P ,  4-S ) :   1.8389
B(  3-P ,  5-O ) :   1.0541 B(  3-P ,  8-S ) :   0.9944 B(  5-O ,  6-C ) :   0.7903
B(  6-C ,  7-C ) :   0.9565 B(  6-C , 24-H ) :   0.9496 B(  6-C , 25-H ) :   0.9423
B(  7-C , 26-H ) :   0.9711 B(  7-C , 27-H ) :   0.9632 B(  7-C , 28-H ) :   0.9717
B(  8-S ,  9-C ) :   0.9191 B(  9-C , 10-S ) :   0.8959 B(  9-C , 29-H ) :   0.9045
B(  9-C , 30-H ) :   0.9141 B( 10-S , 11-P ) :   1.1190 B( 11-P , 12-S ) :   1.7616
B( 11-P , 13-O ) :   1.0503 B( 11-P , 16-O ) :   1.1853 B( 13-O , 14-C ) :   0.7857
B( 14-C , 15-C ) :   0.9493 B( 14-C , 31-H ) :   0.9648 B( 14-C , 32-H ) :   0.9650
B( 15-C , 33-H ) :   0.9646 B( 15-C , 34-H ) :   0.9583 B( 15-C , 35-H ) :   0.9742
B( 16-O , 17-C ) :   0.8025 B( 17-C , 18-C ) :   0.9101 B( 17-C , 36-H ) :   0.9625
B( 17-C , 37-H ) :   0.9619 B( 18-C , 38-H ) :   0.9609 B( 18-C , 39-H ) :   0.9615
B( 18-C , 40-H ) :   0.9727

Dispersion correction           -0.021799319
FINAL SINGLE POINT ENERGY     -2932.460306174264

DIPOLE MOMENT
-------------

Method             : SCF
Type of density    : Electron Density
Multiplicity       :   1
Irrep              :   0
Energy             : -2932.4850381341211687 Eh
Relativity type    :
Basis              : AO
                                X                 Y                 Z
Electronic contribution:     -1.544700111      -7.710542289      -9.548425744
Nuclear contribution   :      2.632267768       8.655778066       9.308399888
                        -----------------------------------------
Total Dipole Moment    :      1.087567657       0.945235777      -0.240025856
                        -----------------------------------------
Magnitude (a.u.)       :      1.460782836
Magnitude (Debye)      :      3.713014892

Rotational constants in cm-1:             0.013935             0.004829             0.004733
Rotational constants in MHz :           417.758796           144.775882           141.906734

                             ****ORCA TERMINATED NORMALLY****
TOTAL RUN TIME: 0 days 0 hours 1 minutes 22 seconds 320 msec
