                         Program Version 6.0.0  -   RELEASE  -
|  1> ! r2scan-3c def2/J RI DEFGRID2 scfconv6 printgap
|  2> %output
|  3>     printlevel normal
|  4> end
|  5> %cpcm
|  6>     smd true
|  7>     smdsolvent "water"
|  8> end
|  9> * xyz 0 1
| 10> C 3.66045167 1.9983502646 1.3671498954
| 11> C 2.6224235051 1.7036478985 0.3051241693
| 12> O 1.6476729753 0.7442478904 0.7915928638
| 13> P 1.7321927083 -0.8026004131 0.5249035273
| 14> S 0.2471882042 -1.7833063535 1.3371697737
| 15> O 3.1744543393 -1.1832228307 1.0658035392
| 16> C 3.6369621242 -2.5503809486 1.0564346431
| 17> C 4.8707430012 -2.6285026262 1.9321221817
| 18> S 1.9594406247 -1.0755723021 -1.5729304647
| 19> C 0.2357625072 -0.8210043766 -2.0429600792
| 20> S -0.2952281528 0.9142560854 -1.8447495904
| 21> P -1.8805189685 0.6994161302 -0.4757156504
| 22> S -2.8097448209 -1.0308689604 -0.4988385124
| 23> O -2.7636471404 1.9753069642 -0.8280793966
| 24> C -3.572667113 2.047691841 -2.0188950165
| 25> C -5.0044204879 1.6428571826 -1.7257465732
| 26> O -1.2324508798 1.1685747322 0.8874297135
| 27> C -1.8302190765 0.8777965676 2.1659622781
| 28> C -3.1591480461 1.5800888948 2.3382836654
| 29> H 4.3373098792 2.7617234337 0.9963181995
| 30> H 3.1778490241 2.3553368983 2.2728016934
| 31> H 4.2244682711 1.0995713875 1.6011458055
| 32> H 3.0843541457 1.3095095403 -0.6045344361
| 33> H 2.0296315573 2.5878796536 0.0622657706
| 34> H 2.8331982515 -3.191167755 1.4333112716
| 35> H 3.8600971233 -2.8269343246 0.0226613069
| 36> H 4.6277626113 -2.3282553345 2.947521857
| 37> H 5.2363393176 -3.6499671011 1.9391289352
| 38> H 5.6447574518 -1.9728282023 1.5441974633
| 39> H -0.4167591556 -1.4590167814 -1.439508027
| 40> H 0.1681492695 -1.0757732147 -3.0973617118
| 41> H -3.5095939743 3.0916939543 -2.3310571633
| 42> H -3.1362527996 1.4088709147 -2.7921530534
| 43> H -5.5999901609 1.7601256965 -2.6252046876
| 44> H -5.0430698277 0.6028627464 -1.4087164952
| 45> H -5.4159666015 2.2671075216 -0.9375762104
| 46> H -1.9438123556 -0.2079116433 2.2566843669
| 47> H -1.0838082822 1.2228576162 2.8831224098
| 48> H -3.8800285369 1.1801508267 1.6259271399
| 49> H -3.5261077608 1.4107754487 3.3457620394
| 50> H -3.0448084308 2.6468267292 2.1641157619
| 51> *
| 52>
| 53>                          ****END OF INPUT****

CARTESIAN COORDINATES (ANGSTROEM)
---------------------------------
  C      3.660452    1.998350    1.367150
  C      2.622424    1.703648    0.305124
  O      1.647673    0.744248    0.791593
  P      1.732193   -0.802600    0.524904
  S      0.247188   -1.783306    1.337170
  O      3.174454   -1.183223    1.065804
  C      3.636962   -2.550381    1.056435
  C      4.870743   -2.628503    1.932122
  S      1.959441   -1.075572   -1.572930
  C      0.235763   -0.821004   -2.042960
  S     -0.295228    0.914256   -1.844750
  P     -1.880519    0.699416   -0.475716
  S     -2.809745   -1.030869   -0.498839
  O     -2.763647    1.975307   -0.828079
  C     -3.572667    2.047692   -2.018895
  C     -5.004420    1.642857   -1.725747
  O     -1.232451    1.168575    0.887430
  C     -1.830219    0.877797    2.165962
  C     -3.159148    1.580089    2.338284
  H      4.337310    2.761723    0.996318
  H      3.177849    2.355337    2.272802
  H      4.224468    1.099571    1.601146
  H      3.084354    1.309510   -0.604534
  H      2.029632    2.587880    0.062266
  H      2.833198   -3.191168    1.433311
  H      3.860097   -2.826934    0.022661
  H      4.627763   -2.328255    2.947522
  H      5.236339   -3.649967    1.939129
  H      5.644757   -1.972828    1.544197
  H     -0.416759   -1.459017   -1.439508
  H      0.168149   -1.075773   -3.097362
  H     -3.509594    3.091694   -2.331057
  H     -3.136253    1.408871   -2.792153
  H     -5.599990    1.760126   -2.625205
  H     -5.043070    0.602863   -1.408716
  H     -5.415967    2.267108   -0.937576
  H     -1.943812   -0.207912    2.256684
  H     -1.083808    1.222858    2.883122
  H     -3.880029    1.180151    1.625927
  H     -3.526108    1.410775    3.345762
  H     -3.044808    2.646827    2.164116

 Total Charge           Charge          ....    0
 Multiplicity           Mult            ....    1
 Number of Electrons    NEL             ....  202
 Basis Dimension        Dim             ....  539

ORBITAL ENERGIES
----------------

  NO   OCC          E(Eh)            E(eV)
   0   2.0000     -88.579071     -2410.3591
   1   2.0000     -88.578243     -2410.3365
   2   2.0000     -88.524672     -2408.8788
   3   2.0000     -88.523411     -2408.8445
   4   2.0000     -76.917655     -2093.0358
   5   2.0000     -76.917549     -2093.0329
   6   2.0000     -18.995142      -516.8841
   7   2.0000     -18.994883      -516.8770
   8   2.0000     -18.992330      -516.8076
   9   2.0000     -18.989821      -516.7393
  10   2.0000     -10.104857      -274.9671
  11   2.0000     -10.091596      -274.6063
  12   2.0000     -10.091006      -274.5902
  13   2.0000     -10.089775      -274.5567
  14   2.0000     -10.086650      -274.4717
  15   2.0000     -10.019959      -272.6570
  16   2.0000     -10.018282      -272.6113
  17   2.0000     -10.017532      -272.5909
  18   2.0000     -10.015986      -272.5488
  19   2.0000      -7.873509      -214.2491
  20   2.0000      -7.872743      -214.2282
  21   2.0000      -7.819765      -212.7866
  22   2.0000      -7.818609      -212.7552
  23   2.0000      -6.596153      -179.4904
  24   2.0000      -6.596029      -179.4871
  25   2.0000      -5.820305      -158.3786
  26   2.0000      -5.819545      -158.3579
  27   2.0000      -5.817172      -158.2933
  28   2.0000      -5.816565      -158.2768
  29   2.0000      -5.810871      -158.1218
  30   2.0000      -5.809925      -158.0961
  31   2.0000      -5.767340      -156.9373
  32   2.0000      -5.766284      -156.9086
  33   2.0000      -5.760236      -156.7440
  34   2.0000      -5.759596      -156.7266
  35   2.0000      -5.758818      -156.7054
  36   2.0000      -5.758576      -156.6988
  37   2.0000      -4.741926      -129.0344
  38   2.0000      -4.741382      -129.0196
  39   2.0000      -4.741240      -129.0157
  40   2.0000      -4.740900      -129.0065
  41   2.0000      -4.740003      -128.9820
  42   2.0000      -4.739508      -128.9686
  43   2.0000      -1.054254       -28.6877
  44   2.0000      -1.050619       -28.5888
  45   2.0000      -1.013318       -27.5738
  46   2.0000      -1.009797       -27.4780
  47   2.0000      -0.801338       -21.8055
  48   2.0000      -0.756105       -20.5747
  49   2.0000      -0.744670       -20.2635
  50   2.0000      -0.727312       -19.7912
  51   2.0000      -0.721894       -19.6437
  52   2.0000      -0.709496       -19.3064
  53   2.0000      -0.687799       -18.7160
  54   2.0000      -0.670037       -18.2326
  55   2.0000      -0.627602       -17.0779
  56   2.0000      -0.615391       -16.7456
  57   2.0000      -0.600544       -16.3416
  58   2.0000      -0.594488       -16.1768
  59   2.0000      -0.591702       -16.1010
  60   2.0000      -0.531257       -14.4562
  61   2.0000      -0.518175       -14.1003
  62   2.0000      -0.497651       -13.5418
  63   2.0000      -0.489483       -13.3195
  64   2.0000      -0.467785       -12.7291
  65   2.0000      -0.461376       -12.5547
  66   2.0000      -0.454266       -12.3612
  67   2.0000      -0.451783       -12.2936
  68   2.0000      -0.444243       -12.0885
  69   2.0000      -0.430486       -11.7141
  70   2.0000      -0.418051       -11.3758
  71   2.0000      -0.414182       -11.2705
  72   2.0000      -0.404325       -11.0022
  73   2.0000      -0.399400       -10.8682
  74   2.0000      -0.391402       -10.6506
  75   2.0000      -0.385716       -10.4959
  76   2.0000      -0.378919       -10.3109
  77   2.0000      -0.366667        -9.9775
  78   2.0000      -0.363530        -9.8922
  79   2.0000      -0.359550        -9.7838
  80   2.0000      -0.353041        -9.6067
  81   2.0000      -0.351892        -9.5755
  82   2.0000      -0.348660        -9.4875
  83   2.0000      -0.347630        -9.4595
  84   2.0000      -0.342415        -9.3176
  85   2.0000      -0.325875        -8.8675
  86   2.0000      -0.325411        -8.8549
  87   2.0000      -0.314361        -8.5542
  88   2.0000      -0.304999        -8.2994
  89   2.0000      -0.303207        -8.2507
  90   2.0000      -0.296838        -8.0774
  91   2.0000      -0.290217        -7.8972
  92   2.0000      -0.282553        -7.6887
  93   2.0000      -0.279233        -7.5983
  94   2.0000      -0.274465        -7.4686
  95   2.0000      -0.253542        -6.8992
  96   2.0000      -0.241551        -6.5729
  97   2.0000      -0.236344        -6.4312
  98   2.0000      -0.226206        -6.1554
  99   2.0000      -0.214111        -5.8263
 100   2.0000      -0.207953        -5.6587
 101   0.0000      -0.045331        -1.2335
 102   0.0000      -0.036621        -0.9965
 103   0.0000      -0.009705        -0.2641
 104   0.0000       0.009155         0.2491
 105   0.0000       0.014335         0.3901

MULLIKEN ATOMIC CHARGES
-----------------------
   0 C :   -0.501699
   1 C :   -0.098648
   2 O :   -0.289472
   3 P :    0.684696
   4 S :   -0.476787
   5 O :   -0.314860
   6 C :   -0.149451
   7 C :   -0.480672
   8 S :   -0.178055
   9 C :   -0.211926
  10 S :   -0.142756
  11 P :    0.673613
  12 S :   -0.510359
  13 O :   -0.317735
  14 C :   -0.128739
  15 C :   -0.495633
  16 O :   -0.296380
  17 C :   -0.145042
  18 C :   -0.496155
  19 H :    0.171185
  20 H :    0.167977
  21 H :    0.169256
  22 H :    0.175915
  23 H :    0.180718
  24 H :    0.173906
  25 H :    0.168327
  26 H :    0.166883
  27 H :    0.169732
  28 H :    0.166093
  29 H :    0.211971
  30 H :    0.236487
  31 H :    0.175714
  32 H :    0.164506
  33 H :    0.168969
  34 H :    0.173081
  35 H :    0.166119
  36 H :    0.180789
  37 H :    0.177266
  38 H :    0.168807
  39 H :    0.171615
  40 H :    0.170744
Sum of atomic charges:   -0.0000000

LOEWDIN ATOMIC CHARGES
----------------------
   0 C :   -0.395665
   1 C :    0.025541
   2 O :   -0.672486
   3 P :    0.375710
   4 S :   -0.114813
   5 O :   -0.682439
   6 C :    0.024173
   7 C :   -0.388981
   8 S :    0.128047
   9 C :   -0.408252
  10 S :    0.171450
  11 P :    0.374361
  12 S :   -0.158457
  13 O :   -0.680565
  14 C :    0.024068
  15 C :   -0.406774
  16 O :   -0.681036
  17 C :    0.014169
  18 C :   -0.403571
  19 H :    0.168798
  20 H :    0.163508
  21 H :    0.165990
  22 H :    0.182867
  23 H :    0.190232
  24 H :    0.181839
  25 H :    0.179369
  26 H :    0.163524
  27 H :    0.169163
  28 H :    0.163160
  29 H :    0.199609
  30 H :    0.196642
  31 H :    0.189152
  32 H :    0.180066
  33 H :    0.166935
  34 H :    0.162945
  35 H :    0.161729
  36 H :    0.183426
  37 H :    0.190632
  38 H :    0.163204
  39 H :    0.168479
  40 H :    0.164251

  Mayer bond orders larger than 0.100000
B(  0-C ,  1-C ) :   0.9299 B(  0-C , 19-H ) :   0.9594 B(  0-C , 20-H ) :   0.9715
B(  0-C , 21-H ) :   0.9654 B(  1-C ,  2-O ) :   0.7273 B(  1-C , 22-H ) :   0.9546
B(  1-C , 23-H ) :   0.9523 B(  2-O ,  3-P ) :   1.1419 B(  3-P ,  4-S ) :   1.8098
B(  3-P ,  5-O ) :   1.0654 B(  3-P ,  8-S ) :   1.0159 B(  5-O ,  6-C ) :   0.7815
B(  6-C ,  7-C ) :   0.9563 B(  6-C , 24-H ) :   0.9465 B(  6-C , 25-H ) :   0.9334
B(  7-C , 26-H ) :   0.9689 B(  7-C , 27-H ) :   0.9575 B(  7-C , 28-H ) :   0.9681
B(  8-S ,  9-C ) :   0.9118 B(  9-C , 10-S ) :   0.8900 B(  9-C , 29-H ) :   0.9090
B(  9-C , 30-H ) :   0.8980 B( 10-S , 11-P ) :   1.1442 B( 11-P , 12-S ) :   1.7124
B( 11-P , 13-O ) :   1.0575 B( 11-P , 16-O ) :   1.1818 B( 13-O , 14-C ) :   0.7719
B( 14-C , 15-C ) :   0.9408 B( 14-C , 31-H ) :   0.9540 B( 14-C , 32-H ) :   0.9583
B( 15-C , 33-H ) :   0.9594 B( 15-C , 34-H ) :   0.9627 B( 15-C , 35-H ) :   0.9711
B( 16-O , 17-C ) :   0.7870 B( 17-C , 18-C ) :   0.9067 B( 17-C , 36-H ) :   0.9589
B( 17-C , 37-H ) :   0.9503 B( 18-C , 38-H ) :   0.9603 B( 18-C , 39-H ) :   0.9547
B( 18-C , 40-H ) :   0.9709

Dispersion correction           -0.021799319
FINAL SINGLE POINT ENERGY     -2932.469812111772

DIPOLE MOMENT
-------------

Method             : SCF
Type of density    : Electron Density
Multiplicity       :   1
Irrep              :   0
Energy             : -2932.4945440716296616 Eh
Relativity type    :
Basis              : AO
                                X                 Y                 Z
Electronic contribution:     -1.124386906      -7.362231109      -9.994394006
Nuclear contribution   :      2.632267768       8.655778066       9.308399888
                        -----------------------------------------
Total Dipole Moment    :      1.507880863       1.293546958      -0.685994118
                        -----------------------------------------
Magnitude (a.u.)       :      2.101798363
Magnitude (Debye)      :      5.342346875

Rotational constants in cm-1:             0.013935             0.004829             0.004733
Rotational constants in MHz :           417.758796           144.775882           141.906734

                             ****ORCA TERMINATED NORMALLY****
TOTAL RUN TIME: 0 days 0 hours 1 minutes 49 seconds 525 msec
