                         Program Version 6.0.0  -   RELEASE  -
|  1> ! pbe def2-sv(p) def2/J RI DEFGRID1 loosescf d4 GCP(DFT/SV(P)) printgap
|  2> %output
|  3>     printlevel normal
|  4> end
|  5> * xyz 0 1
|  6> C 2.3775774768 -2.14364e-05 0.4966027606
|  7> N 1.3715182242 3.292e-07 -0.5467969779
|  8> C 0.5333731149 1.1917099947 -0.5542236961
|  9> C -0.5332512474 1.1917783902 0.5538723527
| 10> N -1.3713100109 4.9459e-06 0.546806526
| 11> C -0.5332348294 -1.1917512869 0.5539050207
| 12> C 0.5333711308 -1.1917066859 -0.5542085852
| 13> C -2.3779797318 -3.3278e-06 -0.4960110961
| 14> H 3.0012318963 -0.8842414792 0.3721843203
| 15> H 1.9748028362 -0.0001116097 1.5183887225
| 16> H 3.0012087638 0.8841262475 0.3721981409
| 17> H 1.1732869478 2.070014549 -0.4556322643
| 18> H 0.044290992 1.235184689 -1.5326348964
| 19> H -0.0441184463 1.2355423405 1.5322480153
| 20> H -1.1732354809 2.0700045612 0.4550747071
| 21> H -0.0440670285 -1.2354695596 1.5322685754
| 22> H -1.1732098632 -2.0699952031 0.4551764084
| 23> H 1.1732805825 -2.0700145543 -0.4555968502
| 24> H 0.044291984 -1.2351644024 -1.5326218037
| 25> H -3.0016801577 0.8840079523 -0.3710424187
| 26> H -3.0013838553 -0.8842626325 -0.371336509
| 27> H -1.9758756389 0.0002384895 -1.5180531754
| 28> *
| 29>
| 30>                          ****END OF INPUT****

CARTESIAN COORDINATES (ANGSTROEM)
---------------------------------
  C      2.377577   -0.000021    0.496603
  N      1.371518    0.000000   -0.546797
  C      0.533373    1.191710   -0.554224
  C     -0.533251    1.191778    0.553872
  N     -1.371310    0.000005    0.546807
  C     -0.533235   -1.191751    0.553905
  C      0.533371   -1.191707   -0.554209
  C     -2.377980   -0.000003   -0.496011
  H      3.001232   -0.884241    0.372184
  H      1.974803   -0.000112    1.518389
  H      3.001209    0.884126    0.372198
  H      1.173287    2.070015   -0.455632
  H      0.044291    1.235185   -1.532635
  H     -0.044118    1.235542    1.532248
  H     -1.173235    2.070005    0.455075
  H     -0.044067   -1.235470    1.532269
  H     -1.173210   -2.069995    0.455176
  H      1.173281   -2.070015   -0.455597
  H      0.044292   -1.235164   -1.532622
  H     -3.001680    0.884008   -0.371042
  H     -3.001384   -0.884263   -0.371337
  H     -1.975876    0.000238   -1.518053

 Total Charge           Charge          ....    0
 Multiplicity           Mult            ....    1
 Number of Electrons    NEL             ....   64
 Basis Dimension        Dim             ....  140

ORBITAL ENERGIES
----------------

  NO   OCC          E(Eh)            E(eV)
   0   2.0000     -13.976668      -380.3245
   1   2.0000     -13.976619      -380.3231
   2   2.0000      -9.903172      -269.4790
   3   2.0000      -9.903157      -269.4786
   4   2.0000      -9.903110      -269.4773
   5   2.0000      -9.903097      -269.4770
   6   2.0000      -9.898826      -269.3608
   7   2.0000      -9.898818      -269.3605
   8   2.0000      -0.855698       -23.2847
   9   2.0000      -0.811268       -22.0757
  10   2.0000      -0.680100       -18.5065
  11   2.0000      -0.650449       -17.6996
  12   2.0000      -0.617954       -16.8154
  13   2.0000      -0.573207       -15.5978
  14   2.0000      -0.548177       -14.9167
  15   2.0000      -0.486126       -13.2282
  16   2.0000      -0.442176       -12.0322
  17   2.0000      -0.423360       -11.5202
  18   2.0000      -0.414082       -11.2677
  19   2.0000      -0.401101       -10.9145
  20   2.0000      -0.398042       -10.8313
  21   2.0000      -0.389568       -10.6007
  22   2.0000      -0.347758        -9.4630
  23   2.0000      -0.343302        -9.3417
  24   2.0000      -0.335508        -9.1296
  25   2.0000      -0.328657        -8.9432
  26   2.0000      -0.326740        -8.8910
  27   2.0000      -0.298992        -8.1360
  28   2.0000      -0.294510        -8.0140
  29   2.0000      -0.293009        -7.9732
  30   2.0000      -0.193090        -5.2542
  31   2.0000      -0.136834        -3.7234
  32   0.0000       0.027887         0.7588
  33   0.0000       0.049052         1.3348
  34   0.0000       0.068417         1.8617
  35   0.0000       0.074423         2.0252
  36   0.0000       0.088093         2.3971

MULLIKEN ATOMIC CHARGES
-----------------------
   0 C :   -0.180972
   1 N :   -0.280981
   2 C :   -0.073740
   3 C :   -0.073754
   4 N :   -0.281009
   5 C :   -0.073772
   6 C :   -0.073731
   7 C :   -0.180904
   8 H :    0.101052
   9 H :    0.082843
  10 H :    0.101050
  11 H :    0.079476
  12 H :    0.082772
  13 H :    0.082788
  14 H :    0.079472
  15 H :    0.082790
  16 H :    0.079477
  17 H :    0.079475
  18 H :    0.082768
  19 H :    0.101042
  20 H :    0.101040
  21 H :    0.082820
Sum of atomic charges:    0.0000000

LOEWDIN ATOMIC CHARGES
----------------------
   0 C :   -0.261265
   1 N :   -0.149149
   2 C :   -0.175681
   3 C :   -0.175678
   4 N :   -0.149148
   5 C :   -0.175680
   6 C :   -0.175682
   7 C :   -0.261263
   8 H :    0.113959
   9 H :    0.086955
  10 H :    0.113964
  11 H :    0.112751
  12 H :    0.110695
  13 H :    0.110696
  14 H :    0.112756
  15 H :    0.110695
  16 H :    0.112755
  17 H :    0.112750
  18 H :    0.110694
  19 H :    0.113960
  20 H :    0.113962
  21 H :    0.086955

  Mayer bond orders larger than 0.100000
B(  0-C ,  1-N ) :   1.0465 B(  0-C ,  8-H ) :   0.9541 B(  0-C ,  9-H ) :   0.9237
B(  0-C , 10-H ) :   0.9541 B(  1-N ,  2-C ) :   1.0553 B(  1-N ,  6-C ) :   1.0553
B(  2-C ,  3-C ) :   1.0930 B(  2-C , 11-H ) :   0.9186 B(  2-C , 12-H ) :   0.9130
B(  3-C ,  4-N ) :   1.0553 B(  3-C , 13-H ) :   0.9130 B(  3-C , 14-H ) :   0.9186
B(  4-N ,  5-C ) :   1.0553 B(  4-N ,  7-C ) :   1.0465 B(  5-C ,  6-C ) :   1.0930
B(  5-C , 15-H ) :   0.9130 B(  5-C , 16-H ) :   0.9186 B(  6-C , 17-H ) :   0.9186
B(  6-C , 18-H ) :   0.9130 B(  7-C , 19-H ) :   0.9541 B(  7-C , 20-H ) :   0.9541
B(  7-C , 21-H ) :   0.9237

Dispersion correction           -0.021375353
FINAL SINGLE POINT ENERGY      -345.705590832439

DIPOLE MOMENT
-------------

Method             : SCF
Type of density    : Electron Density
Multiplicity       :   1
Irrep              :   0
Energy             :  -345.7887522276380992 Eh
Relativity type    :
Basis              : AO
                                X                 Y                 Z
Electronic contribution:      0.000894174       0.000134810      -0.000574069
Nuclear contribution   :     -0.001102582      -0.000131888       0.000582627
                        -----------------------------------------
Total Dipole Moment    :     -0.000208408       0.000002922       0.000008558
                        -----------------------------------------
Magnitude (a.u.)       :      0.000208604
Magnitude (Debye)      :      0.000530230

Rotational constants in cm-1:             0.120966             0.056862             0.048618
Rotational constants in MHz :          3626.481875          1704.687265          1457.525424

                             ****ORCA TERMINATED NORMALLY****
TOTAL RUN TIME: 0 days 0 hours 0 minutes 11 seconds 757 msec
