                         Program Version 6.0.0  -   RELEASE  -
|  1> ! pbe def2-sv(p) def2/J RI DEFGRID1 loosescf d4 GCP(DFT/SV(P)) printgap
|  2> %output
|  3>     printlevel normal
|  4> end
|  5> * xyz 0 1
|  6> C 4.5178268559 0.5697477109 -2.0551341203
|  7> C 4.6464018874 0.0280952895 -0.6473499136
|  8> O 3.604129673 0.4997621137 0.2274898661
|  9> P 2.04850084 0.3215247857 -0.0280120705
| 10> S 1.1586609252 1.5451475624 -1.2793790409
| 11> O 1.4621219336 0.5612889677 1.4173446218
| 12> C 2.0589546006 0.1399721444 2.6722210041
| 13> C 2.0258036788 -1.3627018401 2.8619497669
| 14> S 1.8709728144 -1.7349434446 -0.5475741766
| 15> C 0.1240276103 -1.7195817943 -0.9833878749
| 16> S -0.9548627642 -1.4017163912 0.449997161
| 17> P -2.098662446 0.2369741343 -0.2795678189
| 18> S -2.1748197325 0.4594336421 -2.2188715027
| 19> O -1.5762274753 1.5129476652 0.4858460013
| 20> C -1.5176615351 1.610343916 1.9292946124
| 21> C -2.7325144911 2.3316843773 2.4747865415
| 22> O -3.5116364593 0.0022200808 0.4200616747
| 23> C -4.55310669 -0.7891748858 -0.1790234489
| 24> C -4.1842192695 -2.254506227 -0.2877635309
| 25> H 3.5995065681 0.2070078797 -2.5151118033
| 26> H 4.4850614784 1.6567337587 -2.0430763154
| 27> H 5.3649446131 0.2409340966 -2.6482716478
| 28> H 5.561403457 0.3790689954 -0.1668955736
| 29> H 4.6207886304 -1.0648982575 -0.6502709275
| 30> H 3.0803856717 0.5216165459 2.7088230826
| 31> H 1.4451949902 0.6479819164 3.4180242877
| 32> H 2.7114922884 -1.8543798324 2.1762713157
| 33> H 2.3222040347 -1.59176616 3.8808053428
| 34> H 1.0223494034 -1.7449924727 2.6877248617
| 35> H -0.0995155412 -2.7118459349 -1.3669148964
| 36> H -0.06896857 -0.9507753833 -1.7372665079
| 37> H -1.4309290486 0.603095549 2.3474869762
| 38> H -0.5993519441 2.1693627402 2.1215103662
| 39> H -2.8271516274 3.3060525233 2.0029814442
| 40> H -3.6330759528 1.7567933372 2.2774474086
| 41> H -2.6145619517 2.4608155823 3.5461652447
| 42> H -5.4060482762 -0.6374338862 0.48400997
| 43> H -4.7710004855 -0.374566058 -1.1679611516
| 44> H -3.8454360793 -2.6342926608 0.6727768086
| 45> H -5.054260458 -2.8160852971 -0.6123867472
| 46> H -3.3901186403 -2.3833521238 -1.0215515779
| 47> *
| 48>
| 49>                          ****END OF INPUT****

CARTESIAN COORDINATES (ANGSTROEM)
---------------------------------
  C      4.517827    0.569748   -2.055134
  C      4.646402    0.028095   -0.647350
  O      3.604130    0.499762    0.227490
  P      2.048501    0.321525   -0.028012
  S      1.158661    1.545148   -1.279379
  O      1.462122    0.561289    1.417345
  C      2.058955    0.139972    2.672221
  C      2.025804   -1.362702    2.861950
  S      1.870973   -1.734943   -0.547574
  C      0.124028   -1.719582   -0.983388
  S     -0.954863   -1.401716    0.449997
  P     -2.098662    0.236974   -0.279568
  S     -2.174820    0.459434   -2.218872
  O     -1.576227    1.512948    0.485846
  C     -1.517662    1.610344    1.929295
  C     -2.732514    2.331684    2.474787
  O     -3.511636    0.002220    0.420062
  C     -4.553107   -0.789175   -0.179023
  C     -4.184219   -2.254506   -0.287764
  H      3.599507    0.207008   -2.515112
  H      4.485061    1.656734   -2.043076
  H      5.364945    0.240934   -2.648272
  H      5.561403    0.379069   -0.166896
  H      4.620789   -1.064898   -0.650271
  H      3.080386    0.521617    2.708823
  H      1.445195    0.647982    3.418024
  H      2.711492   -1.854380    2.176271
  H      2.322204   -1.591766    3.880805
  H      1.022349   -1.744992    2.687725
  H     -0.099516   -2.711846   -1.366915
  H     -0.068969   -0.950775   -1.737267
  H     -1.430929    0.603096    2.347487
  H     -0.599352    2.169363    2.121510
  H     -2.827152    3.306053    2.002981
  H     -3.633076    1.756793    2.277447
  H     -2.614562    2.460816    3.546165
  H     -5.406048   -0.637434    0.484010
  H     -4.771000   -0.374566   -1.167961
  H     -3.845436   -2.634293    0.672777
  H     -5.054260   -2.816085   -0.612387
  H     -3.390119   -2.383352   -1.021552

 Total Charge           Charge          ....    0
 Multiplicity           Mult            ....    1
 Number of Electrons    NEL             ....  202
 Basis Dimension        Dim             ....  334

ORBITAL ENERGIES
----------------

  NO   OCC          E(Eh)            E(eV)
   0   2.0000     -88.044199     -2395.8044
   1   2.0000     -88.038576     -2395.6514
   2   2.0000     -87.979390     -2394.0409
   3   2.0000     -87.973599     -2393.8833
   4   2.0000     -76.423435     -2079.5874
   5   2.0000     -76.420178     -2079.4988
   6   2.0000     -18.796298      -511.4733
   7   2.0000     -18.788612      -511.2641
   8   2.0000     -18.788027      -511.2482
   9   2.0000     -18.780710      -511.0491
  10   2.0000      -9.961372      -271.0627
  11   2.0000      -9.957167      -270.9483
  12   2.0000      -9.953247      -270.8416
  13   2.0000      -9.949308      -270.7344
  14   2.0000      -9.948032      -270.6997
  15   2.0000      -9.887567      -269.0544
  16   2.0000      -9.882642      -268.9204
  17   2.0000      -9.881356      -268.8854
  18   2.0000      -9.880277      -268.8560
  19   2.0000      -7.689165      -209.2328
  20   2.0000      -7.683170      -209.0697
  21   2.0000      -7.624611      -207.4762
  22   2.0000      -7.618533      -207.3108
  23   2.0000      -6.420427      -174.7087
  24   2.0000      -6.417560      -174.6307
  25   2.0000      -5.716927      -155.5655
  26   2.0000      -5.713538      -155.4733
  27   2.0000      -5.711053      -155.4056
  28   2.0000      -5.707683      -155.3139
  29   2.0000      -5.706410      -155.2793
  30   2.0000      -5.700142      -155.1088
  31   2.0000      -5.653678      -153.8444
  32   2.0000      -5.647690      -153.6815
  33   2.0000      -5.645117      -153.6114
  34   2.0000      -5.644685      -153.5997
  35   2.0000      -5.639133      -153.4486
  36   2.0000      -5.638516      -153.4318
  37   2.0000      -4.643484      -126.3556
  38   2.0000      -4.642419      -126.3266
  39   2.0000      -4.640340      -126.2701
  40   2.0000      -4.640246      -126.2675
  41   2.0000      -4.639193      -126.2389
  42   2.0000      -4.637992      -126.2062
  43   2.0000      -0.988863       -26.9083
  44   2.0000      -0.980990       -26.6941
  45   2.0000      -0.944123       -25.6909
  46   2.0000      -0.936842       -25.4928
  47   2.0000      -0.761382       -20.7183
  48   2.0000      -0.718269       -19.5451
  49   2.0000      -0.708901       -19.2902
  50   2.0000      -0.692244       -18.8369
  51   2.0000      -0.685428       -18.6514
  52   2.0000      -0.676233       -18.4012
  53   2.0000      -0.647393       -17.6165
  54   2.0000      -0.630979       -17.1698
  55   2.0000      -0.592541       -16.1239
  56   2.0000      -0.586059       -15.9475
  57   2.0000      -0.581894       -15.8342
  58   2.0000      -0.569081       -15.4855
  59   2.0000      -0.561203       -15.2711
  60   2.0000      -0.501725       -13.6526
  61   2.0000      -0.493771       -13.4362
  62   2.0000      -0.472129       -12.8473
  63   2.0000      -0.468476       -12.7479
  64   2.0000      -0.452461       -12.3121
  65   2.0000      -0.444186       -12.0869
  66   2.0000      -0.441234       -12.0066
  67   2.0000      -0.435564       -11.8523
  68   2.0000      -0.431056       -11.7296
  69   2.0000      -0.422115       -11.4863
  70   2.0000      -0.410860       -11.1801
  71   2.0000      -0.405814       -11.0428
  72   2.0000      -0.388234       -10.5644
  73   2.0000      -0.387042       -10.5319
  74   2.0000      -0.381254       -10.3745
  75   2.0000      -0.362730        -9.8704
  76   2.0000      -0.355602        -9.6764
  77   2.0000      -0.355429        -9.6717
  78   2.0000      -0.351113        -9.5543
  79   2.0000      -0.350690        -9.5428
  80   2.0000      -0.345482        -9.4010
  81   2.0000      -0.341753        -9.2996
  82   2.0000      -0.340484        -9.2651
  83   2.0000      -0.337539        -9.1849
  84   2.0000      -0.335398        -9.1267
  85   2.0000      -0.323389        -8.7999
  86   2.0000      -0.309664        -8.4264
  87   2.0000      -0.298239        -8.1155
  88   2.0000      -0.293572        -7.9885
  89   2.0000      -0.290521        -7.9055
  90   2.0000      -0.285726        -7.7750
  91   2.0000      -0.277778        -7.5587
  92   2.0000      -0.263794        -7.1782
  93   2.0000      -0.261159        -7.1065
  94   2.0000      -0.254841        -6.9346
  95   2.0000      -0.232784        -6.3344
  96   2.0000      -0.216197        -5.8830
  97   2.0000      -0.209116        -5.6903
  98   2.0000      -0.196266        -5.3407
  99   2.0000      -0.185183        -5.0391
 100   2.0000      -0.180580        -4.9138
 101   0.0000      -0.042217        -1.1488
 102   0.0000      -0.031017        -0.8440
 103   0.0000      -0.009707        -0.2642
 104   0.0000       0.008573         0.2333
 105   0.0000       0.020578         0.5600

MULLIKEN ATOMIC CHARGES
-----------------------
   0 C :   -0.307228
   1 C :   -0.015108
   2 O :   -0.383185
   3 P :    0.595519
   4 S :   -0.277760
   5 O :   -0.353496
   6 C :    0.000530
   7 C :   -0.319426
   8 S :   -0.128539
   9 C :   -0.341477
  10 S :   -0.122863
  11 P :    0.610215
  12 S :   -0.292266
  13 O :   -0.340915
  14 C :   -0.021721
  15 C :   -0.281069
  16 O :   -0.386734
  17 C :    0.001025
  18 C :   -0.309646
  19 H :    0.129977
  20 H :    0.127270
  21 H :    0.110658
  22 H :    0.108961
  23 H :    0.113860
  24 H :    0.110714
  25 H :    0.102330
  26 H :    0.121031
  27 H :    0.110159
  28 H :    0.130402
  29 H :    0.179478
  30 H :    0.211327
  31 H :    0.097214
  32 H :    0.118985
  33 H :    0.120690
  34 H :    0.118929
  35 H :    0.102976
  36 H :    0.101536
  37 H :    0.111815
  38 H :    0.114977
  39 H :    0.110851
  40 H :    0.120006
Sum of atomic charges:   -0.0000000

LOEWDIN ATOMIC CHARGES
----------------------
   0 C :   -0.368770
   1 C :   -0.114815
   2 O :   -0.246299
   3 P :    0.558215
   4 S :   -0.286168
   5 O :   -0.233714
   6 C :   -0.109714
   7 C :   -0.371801
   8 S :    0.066603
   9 C :   -0.478793
  10 S :    0.066970
  11 P :    0.574583
  12 S :   -0.292991
  13 O :   -0.224818
  14 C :   -0.114071
  15 C :   -0.359830
  16 O :   -0.251743
  17 C :   -0.117521
  18 C :   -0.370894
  19 H :    0.123362
  20 H :    0.131480
  21 H :    0.129879
  22 H :    0.120886
  23 H :    0.107199
  24 H :    0.113996
  25 H :    0.116661
  26 H :    0.116677
  27 H :    0.129415
  28 H :    0.122924
  29 H :    0.135260
  30 H :    0.126091
  31 H :    0.099945
  32 H :    0.121567
  33 H :    0.129585
  34 H :    0.124897
  35 H :    0.126422
  36 H :    0.116604
  37 H :    0.112043
  38 H :    0.121865
  39 H :    0.129570
  40 H :    0.119243

  Mayer bond orders larger than 0.100000
B(  0-C ,  1-C ) :   1.1666 B(  0-C , 19-H ) :   0.9306 B(  0-C , 20-H ) :   0.9434
B(  0-C , 21-H ) :   0.9348 B(  1-C ,  2-O ) :   0.9129 B(  1-C , 22-H ) :   0.9335
B(  1-C , 23-H ) :   0.9256 B(  2-O ,  3-P ) :   1.0755 B(  3-P ,  4-S ) :   1.6833
B(  3-P ,  5-O ) :   1.1173 B(  3-P ,  8-S ) :   0.9235 B(  4-S ,  8-S ) :   0.1094
B(  5-O ,  6-C ) :   0.9012 B(  6-C ,  7-C ) :   1.1709 B(  6-C , 24-H ) :   0.9269
B(  6-C , 25-H ) :   0.9322 B(  7-C , 26-H ) :   0.9390 B(  7-C , 27-H ) :   0.9356
B(  7-C , 28-H ) :   0.9384 B(  8-S ,  9-C ) :   1.0079 B(  9-C , 10-S ) :   0.9973
B(  9-C , 29-H ) :   0.9103 B(  9-C , 30-H ) :   0.8422 B( 10-S , 11-P ) :   0.9462
B( 10-S , 12-S ) :   0.1122 B( 11-P , 12-S ) :   1.6313 B( 11-P , 13-O ) :   1.1461
B( 11-P , 16-O ) :   1.0675 B( 13-O , 14-C ) :   0.8986 B( 14-C , 15-C ) :   1.1558
B( 14-C , 31-H ) :   0.9157 B( 14-C , 32-H ) :   0.9283 B( 15-C , 33-H ) :   0.9464
B( 15-C , 34-H ) :   0.9409 B( 15-C , 35-H ) :   0.9403 B( 16-O , 17-C ) :   0.9125
B( 17-C , 18-C ) :   1.1669 B( 17-C , 36-H ) :   0.9342 B( 17-C , 37-H ) :   0.9172
B( 18-C , 38-H ) :   0.9427 B( 18-C , 39-H ) :   0.9372 B( 18-C , 40-H ) :   0.9367

Dispersion correction           -0.068503179
FINAL SINGLE POINT ENERGY     -2929.510006795780

DIPOLE MOMENT
-------------

Method             : SCF
Type of density    : Electron Density
Multiplicity       :   1
Irrep              :   0
Energy             : -2929.6282248443012577 Eh
Relativity type    :
Basis              : AO
                                X                 Y                 Z
Electronic contribution:      0.141720770       3.829668448     -12.230996273
Nuclear contribution   :      0.491069059      -4.945323890      13.921035622
                        -----------------------------------------
Total Dipole Moment    :      0.632789829      -1.115655443       1.690039348
                        -----------------------------------------
Magnitude (a.u.)       :      2.121636876
Magnitude (Debye)      :      5.392772367

Rotational constants in cm-1:             0.012655             0.005401             0.005120
Rotational constants in MHz :           379.392495           161.930424           153.486211

                             ****ORCA TERMINATED NORMALLY****
TOTAL RUN TIME: 0 days 0 hours 0 minutes 21 seconds 998 msec
