                         Program Version 6.0.0  -   RELEASE  -
|  1> ! pbe def2-sv(p) def2/J RI DEFGRID1 loosescf d4 GCP(DFT/SV(P)) printgap
|  2> %output
|  3>     printlevel normal
|  4> end
|  5> * xyz 0 1
|  6> C 2.4907082742 -1.5223193662 3.0294624472
|  7> C 1.3217213391 -1.6260643949 2.0730035105
|  8> O 1.1641272005 -0.4215346512 1.2985346479
|  9> P 2.1863400411 -0.0035009965 0.1609359052
| 10> S 3.1623006532 -1.453073504 -0.7320782735
| 11> O 3.0876767638 1.0490141959 0.9358910854
| 12> C 4.3523697392 1.5088500312 0.426414786
| 13> C 4.1905217058 2.3679484754 -0.8108651596
| 14> S 0.9130167406 1.1898401803 -1.0365857898
| 15> C 0.2986809901 -0.1552162122 -2.0855021209
| 16> S -0.5658464862 -1.4501393686 -1.1517599313
| 17> P -2.1773720586 -0.2552281182 -0.4694073707
| 18> S -2.8109614057 1.1567758248 -1.6730846405
| 19> O -1.8077503201 0.2260754196 1.0014360156
| 20> C -1.4705013932 1.5714911151 1.3827904323
| 21> C -2.3086539649 1.9719304636 2.5810390312
| 22> O -3.1528475077 -1.4695459786 -0.1930045771
| 23> C -4.5890717292 -1.3249236119 -0.1892489765
| 24> C -5.0716764673 -0.4462514102 0.9457524224
| 25> H 2.3879968847 -0.639831343 3.6553471379
| 26> H 2.5254518559 -2.4093768536 3.6540796943
| 27> H 3.4204258444 -1.4489385033 2.4661277764
| 28> H 0.369666768 -1.72789699 2.5962932272
| 29> H 1.4530494912 -2.4668626823 1.383710653
| 30> H 4.7789622868 2.0729866591 1.2567723179
| 31> H 4.9747296961 0.6351142022 0.2084665807
| 32> H 5.1526759788 2.788701011 -1.0848343686
| 33> H 3.8209731713 1.7638926431 -1.6385117525
| 34> H 3.4834091764 3.1721597533 -0.6236163464
| 35> H 1.1352290644 -0.6436938929 -2.5835953978
| 36> H -0.3818233414 0.3004153821 -2.8039041453
| 37> H -0.405067809 1.577129453 1.6267251354
| 38> H -1.6480916172 2.2382447553 0.5317853584
| 39> H -1.9894563575 2.9520822511 2.9202103717
| 40> H -3.3609211733 2.0141139306 2.3134289646
| 41> H -2.176819978 1.253029092 3.3844281731
| 42> H -4.8961345452 -0.9107419486 -1.1544990985
| 43> H -4.9510557682 -2.3494516933 -0.0929542627
| 44> H -6.1567181386 -0.4609525278 0.976171142
| 45> H -4.6768689714 -0.8041950455 1.893077456
| 46> H -4.737028174 0.5776071582 0.7833945344
| 47> *
| 48>
| 49>                          ****END OF INPUT****

CARTESIAN COORDINATES (ANGSTROEM)
---------------------------------
  C      2.490708   -1.522319    3.029462
  C      1.321721   -1.626064    2.073004
  O      1.164127   -0.421535    1.298535
  P      2.186340   -0.003501    0.160936
  S      3.162301   -1.453074   -0.732078
  O      3.087677    1.049014    0.935891
  C      4.352370    1.508850    0.426415
  C      4.190522    2.367948   -0.810865
  S      0.913017    1.189840   -1.036586
  C      0.298681   -0.155216   -2.085502
  S     -0.565846   -1.450139   -1.151760
  P     -2.177372   -0.255228   -0.469407
  S     -2.810961    1.156776   -1.673085
  O     -1.807750    0.226075    1.001436
  C     -1.470501    1.571491    1.382790
  C     -2.308654    1.971930    2.581039
  O     -3.152848   -1.469546   -0.193005
  C     -4.589072   -1.324924   -0.189249
  C     -5.071676   -0.446251    0.945752
  H      2.387997   -0.639831    3.655347
  H      2.525452   -2.409377    3.654080
  H      3.420426   -1.448939    2.466128
  H      0.369667   -1.727897    2.596293
  H      1.453049   -2.466863    1.383711
  H      4.778962    2.072987    1.256772
  H      4.974730    0.635114    0.208467
  H      5.152676    2.788701   -1.084834
  H      3.820973    1.763893   -1.638512
  H      3.483409    3.172160   -0.623616
  H      1.135229   -0.643694   -2.583595
  H     -0.381823    0.300415   -2.803904
  H     -0.405068    1.577129    1.626725
  H     -1.648092    2.238245    0.531785
  H     -1.989456    2.952082    2.920210
  H     -3.360921    2.014114    2.313429
  H     -2.176820    1.253029    3.384428
  H     -4.896135   -0.910742   -1.154499
  H     -4.951056   -2.349452   -0.092954
  H     -6.156718   -0.460953    0.976171
  H     -4.676869   -0.804195    1.893077
  H     -4.737028    0.577607    0.783395

 Total Charge           Charge          ....    0
 Multiplicity           Mult            ....    1
 Number of Electrons    NEL             ....  202
 Basis Dimension        Dim             ....  334

ORBITAL ENERGIES
----------------

  NO   OCC          E(Eh)            E(eV)
   0   2.0000     -88.043981     -2395.7985
   1   2.0000     -88.036860     -2395.6048
   2   2.0000     -87.992269     -2394.3914
   3   2.0000     -87.989565     -2394.3178
   4   2.0000     -76.429054     -2079.7403
   5   2.0000     -76.425051     -2079.6314
   6   2.0000     -18.797822      -511.5147
   7   2.0000     -18.791212      -511.3349
   8   2.0000     -18.790203      -511.3074
   9   2.0000     -18.787843      -511.2432
  10   2.0000      -9.955772      -270.9103
  11   2.0000      -9.954725      -270.8818
  12   2.0000      -9.953164      -270.8394
  13   2.0000      -9.949319      -270.7347
  14   2.0000      -9.942908      -270.5603
  15   2.0000      -9.886603      -269.0281
  16   2.0000      -9.886453      -269.0241
  17   2.0000      -9.883788      -268.9516
  18   2.0000      -9.883677      -268.9485
  19   2.0000      -7.688714      -209.2205
  20   2.0000      -7.681962      -209.0368
  21   2.0000      -7.637154      -207.8175
  22   2.0000      -7.634503      -207.7454
  23   2.0000      -6.426454      -174.8727
  24   2.0000      -6.422640      -174.7689
  25   2.0000      -5.716530      -155.5547
  26   2.0000      -5.713362      -155.4685
  27   2.0000      -5.709951      -155.3757
  28   2.0000      -5.706672      -155.2865
  29   2.0000      -5.705616      -155.2577
  30   2.0000      -5.698589      -155.0665
  31   2.0000      -5.665950      -154.1783
  32   2.0000      -5.663260      -154.1051
  33   2.0000      -5.657782      -153.9561
  34   2.0000      -5.657473      -153.9477
  35   2.0000      -5.655351      -153.8899
  36   2.0000      -5.654605      -153.8696
  37   2.0000      -4.648826      -126.5010
  38   2.0000      -4.648214      -126.4843
  39   2.0000      -4.647102      -126.4541
  40   2.0000      -4.644983      -126.3964
  41   2.0000      -4.644365      -126.3796
  42   2.0000      -4.643344      -126.3518
  43   2.0000      -0.989596       -26.9283
  44   2.0000      -0.983578       -26.7645
  45   2.0000      -0.948064       -25.7981
  46   2.0000      -0.942096       -25.6357
  47   2.0000      -0.764167       -20.7940
  48   2.0000      -0.722605       -19.6631
  49   2.0000      -0.708436       -19.2775
  50   2.0000      -0.687901       -18.7187
  51   2.0000      -0.686587       -18.6830
  52   2.0000      -0.672555       -18.3011
  53   2.0000      -0.652976       -17.7684
  54   2.0000      -0.640136       -17.4190
  55   2.0000      -0.605285       -16.4706
  56   2.0000      -0.597105       -16.2481
  57   2.0000      -0.573128       -15.5956
  58   2.0000      -0.565767       -15.3953
  59   2.0000      -0.560302       -15.2466
  60   2.0000      -0.499914       -13.6033
  61   2.0000      -0.492017       -13.3885
  62   2.0000      -0.476868       -12.9762
  63   2.0000      -0.473761       -12.8917
  64   2.0000      -0.456181       -12.4133
  65   2.0000      -0.445378       -12.1193
  66   2.0000      -0.442270       -12.0348
  67   2.0000      -0.432702       -11.7744
  68   2.0000      -0.426236       -11.5985
  69   2.0000      -0.413422       -11.2498
  70   2.0000      -0.405721       -11.0402
  71   2.0000      -0.395482       -10.7616
  72   2.0000      -0.393059       -10.6957
  73   2.0000      -0.388545       -10.5729
  74   2.0000      -0.377892       -10.2830
  75   2.0000      -0.375032       -10.2051
  76   2.0000      -0.373879       -10.1738
  77   2.0000      -0.359576        -9.7846
  78   2.0000      -0.356416        -9.6986
  79   2.0000      -0.353417        -9.6170
  80   2.0000      -0.349900        -9.5213
  81   2.0000      -0.348252        -9.4764
  82   2.0000      -0.342515        -9.3203
  83   2.0000      -0.339027        -9.2254
  84   2.0000      -0.333177        -9.0662
  85   2.0000      -0.323366        -8.7992
  86   2.0000      -0.309455        -8.4207
  87   2.0000      -0.298388        -8.1195
  88   2.0000      -0.291974        -7.9450
  89   2.0000      -0.284881        -7.7520
  90   2.0000      -0.282822        -7.6960
  91   2.0000      -0.276681        -7.5289
  92   2.0000      -0.274622        -7.4728
  93   2.0000      -0.267418        -7.2768
  94   2.0000      -0.256339        -6.9754
  95   2.0000      -0.233413        -6.3515
  96   2.0000      -0.217879        -5.9288
  97   2.0000      -0.214188        -5.8284
  98   2.0000      -0.210783        -5.7357
  99   2.0000      -0.203484        -5.5371
 100   2.0000      -0.198841        -5.4107
 101   0.0000      -0.046179        -1.2566
 102   0.0000      -0.025847        -0.7033
 103   0.0000       0.000162         0.0044
 104   0.0000       0.007614         0.2072
 105   0.0000       0.011254         0.3062

MULLIKEN ATOMIC CHARGES
-----------------------
   0 C :   -0.304672
   1 C :   -0.001917
   2 O :   -0.360287
   3 P :    0.617285
   4 S :   -0.329583
   5 O :   -0.372722
   6 C :   -0.005418
   7 C :   -0.315776
   8 S :   -0.086812
   9 C :   -0.359237
  10 S :   -0.074917
  11 P :    0.635361
  12 S :   -0.340319
  13 O :   -0.371317
  14 C :   -0.018980
  15 C :   -0.283521
  16 O :   -0.379248
  17 C :    0.003427
  18 C :   -0.324362
  19 H :    0.113916
  20 H :    0.112350
  21 H :    0.120821
  22 H :    0.106185
  23 H :    0.114686
  24 H :    0.106531
  25 H :    0.111859
  26 H :    0.114658
  27 H :    0.127869
  28 H :    0.119045
  29 H :    0.189899
  30 H :    0.193241
  31 H :    0.108206
  32 H :    0.109286
  33 H :    0.108194
  34 H :    0.118124
  35 H :    0.111793
  36 H :    0.113052
  37 H :    0.107681
  38 H :    0.113556
  39 H :    0.119440
  40 H :    0.132622
Sum of atomic charges:   -0.0000000

LOEWDIN ATOMIC CHARGES
----------------------
   0 C :   -0.364473
   1 C :   -0.117922
   2 O :   -0.232153
   3 P :    0.573396
   4 S :   -0.320500
   5 O :   -0.243857
   6 C :   -0.118659
   7 C :   -0.369267
   8 S :    0.099416
   9 C :   -0.480926
  10 S :    0.093863
  11 P :    0.573756
  12 S :   -0.322421
  13 O :   -0.240503
  14 C :   -0.127854
  15 C :   -0.352990
  16 O :   -0.247654
  17 C :   -0.111365
  18 C :   -0.367140
  19 H :    0.125018
  20 H :    0.130443
  21 H :    0.121661
  22 H :    0.118870
  23 H :    0.111021
  24 H :    0.119329
  25 H :    0.111137
  26 H :    0.131848
  27 H :    0.121711
  28 H :    0.124875
  29 H :    0.131115
  30 H :    0.131080
  31 H :    0.106008
  32 H :    0.102879
  33 H :    0.129467
  34 H :    0.123303
  35 H :    0.124141
  36 H :    0.113211
  37 H :    0.120403
  38 H :    0.131471
  39 H :    0.126921
  40 H :    0.121341

  Mayer bond orders larger than 0.100000
B(  0-C ,  1-C ) :   1.1636 B(  0-C , 19-H ) :   0.9465 B(  0-C , 20-H ) :   0.9400
B(  0-C , 21-H ) :   0.9363 B(  1-C ,  2-O ) :   0.8997 B(  1-C , 22-H ) :   0.9332
B(  1-C , 23-H ) :   0.9158 B(  2-O ,  3-P ) :   1.1121 B(  3-P ,  4-S ) :   1.5905
B(  3-P ,  5-O ) :   1.1114 B(  3-P ,  8-S ) :   0.9533 B(  4-S ,  8-S ) :   0.1073
B(  5-O ,  6-C ) :   0.9069 B(  6-C ,  7-C ) :   1.1664 B(  6-C , 24-H ) :   0.9339
B(  6-C , 25-H ) :   0.9166 B(  7-C , 26-H ) :   0.9376 B(  7-C , 27-H ) :   0.9355
B(  7-C , 28-H ) :   0.9445 B(  8-S ,  9-C ) :   0.9920 B(  9-C , 10-S ) :   1.0161
B(  9-C , 29-H ) :   0.8879 B(  9-C , 30-H ) :   0.8838 B( 10-S , 11-P ) :   0.9431
B( 10-S , 12-S ) :   0.1043 B( 11-P , 12-S ) :   1.5904 B( 11-P , 13-O ) :   1.1151
B( 11-P , 16-O ) :   1.1286 B( 13-O , 14-C ) :   0.9014 B( 14-C , 15-C ) :   1.1593
B( 14-C , 31-H ) :   0.9184 B( 14-C , 32-H ) :   0.9037 B( 15-C , 33-H ) :   0.9415
B( 15-C , 34-H ) :   0.9448 B( 15-C , 35-H ) :   0.9494 B( 16-O , 17-C ) :   0.9094
B( 17-C , 18-C ) :   1.1615 B( 17-C , 36-H ) :   0.9206 B( 17-C , 37-H ) :   0.9355
B( 18-C , 38-H ) :   0.9364 B( 18-C , 39-H ) :   0.9457 B( 18-C , 40-H ) :   0.9279

Dispersion correction           -0.067232533
FINAL SINGLE POINT ENERGY     -2929.527680491242

DIPOLE MOMENT
-------------

Method             : SCF
Type of density    : Electron Density
Multiplicity       :   1
Irrep              :   0
Energy             : -2929.6459721127521334 Eh
Relativity type    :
Basis              : AO
                                X                 Y                 Z
Electronic contribution:      1.787904615      -6.889844187     -17.691321853
Nuclear contribution   :     -1.800068616       7.259006142      18.905715273
                        -----------------------------------------
Total Dipole Moment    :     -0.012164001       0.369161955       1.214393420
                        -----------------------------------------
Magnitude (a.u.)       :      1.269322611
Magnitude (Debye)      :      3.226361674

Rotational constants in cm-1:             0.013132             0.005007             0.004869
Rotational constants in MHz :           393.693181           150.099541           145.969115

                             ****ORCA TERMINATED NORMALLY****
TOTAL RUN TIME: 0 days 0 hours 0 minutes 21 seconds 758 msec
