                         Program Version 6.0.0  -   RELEASE  -
|  1> ! pbe def2-sv(p) def2/J RI DEFGRID1 loosescf d4 GCP(DFT/SV(P)) printgap
|  2> %output
|  3>     printlevel normal
|  4> end
|  5> * xyz 0 1
|  6> C 0.0010184853 -2.4199255335 0.0582587981
|  7> C 1.1983928202 -1.726749352 0.1072868721
|  8> C 1.1877767314 -0.3365491278 0.0793007923
|  9> C -0.0032486792 0.3702511229 0.0022405899
| 10> C -1.1925961597 -0.3430296253 -0.0433788722
| 11> C -1.1988263545 -1.732938441 -0.0183526242
| 12> C -2.5019280864 0.3846771279 -0.1478049285
| 13> F -3.4348940881 -0.1052856804 0.690074202
| 14> F -2.4130981781 1.696686059 0.1155758728
| 15> F -3.0413812248 0.2900104719 -1.38328445
| 16> C 2.500371796 0.3906702108 0.1338185745
| 17> F 2.3834616392 1.7255605995 0.1005237192
| 18> F 3.1994326854 0.1036306825 1.2514643749
| 19> F 3.3122651956 0.0602369315 -0.8919557403
| 20> H 0.0026222041 -3.496797732 0.0798084338
| 21> H 2.1381447296 -2.2529005813 0.1671197583
| 22> H -0.0054120567 1.448893659 -0.0179356796
| 23> H -2.1366967763 -2.2645648552 -0.0544367446
| 24> *
| 25>
| 26>                          ****END OF INPUT****

CARTESIAN COORDINATES (ANGSTROEM)
---------------------------------
  C      0.001018   -2.419926    0.058259
  C      1.198393   -1.726749    0.107287
  C      1.187777   -0.336549    0.079301
  C     -0.003249    0.370251    0.002241
  C     -1.192596   -0.343030   -0.043379
  C     -1.198826   -1.732938   -0.018353
  C     -2.501928    0.384677   -0.147805
  F     -3.434894   -0.105286    0.690074
  F     -2.413098    1.696686    0.115576
  F     -3.041381    0.290010   -1.383284
  C      2.500372    0.390670    0.133819
  F      2.383462    1.725561    0.100524
  F      3.199433    0.103631    1.251464
  F      3.312265    0.060237   -0.891956
  H      0.002622   -3.496798    0.079808
  H      2.138145   -2.252901    0.167120
  H     -0.005412    1.448894   -0.017936
  H     -2.136697   -2.264565   -0.054437

 Total Charge           Charge          ....    0
 Multiplicity           Mult            ....    1
 Number of Electrons    NEL             ....  106
 Basis Dimension        Dim             ....  204

ORBITAL ENERGIES
----------------

  NO   OCC          E(Eh)            E(eV)
   0   2.0000     -24.297129      -661.1585
   1   2.0000     -24.296550      -661.1427
   2   2.0000     -24.292201      -661.0244
   3   2.0000     -24.289709      -660.9566
   4   2.0000     -24.289573      -660.9529
   5   2.0000     -24.287665      -660.9010
   6   2.0000     -10.133841      -275.7558
   7   2.0000     -10.133826      -275.7554
   8   2.0000      -9.941488      -270.5216
   9   2.0000      -9.941423      -270.5199
  10   2.0000      -9.934558      -270.3331
  11   2.0000      -9.934442      -270.3299
  12   2.0000      -9.934393      -270.3286
  13   2.0000      -9.931519      -270.2504
  14   2.0000      -1.196305       -32.5531
  15   2.0000      -1.196255       -32.5518
  16   2.0000      -1.105347       -30.0780
  17   2.0000      -1.105179       -30.0734
  18   2.0000      -1.098340       -29.8874
  19   2.0000      -1.098235       -29.8845
  20   2.0000      -0.823055       -22.3965
  21   2.0000      -0.740741       -20.1566
  22   2.0000      -0.720906       -19.6169
  23   2.0000      -0.643118       -17.5001
  24   2.0000      -0.636191       -17.3116
  25   2.0000      -0.584785       -15.9128
  26   2.0000      -0.579699       -15.7744
  27   2.0000      -0.547093       -14.8871
  28   2.0000      -0.533829       -14.5262
  29   2.0000      -0.528866       -14.3912
  30   2.0000      -0.528233       -14.3740
  31   2.0000      -0.524104       -14.2616
  32   2.0000      -0.478620       -13.0239
  33   2.0000      -0.472866       -12.8673
  34   2.0000      -0.445094       -12.1116
  35   2.0000      -0.424422       -11.5491
  36   2.0000      -0.405162       -11.0250
  37   2.0000      -0.404011       -10.9937
  38   2.0000      -0.402487       -10.9522
  39   2.0000      -0.400997       -10.9117
  40   2.0000      -0.382006       -10.3949
  41   2.0000      -0.376209       -10.2372
  42   2.0000      -0.368571       -10.0293
  43   2.0000      -0.364888        -9.9291
  44   2.0000      -0.360734        -9.8161
  45   2.0000      -0.360598        -9.8124
  46   2.0000      -0.349723        -9.5164
  47   2.0000      -0.341701        -9.2982
  48   2.0000      -0.341586        -9.2950
  49   2.0000      -0.335469        -9.1286
  50   2.0000      -0.325300        -8.8519
  51   2.0000      -0.269684        -7.3385
  52   2.0000      -0.266707        -7.2575
  53   0.0000      -0.087079        -2.3695
  54   0.0000      -0.074798        -2.0354
  55   0.0000       0.031903         0.8681
  56   0.0000       0.045341         1.2338
  57   0.0000       0.078019         2.1230

MULLIKEN ATOMIC CHARGES
-----------------------
   0 C :   -0.038481
   1 C :   -0.073995
   2 C :   -0.020308
   3 C :   -0.140194
   4 C :   -0.020748
   5 C :   -0.074779
   6 C :    0.444118
   7 F :   -0.140299
   8 F :   -0.128345
   9 F :   -0.142079
  10 C :    0.444688
  11 F :   -0.126656
  12 F :   -0.142659
  13 F :   -0.142794
  14 H :    0.074078
  15 H :    0.076613
  16 H :    0.075920
  17 H :    0.075920
Sum of atomic charges:    0.0000000

LOEWDIN ATOMIC CHARGES
----------------------
   0 C :   -0.105745
   1 C :   -0.086644
   2 C :   -0.083527
   3 C :   -0.089729
   4 C :   -0.083627
   5 C :   -0.087737
   6 C :    0.128301
   7 F :   -0.046037
   8 F :   -0.037041
   9 F :   -0.053201
  10 C :    0.128311
  11 F :   -0.036010
  12 F :   -0.050205
  13 F :   -0.050290
  14 H :    0.134980
  15 H :    0.138319
  16 H :    0.141711
  17 H :    0.138170

  Mayer bond orders larger than 0.100000
B(  0-C ,  1-C ) :   1.3644 B(  0-C ,  5-C ) :   1.3613 B(  0-C , 14-H ) :   0.9661
B(  1-C ,  2-C ) :   1.3735 B(  1-C , 15-H ) :   0.9658 B(  2-C ,  3-C ) :   1.3580
B(  2-C , 10-C ) :   0.9434 B(  3-C ,  4-C ) :   1.3505 B(  3-C , 16-H ) :   0.9639
B(  4-C ,  5-C ) :   1.3793 B(  4-C ,  6-C ) :   0.9426 B(  5-C , 17-H ) :   0.9655
B(  6-C ,  7-F ) :   1.1662 B(  6-C ,  8-F ) :   1.1764 B(  6-C ,  9-F ) :   1.1817
B( 10-C , 11-F ) :   1.1795 B( 10-C , 12-F ) :   1.1720 B( 10-C , 13-F ) :   1.1718

Dispersion correction           -0.020431138
FINAL SINGLE POINT ENERGY      -904.634891240520

DIPOLE MOMENT
-------------

Method             : SCF
Type of density    : Electron Density
Multiplicity       :   1
Irrep              :   0
Energy             :  -904.7196298201088211 Eh
Relativity type    :
Basis              : AO
                                X                 Y                 Z
Electronic contribution:      0.001316566       8.730997544      -0.227885471
Nuclear contribution   :     -0.006619910      -9.653302867       0.272726894
                        -----------------------------------------
Total Dipole Moment    :     -0.005303345      -0.922305323       0.044841424
                        -----------------------------------------
Magnitude (a.u.)       :      0.923409978
Magnitude (Debye)      :      2.347121635

Rotational constants in cm-1:             0.044833             0.012573             0.010935
Rotational constants in MHz :          1344.060696           376.938197           327.826128

                             ****ORCA TERMINATED NORMALLY****
TOTAL RUN TIME: 0 days 0 hours 0 minutes 14 seconds 137 msec
