                         Program Version 6.0.0  -   RELEASE  -
|  1> ! r2scan-3c def2/J RI DEFGRID2 scfconv6 printgap
|  2> %output
|  3>     printlevel normal
|  4> end
|  5> * xyz 0 1
|  6> C 3.9559953886 -1.8912285334 -2.1619274325
|  7> C 4.4802604468 -1.5734256824 -0.7769529501
|  8> O 3.4245798692 -1.2755698984 0.1560265713
|  9> P 2.4906159251 0.0020278127 0.0144475812
| 10> S 3.3622169707 1.6521466167 -0.5617635153
| 11> O 1.8684986729 0.1269376099 1.4578311376
| 12> C 1.2961854202 -0.998195456 2.1687639682
| 13> C 2.2469784542 -1.4754957095 3.2466461257
| 14> S 0.8830675714 -0.686544057 -1.220623503
| 15> C 0.237029699 0.954233831 -1.6127435382
| 16> S -0.470101601 1.7911779798 -0.1649953142
| 17> P -2.2146936038 0.6039862777 -0.056634293
| 18> S -3.0529750438 0.174216094 -1.7786848634
| 19> O -2.9633295601 1.5540483438 0.9662291626
| 20> C -4.1294289896 1.1477296461 1.7160850528
| 21> C -5.3902162354 1.209150369 0.8766045008
| 22> O -1.8487186877 -0.6730198376 0.8267536961
| 23> C -1.9763817894 -2.0322551053 0.3639227504
| 24> C -3.3169847273 -2.6062696813 0.7766549283
| 25> H 3.1926535975 -2.6636278455 -2.112210143
| 26> H 3.5237661421 -0.9984151552 -2.6111297116
| 27> H 4.7765906039 -2.2335897826 -2.7841920159
| 28> H 5.1600186752 -0.7168051049 -0.8104323807
| 29> H 4.9844301344 -2.4320025841 -0.331073529
| 30> H 0.3635834392 -0.6184752647 2.5924388352
| 31> H 1.0807792012 -1.7952263797 1.4517670956
| 32> H 1.7747798085 -2.2734064482 3.8111390233
| 33> H 3.1650367681 -1.8456109554 2.7978945829
| 34> H 2.4900316027 -0.6554533947 3.9166108224
| 35> H -0.5335826439 0.8224555244 -2.3734423437
| 36> H 1.0499617409 1.5846890698 -1.9727973482
| 37> H -3.9635175071 0.1406730406 2.1072136287
| 38> H -4.1677579688 1.861121413 2.5413555274
| 39> H -5.5237152634 2.2097592132 0.473895641
| 40> H -5.3297280617 0.51029432 0.0444752702
| 41> H -6.2453772642 0.9535557617 1.4943661174
| 42> H -1.8638428144 -2.0544068052 -0.7238368678
| 43> H -1.1491107443 -2.569065585 0.8290153185
| 44> H -4.1209986961 -2.0589700853 0.2881880191
| 45> H -3.3662919187 -3.6464948557 0.471849759
| 46> H -3.4425871494 -2.5427144675 1.8541402974
| 47> *
| 48>
| 49>                          ****END OF INPUT****

CARTESIAN COORDINATES (ANGSTROEM)
---------------------------------
  C      3.955995   -1.891229   -2.161927
  C      4.480260   -1.573426   -0.776953
  O      3.424580   -1.275570    0.156027
  P      2.490616    0.002028    0.014448
  S      3.362217    1.652147   -0.561764
  O      1.868499    0.126938    1.457831
  C      1.296185   -0.998195    2.168764
  C      2.246978   -1.475496    3.246646
  S      0.883068   -0.686544   -1.220624
  C      0.237030    0.954234   -1.612744
  S     -0.470102    1.791178   -0.164995
  P     -2.214694    0.603986   -0.056634
  S     -3.052975    0.174216   -1.778685
  O     -2.963330    1.554048    0.966229
  C     -4.129429    1.147730    1.716085
  C     -5.390216    1.209150    0.876605
  O     -1.848719   -0.673020    0.826754
  C     -1.976382   -2.032255    0.363923
  C     -3.316985   -2.606270    0.776655
  H      3.192654   -2.663628   -2.112210
  H      3.523766   -0.998415   -2.611130
  H      4.776591   -2.233590   -2.784192
  H      5.160019   -0.716805   -0.810432
  H      4.984430   -2.432003   -0.331074
  H      0.363583   -0.618475    2.592439
  H      1.080779   -1.795226    1.451767
  H      1.774780   -2.273406    3.811139
  H      3.165037   -1.845611    2.797895
  H      2.490032   -0.655453    3.916611
  H     -0.533583    0.822456   -2.373442
  H      1.049962    1.584689   -1.972797
  H     -3.963518    0.140673    2.107214
  H     -4.167758    1.861121    2.541356
  H     -5.523715    2.209759    0.473896
  H     -5.329728    0.510294    0.044475
  H     -6.245377    0.953556    1.494366
  H     -1.863843   -2.054407   -0.723837
  H     -1.149111   -2.569066    0.829015
  H     -4.120999   -2.058970    0.288188
  H     -3.366292   -3.646495    0.471850
  H     -3.442587   -2.542714    1.854140

 Total Charge           Charge          ....    0
 Multiplicity           Mult            ....    1
 Number of Electrons    NEL             ....  202
 Basis Dimension        Dim             ....  539

ORBITAL ENERGIES
----------------

  NO   OCC          E(Eh)            E(eV)
   0   2.0000     -88.572970     -2410.1930
   1   2.0000     -88.570384     -2410.1227
   2   2.0000     -88.522390     -2408.8167
   3   2.0000     -88.521527     -2408.7932
   4   2.0000     -76.915558     -2092.9787
   5   2.0000     -76.914857     -2092.9597
   6   2.0000     -18.997575      -516.9503
   7   2.0000     -18.995475      -516.8931
   8   2.0000     -18.994745      -516.8733
   9   2.0000     -18.989015      -516.7174
  10   2.0000     -10.106054      -274.9997
  11   2.0000     -10.103195      -274.9219
  12   2.0000     -10.102073      -274.8914
  13   2.0000     -10.101428      -274.8738
  14   2.0000     -10.099974      -274.8343
  15   2.0000     -10.035942      -273.0919
  16   2.0000     -10.032712      -273.0040
  17   2.0000     -10.031162      -272.9618
  18   2.0000     -10.030660      -272.9481
  19   2.0000      -7.867481      -214.0850
  20   2.0000      -7.864386      -214.0008
  21   2.0000      -7.817300      -212.7196
  22   2.0000      -7.816253      -212.6911
  23   2.0000      -6.593860      -179.4280
  24   2.0000      -6.593335      -179.4138
  25   2.0000      -5.814225      -158.2131
  26   2.0000      -5.811375      -158.1355
  27   2.0000      -5.811367      -158.1353
  28   2.0000      -5.808361      -158.0536
  29   2.0000      -5.804677      -157.9533
  30   2.0000      -5.801325      -157.8621
  31   2.0000      -5.764890      -156.8706
  32   2.0000      -5.763967      -156.8455
  33   2.0000      -5.757804      -156.6778
  34   2.0000      -5.757114      -156.6590
  35   2.0000      -5.756442      -156.6407
  36   2.0000      -5.756283      -156.6364
  37   2.0000      -4.739670      -128.9730
  38   2.0000      -4.739227      -128.9609
  39   2.0000      -4.738467      -128.9402
  40   2.0000      -4.738188      -128.9327
  41   2.0000      -4.737627      -128.9174
  42   2.0000      -4.736789      -128.8946
  43   2.0000      -1.053469       -28.6664
  44   2.0000      -1.052219       -28.6323
  45   2.0000      -1.012929       -27.5632
  46   2.0000      -1.011774       -27.5318
  47   2.0000      -0.800021       -21.7697
  48   2.0000      -0.761795       -20.7295
  49   2.0000      -0.752021       -20.4635
  50   2.0000      -0.737114       -20.0579
  51   2.0000      -0.736697       -20.0465
  52   2.0000      -0.710950       -19.3459
  53   2.0000      -0.687880       -18.7182
  54   2.0000      -0.668576       -18.1929
  55   2.0000      -0.631663       -17.1884
  56   2.0000      -0.624428       -16.9915
  57   2.0000      -0.614820       -16.7301
  58   2.0000      -0.608839       -16.5673
  59   2.0000      -0.588801       -16.0221
  60   2.0000      -0.531893       -14.4736
  61   2.0000      -0.523681       -14.2501
  62   2.0000      -0.499749       -13.5989
  63   2.0000      -0.496695       -13.5158
  64   2.0000      -0.478488       -13.0203
  65   2.0000      -0.469720       -12.7817
  66   2.0000      -0.457978       -12.4622
  67   2.0000      -0.457201       -12.4411
  68   2.0000      -0.446516       -12.1503
  69   2.0000      -0.436665       -11.8823
  70   2.0000      -0.428540       -11.6612
  71   2.0000      -0.415930       -11.3180
  72   2.0000      -0.411288       -11.1917
  73   2.0000      -0.399953       -10.8833
  74   2.0000      -0.394623       -10.7382
  75   2.0000      -0.389973       -10.6117
  76   2.0000      -0.383819       -10.4442
  77   2.0000      -0.377872       -10.2824
  78   2.0000      -0.372391       -10.1333
  79   2.0000      -0.370580       -10.0840
  80   2.0000      -0.368611       -10.0304
  81   2.0000      -0.361409        -9.8344
  82   2.0000      -0.359805        -9.7908
  83   2.0000      -0.356778        -9.7084
  84   2.0000      -0.352672        -9.5967
  85   2.0000      -0.339194        -9.2299
  86   2.0000      -0.324922        -8.8416
  87   2.0000      -0.317039        -8.6271
  88   2.0000      -0.312000        -8.4899
  89   2.0000      -0.310572        -8.4511
  90   2.0000      -0.309345        -8.4177
  91   2.0000      -0.296602        -8.0709
  92   2.0000      -0.287182        -7.8146
  93   2.0000      -0.281608        -7.6629
  94   2.0000      -0.273422        -7.4402
  95   2.0000      -0.244204        -6.6451
  96   2.0000      -0.230137        -6.2624
  97   2.0000      -0.227062        -6.1787
  98   2.0000      -0.218960        -5.9582
  99   2.0000      -0.215630        -5.8676
 100   2.0000      -0.210590        -5.7305
 101   0.0000      -0.046748        -1.2721
 102   0.0000      -0.023487        -0.6391
 103   0.0000      -0.002062        -0.0561
 104   0.0000       0.000266         0.0072
 105   0.0000       0.013615         0.3705

MULLIKEN ATOMIC CHARGES
-----------------------
   0 C :   -0.442601
   1 C :   -0.167820
   2 O :   -0.292395
   3 P :    0.643813
   4 S :   -0.435304
   5 O :   -0.259793
   6 C :   -0.081164
   7 C :   -0.486937
   8 S :   -0.175053
   9 C :   -0.237251
  10 S :   -0.098086
  11 P :    0.670416
  12 S :   -0.478953
  13 O :   -0.305210
  14 C :   -0.164101
  15 C :   -0.422405
  16 O :   -0.278014
  17 C :   -0.097794
  18 C :   -0.493048
  19 H :    0.152592
  20 H :    0.180883
  21 H :    0.148545
  22 H :    0.175061
  23 H :    0.147689
  24 H :    0.171468
  25 H :    0.142632
  26 H :    0.144224
  27 H :    0.164474
  28 H :    0.160311
  29 H :    0.212756
  30 H :    0.219848
  31 H :    0.156553
  32 H :    0.152630
  33 H :    0.158952
  34 H :    0.166563
  35 H :    0.145388
  36 H :    0.178203
  37 H :    0.146607
  38 H :    0.173430
  39 H :    0.149531
  40 H :    0.153359
Sum of atomic charges:   -0.0000000

LOEWDIN ATOMIC CHARGES
----------------------
   0 C :   -0.408568
   1 C :    0.022695
   2 O :   -0.672549
   3 P :    0.382141
   4 S :   -0.095750
   5 O :   -0.652827
   6 C :    0.018945
   7 C :   -0.391005
   8 S :    0.133898
   9 C :   -0.424776
  10 S :    0.197981
  11 P :    0.385135
  12 S :   -0.134600
  13 O :   -0.664086
  14 C :    0.030514
  15 C :   -0.401385
  16 O :   -0.681124
  17 C :   -0.000076
  18 C :   -0.401091
  19 H :    0.159699
  20 H :    0.167117
  21 H :    0.159770
  22 H :    0.180950
  23 H :    0.179160
  24 H :    0.185963
  25 H :    0.172915
  26 H :    0.157914
  27 H :    0.164218
  28 H :    0.163076
  29 H :    0.191876
  30 H :    0.191730
  31 H :    0.174057
  32 H :    0.181842
  33 H :    0.163584
  34 H :    0.165592
  35 H :    0.157991
  36 H :    0.183568
  37 H :    0.174658
  38 H :    0.163603
  39 H :    0.161530
  40 H :    0.155716

  Mayer bond orders larger than 0.100000
B(  0-C ,  1-C ) :   0.9186 B(  0-C , 19-H ) :   0.9672 B(  0-C , 20-H ) :   0.9630
B(  0-C , 21-H ) :   0.9560 B(  1-C ,  2-O ) :   0.8187 B(  1-C , 22-H ) :   0.9680
B(  1-C , 23-H ) :   0.9613 B(  2-O ,  3-P ) :   1.0335 B(  3-P ,  4-S ) :   1.8463
B(  3-P ,  5-O ) :   1.1406 B(  3-P ,  8-S ) :   1.0087 B(  5-O ,  6-C ) :   0.7311
B(  6-C ,  7-C ) :   0.9435 B(  6-C , 24-H ) :   0.9520 B(  6-C , 25-H ) :   0.9675
B(  7-C , 26-H ) :   0.9659 B(  7-C , 27-H ) :   0.9715 B(  7-C , 28-H ) :   0.9728
B(  8-S ,  9-C ) :   0.8999 B(  9-C , 10-S ) :   0.9089 B(  9-C , 29-H ) :   0.9036
B(  9-C , 30-H ) :   0.9065 B( 10-S , 11-P ) :   1.1127 B( 11-P , 12-S ) :   1.7584
B( 11-P , 13-O ) :   1.1581 B( 11-P , 16-O ) :   1.0352 B( 13-O , 14-C ) :   0.7901
B( 14-C , 15-C ) :   0.9455 B( 14-C , 31-H ) :   0.9682 B( 14-C , 32-H ) :   0.9601
B( 15-C , 33-H ) :   0.9689 B( 15-C , 34-H ) :   0.9539 B( 15-C , 35-H ) :   0.9663
B( 16-O , 17-C ) :   0.7487 B( 17-C , 18-C ) :   0.9227 B( 17-C , 36-H ) :   0.9517
B( 17-C , 37-H ) :   0.9607 B( 18-C , 38-H ) :   0.9691 B( 18-C , 39-H ) :   0.9613
B( 18-C , 40-H ) :   0.9789

Dispersion correction           -0.021656019
FINAL SINGLE POINT ENERGY     -2932.461472759931

DIPOLE MOMENT
-------------

Method             : SCF
Type of density    : Electron Density
Multiplicity       :   1
Irrep              :   0
Energy             : -2932.4863560657349808 Eh
Relativity type    :
Basis              : AO
                                X                 Y                 Z
Electronic contribution:      7.504095236      18.381628251      -9.360646932
Nuclear contribution   :     -7.901614948     -20.352265833      10.473902483
                        -----------------------------------------
Total Dipole Moment    :     -0.397519712      -1.970637581       1.113255551
                        -----------------------------------------
Magnitude (a.u.)       :      2.297993107
Magnitude (Debye)      :      5.841034283

Rotational constants in cm-1:             0.013466             0.004660             0.004471
Rotational constants in MHz :           403.706463           139.717176           134.023191

                             ****ORCA TERMINATED NORMALLY****
TOTAL RUN TIME: 0 days 0 hours 1 minutes 19 seconds 209 msec
