                         Program Version 6.0.0  -   RELEASE  -
|  1> ! r2scan-3c def2/J RI DEFGRID2 scfconv6 printgap
|  2> %output
|  3>     printlevel normal
|  4> end
|  5> %cpcm
|  6>     smd true
|  7>     smdsolvent "water"
|  8> end
|  9> * xyz 0 1
| 10> C 3.9559953886 -1.8912285334 -2.1619274325
| 11> C 4.4802604468 -1.5734256824 -0.7769529501
| 12> O 3.4245798692 -1.2755698984 0.1560265713
| 13> P 2.4906159251 0.0020278127 0.0144475812
| 14> S 3.3622169707 1.6521466167 -0.5617635153
| 15> O 1.8684986729 0.1269376099 1.4578311376
| 16> C 1.2961854202 -0.998195456 2.1687639682
| 17> C 2.2469784542 -1.4754957095 3.2466461257
| 18> S 0.8830675714 -0.686544057 -1.220623503
| 19> C 0.237029699 0.954233831 -1.6127435382
| 20> S -0.470101601 1.7911779798 -0.1649953142
| 21> P -2.2146936038 0.6039862777 -0.056634293
| 22> S -3.0529750438 0.174216094 -1.7786848634
| 23> O -2.9633295601 1.5540483438 0.9662291626
| 24> C -4.1294289896 1.1477296461 1.7160850528
| 25> C -5.3902162354 1.209150369 0.8766045008
| 26> O -1.8487186877 -0.6730198376 0.8267536961
| 27> C -1.9763817894 -2.0322551053 0.3639227504
| 28> C -3.3169847273 -2.6062696813 0.7766549283
| 29> H 3.1926535975 -2.6636278455 -2.112210143
| 30> H 3.5237661421 -0.9984151552 -2.6111297116
| 31> H 4.7765906039 -2.2335897826 -2.7841920159
| 32> H 5.1600186752 -0.7168051049 -0.8104323807
| 33> H 4.9844301344 -2.4320025841 -0.331073529
| 34> H 0.3635834392 -0.6184752647 2.5924388352
| 35> H 1.0807792012 -1.7952263797 1.4517670956
| 36> H 1.7747798085 -2.2734064482 3.8111390233
| 37> H 3.1650367681 -1.8456109554 2.7978945829
| 38> H 2.4900316027 -0.6554533947 3.9166108224
| 39> H -0.5335826439 0.8224555244 -2.3734423437
| 40> H 1.0499617409 1.5846890698 -1.9727973482
| 41> H -3.9635175071 0.1406730406 2.1072136287
| 42> H -4.1677579688 1.861121413 2.5413555274
| 43> H -5.5237152634 2.2097592132 0.473895641
| 44> H -5.3297280617 0.51029432 0.0444752702
| 45> H -6.2453772642 0.9535557617 1.4943661174
| 46> H -1.8638428144 -2.0544068052 -0.7238368678
| 47> H -1.1491107443 -2.569065585 0.8290153185
| 48> H -4.1209986961 -2.0589700853 0.2881880191
| 49> H -3.3662919187 -3.6464948557 0.471849759
| 50> H -3.4425871494 -2.5427144675 1.8541402974
| 51> *
| 52>
| 53>                          ****END OF INPUT****

CARTESIAN COORDINATES (ANGSTROEM)
---------------------------------
  C      3.955995   -1.891229   -2.161927
  C      4.480260   -1.573426   -0.776953
  O      3.424580   -1.275570    0.156027
  P      2.490616    0.002028    0.014448
  S      3.362217    1.652147   -0.561764
  O      1.868499    0.126938    1.457831
  C      1.296185   -0.998195    2.168764
  C      2.246978   -1.475496    3.246646
  S      0.883068   -0.686544   -1.220624
  C      0.237030    0.954234   -1.612744
  S     -0.470102    1.791178   -0.164995
  P     -2.214694    0.603986   -0.056634
  S     -3.052975    0.174216   -1.778685
  O     -2.963330    1.554048    0.966229
  C     -4.129429    1.147730    1.716085
  C     -5.390216    1.209150    0.876605
  O     -1.848719   -0.673020    0.826754
  C     -1.976382   -2.032255    0.363923
  C     -3.316985   -2.606270    0.776655
  H      3.192654   -2.663628   -2.112210
  H      3.523766   -0.998415   -2.611130
  H      4.776591   -2.233590   -2.784192
  H      5.160019   -0.716805   -0.810432
  H      4.984430   -2.432003   -0.331074
  H      0.363583   -0.618475    2.592439
  H      1.080779   -1.795226    1.451767
  H      1.774780   -2.273406    3.811139
  H      3.165037   -1.845611    2.797895
  H      2.490032   -0.655453    3.916611
  H     -0.533583    0.822456   -2.373442
  H      1.049962    1.584689   -1.972797
  H     -3.963518    0.140673    2.107214
  H     -4.167758    1.861121    2.541356
  H     -5.523715    2.209759    0.473896
  H     -5.329728    0.510294    0.044475
  H     -6.245377    0.953556    1.494366
  H     -1.863843   -2.054407   -0.723837
  H     -1.149111   -2.569066    0.829015
  H     -4.120999   -2.058970    0.288188
  H     -3.366292   -3.646495    0.471850
  H     -3.442587   -2.542714    1.854140

 Total Charge           Charge          ....    0
 Multiplicity           Mult            ....    1
 Number of Electrons    NEL             ....  202
 Basis Dimension        Dim             ....  539

ORBITAL ENERGIES
----------------

  NO   OCC          E(Eh)            E(eV)
   0   2.0000     -88.578014     -2410.3303
   1   2.0000     -88.576059     -2410.2771
   2   2.0000     -88.531779     -2409.0722
   3   2.0000     -88.528750     -2408.9898
   4   2.0000     -76.920742     -2093.1198
   5   2.0000     -76.919898     -2093.0968
   6   2.0000     -18.997284      -516.9424
   7   2.0000     -18.995831      -516.9028
   8   2.0000     -18.993837      -516.8486
   9   2.0000     -18.993232      -516.8321
  10   2.0000     -10.102321      -274.8981
  11   2.0000     -10.091872      -274.6138
  12   2.0000     -10.091633      -274.6073
  13   2.0000     -10.091355      -274.5997
  14   2.0000     -10.087455      -274.4936
  15   2.0000     -10.018874      -272.6274
  16   2.0000     -10.018805      -272.6255
  17   2.0000     -10.017576      -272.5921
  18   2.0000     -10.017251      -272.5833
  19   2.0000      -7.872204      -214.2136
  20   2.0000      -7.870507      -214.1674
  21   2.0000      -7.826881      -212.9803
  22   2.0000      -7.823946      -212.9004
  23   2.0000      -6.599257      -179.5749
  24   2.0000      -6.598185      -179.5457
  25   2.0000      -5.819066      -158.3448
  26   2.0000      -5.817292      -158.2966
  27   2.0000      -5.816107      -158.2643
  28   2.0000      -5.814442      -158.2190
  29   2.0000      -5.809332      -158.0800
  30   2.0000      -5.807623      -158.0334
  31   2.0000      -5.774470      -157.1313
  32   2.0000      -5.771485      -157.0501
  33   2.0000      -5.767052      -156.9295
  34   2.0000      -5.766982      -156.9276
  35   2.0000      -5.764364      -156.8563
  36   2.0000      -5.763844      -156.8422
  37   2.0000      -4.745078      -129.1201
  38   2.0000      -4.744072      -129.0928
  39   2.0000      -4.743889      -129.0878
  40   2.0000      -4.742857      -129.0597
  41   2.0000      -4.742821      -129.0587
  42   2.0000      -4.742070      -129.0383
  43   2.0000      -1.054846       -28.7038
  44   2.0000      -1.051473       -28.6120
  45   2.0000      -1.013015       -27.5655
  46   2.0000      -1.011103       -27.5135
  47   2.0000      -0.803826       -21.8732
  48   2.0000      -0.757090       -20.6015
  49   2.0000      -0.744491       -20.2586
  50   2.0000      -0.726654       -19.7733
  51   2.0000      -0.723133       -19.6774
  52   2.0000      -0.709114       -19.2960
  53   2.0000      -0.690583       -18.7917
  54   2.0000      -0.675088       -18.3701
  55   2.0000      -0.629027       -17.1167
  56   2.0000      -0.618218       -16.8226
  57   2.0000      -0.604257       -16.4427
  58   2.0000      -0.601352       -16.3636
  59   2.0000      -0.587505       -15.9868
  60   2.0000      -0.526121       -14.3165
  61   2.0000      -0.517464       -14.0809
  62   2.0000      -0.491847       -13.3838
  63   2.0000      -0.491491       -13.3742
  64   2.0000      -0.477434       -12.9916
  65   2.0000      -0.464175       -12.6308
  66   2.0000      -0.452588       -12.3155
  67   2.0000      -0.448145       -12.1946
  68   2.0000      -0.438147       -11.9226
  69   2.0000      -0.433281       -11.7902
  70   2.0000      -0.424032       -11.5385
  71   2.0000      -0.408533       -11.1167
  72   2.0000      -0.403343       -10.9755
  73   2.0000      -0.397210       -10.8086
  74   2.0000      -0.390975       -10.6390
  75   2.0000      -0.389781       -10.6065
  76   2.0000      -0.380507       -10.3541
  77   2.0000      -0.371055       -10.0969
  78   2.0000      -0.363917        -9.9027
  79   2.0000      -0.361029        -9.8241
  80   2.0000      -0.356819        -9.7095
  81   2.0000      -0.352510        -9.5923
  82   2.0000      -0.350264        -9.5312
  83   2.0000      -0.347537        -9.4570
  84   2.0000      -0.345521        -9.4021
  85   2.0000      -0.335171        -9.1205
  86   2.0000      -0.321903        -8.7594
  87   2.0000      -0.310412        -8.4467
  88   2.0000      -0.305685        -8.3181
  89   2.0000      -0.304829        -8.2948
  90   2.0000      -0.300465        -8.1761
  91   2.0000      -0.292110        -7.9487
  92   2.0000      -0.286564        -7.7978
  93   2.0000      -0.279884        -7.6160
  94   2.0000      -0.275004        -7.4832
  95   2.0000      -0.249153        -6.7798
  96   2.0000      -0.238674        -6.4947
  97   2.0000      -0.235763        -6.4154
  98   2.0000      -0.226988        -6.1766
  99   2.0000      -0.224706        -6.1146
 100   2.0000      -0.218201        -5.9376
 101   0.0000      -0.052934        -1.4404
 102   0.0000      -0.030705        -0.8355
 103   0.0000      -0.006946        -0.1890
 104   0.0000      -0.003125        -0.0850
 105   0.0000       0.012901         0.3511

MULLIKEN ATOMIC CHARGES
-----------------------
   0 C :   -0.480902
   1 C :   -0.160118
   2 O :   -0.308028
   3 P :    0.660470
   4 S :   -0.494526
   5 O :   -0.293352
   6 C :   -0.074586
   7 C :   -0.530620
   8 S :   -0.163415
   9 C :   -0.245711
  10 S :   -0.142500
  11 P :    0.697708
  12 S :   -0.519352
  13 O :   -0.339563
  14 C :   -0.145006
  15 C :   -0.476816
  16 O :   -0.293606
  17 C :   -0.095825
  18 C :   -0.516402
  19 H :    0.168755
  20 H :    0.174172
  21 H :    0.173065
  22 H :    0.179697
  23 H :    0.176504
  24 H :    0.181615
  25 H :    0.170841
  26 H :    0.171459
  27 H :    0.169813
  28 H :    0.168367
  29 H :    0.231390
  30 H :    0.235774
  31 H :    0.178064
  32 H :    0.175516
  33 H :    0.168313
  34 H :    0.165818
  35 H :    0.170701
  36 H :    0.171814
  37 H :    0.180561
  38 H :    0.170391
  39 H :    0.169895
  40 H :    0.169626
Sum of atomic charges:   -0.0000000

LOEWDIN ATOMIC CHARGES
----------------------
   0 C :   -0.411205
   1 C :    0.029022
   2 O :   -0.674427
   3 P :    0.384972
   4 S :   -0.140135
   5 O :   -0.677278
   6 C :    0.025401
   7 C :   -0.393430
   8 S :    0.146555
   9 C :   -0.421041
  10 S :    0.167377
  11 P :    0.387405
  12 S :   -0.161275
  13 O :   -0.681439
  14 C :    0.038138
  15 C :   -0.405933
  16 O :   -0.682913
  17 C :    0.006794
  18 C :   -0.401919
  19 H :    0.163831
  20 H :    0.161877
  21 H :    0.168706
  22 H :    0.181944
  23 H :    0.191679
  24 H :    0.190739
  25 H :    0.183598
  26 H :    0.169155
  27 H :    0.164487
  28 H :    0.164206
  29 H :    0.196937
  30 H :    0.196131
  31 H :    0.184172
  32 H :    0.191487
  33 H :    0.163121
  34 H :    0.162374
  35 H :    0.168295
  36 H :    0.181665
  37 H :    0.187689
  38 H :    0.162085
  39 H :    0.168242
  40 H :    0.162911

  Mayer bond orders larger than 0.100000
B(  0-C ,  1-C ) :   0.9056 B(  0-C , 19-H ) :   0.9644 B(  0-C , 20-H ) :   0.9652
B(  0-C , 21-H ) :   0.9508 B(  1-C ,  2-O ) :   0.8061 B(  1-C , 22-H ) :   0.9671
B(  1-C , 23-H ) :   0.9502 B(  2-O ,  3-P ) :   1.0490 B(  3-P ,  4-S ) :   1.8176
B(  3-P ,  5-O ) :   1.1471 B(  3-P ,  8-S ) :   1.0194 B(  5-O ,  6-C ) :   0.7177
B(  6-C ,  7-C ) :   0.9382 B(  6-C , 24-H ) :   0.9442 B(  6-C , 25-H ) :   0.9540
B(  7-C , 26-H ) :   0.9586 B(  7-C , 27-H ) :   0.9702 B(  7-C , 28-H ) :   0.9715
B(  8-S ,  9-C ) :   0.8940 B(  9-C , 10-S ) :   0.8951 B(  9-C , 29-H ) :   0.9013
B(  9-C , 30-H ) :   0.9016 B( 10-S , 11-P ) :   1.1117 B( 11-P , 12-S ) :   1.7354
B( 11-P , 13-O ) :   1.1674 B( 11-P , 16-O ) :   1.0507 B( 13-O , 14-C ) :   0.7833
B( 14-C , 15-C ) :   0.9268 B( 14-C , 31-H ) :   0.9583 B( 14-C , 32-H ) :   0.9523
B( 15-C , 33-H ) :   0.9707 B( 15-C , 34-H ) :   0.9585 B( 15-C , 35-H ) :   0.9595
B( 16-O , 17-C ) :   0.7328 B( 17-C , 18-C ) :   0.9278 B( 17-C , 36-H ) :   0.9498
B( 17-C , 37-H ) :   0.9500 B( 18-C , 38-H ) :   0.9681 B( 18-C , 39-H ) :   0.9581
B( 18-C , 40-H ) :   0.9722

Dispersion correction           -0.021656019
FINAL SINGLE POINT ENERGY     -2932.472406158235

DIPOLE MOMENT
-------------

Method             : SCF
Type of density    : Electron Density
Multiplicity       :   1
Irrep              :   0
Energy             : -2932.4972894640395680 Eh
Relativity type    :
Basis              : AO
                                X                 Y                 Z
Electronic contribution:      7.321218441      17.324960593      -9.035163076
Nuclear contribution   :     -7.901614948     -20.352265833      10.473902483
                        -----------------------------------------
Total Dipole Moment    :     -0.580396507      -3.027305239       1.438739406
                        -----------------------------------------
Magnitude (a.u.)       :      3.401677262
Magnitude (Debye)      :      8.646376461

Rotational constants in cm-1:             0.013466             0.004660             0.004471
Rotational constants in MHz :           403.706463           139.717176           134.023191

                             ****ORCA TERMINATED NORMALLY****
TOTAL RUN TIME: 0 days 0 hours 1 minutes 52 seconds 814 msec
