                         Program Version 6.0.0  -   RELEASE  -
|  1> ! r2scan-3c def2/J RI DEFGRID2 scfconv6 printgap
|  2> %output
|  3>     printlevel normal
|  4> end
|  5> * xyz 0 1
|  6> C 3.7558300322 2.2216684157 0.3788797892
|  7> C 2.6237432389 1.6427483374 -0.4437432032
|  8> O 1.6733016469 0.9445321502 0.3986448817
|  9> P 1.7097433479 -0.6023864731 0.6947122572
| 10> S 0.2372542888 -1.1735813935 1.84830005
| 11> O 3.1625563227 -0.8074635335 1.3073104333
| 12> C 3.5341198256 -1.9762149206 2.0595320399
| 13> C 3.583075295 -3.2237793406 1.2016888448
| 14> S 1.8496898734 -1.5467826382 -1.2086288483
| 15> C 0.1185182262 -1.409801995 -1.697790769
| 16> S -0.3909346413 0.3082694672 -2.0571387157
| 17> P -1.89004255 0.5730768267 -0.6139759096
| 18> S -2.8359610291 -1.0456739185 -0.0264208765
| 19> O -2.8237283491 1.6774754916 -1.282764749
| 20> C -3.8149644302 1.3400296547 -2.2755118743
| 21> C -5.1963251359 1.3009070416 -1.6517190928
| 22> O -1.1626586917 1.4493264706 0.4808614315
| 23> C -1.8002880218 1.7495196402 1.7432159044
| 24> C -0.7955245749 2.4913215299 2.5975960036
| 25> H 4.3298164338 1.4248864519 0.8438889486
| 26> H 4.4048949616 2.7980661117 -0.2729763879
| 27> H 3.3607574474 2.8701486137 1.1560547169
| 28> H 2.9997930654 0.9519037781 -1.2037762787
| 29> H 2.0316577914 2.4257614863 -0.9219979939
| 30> H 4.5174020372 -1.7247385335 2.4596544854
| 31> H 2.8195523847 -2.0995619115 2.8792452119
| 32> H 2.5781846159 -3.5047253989 0.8910774255
| 33> H 4.1886446871 -3.0508650459 0.3156628012
| 34> H 4.0110085235 -4.0370490981 1.7790346953
| 35> H -0.5294491768 -1.8061787639 -0.910502625
| 36> H 0.018441508 -1.9859746015 -2.6139485066
| 37> H -3.7369150741 2.1248617859 -3.0297405407
| 38> H -3.5638777583 0.3743833752 -2.7229160763
| 39> H -5.2449231599 0.5124183166 -0.9035171773
| 40> H -5.42023707 2.2520058119 -1.1769754786
| 41> H -5.9317488283 1.1015502934 -2.4242425996
| 42> H -2.6892782961 2.3533069993 1.5442020845
| 43> H -2.1014330611 0.8042274835 2.2081629961
| 44> H 0.0803745076 1.8664221155 2.7553004658
| 45> H -0.4905737952 3.4079341286 2.1015182031
| 46> H -1.2466756308 2.7255561589 3.5562059377
| 47> *
| 48>
| 49>                          ****END OF INPUT****

CARTESIAN COORDINATES (ANGSTROEM)
---------------------------------
  C      3.755830    2.221668    0.378880
  C      2.623743    1.642748   -0.443743
  O      1.673302    0.944532    0.398645
  P      1.709743   -0.602386    0.694712
  S      0.237254   -1.173581    1.848300
  O      3.162556   -0.807464    1.307310
  C      3.534120   -1.976215    2.059532
  C      3.583075   -3.223779    1.201689
  S      1.849690   -1.546783   -1.208629
  C      0.118518   -1.409802   -1.697791
  S     -0.390935    0.308269   -2.057139
  P     -1.890043    0.573077   -0.613976
  S     -2.835961   -1.045674   -0.026421
  O     -2.823728    1.677475   -1.282765
  C     -3.814964    1.340030   -2.275512
  C     -5.196325    1.300907   -1.651719
  O     -1.162659    1.449326    0.480861
  C     -1.800288    1.749520    1.743216
  C     -0.795525    2.491322    2.597596
  H      4.329816    1.424886    0.843889
  H      4.404895    2.798066   -0.272976
  H      3.360757    2.870149    1.156055
  H      2.999793    0.951904   -1.203776
  H      2.031658    2.425761   -0.921998
  H      4.517402   -1.724739    2.459654
  H      2.819552   -2.099562    2.879245
  H      2.578185   -3.504725    0.891077
  H      4.188645   -3.050865    0.315663
  H      4.011009   -4.037049    1.779035
  H     -0.529449   -1.806179   -0.910503
  H      0.018442   -1.985975   -2.613949
  H     -3.736915    2.124862   -3.029741
  H     -3.563878    0.374383   -2.722916
  H     -5.244923    0.512418   -0.903517
  H     -5.420237    2.252006   -1.176975
  H     -5.931749    1.101550   -2.424243
  H     -2.689278    2.353307    1.544202
  H     -2.101433    0.804227    2.208163
  H      0.080375    1.866422    2.755300
  H     -0.490574    3.407934    2.101518
  H     -1.246676    2.725556    3.556206

 Total Charge           Charge          ....    0
 Multiplicity           Mult            ....    1
 Number of Electrons    NEL             ....  202
 Basis Dimension        Dim             ....  539

ORBITAL ENERGIES
----------------

  NO   OCC          E(Eh)            E(eV)
   0   2.0000     -88.575526     -2410.2626
   1   2.0000     -88.574276     -2410.2286
   2   2.0000     -88.514773     -2408.6094
   3   2.0000     -88.511568     -2408.5222
   4   2.0000     -76.911939     -2092.8803
   5   2.0000     -76.906885     -2092.7427
   6   2.0000     -18.993297      -516.8339
   7   2.0000     -18.987865      -516.6861
   8   2.0000     -18.984232      -516.5872
   9   2.0000     -18.978585      -516.4336
  10   2.0000     -10.105556      -274.9862
  11   2.0000     -10.099464      -274.8204
  12   2.0000     -10.098218      -274.7865
  13   2.0000     -10.094150      -274.6758
  14   2.0000     -10.086460      -274.4665
  15   2.0000     -10.029637      -272.9203
  16   2.0000     -10.029368      -272.9130
  17   2.0000     -10.022143      -272.7164
  18   2.0000     -10.018587      -272.6196
  19   2.0000      -7.870102      -214.1564
  20   2.0000      -7.868810      -214.1212
  21   2.0000      -7.809560      -212.5089
  22   2.0000      -7.806388      -212.4226
  23   2.0000      -6.590275      -179.3305
  24   2.0000      -6.585357      -179.1967
  25   2.0000      -5.816984      -158.2882
  26   2.0000      -5.815627      -158.2512
  27   2.0000      -5.813743      -158.2000
  28   2.0000      -5.812609      -158.1691
  29   2.0000      -5.807363      -158.0264
  30   2.0000      -5.805990      -157.9890
  31   2.0000      -5.757332      -156.6650
  32   2.0000      -5.754030      -156.5751
  33   2.0000      -5.749725      -156.4580
  34   2.0000      -5.749556      -156.4534
  35   2.0000      -5.746831      -156.3792
  36   2.0000      -5.746226      -156.3627
  37   2.0000      -4.736146      -128.8771
  38   2.0000      -4.735290      -128.8538
  39   2.0000      -4.733604      -128.8079
  40   2.0000      -4.730814      -128.7320
  41   2.0000      -4.730187      -128.7149
  42   2.0000      -4.729223      -128.6887
  43   2.0000      -1.049732       -28.5647
  44   2.0000      -1.041197       -28.3324
  45   2.0000      -1.009443       -27.4683
  46   2.0000      -0.999969       -27.2105
  47   2.0000      -0.799090       -21.7444
  48   2.0000      -0.756088       -20.5742
  49   2.0000      -0.746377       -20.3100
  50   2.0000      -0.734117       -19.9763
  51   2.0000      -0.723568       -19.6893
  52   2.0000      -0.709058       -19.2945
  53   2.0000      -0.683012       -18.5857
  54   2.0000      -0.661049       -17.9881
  55   2.0000      -0.626912       -17.0591
  56   2.0000      -0.615354       -16.7446
  57   2.0000      -0.607234       -16.5237
  58   2.0000      -0.597491       -16.2586
  59   2.0000      -0.586396       -15.9567
  60   2.0000      -0.526591       -14.3293
  61   2.0000      -0.520574       -14.1655
  62   2.0000      -0.494029       -13.4432
  63   2.0000      -0.490965       -13.3598
  64   2.0000      -0.467791       -12.7293
  65   2.0000      -0.460875       -12.5410
  66   2.0000      -0.453859       -12.3501
  67   2.0000      -0.448891       -12.2149
  68   2.0000      -0.442753       -12.0479
  69   2.0000      -0.436441       -11.8762
  70   2.0000      -0.426464       -11.6047
  71   2.0000      -0.412044       -11.2123
  72   2.0000      -0.405425       -11.0322
  73   2.0000      -0.395880       -10.7724
  74   2.0000      -0.390949       -10.6383
  75   2.0000      -0.383577       -10.4377
  76   2.0000      -0.378745       -10.3062
  77   2.0000      -0.370049       -10.0695
  78   2.0000      -0.367662       -10.0046
  79   2.0000      -0.365378        -9.9424
  80   2.0000      -0.360988        -9.8230
  81   2.0000      -0.357825        -9.7369
  82   2.0000      -0.351216        -9.5571
  83   2.0000      -0.343319        -9.3422
  84   2.0000      -0.339236        -9.2311
  85   2.0000      -0.327912        -8.9229
  86   2.0000      -0.322646        -8.7797
  87   2.0000      -0.311171        -8.4674
  88   2.0000      -0.306325        -8.3355
  89   2.0000      -0.305232        -8.3058
  90   2.0000      -0.296974        -8.0811
  91   2.0000      -0.284798        -7.7498
  92   2.0000      -0.278188        -7.5699
  93   2.0000      -0.274574        -7.4715
  94   2.0000      -0.271450        -7.3865
  95   2.0000      -0.248662        -6.7664
  96   2.0000      -0.233794        -6.3618
  97   2.0000      -0.225688        -6.1413
  98   2.0000      -0.215835        -5.8732
  99   2.0000      -0.204989        -5.5780
 100   2.0000      -0.195426        -5.3178
 101   0.0000      -0.041228        -1.1219
 102   0.0000      -0.029080        -0.7913
 103   0.0000      -0.008412        -0.2289
 104   0.0000       0.014131         0.3845
 105   0.0000       0.019263         0.5242

MULLIKEN ATOMIC CHARGES
-----------------------
   0 C :   -0.462382
   1 C :   -0.118403
   2 O :   -0.250434
   3 P :    0.637630
   4 S :   -0.408868
   5 O :   -0.297928
   6 C :   -0.162246
   7 C :   -0.459332
   8 S :   -0.150102
   9 C :   -0.223670
  10 S :   -0.134799
  11 P :    0.647002
  12 S :   -0.464155
  13 O :   -0.310192
  14 C :   -0.117658
  15 C :   -0.461352
  16 O :   -0.254450
  17 C :   -0.125479
  18 C :   -0.467196
  19 H :    0.164464
  20 H :    0.146225
  21 H :    0.156171
  22 H :    0.164343
  23 H :    0.164318
  24 H :    0.146888
  25 H :    0.176545
  26 H :    0.183778
  27 H :    0.153687
  28 H :    0.148928
  29 H :    0.218585
  30 H :    0.195503
  31 H :    0.147858
  32 H :    0.153191
  33 H :    0.181178
  34 H :    0.149560
  35 H :    0.143692
  36 H :    0.146575
  37 H :    0.175403
  38 H :    0.179349
  39 H :    0.145696
  40 H :    0.142076
Sum of atomic charges:   -0.0000000

LOEWDIN ATOMIC CHARGES
----------------------
   0 C :   -0.394300
   1 C :    0.016269
   2 O :   -0.657630
   3 P :    0.380539
   4 S :   -0.065184
   5 O :   -0.672865
   6 C :    0.020355
   7 C :   -0.408903
   8 S :    0.125600
   9 C :   -0.413829
  10 S :    0.174431
  11 P :    0.365686
  12 S :   -0.129121
  13 O :   -0.667284
  14 C :    0.018083
  15 C :   -0.400728
  16 O :   -0.667792
  17 C :    0.018396
  18 C :   -0.390844
  19 H :    0.165935
  20 H :    0.158328
  21 H :    0.160720
  22 H :    0.177361
  23 H :    0.183195
  24 H :    0.178745
  25 H :    0.181402
  26 H :    0.167168
  27 H :    0.159328
  28 H :    0.159847
  29 H :    0.202523
  30 H :    0.181034
  31 H :    0.175929
  32 H :    0.176885
  33 H :    0.168427
  34 H :    0.156903
  35 H :    0.157708
  36 H :    0.170216
  37 H :    0.183334
  38 H :    0.169400
  39 H :    0.156923
  40 H :    0.157810

  Mayer bond orders larger than 0.100000
B(  0-C ,  1-C ) :   0.9333 B(  0-C , 19-H ) :   0.9664 B(  0-C , 20-H ) :   0.9663
B(  0-C , 21-H ) :   0.9752 B(  1-C ,  2-O ) :   0.7332 B(  1-C , 22-H ) :   0.9593
B(  1-C , 23-H ) :   0.9629 B(  2-O ,  3-P ) :   1.1187 B(  3-P ,  4-S ) :   1.8520
B(  3-P ,  5-O ) :   1.0398 B(  3-P ,  8-S ) :   1.0242 B(  5-O ,  6-C ) :   0.8229
B(  6-C ,  7-C ) :   0.9122 B(  6-C , 24-H ) :   0.9612 B(  6-C , 25-H ) :   0.9676
B(  7-C , 26-H ) :   0.9630 B(  7-C , 27-H ) :   0.9682 B(  7-C , 28-H ) :   0.9571
B(  8-S ,  9-C ) :   0.9126 B(  9-C , 10-S ) :   0.8943 B(  9-C , 29-H ) :   0.9042
B(  9-C , 30-H ) :   0.9140 B( 10-S , 11-P ) :   1.1317 B( 11-P , 12-S ) :   1.7546
B( 11-P , 13-O ) :   1.0479 B( 11-P , 16-O ) :   1.2109 B( 13-O , 14-C ) :   0.7734
B( 14-C , 15-C ) :   0.9551 B( 14-C , 31-H ) :   0.9634 B( 14-C , 32-H ) :   0.9629
B( 15-C , 33-H ) :   0.9602 B( 15-C , 34-H ) :   0.9753 B( 15-C , 35-H ) :   0.9657
B( 16-O , 17-C ) :   0.7548 B( 17-C , 18-C ) :   0.9383 B( 17-C , 36-H ) :   0.9439
B( 17-C , 37-H ) :   0.9507 B( 18-C , 38-H ) :   0.9682 B( 18-C , 39-H ) :   0.9726
B( 18-C , 40-H ) :   0.9665

Dispersion correction           -0.022138728
FINAL SINGLE POINT ENERGY     -2932.459745544450

DIPOLE MOMENT
-------------

Method             : SCF
Type of density    : Electron Density
Multiplicity       :   1
Irrep              :   0
Energy             : -2932.4841757206768307 Eh
Relativity type    :
Basis              : AO
                                X                 Y                 Z
Electronic contribution:     -3.298634819      -8.634606108      -6.413381952
Nuclear contribution   :      4.320951326       9.354011154       5.902361959
                        -----------------------------------------
Total Dipole Moment    :      1.022316507       0.719405045      -0.511019993
                        -----------------------------------------
Magnitude (a.u.)       :      1.350487354
Magnitude (Debye)      :      3.432666055

Rotational constants in cm-1:             0.012904             0.005255             0.005052
Rotational constants in MHz :           386.838748           157.530464           151.456730

                             ****ORCA TERMINATED NORMALLY****
TOTAL RUN TIME: 0 days 0 hours 1 minutes 22 seconds 104 msec
