                         Program Version 6.0.0  -   RELEASE  -
|  1> ! r2scan-3c def2/J RI DEFGRID2 scfconv6 printgap
|  2> %output
|  3>     printlevel normal
|  4> end
|  5> %cpcm
|  6>     smd true
|  7>     smdsolvent "water"
|  8> end
|  9> * xyz 0 1
| 10> C 3.7558300322 2.2216684157 0.3788797892
| 11> C 2.6237432389 1.6427483374 -0.4437432032
| 12> O 1.6733016469 0.9445321502 0.3986448817
| 13> P 1.7097433479 -0.6023864731 0.6947122572
| 14> S 0.2372542888 -1.1735813935 1.84830005
| 15> O 3.1625563227 -0.8074635335 1.3073104333
| 16> C 3.5341198256 -1.9762149206 2.0595320399
| 17> C 3.583075295 -3.2237793406 1.2016888448
| 18> S 1.8496898734 -1.5467826382 -1.2086288483
| 19> C 0.1185182262 -1.409801995 -1.697790769
| 20> S -0.3909346413 0.3082694672 -2.0571387157
| 21> P -1.89004255 0.5730768267 -0.6139759096
| 22> S -2.8359610291 -1.0456739185 -0.0264208765
| 23> O -2.8237283491 1.6774754916 -1.282764749
| 24> C -3.8149644302 1.3400296547 -2.2755118743
| 25> C -5.1963251359 1.3009070416 -1.6517190928
| 26> O -1.1626586917 1.4493264706 0.4808614315
| 27> C -1.8002880218 1.7495196402 1.7432159044
| 28> C -0.7955245749 2.4913215299 2.5975960036
| 29> H 4.3298164338 1.4248864519 0.8438889486
| 30> H 4.4048949616 2.7980661117 -0.2729763879
| 31> H 3.3607574474 2.8701486137 1.1560547169
| 32> H 2.9997930654 0.9519037781 -1.2037762787
| 33> H 2.0316577914 2.4257614863 -0.9219979939
| 34> H 4.5174020372 -1.7247385335 2.4596544854
| 35> H 2.8195523847 -2.0995619115 2.8792452119
| 36> H 2.5781846159 -3.5047253989 0.8910774255
| 37> H 4.1886446871 -3.0508650459 0.3156628012
| 38> H 4.0110085235 -4.0370490981 1.7790346953
| 39> H -0.5294491768 -1.8061787639 -0.910502625
| 40> H 0.018441508 -1.9859746015 -2.6139485066
| 41> H -3.7369150741 2.1248617859 -3.0297405407
| 42> H -3.5638777583 0.3743833752 -2.7229160763
| 43> H -5.2449231599 0.5124183166 -0.9035171773
| 44> H -5.42023707 2.2520058119 -1.1769754786
| 45> H -5.9317488283 1.1015502934 -2.4242425996
| 46> H -2.6892782961 2.3533069993 1.5442020845
| 47> H -2.1014330611 0.8042274835 2.2081629961
| 48> H 0.0803745076 1.8664221155 2.7553004658
| 49> H -0.4905737952 3.4079341286 2.1015182031
| 50> H -1.2466756308 2.7255561589 3.5562059377
| 51> *
| 52>
| 53>                          ****END OF INPUT****

CARTESIAN COORDINATES (ANGSTROEM)
---------------------------------
  C      3.755830    2.221668    0.378880
  C      2.623743    1.642748   -0.443743
  O      1.673302    0.944532    0.398645
  P      1.709743   -0.602386    0.694712
  S      0.237254   -1.173581    1.848300
  O      3.162556   -0.807464    1.307310
  C      3.534120   -1.976215    2.059532
  C      3.583075   -3.223779    1.201689
  S      1.849690   -1.546783   -1.208629
  C      0.118518   -1.409802   -1.697791
  S     -0.390935    0.308269   -2.057139
  P     -1.890043    0.573077   -0.613976
  S     -2.835961   -1.045674   -0.026421
  O     -2.823728    1.677475   -1.282765
  C     -3.814964    1.340030   -2.275512
  C     -5.196325    1.300907   -1.651719
  O     -1.162659    1.449326    0.480861
  C     -1.800288    1.749520    1.743216
  C     -0.795525    2.491322    2.597596
  H      4.329816    1.424886    0.843889
  H      4.404895    2.798066   -0.272976
  H      3.360757    2.870149    1.156055
  H      2.999793    0.951904   -1.203776
  H      2.031658    2.425761   -0.921998
  H      4.517402   -1.724739    2.459654
  H      2.819552   -2.099562    2.879245
  H      2.578185   -3.504725    0.891077
  H      4.188645   -3.050865    0.315663
  H      4.011009   -4.037049    1.779035
  H     -0.529449   -1.806179   -0.910503
  H      0.018442   -1.985975   -2.613949
  H     -3.736915    2.124862   -3.029741
  H     -3.563878    0.374383   -2.722916
  H     -5.244923    0.512418   -0.903517
  H     -5.420237    2.252006   -1.176975
  H     -5.931749    1.101550   -2.424243
  H     -2.689278    2.353307    1.544202
  H     -2.101433    0.804227    2.208163
  H      0.080375    1.866422    2.755300
  H     -0.490574    3.407934    2.101518
  H     -1.246676    2.725556    3.556206

 Total Charge           Charge          ....    0
 Multiplicity           Mult            ....    1
 Number of Electrons    NEL             ....  202
 Basis Dimension        Dim             ....  539

ORBITAL ENERGIES
----------------

  NO   OCC          E(Eh)            E(eV)
   0   2.0000     -88.579621     -2410.3740
   1   2.0000     -88.577934     -2410.3281
   2   2.0000     -88.523448     -2408.8455
   3   2.0000     -88.523175     -2408.8381
   4   2.0000     -76.917264     -2093.0251
   5   2.0000     -76.916444     -2093.0029
   6   2.0000     -18.994004      -516.8531
   7   2.0000     -18.992055      -516.8001
   8   2.0000     -18.991064      -516.7731
   9   2.0000     -18.988489      -516.7030
  10   2.0000     -10.104881      -274.9678
  11   2.0000     -10.090280      -274.5705
  12   2.0000     -10.089548      -274.5506
  13   2.0000     -10.088993      -274.5354
  14   2.0000     -10.087297      -274.4893
  15   2.0000     -10.018458      -272.6161
  16   2.0000     -10.017735      -272.5964
  17   2.0000     -10.017258      -272.5834
  18   2.0000     -10.016330      -272.5582
  19   2.0000      -7.874107      -214.2653
  20   2.0000      -7.872429      -214.2197
  21   2.0000      -7.818581      -212.7544
  22   2.0000      -7.818313      -212.7471
  23   2.0000      -6.595637      -179.4764
  24   2.0000      -6.594948      -179.4576
  25   2.0000      -5.820934      -158.3957
  26   2.0000      -5.819335      -158.3522
  27   2.0000      -5.817903      -158.3132
  28   2.0000      -5.816092      -158.2639
  29   2.0000      -5.811295      -158.1334
  30   2.0000      -5.809660      -158.0889
  31   2.0000      -5.766253      -156.9077
  32   2.0000      -5.765884      -156.8977
  33   2.0000      -5.758796      -156.7048
  34   2.0000      -5.758767      -156.7040
  35   2.0000      -5.758559      -156.6983
  36   2.0000      -5.758151      -156.6872
  37   2.0000      -4.741461      -129.0217
  38   2.0000      -4.740618      -128.9988
  39   2.0000      -4.740376      -128.9922
  40   2.0000      -4.739767      -128.9756
  41   2.0000      -4.739082      -128.9570
  42   2.0000      -4.738882      -128.9515
  43   2.0000      -1.051987       -28.6260
  44   2.0000      -1.049144       -28.5486
  45   2.0000      -1.011314       -27.5193
  46   2.0000      -1.007517       -27.4159
  47   2.0000      -0.801255       -21.8033
  48   2.0000      -0.755722       -20.5642
  49   2.0000      -0.744284       -20.2530
  50   2.0000      -0.725286       -19.7360
  51   2.0000      -0.721538       -19.6340
  52   2.0000      -0.710345       -19.3295
  53   2.0000      -0.687909       -18.7190
  54   2.0000      -0.669017       -18.2049
  55   2.0000      -0.626789       -17.0558
  56   2.0000      -0.615264       -16.7422
  57   2.0000      -0.602253       -16.3881
  58   2.0000      -0.595950       -16.2166
  59   2.0000      -0.586666       -15.9640
  60   2.0000      -0.527636       -14.3577
  61   2.0000      -0.518285       -14.1033
  62   2.0000      -0.495409       -13.4808
  63   2.0000      -0.489234       -13.3127
  64   2.0000      -0.467505       -12.7214
  65   2.0000      -0.459386       -12.5005
  66   2.0000      -0.455789       -12.4026
  67   2.0000      -0.449187       -12.2230
  68   2.0000      -0.437832       -11.9140
  69   2.0000      -0.435579       -11.8527
  70   2.0000      -0.423805       -11.5323
  71   2.0000      -0.415189       -11.2979
  72   2.0000      -0.402686       -10.9577
  73   2.0000      -0.394393       -10.7320
  74   2.0000      -0.390410       -10.6236
  75   2.0000      -0.384611       -10.4658
  76   2.0000      -0.376971       -10.2579
  77   2.0000      -0.367523       -10.0008
  78   2.0000      -0.362739        -9.8706
  79   2.0000      -0.361926        -9.8485
  80   2.0000      -0.354803        -9.6547
  81   2.0000      -0.352645        -9.5960
  82   2.0000      -0.346400        -9.4260
  83   2.0000      -0.343510        -9.3474
  84   2.0000      -0.340462        -9.2645
  85   2.0000      -0.325804        -8.8656
  86   2.0000      -0.324804        -8.8384
  87   2.0000      -0.310080        -8.4377
  88   2.0000      -0.304953        -8.2982
  89   2.0000      -0.303562        -8.2603
  90   2.0000      -0.298830        -8.1316
  91   2.0000      -0.286704        -7.8016
  92   2.0000      -0.280370        -7.6293
  93   2.0000      -0.277664        -7.5556
  94   2.0000      -0.275292        -7.4911
  95   2.0000      -0.252476        -6.8702
  96   2.0000      -0.241414        -6.5692
  97   2.0000      -0.235055        -6.3962
  98   2.0000      -0.226482        -6.1629
  99   2.0000      -0.213973        -5.8225
 100   2.0000      -0.206488        -5.6188
 101   0.0000      -0.045916        -1.2494
 102   0.0000      -0.035626        -0.9694
 103   0.0000      -0.011989        -0.3262
 104   0.0000       0.007872         0.2142
 105   0.0000       0.014786         0.4023

MULLIKEN ATOMIC CHARGES
-----------------------
   0 C :   -0.505108
   1 C :   -0.102549
   2 O :   -0.283584
   3 P :    0.656048
   4 S :   -0.462549
   5 O :   -0.318484
   6 C :   -0.156941
   7 C :   -0.494343
   8 S :   -0.147902
   9 C :   -0.224486
  10 S :   -0.135797
  11 P :    0.676943
  12 S :   -0.518150
  13 O :   -0.336763
  14 C :   -0.115824
  15 C :   -0.498680
  16 O :   -0.282765
  17 C :   -0.120849
  18 C :   -0.511018
  19 H :    0.169095
  20 H :    0.170649
  21 H :    0.167671
  22 H :    0.175587
  23 H :    0.180544
  24 H :    0.174771
  25 H :    0.179024
  26 H :    0.176040
  27 H :    0.169772
  28 H :    0.173200
  29 H :    0.212418
  30 H :    0.236999
  31 H :    0.174513
  32 H :    0.163921
  33 H :    0.171130
  34 H :    0.165848
  35 H :    0.169338
  36 H :    0.170945
  37 H :    0.174480
  38 H :    0.170957
  39 H :    0.166538
  40 H :    0.169360
Sum of atomic charges:    0.0000000

LOEWDIN ATOMIC CHARGES
----------------------
   0 C :   -0.396764
   1 C :    0.022486
   2 O :   -0.678720
   3 P :    0.383479
   4 S :   -0.102590
   5 O :   -0.678623
   6 C :    0.025471
   7 C :   -0.411589
   8 S :    0.134892
   9 C :   -0.408034
  10 S :    0.177327
  11 P :    0.369736
  12 S :   -0.163616
  13 O :   -0.680459
  14 C :    0.023069
  15 C :   -0.404861
  16 O :   -0.686389
  17 C :    0.020514
  18 C :   -0.395032
  19 H :    0.165811
  20 H :    0.168282
  21 H :    0.163247
  22 H :    0.182611
  23 H :    0.189693
  24 H :    0.190596
  25 H :    0.181573
  26 H :    0.161864
  27 H :    0.163747
  28 H :    0.168612
  29 H :    0.199709
  30 H :    0.197604
  31 H :    0.187342
  32 H :    0.180235
  33 H :    0.162332
  34 H :    0.161838
  35 H :    0.167294
  36 H :    0.179685
  37 H :    0.182796
  38 H :    0.163844
  39 H :    0.162815
  40 H :    0.168173

  Mayer bond orders larger than 0.100000
B(  0-C ,  1-C ) :   0.9259 B(  0-C , 19-H ) :   0.9659 B(  0-C , 20-H ) :   0.9595
B(  0-C , 21-H ) :   0.9733 B(  1-C ,  2-O ) :   0.7230 B(  1-C , 22-H ) :   0.9507
B(  1-C , 23-H ) :   0.9541 B(  2-O ,  3-P ) :   1.1222 B(  3-P ,  4-S ) :   1.8211
B(  3-P ,  5-O ) :   1.0499 B(  3-P ,  8-S ) :   1.0409 B(  5-O ,  6-C ) :   0.8121
B(  6-C ,  7-C ) :   0.9005 B(  6-C , 24-H ) :   0.9510 B(  6-C , 25-H ) :   0.9666
B(  7-C , 26-H ) :   0.9654 B(  7-C , 27-H ) :   0.9650 B(  7-C , 28-H ) :   0.9519
B(  8-S ,  9-C ) :   0.9081 B(  9-C , 10-S ) :   0.8877 B(  9-C , 29-H ) :   0.9087
B(  9-C , 30-H ) :   0.8978 B( 10-S , 11-P ) :   1.1553 B( 11-P , 12-S ) :   1.7070
B( 11-P , 13-O ) :   1.0536 B( 11-P , 16-O ) :   1.2097 B( 13-O , 14-C ) :   0.7588
B( 14-C , 15-C ) :   0.9450 B( 14-C , 31-H ) :   0.9527 B( 14-C , 32-H ) :   0.9576
B( 15-C , 33-H ) :   0.9648 B( 15-C , 34-H ) :   0.9715 B( 15-C , 35-H ) :   0.9604
B( 16-O , 17-C ) :   0.7478 B( 17-C , 18-C ) :   0.9273 B( 17-C , 36-H ) :   0.9353
B( 17-C , 37-H ) :   0.9479 B( 18-C , 38-H ) :   0.9709 B( 18-C , 39-H ) :   0.9692
B( 18-C , 40-H ) :   0.9605

Dispersion correction           -0.022138728
FINAL SINGLE POINT ENERGY     -2932.468314272163

DIPOLE MOMENT
-------------

Method             : SCF
Type of density    : Electron Density
Multiplicity       :   1
Irrep              :   0
Energy             : -2932.4927444483905674 Eh
Relativity type    :
Basis              : AO
                                X                 Y                 Z
Electronic contribution:     -2.910458295      -8.451555370      -6.879777518
Nuclear contribution   :      4.320951326       9.354011154       5.902361959
                        -----------------------------------------
Total Dipole Moment    :      1.410493030       0.902455784      -0.977415559
                        -----------------------------------------
Magnitude (a.u.)       :      1.938880658
Magnitude (Debye)      :      4.928242978

Rotational constants in cm-1:             0.012904             0.005255             0.005052
Rotational constants in MHz :           386.838748           157.530464           151.456730

                             ****ORCA TERMINATED NORMALLY****
TOTAL RUN TIME: 0 days 0 hours 1 minutes 57 seconds 740 msec
