                         Program Version 6.0.0  -   RELEASE  -
|  1> ! pbe def2-sv(p) def2/J RI DEFGRID1 loosescf d4 GCP(DFT/SV(P)) printgap
|  2> %output
|  3>     printlevel normal
|  4> end
|  5> * xyz 0 1
|  6> C 4.2106726591 1.2357276759 -2.2251937435
|  7> C 4.6846360441 0.3748527182 -1.0734027683
|  8> O 3.7595204639 0.344324801 0.0306752067
|  9> P 2.1909356577 0.0961246625 -0.0668623931
| 10> S 1.120470777 1.6456300933 -0.6358910098
| 11> O 1.8799374674 -0.3968759719 1.4060674054
| 12> C 1.7545618243 0.5147283747 2.5184842238
| 13> C 0.9986862517 -0.1992339988 3.6198300741
| 14> S 2.0279006391 -1.7003600083 -1.1401748187
| 15> C 0.2422745853 -1.7106389203 -1.431075381
| 16> S -0.7267860047 -1.9219983587 0.0958283741
| 17> P -1.9247868557 -0.1833565845 0.042031798
| 18> S -2.1441029202 0.5937745154 -1.7508546675
| 19> O -1.2983579639 0.6599090543 1.2255695524
| 20> C -1.9979637803 1.7145486692 1.9246000358
| 21> C -2.3196355365 2.8844744713 1.018778393
| 22> O -3.2826995598 -0.6593692194 0.7237321592
| 23> C -4.313962437 -1.3411220103 -0.0178474644
| 24> C -5.4327295798 -0.3803158987 -0.3705635031
| 25> H 3.3045685498 0.8157895319 -2.6608894785
| 26> H 3.9908018539 2.2444432178 -1.8827726464
| 27> H 4.9829702623 1.2745461982 -2.9866308726
| 28> H 5.5997709665 0.7712486983 -0.629654399
| 29> H 4.8460356419 -0.6555355825 -1.4012677557
| 30> H 2.7617871022 0.7950444742 2.8362054073
| 31> H 1.2253198706 1.4098020001 2.1736444196
| 32> H 1.5292444364 -1.1033986654 3.9036066138
| 33> H 0.9146066854 0.4567184259 4.4803067842
| 34> H 0.0056292595 -0.4722995238 3.2722845506
| 35> H 0.0558915465 -2.5659047359 -2.0757556461
| 36> H -0.0697409981 -0.7790455244 -1.9140538535
| 37> H -2.9044368629 1.2922776486 2.3637538512
| 38> H -1.300529693 2.0027329003 2.713350994
| 39> H -3.0476404454 2.5901507259 0.2644227809
| 40> H -2.7266057398 3.6997601837 1.6082724079
| 41> H -1.4182042597 3.2207062293 0.5089474838
| 42> H -3.8809948587 -1.7789493661 -0.9211221073
| 43> H -4.660320514 -2.1353879007 0.6454630108
| 44> H -6.2281913388 -0.9255398044 -0.8678618956
| 45> H -5.8240507905 0.0877613032 0.5282421622
| 46> H -5.0615179575 0.3923174586 -1.0406282684
| 47> *
| 48>
| 49>                          ****END OF INPUT****

CARTESIAN COORDINATES (ANGSTROEM)
---------------------------------
  C      4.210673    1.235728   -2.225194
  C      4.684636    0.374853   -1.073403
  O      3.759520    0.344325    0.030675
  P      2.190936    0.096125   -0.066862
  S      1.120471    1.645630   -0.635891
  O      1.879937   -0.396876    1.406067
  C      1.754562    0.514728    2.518484
  C      0.998686   -0.199234    3.619830
  S      2.027901   -1.700360   -1.140175
  C      0.242275   -1.710639   -1.431075
  S     -0.726786   -1.921998    0.095828
  P     -1.924787   -0.183357    0.042032
  S     -2.144103    0.593775   -1.750855
  O     -1.298358    0.659909    1.225570
  C     -1.997964    1.714549    1.924600
  C     -2.319636    2.884474    1.018778
  O     -3.282700   -0.659369    0.723732
  C     -4.313962   -1.341122   -0.017847
  C     -5.432730   -0.380316   -0.370564
  H      3.304569    0.815790   -2.660889
  H      3.990802    2.244443   -1.882773
  H      4.982970    1.274546   -2.986631
  H      5.599771    0.771249   -0.629654
  H      4.846036   -0.655536   -1.401268
  H      2.761787    0.795044    2.836205
  H      1.225320    1.409802    2.173644
  H      1.529244   -1.103399    3.903607
  H      0.914607    0.456718    4.480307
  H      0.005629   -0.472300    3.272285
  H      0.055892   -2.565905   -2.075756
  H     -0.069741   -0.779046   -1.914054
  H     -2.904437    1.292278    2.363754
  H     -1.300530    2.002733    2.713351
  H     -3.047640    2.590151    0.264423
  H     -2.726606    3.699760    1.608272
  H     -1.418204    3.220706    0.508947
  H     -3.880995   -1.778949   -0.921122
  H     -4.660321   -2.135388    0.645463
  H     -6.228191   -0.925540   -0.867862
  H     -5.824051    0.087761    0.528242
  H     -5.061518    0.392317   -1.040628

 Total Charge           Charge          ....    0
 Multiplicity           Mult            ....    1
 Number of Electrons    NEL             ....  202
 Basis Dimension        Dim             ....  334

ORBITAL ENERGIES
----------------

  NO   OCC          E(Eh)            E(eV)
   0   2.0000     -88.043424     -2395.7834
   1   2.0000     -88.039360     -2395.6728
   2   2.0000     -87.982991     -2394.1389
   3   2.0000     -87.975326     -2393.9303
   4   2.0000     -76.425202     -2079.6355
   5   2.0000     -76.420074     -2079.4959
   6   2.0000     -18.792463      -511.3689
   7   2.0000     -18.788175      -511.2522
   8   2.0000     -18.786566      -511.2084
   9   2.0000     -18.778607      -510.9919
  10   2.0000      -9.954712      -270.8815
  11   2.0000      -9.953288      -270.8427
  12   2.0000      -9.953086      -270.8372
  13   2.0000      -9.953029      -270.8357
  14   2.0000      -9.943479      -270.5758
  15   2.0000      -9.882531      -268.9173
  16   2.0000      -9.879296      -268.8293
  17   2.0000      -9.878641      -268.8115
  18   2.0000      -9.877784      -268.7882
  19   2.0000      -7.689092      -209.2308
  20   2.0000      -7.684585      -209.1082
  21   2.0000      -7.627977      -207.5678
  22   2.0000      -7.620208      -207.3564
  23   2.0000      -6.422387      -174.7620
  24   2.0000      -6.417409      -174.6266
  25   2.0000      -5.717025      -155.5682
  26   2.0000      -5.713368      -155.4686
  27   2.0000      -5.712469      -155.4442
  28   2.0000      -5.709091      -155.3523
  29   2.0000      -5.706142      -155.2720
  30   2.0000      -5.701512      -155.1460
  31   2.0000      -5.656875      -153.9314
  32   2.0000      -5.649037      -153.7181
  33   2.0000      -5.648719      -153.7095
  34   2.0000      -5.648001      -153.6899
  35   2.0000      -5.641058      -153.5010
  36   2.0000      -5.640213      -153.4780
  37   2.0000      -4.645209      -126.4026
  38   2.0000      -4.643920      -126.3675
  39   2.0000      -4.642878      -126.3391
  40   2.0000      -4.640042      -126.2620
  41   2.0000      -4.639379      -126.2439
  42   2.0000      -4.637641      -126.1966
  43   2.0000      -0.986636       -26.8477
  44   2.0000      -0.978461       -26.6253
  45   2.0000      -0.941799       -25.6277
  46   2.0000      -0.935920       -25.4677
  47   2.0000      -0.761831       -20.7305
  48   2.0000      -0.719563       -19.5803
  49   2.0000      -0.706195       -19.2165
  50   2.0000      -0.686137       -18.6707
  51   2.0000      -0.683132       -18.5890
  52   2.0000      -0.672578       -18.3018
  53   2.0000      -0.648153       -17.6371
  54   2.0000      -0.631355       -17.1800
  55   2.0000      -0.593264       -16.1435
  56   2.0000      -0.585055       -15.9201
  57   2.0000      -0.574222       -15.6254
  58   2.0000      -0.571297       -15.5458
  59   2.0000      -0.554909       -15.0998
  60   2.0000      -0.502295       -13.6681
  61   2.0000      -0.496319       -13.5055
  62   2.0000      -0.471615       -12.8333
  63   2.0000      -0.466274       -12.6879
  64   2.0000      -0.451067       -12.2742
  65   2.0000      -0.446110       -12.1393
  66   2.0000      -0.435076       -11.8390
  67   2.0000      -0.431533       -11.7426
  68   2.0000      -0.424827       -11.5601
  69   2.0000      -0.410483       -11.1698
  70   2.0000      -0.408234       -11.1086
  71   2.0000      -0.407394       -11.0858
  72   2.0000      -0.393232       -10.7004
  73   2.0000      -0.386331       -10.5126
  74   2.0000      -0.374547       -10.1919
  75   2.0000      -0.368452       -10.0261
  76   2.0000      -0.362677        -9.8689
  77   2.0000      -0.351069        -9.5531
  78   2.0000      -0.347768        -9.4633
  79   2.0000      -0.344100        -9.3634
  80   2.0000      -0.342362        -9.3161
  81   2.0000      -0.338880        -9.2214
  82   2.0000      -0.335762        -9.1365
  83   2.0000      -0.332026        -9.0349
  84   2.0000      -0.328997        -8.9525
  85   2.0000      -0.314294        -8.5524
  86   2.0000      -0.309503        -8.4220
  87   2.0000      -0.296987        -8.0814
  88   2.0000      -0.295127        -8.0308
  89   2.0000      -0.289435        -7.8759
  90   2.0000      -0.286819        -7.8047
  91   2.0000      -0.273218        -7.4346
  92   2.0000      -0.262419        -7.1408
  93   2.0000      -0.260230        -7.0812
  94   2.0000      -0.256221        -6.9721
  95   2.0000      -0.234351        -6.3770
  96   2.0000      -0.221991        -6.0407
  97   2.0000      -0.211107        -5.7445
  98   2.0000      -0.196506        -5.3472
  99   2.0000      -0.189282        -5.1506
 100   2.0000      -0.180140        -4.9019
 101   0.0000      -0.038706        -1.0532
 102   0.0000      -0.031835        -0.8663
 103   0.0000      -0.010701        -0.2912
 104   0.0000       0.013466         0.3664
 105   0.0000       0.017979         0.4892

MULLIKEN ATOMIC CHARGES
-----------------------
   0 C :   -0.312783
   1 C :   -0.006494
   2 O :   -0.383345
   3 P :    0.605487
   4 S :   -0.315273
   5 O :   -0.361705
   6 C :   -0.004688
   7 C :   -0.289890
   8 S :   -0.097255
   9 C :   -0.359073
  10 S :   -0.082569
  11 P :    0.627293
  12 S :   -0.309146
  13 O :   -0.359815
  14 C :   -0.007865
  15 C :   -0.316898
  16 O :   -0.386779
  17 C :   -0.000704
  18 C :   -0.292801
  19 H :    0.126593
  20 H :    0.127753
  21 H :    0.109232
  22 H :    0.107182
  23 H :    0.110341
  24 H :    0.098254
  25 H :    0.106562
  26 H :    0.114107
  27 H :    0.102028
  28 H :    0.127559
  29 H :    0.180893
  30 H :    0.209877
  31 H :    0.108110
  32 H :    0.106276
  33 H :    0.126935
  34 H :    0.106578
  35 H :    0.136553
  36 H :    0.098865
  37 H :    0.105546
  38 H :    0.108607
  39 H :    0.109858
  40 H :    0.126592
Sum of atomic charges:   -0.0000000

LOEWDIN ATOMIC CHARGES
----------------------
   0 C :   -0.371240
   1 C :   -0.112089
   2 O :   -0.252992
   3 P :    0.561364
   4 S :   -0.306361
   5 O :   -0.243015
   6 C :   -0.114812
   7 C :   -0.354615
   8 S :    0.082203
   9 C :   -0.480035
  10 S :    0.082939
  11 P :    0.571726
  12 S :   -0.297613
  13 O :   -0.232514
  14 C :   -0.109960
  15 C :   -0.368018
  16 O :   -0.251596
  17 C :   -0.117127
  18 C :   -0.361230
  19 H :    0.121052
  20 H :    0.129490
  21 H :    0.128856
  22 H :    0.120523
  23 H :    0.109313
  24 H :    0.110356
  25 H :    0.104978
  26 H :    0.126514
  27 H :    0.125412
  28 H :    0.125766
  29 H :    0.136454
  30 H :    0.125661
  31 H :    0.111076
  32 H :    0.116034
  33 H :    0.121165
  34 H :    0.127599
  35 H :    0.132103
  36 H :    0.107636
  37 H :    0.117536
  38 H :    0.129408
  39 H :    0.123231
  40 H :    0.124821

  Mayer bond orders larger than 0.100000
B(  0-C ,  1-C ) :   1.1640 B(  0-C , 19-H ) :   0.9332 B(  0-C , 20-H ) :   0.9408
B(  0-C , 21-H ) :   0.9340 B(  1-C ,  2-O ) :   0.9180 B(  1-C , 22-H ) :   0.9349
B(  1-C , 23-H ) :   0.9309 B(  2-O ,  3-P ) :   1.0972 B(  3-P ,  4-S ) :   1.6407
B(  3-P ,  5-O ) :   1.1300 B(  3-P ,  8-S ) :   0.9538 B(  4-S ,  8-S ) :   0.1134
B(  5-O ,  6-C ) :   0.9030 B(  6-C ,  7-C ) :   1.1643 B(  6-C , 24-H ) :   0.9305
B(  6-C , 25-H ) :   0.9043 B(  7-C , 26-H ) :   0.9486 B(  7-C , 27-H ) :   0.9411
B(  7-C , 28-H ) :   0.9424 B(  8-S ,  9-C ) :   1.0001 B(  9-C , 10-S ) :   1.0026
B(  9-C , 29-H ) :   0.9116 B(  9-C , 30-H ) :   0.8438 B( 10-S , 11-P ) :   0.9727
B( 10-S , 12-S ) :   0.1258 B( 11-P , 12-S ) :   1.5996 B( 11-P , 13-O ) :   1.1237
B( 11-P , 16-O ) :   1.0809 B( 13-O , 14-C ) :   0.9015 B( 14-C , 15-C ) :   1.1699
B( 14-C , 31-H ) :   0.9285 B( 14-C , 32-H ) :   0.9270 B( 15-C , 33-H ) :   0.9349
B( 15-C , 34-H ) :   0.9362 B( 15-C , 35-H ) :   0.9409 B( 16-O , 17-C ) :   0.9010
B( 17-C , 18-C ) :   1.1666 B( 17-C , 36-H ) :   0.9107 B( 17-C , 37-H ) :   0.9350
B( 18-C , 38-H ) :   0.9403 B( 18-C , 39-H ) :   0.9481 B( 18-C , 40-H ) :   0.9350

Dispersion correction           -0.067602490
FINAL SINGLE POINT ENERGY     -2929.515224653148

DIPOLE MOMENT
-------------

Method             : SCF
Type of density    : Electron Density
Multiplicity       :   1
Irrep              :   0
Energy             : -2929.6330290877585867 Eh
Relativity type    :
Basis              : AO
                                X                 Y                 Z
Electronic contribution:      7.558051594     -10.371147437      -7.780775142
Nuclear contribution   :     -7.646980319      10.096761195       8.538142963
                        -----------------------------------------
Total Dipole Moment    :     -0.088928725      -0.274386241       0.757367821
                        -----------------------------------------
Magnitude (a.u.)       :      0.810433306
Magnitude (Debye)      :      2.059957757

Rotational constants in cm-1:             0.012853             0.005333             0.005031
Rotational constants in MHz :           385.308503           159.869238           150.811406

                             ****ORCA TERMINATED NORMALLY****
TOTAL RUN TIME: 0 days 0 hours 0 minutes 21 seconds 529 msec
