                         Program Version 6.0.0  -   RELEASE  -
|  1> ! pbe def2-sv(p) def2/J RI DEFGRID1 loosescf d4 GCP(DFT/SV(P)) printgap
|  2> %output
|  3>     printlevel normal
|  4> end
|  5> * xyz 0 1
|  6> C 1.6632605959 3.2658850325 0.7224935947
|  7> C 2.3136036492 2.0313955017 0.1351405087
|  8> O 2.3095680993 1.0114415733 1.1668464126
|  9> P 2.5763336678 -0.5158985248 0.8958789094
| 10> S 2.5384846686 -1.5436006229 2.5578199399
| 11> O 3.954017148 -0.487855576 0.1036640213
| 12> C 4.7980124019 -1.6456450013 -0.0361165641
| 13> C 4.1324188267 -2.7517382289 -0.8283636172
| 14> S 1.1436638941 -1.0937167036 -0.5799306319
| 15> C -0.2565437874 -1.1472414714 0.5674430603
| 16> S -1.0587438885 0.4624867486 0.7837415834
| 17> P -2.4467653739 0.1940114158 -0.8248282343
| 18> S -1.7248963871 -0.4109038312 -2.5367000026
| 19> O -3.2683040205 1.5515955174 -0.8500174366
| 20> C -2.8834616131 2.6616488725 -1.6839786302
| 21> C -1.5600195186 3.2591312843 -1.2559344672
| 22> O -3.4742105507 -0.8527001257 -0.2374645748
| 23> C -4.2678191702 -0.6256494823 0.9543309363
| 24> C -5.6314357742 -0.0699294787 0.5987829166
| 25> H 0.6568232366 3.0273098033 1.0556919912
| 26> H 2.2375385247 3.6176203339 1.5743297724
| 27> H 1.6216442798 4.0430821982 -0.033404578
| 28> H 3.3498277247 2.2134401414 -0.1551652069
| 29> H 1.761091353 1.6533981214 -0.7307019206
| 30> H 5.682332439 -1.2601837339 -0.545644506
| 31> H 5.0668031725 -1.9977709245 0.9643886126
| 32> H 4.8513962136 -3.5432369493 -1.0137988081
| 33> H 3.295262309 -3.1616157637 -0.2647424156
| 34> H 3.7621196771 -2.3701688682 -1.7770153801
| 35> H 0.1048975474 -1.4719901453 1.5448065128
| 36> H -0.9767738014 -1.8548810118 0.1599767209
| 37> H -2.8315838046 2.3114035194 -2.7192457712
| 38> H -3.7041366386 3.3711050722 -1.5702567555
| 39> H -1.3587710863 4.1481334596 -1.8446283742
| 40> H -1.5875793415 3.5211837393 -0.2014379843
| 41> H -0.7613957174 2.5375756204 -1.4223411384
| 42> H -4.350121443 -1.6112304501 1.4166098082
| 43> H -3.7242045716 0.0515723779 1.618908312
| 44> H -6.1286260689 -0.7290586316 -0.1076561646
| 45> H -6.2292602413 0.0038017345 1.5019342906
| 46> H -5.5337780526 0.915223836 0.1515157912
| 47> *
| 48>
| 49>                          ****END OF INPUT****

CARTESIAN COORDINATES (ANGSTROEM)
---------------------------------
  C      1.663261    3.265885    0.722494
  C      2.313604    2.031396    0.135141
  O      2.309568    1.011442    1.166846
  P      2.576334   -0.515899    0.895879
  S      2.538485   -1.543601    2.557820
  O      3.954017   -0.487856    0.103664
  C      4.798012   -1.645645   -0.036117
  C      4.132419   -2.751738   -0.828364
  S      1.143664   -1.093717   -0.579931
  C     -0.256544   -1.147241    0.567443
  S     -1.058744    0.462487    0.783742
  P     -2.446765    0.194011   -0.824828
  S     -1.724896   -0.410904   -2.536700
  O     -3.268304    1.551596   -0.850017
  C     -2.883462    2.661649   -1.683979
  C     -1.560020    3.259131   -1.255934
  O     -3.474211   -0.852700   -0.237465
  C     -4.267819   -0.625649    0.954331
  C     -5.631436   -0.069929    0.598783
  H      0.656823    3.027310    1.055692
  H      2.237539    3.617620    1.574330
  H      1.621644    4.043082   -0.033405
  H      3.349828    2.213440   -0.155165
  H      1.761091    1.653398   -0.730702
  H      5.682332   -1.260184   -0.545645
  H      5.066803   -1.997771    0.964389
  H      4.851396   -3.543237   -1.013799
  H      3.295262   -3.161616   -0.264742
  H      3.762120   -2.370169   -1.777015
  H      0.104898   -1.471990    1.544807
  H     -0.976774   -1.854881    0.159977
  H     -2.831584    2.311404   -2.719246
  H     -3.704137    3.371105   -1.570257
  H     -1.358771    4.148133   -1.844628
  H     -1.587579    3.521184   -0.201438
  H     -0.761396    2.537576   -1.422341
  H     -4.350121   -1.611230    1.416610
  H     -3.724205    0.051572    1.618908
  H     -6.128626   -0.729059   -0.107656
  H     -6.229260    0.003802    1.501934
  H     -5.533778    0.915224    0.151516

 Total Charge           Charge          ....    0
 Multiplicity           Mult            ....    1
 Number of Electrons    NEL             ....  202
 Basis Dimension        Dim             ....  334

ORBITAL ENERGIES
----------------

  NO   OCC          E(Eh)            E(eV)
   0   2.0000     -88.044593     -2395.8152
   1   2.0000     -88.038848     -2395.6588
   2   2.0000     -87.989354     -2394.3120
   3   2.0000     -87.982519     -2394.1261
   4   2.0000     -76.430838     -2079.7888
   5   2.0000     -76.422601     -2079.5647
   6   2.0000     -18.802483      -511.6416
   7   2.0000     -18.796718      -511.4847
   8   2.0000     -18.793930      -511.4088
   9   2.0000     -18.789510      -511.2886
  10   2.0000      -9.961247      -271.0593
  11   2.0000      -9.958847      -270.9940
  12   2.0000      -9.953847      -270.8580
  13   2.0000      -9.953751      -270.8553
  14   2.0000      -9.952229      -270.8139
  15   2.0000      -9.892856      -269.1983
  16   2.0000      -9.888993      -269.0932
  17   2.0000      -9.885764      -269.0053
  18   2.0000      -9.883483      -268.9432
  19   2.0000      -7.689209      -209.2340
  20   2.0000      -7.683345      -209.0744
  21   2.0000      -7.634528      -207.7461
  22   2.0000      -7.627857      -207.5646
  23   2.0000      -6.428327      -174.9237
  24   2.0000      -6.420430      -174.7088
  25   2.0000      -5.716821      -155.5626
  26   2.0000      -5.713829      -155.4812
  27   2.0000      -5.711027      -155.4049
  28   2.0000      -5.708031      -155.3234
  29   2.0000      -5.706391      -155.2788
  30   2.0000      -5.700427      -155.1165
  31   2.0000      -5.663537      -154.1127
  32   2.0000      -5.656783      -153.9289
  33   2.0000      -5.655137      -153.8841
  34   2.0000      -5.654625      -153.8702
  35   2.0000      -5.648564      -153.7052
  36   2.0000      -5.647884      -153.6867
  37   2.0000      -4.651394      -126.5709
  38   2.0000      -4.650032      -126.5338
  39   2.0000      -4.648381      -126.4889
  40   2.0000      -4.643428      -126.3541
  41   2.0000      -4.641995      -126.3151
  42   2.0000      -4.640629      -126.2779
  43   2.0000      -0.994817       -27.0704
  44   2.0000      -0.987227       -26.8638
  45   2.0000      -0.952548       -25.9202
  46   2.0000      -0.944480       -25.7006
  47   2.0000      -0.763109       -20.7653
  48   2.0000      -0.723611       -19.6904
  49   2.0000      -0.713486       -19.4149
  50   2.0000      -0.697329       -18.9753
  51   2.0000      -0.688881       -18.7454
  52   2.0000      -0.676645       -18.4125
  53   2.0000      -0.652325       -17.7507
  54   2.0000      -0.637915       -17.3586
  55   2.0000      -0.601150       -16.3581
  56   2.0000      -0.591632       -16.0991
  57   2.0000      -0.580245       -15.7893
  58   2.0000      -0.570270       -15.5178
  59   2.0000      -0.558492       -15.1974
  60   2.0000      -0.507440       -13.8081
  61   2.0000      -0.503286       -13.6951
  62   2.0000      -0.481957       -13.1147
  63   2.0000      -0.473949       -12.8968
  64   2.0000      -0.461632       -12.5616
  65   2.0000      -0.454224       -12.3601
  66   2.0000      -0.440034       -11.9739
  67   2.0000      -0.434599       -11.8260
  68   2.0000      -0.433274       -11.7900
  69   2.0000      -0.429263       -11.6808
  70   2.0000      -0.415203       -11.2982
  71   2.0000      -0.398766       -10.8510
  72   2.0000      -0.390684       -10.6310
  73   2.0000      -0.387170       -10.5354
  74   2.0000      -0.376419       -10.2429
  75   2.0000      -0.373500       -10.1635
  76   2.0000      -0.365698        -9.9511
  77   2.0000      -0.361659        -9.8413
  78   2.0000      -0.358519        -9.7558
  79   2.0000      -0.357057        -9.7160
  80   2.0000      -0.352834        -9.6011
  81   2.0000      -0.351552        -9.5662
  82   2.0000      -0.345551        -9.4029
  83   2.0000      -0.337380        -9.1806
  84   2.0000      -0.334794        -9.1102
  85   2.0000      -0.322345        -8.7715
  86   2.0000      -0.313685        -8.5358
  87   2.0000      -0.303794        -8.2667
  88   2.0000      -0.300242        -8.1700
  89   2.0000      -0.298141        -8.1128
  90   2.0000      -0.293871        -7.9966
  91   2.0000      -0.275953        -7.5090
  92   2.0000      -0.270588        -7.3631
  93   2.0000      -0.263531        -7.1711
  94   2.0000      -0.260327        -7.0838
  95   2.0000      -0.239736        -6.5235
  96   2.0000      -0.219940        -5.9849
  97   2.0000      -0.212313        -5.7773
  98   2.0000      -0.204717        -5.5706
  99   2.0000      -0.201069        -5.4714
 100   2.0000      -0.193572        -5.2674
 101   0.0000      -0.040897        -1.1129
 102   0.0000      -0.028067        -0.7637
 103   0.0000      -0.008521        -0.2319
 104   0.0000       0.006136         0.1670
 105   0.0000       0.013571         0.3693

MULLIKEN ATOMIC CHARGES
-----------------------
   0 C :   -0.287945
   1 C :   -0.025031
   2 O :   -0.360014
   3 P :    0.593609
   4 S :   -0.318165
   5 O :   -0.386021
   6 C :    0.001712
   7 C :   -0.325804
   8 S :   -0.065299
   9 C :   -0.362402
  10 S :   -0.083170
  11 P :    0.580284
  12 S :   -0.306405
  13 O :   -0.380345
  14 C :    0.007059
  15 C :   -0.352483
  16 O :   -0.359042
  17 C :   -0.011208
  18 C :   -0.292104
  19 H :    0.130682
  20 H :    0.118416
  21 H :    0.108087
  22 H :    0.106323
  23 H :    0.119669
  24 H :    0.105243
  25 H :    0.113270
  26 H :    0.115171
  27 H :    0.132481
  28 H :    0.121895
  29 H :    0.188425
  30 H :    0.193101
  31 H :    0.116261
  32 H :    0.107103
  33 H :    0.116715
  34 H :    0.125043
  35 H :    0.147250
  36 H :    0.110462
  37 H :    0.102670
  38 H :    0.120949
  39 H :    0.111313
  40 H :    0.122246
Sum of atomic charges:    0.0000000

LOEWDIN ATOMIC CHARGES
----------------------
   0 C :   -0.352956
   1 C :   -0.117352
   2 O :   -0.237947
   3 P :    0.568920
   4 S :   -0.320438
   5 O :   -0.248701
   6 C :   -0.114789
   7 C :   -0.372378
   8 S :    0.091599
   9 C :   -0.486270
  10 S :    0.076452
  11 P :    0.570043
  12 S :   -0.309983
  13 O :   -0.245194
  14 C :   -0.114810
  15 C :   -0.372883
  16 O :   -0.240094
  17 C :   -0.116314
  18 C :   -0.359577
  19 H :    0.124154
  20 H :    0.128519
  21 H :    0.128091
  22 H :    0.114356
  23 H :    0.104774
  24 H :    0.118860
  25 H :    0.114099
  26 H :    0.132319
  27 H :    0.123483
  28 H :    0.124741
  29 H :    0.127352
  30 H :    0.134744
  31 H :    0.114836
  32 H :    0.119590
  33 H :    0.133293
  34 H :    0.124689
  35 H :    0.123633
  36 H :    0.121447
  37 H :    0.104120
  38 H :    0.129230
  39 H :    0.130426
  40 H :    0.125916

  Mayer bond orders larger than 0.100000
B(  0-C ,  1-C ) :   1.1674 B(  0-C , 19-H ) :   0.9395 B(  0-C , 20-H ) :   0.9474
B(  0-C , 21-H ) :   0.9399 B(  1-C ,  2-O ) :   0.8873 B(  1-C , 22-H ) :   0.9277
B(  1-C , 23-H ) :   0.9055 B(  2-O ,  3-P ) :   1.1407 B(  3-P ,  4-S ) :   1.6255
B(  3-P ,  5-O ) :   1.0922 B(  3-P ,  8-S ) :   0.9524 B(  4-S ,  8-S ) :   0.1066
B(  4-S , 29-H ) :   0.1050 B(  5-O ,  6-C ) :   0.9058 B(  6-C ,  7-C ) :   1.1655
B(  6-C , 24-H ) :   0.9343 B(  6-C , 25-H ) :   0.9205 B(  7-C , 26-H ) :   0.9367
B(  7-C , 27-H ) :   0.9334 B(  7-C , 28-H ) :   0.9430 B(  8-S ,  9-C ) :   1.0084
B(  9-C , 10-S ) :   0.9818 B(  9-C , 29-H ) :   0.8587 B(  9-C , 30-H ) :   0.8900
B( 10-S , 11-P ) :   0.9569 B( 10-S , 12-S ) :   0.1113 B( 11-P , 12-S ) :   1.6450
B( 11-P , 13-O ) :   1.0855 B( 11-P , 16-O ) :   1.1211 B( 13-O , 14-C ) :   0.9015
B( 14-C , 15-C ) :   1.1638 B( 14-C , 31-H ) :   0.9174 B( 14-C , 32-H ) :   0.9327
B( 15-C , 33-H ) :   0.9359 B( 15-C , 34-H ) :   0.9397 B( 15-C , 35-H ) :   0.9271
B( 16-O , 17-C ) :   0.8929 B( 17-C , 18-C ) :   1.1654 B( 17-C , 36-H ) :   0.9359
B( 17-C , 37-H ) :   0.9100 B( 18-C , 38-H ) :   0.9469 B( 18-C , 39-H ) :   0.9395
B( 18-C , 40-H ) :   0.9425

Dispersion correction           -0.063833701
FINAL SINGLE POINT ENERGY     -2929.520398945667

DIPOLE MOMENT
-------------

Method             : SCF
Type of density    : Electron Density
Multiplicity       :   1
Irrep              :   0
Energy             : -2929.6415013517566877 Eh
Relativity type    :
Basis              : AO
                                X                 Y                 Z
Electronic contribution:      4.174844737     -11.793404916       2.025664903
Nuclear contribution   :     -4.648807916      12.965868821      -2.316905425
                        -----------------------------------------
Total Dipole Moment    :     -0.473963179       1.172463905      -0.291240522
                        -----------------------------------------
Magnitude (a.u.)       :      1.297741787
Magnitude (Debye)      :      3.298597478

Rotational constants in cm-1:             0.012802             0.004396             0.004142
Rotational constants in MHz :           383.798287           131.803285           124.167628

                             ****ORCA TERMINATED NORMALLY****
TOTAL RUN TIME: 0 days 0 hours 0 minutes 20 seconds 834 msec
