                         Program Version 6.0.0  -   RELEASE  -
|  1> ! pbe def2-sv(p) def2/J RI DEFGRID1 loosescf d4 GCP(DFT/SV(P)) printgap
|  2> %output
|  3>     printlevel normal
|  4> end
|  5> * xyz 0 1
|  6> C 4.3676344532 2.1544679479 -0.8946663962
|  7> C 4.6332121643 0.6683273905 -0.7681835013
|  8> O 3.4293313076 -0.1104888653 -0.8955611958
|  9> P 2.2792729496 -0.0790567562 0.1981040641
| 10> S 2.8976312067 0.0150625415 2.058645065
| 11> O 1.417709869 -1.3490107672 -0.1890714464
| 12> C 1.6268699467 -2.6463387631 0.3991442223
| 13> C 2.9605225736 -3.2392567527 -0.0019131665
| 14> S 0.9713071133 1.4373137321 -0.4595263302
| 15> C 0.0538531606 1.6031639983 1.0950743133
| 16> S -0.8946107544 0.1184249946 1.5462712609
| 17> P -2.0399275943 -0.1539718209 -0.2225048403
| 18> S -1.3539326013 -1.1332228133 -1.7657108011
| 19> O -2.4414398207 1.3714025631 -0.4806207461
| 20> C -2.7786588823 1.8483214305 -1.7981480264
| 21> C -4.1652520405 1.3928244541 -2.2039560522
| 22> O -3.319983701 -0.9050045899 0.3357993018
| 23> C -4.1538782782 -0.3660322164 1.3930982719
| 24> C -5.5764225827 -0.8260266582 1.1473258242
| 25> H 3.7814070561 2.5014510693 -0.0446295291
| 26> H 5.3128270476 2.6875109271 -0.9121920258
| 27> H 3.8167303851 2.3632289016 -1.8084264171
| 28> H 5.0893649868 0.4409699055 0.2007707614
| 29> H 5.2683980984 0.3003760236 -1.5749273693
| 30> H 1.553374383 -2.5463496483 1.4875811743
| 31> H 0.7883582841 -3.2365392677 0.0243848218
| 32> H 3.7708725559 -2.6438021757 0.4177263383
| 33> H 3.0319956738 -4.2533099599 0.3786567678
| 34> H 3.0531483739 -3.2491635189 -1.0849630775
| 35> H -0.6197007003 2.4471885721 0.9767734479
| 36> H 0.7526499752 1.7615208478 1.9172413672
| 37> H -2.7113182066 2.9338049596 -1.7154902484
| 38> H -2.0280757403 1.4815634582 -2.5050680541
| 39> H -4.4035354245 1.7921748154 -3.1846201755
| 40> H -4.1921504539 0.3041784516 -2.2494569291
| 41> H -4.9039345573 1.7386089857 -1.4853400987
| 42> H -3.7673830009 -0.7483287861 2.3404698314
| 43> H -4.077230114 0.7239930558 1.3846716995
| 44> H -5.6134380779 -1.9110685626 1.1139687461
| 45> H -6.2097823044 -0.468909373 1.9529861945
| 46> H -5.942337264 -0.4366175697 0.2012600073
| 47> *
| 48>
| 49>                          ****END OF INPUT****

CARTESIAN COORDINATES (ANGSTROEM)
---------------------------------
  C      4.367634    2.154468   -0.894666
  C      4.633212    0.668327   -0.768184
  O      3.429331   -0.110489   -0.895561
  P      2.279273   -0.079057    0.198104
  S      2.897631    0.015063    2.058645
  O      1.417710   -1.349011   -0.189071
  C      1.626870   -2.646339    0.399144
  C      2.960523   -3.239257   -0.001913
  S      0.971307    1.437314   -0.459526
  C      0.053853    1.603164    1.095074
  S     -0.894611    0.118425    1.546271
  P     -2.039928   -0.153972   -0.222505
  S     -1.353933   -1.133223   -1.765711
  O     -2.441440    1.371403   -0.480621
  C     -2.778659    1.848321   -1.798148
  C     -4.165252    1.392824   -2.203956
  O     -3.319984   -0.905005    0.335799
  C     -4.153878   -0.366032    1.393098
  C     -5.576423   -0.826027    1.147326
  H      3.781407    2.501451   -0.044630
  H      5.312827    2.687511   -0.912192
  H      3.816730    2.363229   -1.808426
  H      5.089365    0.440970    0.200771
  H      5.268398    0.300376   -1.574927
  H      1.553374   -2.546350    1.487581
  H      0.788358   -3.236539    0.024385
  H      3.770873   -2.643802    0.417726
  H      3.031996   -4.253310    0.378657
  H      3.053148   -3.249164   -1.084963
  H     -0.619701    2.447189    0.976773
  H      0.752650    1.761521    1.917241
  H     -2.711318    2.933805   -1.715490
  H     -2.028076    1.481563   -2.505068
  H     -4.403535    1.792175   -3.184620
  H     -4.192150    0.304178   -2.249457
  H     -4.903935    1.738609   -1.485340
  H     -3.767383   -0.748329    2.340470
  H     -4.077230    0.723993    1.384672
  H     -5.613438   -1.911069    1.113969
  H     -6.209782   -0.468909    1.952986
  H     -5.942337   -0.436618    0.201260

 Total Charge           Charge          ....    0
 Multiplicity           Mult            ....    1
 Number of Electrons    NEL             ....  202
 Basis Dimension        Dim             ....  334

ORBITAL ENERGIES
----------------

  NO   OCC          E(Eh)            E(eV)
   0   2.0000     -88.041149     -2395.7215
   1   2.0000     -88.038029     -2395.6366
   2   2.0000     -87.986538     -2394.2354
   3   2.0000     -87.976906     -2393.9733
   4   2.0000     -76.423264     -2079.5827
   5   2.0000     -76.421174     -2079.5259
   6   2.0000     -18.795266      -511.4452
   7   2.0000     -18.791620      -511.3460
   8   2.0000     -18.790226      -511.3080
   9   2.0000     -18.779351      -511.0121
  10   2.0000      -9.955778      -270.9105
  11   2.0000      -9.955430      -270.9010
  12   2.0000      -9.952444      -270.8198
  13   2.0000      -9.951493      -270.7939
  14   2.0000      -9.939980      -270.4806
  15   2.0000      -9.890825      -269.1430
  16   2.0000      -9.887053      -269.0404
  17   2.0000      -9.883588      -268.9461
  18   2.0000      -9.875929      -268.7377
  19   2.0000      -7.686306      -209.1550
  20   2.0000      -7.683048      -209.0664
  21   2.0000      -7.631489      -207.6634
  22   2.0000      -7.622255      -207.4121
  23   2.0000      -6.420793      -174.7187
  24   2.0000      -6.418817      -174.6649
  25   2.0000      -5.714127      -155.4893
  26   2.0000      -5.711138      -155.4080
  27   2.0000      -5.710976      -155.4036
  28   2.0000      -5.707468      -155.3081
  29   2.0000      -5.703097      -155.1891
  30   2.0000      -5.699891      -155.1019
  31   2.0000      -5.660222      -154.0225
  32   2.0000      -5.652266      -153.8060
  33   2.0000      -5.651709      -153.7908
  34   2.0000      -5.651359      -153.7813
  35   2.0000      -5.642714      -153.5461
  36   2.0000      -5.642333      -153.5357
  37   2.0000      -4.643130      -126.3460
  38   2.0000      -4.642495      -126.3287
  39   2.0000      -4.641986      -126.3149
  40   2.0000      -4.641544      -126.3028
  41   2.0000      -4.640344      -126.2702
  42   2.0000      -4.638955      -126.2324
  43   2.0000      -0.984644       -26.7935
  44   2.0000      -0.982099       -26.7243
  45   2.0000      -0.945172       -25.7194
  46   2.0000      -0.940120       -25.5820
  47   2.0000      -0.762498       -20.7486
  48   2.0000      -0.720073       -19.5942
  49   2.0000      -0.706188       -19.2164
  50   2.0000      -0.692673       -18.8486
  51   2.0000      -0.682657       -18.5761
  52   2.0000      -0.668920       -18.2022
  53   2.0000      -0.648242       -17.6396
  54   2.0000      -0.637501       -17.3473
  55   2.0000      -0.598774       -16.2935
  56   2.0000      -0.587388       -15.9836
  57   2.0000      -0.571707       -15.5569
  58   2.0000      -0.567628       -15.4459
  59   2.0000      -0.561202       -15.2711
  60   2.0000      -0.504338       -13.7237
  61   2.0000      -0.488114       -13.2823
  62   2.0000      -0.481887       -13.1128
  63   2.0000      -0.468219       -12.7409
  64   2.0000      -0.455328       -12.3901
  65   2.0000      -0.442600       -12.0438
  66   2.0000      -0.439873       -11.9696
  67   2.0000      -0.435709       -11.8563
  68   2.0000      -0.422701       -11.5023
  69   2.0000      -0.409046       -11.1307
  70   2.0000      -0.403351       -10.9757
  71   2.0000      -0.396411       -10.7869
  72   2.0000      -0.392016       -10.6673
  73   2.0000      -0.386452       -10.5159
  74   2.0000      -0.382174       -10.3995
  75   2.0000      -0.375360       -10.2141
  76   2.0000      -0.364707        -9.9242
  77   2.0000      -0.358248        -9.7484
  78   2.0000      -0.355634        -9.6773
  79   2.0000      -0.348125        -9.4730
  80   2.0000      -0.346974        -9.4416
  81   2.0000      -0.343795        -9.3551
  82   2.0000      -0.343368        -9.3435
  83   2.0000      -0.337069        -9.1721
  84   2.0000      -0.330125        -8.9832
  85   2.0000      -0.318820        -8.6755
  86   2.0000      -0.310215        -8.4414
  87   2.0000      -0.306776        -8.3478
  88   2.0000      -0.293459        -7.9854
  89   2.0000      -0.281418        -7.6578
  90   2.0000      -0.276987        -7.5372
  91   2.0000      -0.269322        -7.3286
  92   2.0000      -0.266780        -7.2594
  93   2.0000      -0.265843        -7.2339
  94   2.0000      -0.261700        -7.1212
  95   2.0000      -0.233168        -6.3448
  96   2.0000      -0.216204        -5.8832
  97   2.0000      -0.207699        -5.6518
  98   2.0000      -0.203509        -5.5378
  99   2.0000      -0.193033        -5.2527
 100   2.0000      -0.188021        -5.1163
 101   0.0000      -0.045708        -1.2438
 102   0.0000      -0.019510        -0.5309
 103   0.0000      -0.009260        -0.2520
 104   0.0000       0.006707         0.1825
 105   0.0000       0.022663         0.6167

MULLIKEN ATOMIC CHARGES
-----------------------
   0 C :   -0.314781
   1 C :   -0.004342
   2 O :   -0.368191
   3 P :    0.621300
   4 S :   -0.343421
   5 O :   -0.343000
   6 C :    0.003027
   7 C :   -0.309920
   8 S :   -0.080636
   9 C :   -0.345444
  10 S :   -0.098771
  11 P :    0.614960
  12 S :   -0.290252
  13 O :   -0.395906
  14 C :   -0.009494
  15 C :   -0.317076
  16 O :   -0.370677
  17 C :   -0.023691
  18 C :   -0.282270
  19 H :    0.124467
  20 H :    0.112913
  21 H :    0.119089
  22 H :    0.111113
  23 H :    0.106693
  24 H :    0.107741
  25 H :    0.107467
  26 H :    0.117408
  27 H :    0.109662
  28 H :    0.118985
  29 H :    0.183907
  30 H :    0.190065
  31 H :    0.100580
  32 H :    0.118392
  33 H :    0.114493
  34 H :    0.133043
  35 H :    0.113060
  36 H :    0.112331
  37 H :    0.105218
  38 H :    0.123387
  39 H :    0.110845
  40 H :    0.117727
Sum of atomic charges:   -0.0000000

LOEWDIN ATOMIC CHARGES
----------------------
   0 C :   -0.369577
   1 C :   -0.118728
   2 O :   -0.240527
   3 P :    0.576468
   4 S :   -0.329173
   5 O :   -0.226529
   6 C :   -0.116444
   7 C :   -0.365220
   8 S :    0.096693
   9 C :   -0.476779
  10 S :    0.077130
  11 P :    0.561780
  12 S :   -0.294329
  13 O :   -0.255382
  14 C :   -0.122334
  15 C :   -0.365841
  16 O :   -0.247519
  17 C :   -0.121641
  18 C :   -0.350936
  19 H :    0.120196
  20 H :    0.130998
  21 H :    0.124863
  22 H :    0.110488
  23 H :    0.119477
  24 H :    0.108984
  25 H :    0.119444
  26 H :    0.119586
  27 H :    0.129112
  28 H :    0.127248
  29 H :    0.132173
  30 H :    0.129443
  31 H :    0.115423
  32 H :    0.112329
  33 H :    0.132168
  34 H :    0.126573
  35 H :    0.121306
  36 H :    0.114452
  37 H :    0.107399
  38 H :    0.130939
  39 H :    0.130082
  40 H :    0.126207

  Mayer bond orders larger than 0.100000
B(  0-C ,  1-C ) :   1.1663 B(  0-C , 19-H ) :   0.9351 B(  0-C , 20-H ) :   0.9379
B(  0-C , 21-H ) :   0.9446 B(  1-C ,  2-O ) :   0.9078 B(  1-C , 22-H ) :   0.9158
B(  1-C , 23-H ) :   0.9338 B(  2-O ,  3-P ) :   1.1131 B(  3-P ,  4-S ) :   1.5811
B(  3-P ,  5-O ) :   1.1499 B(  3-P ,  8-S ) :   0.9511 B(  4-S ,  8-S ) :   0.1092
B(  5-O ,  6-C ) :   0.9063 B(  6-C ,  7-C ) :   1.1633 B(  6-C , 24-H ) :   0.9198
B(  6-C , 25-H ) :   0.9288 B(  7-C , 26-H ) :   0.9374 B(  7-C , 27-H ) :   0.9400
B(  7-C , 28-H ) :   0.9457 B(  8-S ,  9-C ) :   1.0128 B(  9-C , 10-S ) :   0.9983
B(  9-C , 29-H ) :   0.9033 B(  9-C , 30-H ) :   0.8815 B( 10-S , 11-P ) :   0.9552
B( 10-S , 12-S ) :   0.1048 B( 11-P , 12-S ) :   1.6714 B( 11-P , 13-O ) :   1.0514
B( 11-P , 16-O ) :   1.1166 B( 13-O , 14-C ) :   0.9029 B( 14-C , 15-C ) :   1.1633
B( 14-C , 31-H ) :   0.9335 B( 14-C , 32-H ) :   0.9100 B( 15-C , 33-H ) :   0.9388
B( 15-C , 34-H ) :   0.9330 B( 15-C , 35-H ) :   0.9444 B( 16-O , 17-C ) :   0.8961
B( 17-C , 18-C ) :   1.1621 B( 17-C , 36-H ) :   0.9310 B( 17-C , 37-H ) :   0.9165
B( 18-C , 38-H ) :   0.9485 B( 18-C , 39-H ) :   0.9410 B( 18-C , 40-H ) :   0.9484

Dispersion correction           -0.066339536
FINAL SINGLE POINT ENERGY     -2929.520674736513

DIPOLE MOMENT
-------------

Method             : SCF
Type of density    : Electron Density
Multiplicity       :   1
Irrep              :   0
Energy             : -2929.6386602693351051 Eh
Relativity type    :
Basis              : AO
                                X                 Y                 Z
Electronic contribution:      7.346533562      -1.142375036       3.924807591
Nuclear contribution   :     -8.013995633       2.040745397      -3.947228461
                        -----------------------------------------
Total Dipole Moment    :     -0.667462071       0.898370361      -0.022420870
                        -----------------------------------------
Magnitude (a.u.)       :      1.119409495
Magnitude (Debye)      :      2.845312815

Rotational constants in cm-1:             0.013815             0.004768             0.004485
Rotational constants in MHz :           414.174754           142.940190           134.471424

                             ****ORCA TERMINATED NORMALLY****
TOTAL RUN TIME: 0 days 0 hours 0 minutes 20 seconds 794 msec
