                         Program Version 6.0.0  -   RELEASE  -
|  1> ! wb97x-v def2-tzvp def2/J RIJCOSX DEFGRID2 scfconv7 GCP(DFT/TZ) printgap
|  2> %output
|  3>     printlevel normal
|  4> end
|  5> * xyz 0 1
|  6> C -1.4436616496971013 0.008662660101290598 -0.0005751226504299361
|  7> C 0.04684693439468757 -0.09593918469811405 -0.00042292521648679273
|  8> O 0.6793503888585094 -1.135158088248403 0.0005069419750800702
|  9> O 0.7325892921073418 1.076714414611948 0.00037587226799222826
| 10> H -1.77393258376253 0.5673062995172441 -0.882549362155796
| 11> H -1.888956410929802 -0.9851246903512128 -0.0024464438970488115
| 12> H -1.7742633977677598 0.5638996037558305 0.8834675637330006
| 13> H 0.118053118774506 1.827682603516515 -0.00014710851045288354
| 14> *
| 15>
| 16>                          ****END OF INPUT****

CARTESIAN COORDINATES (ANGSTROEM)
---------------------------------
  C     -1.443662    0.008663   -0.000575
  C      0.046847   -0.095939   -0.000423
  O      0.679350   -1.135158    0.000507
  O      0.732589    1.076714    0.000376
  H     -1.773933    0.567306   -0.882549
  H     -1.888956   -0.985125   -0.002446
  H     -1.774263    0.563900    0.883468
  H      0.118053    1.827683   -0.000147

 Total Charge           Charge          ....    0
 Multiplicity           Mult            ....    1
 Number of Electrons    NEL             ....   32
 Basis Dimension        Dim             ....  148

ORBITAL ENERGIES
----------------

  NO   OCC          E(Eh)            E(eV)
   0   2.0000     -21.727199      -591.2272
   1   2.0000     -21.658003      -589.3442
   2   2.0000     -12.188751      -331.6728
   3   2.0000     -12.076868      -328.6283
   4   2.0000      -1.763691       -47.9925
   5   2.0000      -1.697540       -46.1924
   6   2.0000      -1.287446       -35.0332
   7   2.0000      -1.196543       -32.5596
   8   2.0000      -1.067154       -29.0387
   9   2.0000      -1.045319       -28.4446
  10   2.0000      -0.981918       -26.7194
  11   2.0000      -0.955208       -25.9925
  12   2.0000      -0.899690       -24.4818
  13   2.0000      -0.867193       -23.5975
  14   2.0000      -0.853849       -23.2344
  15   2.0000      -0.850810       -23.1517
  16   0.0000      -0.311023        -8.4634
  17   0.0000      -0.135346        -3.6830
  18   0.0000      -0.087335        -2.3765
  19   0.0000      -0.030549        -0.8313
  20   0.0000       0.013030         0.3546

MULLIKEN ATOMIC CHARGES
-----------------------
   0 C :   -0.379145
   1 C :    0.298727
   2 O :   -0.317716
   3 O :   -0.342653
   4 H :    0.139010
   5 H :    0.146256
   6 H :    0.139209
   7 H :    0.316310
Sum of atomic charges:    0.0000000

LOEWDIN ATOMIC CHARGES
----------------------
   0 C :   -0.272019
   1 C :   -0.513723
   2 O :    0.095973
   3 O :    0.091747
   4 H :    0.134749
   5 H :    0.139260
   6 H :    0.134856
   7 H :    0.189157

  Mayer bond orders larger than 0.100000
B(  0-C ,  1-C ) :   0.9888 B(  0-C ,  4-H ) :   0.9532 B(  0-C ,  5-H ) :   0.9671
B(  0-C ,  6-H ) :   0.9531 B(  1-C ,  2-O ) :   2.1342 B(  1-C ,  3-O ) :   1.1879
B(  3-O ,  7-H ) :   0.8837

FINAL SINGLE POINT ENERGY      -229.096073398566

DIPOLE MOMENT
-------------

Method             : SCF
Type of density    : Electron Density
Multiplicity       :   1
Irrep              :   0
Energy             :  -229.1010799246660099 Eh
Relativity type    :
Basis              : AO
                                X                 Y                 Z
Electronic contribution:      3.590964847      -0.685320408       0.000615241
Nuclear contribution   :     -4.997766701       1.850481605      -0.001586925
                        -----------------------------------------
Total Dipole Moment    :     -1.406801854       1.165161197      -0.000971684
                        -----------------------------------------
Magnitude (a.u.)       :      1.826661714
Magnitude (Debye)      :      4.643005090

Rotational constants in cm-1:             0.367795             0.320749             0.176987
Rotational constants in MHz :         11026.222988          9615.800912          5305.947705

                             ****ORCA TERMINATED NORMALLY****
TOTAL RUN TIME: 0 days 0 hours 0 minutes 44 seconds 873 msec
