                         Program Version 6.0.0  -   RELEASE  -
|  1> ! wb97x-v def2-tzvp def2/J RIJCOSX DEFGRID2 scfconv7 GCP(DFT/TZ) printgap
|  2> %output
|  3>     printlevel normal
|  4> end
|  5> %cpcm
|  6>     smd true
|  7>     smdsolvent "water"
|  8> end
|  9> * xyz 0 1
| 10> C -1.4436616496971013 0.008662660101290598 -0.0005751226504299361
| 11> C 0.04684693439468757 -0.09593918469811405 -0.00042292521648679273
| 12> O 0.6793503888585094 -1.135158088248403 0.0005069419750800702
| 13> O 0.7325892921073418 1.076714414611948 0.00037587226799222826
| 14> H -1.77393258376253 0.5673062995172441 -0.882549362155796
| 15> H -1.888956410929802 -0.9851246903512128 -0.0024464438970488115
| 16> H -1.7742633977677598 0.5638996037558305 0.8834675637330006
| 17> H 0.118053118774506 1.827682603516515 -0.00014710851045288354
| 18> *
| 19>
| 20>                          ****END OF INPUT****

CARTESIAN COORDINATES (ANGSTROEM)
---------------------------------
  C     -1.443662    0.008663   -0.000575
  C      0.046847   -0.095939   -0.000423
  O      0.679350   -1.135158    0.000507
  O      0.732589    1.076714    0.000376
  H     -1.773933    0.567306   -0.882549
  H     -1.888956   -0.985125   -0.002446
  H     -1.774263    0.563900    0.883468
  H      0.118053    1.827683   -0.000147

 Total Charge           Charge          ....    0
 Multiplicity           Mult            ....    1
 Number of Electrons    NEL             ....   32
 Basis Dimension        Dim             ....  148

ORBITAL ENERGIES
----------------

  NO   OCC          E(Eh)            E(eV)
   0   2.0000     -21.721291      -591.0664
   1   2.0000     -21.669474      -589.6564
   2   2.0000     -12.194098      -331.8183
   3   2.0000     -12.051258      -327.9314
   4   2.0000      -1.764282       -48.0085
   5   2.0000      -1.705409       -46.4065
   6   2.0000      -1.271434       -34.5975
   7   2.0000      -1.190455       -32.3939
   8   2.0000      -1.081218       -29.4214
   9   2.0000      -1.039337       -28.2818
  10   2.0000      -0.980219       -26.6731
  11   2.0000      -0.956703       -26.0332
  12   2.0000      -0.909416       -24.7465
  13   2.0000      -0.859423       -23.3861
  14   2.0000      -0.836193       -22.7540
  15   2.0000      -0.832077       -22.6420
  16   0.0000      -0.308082        -8.3833
  17   0.0000      -0.126205        -3.4342
  18   0.0000      -0.044258        -1.2043
  19   0.0000      -0.011396        -0.3101
  20   0.0000       0.038042         1.0352

MULLIKEN ATOMIC CHARGES
-----------------------
   0 C :   -0.384114
   1 C :    0.365217
   2 O :   -0.457221
   3 O :   -0.409164
   4 H :    0.171469
   5 H :    0.149784
   6 H :    0.171573
   7 H :    0.392456
Sum of atomic charges:    0.0000000

LOEWDIN ATOMIC CHARGES
----------------------
   0 C :   -0.256758
   1 C :   -0.494725
   2 O :    0.009592
   3 O :    0.078838
   4 H :    0.150118
   5 H :    0.139334
   6 H :    0.150196
   7 H :    0.223405

  Mayer bond orders larger than 0.100000
B(  0-C ,  1-C ) :   1.0131 B(  0-C ,  4-H ) :   0.9377 B(  0-C ,  5-H ) :   0.9629
B(  0-C ,  6-H ) :   0.9376 B(  1-C ,  2-O ) :   2.0012 B(  1-C ,  3-O ) :   1.2159
B(  3-O ,  7-H ) :   0.8354

FINAL SINGLE POINT ENERGY      -229.114214748944

DIPOLE MOMENT
-------------

Method             : SCF
Type of density    : Electron Density
Multiplicity       :   1
Irrep              :   0
Energy             :  -229.1192212750435715 Eh
Relativity type    :
Basis              : AO
                                X                 Y                 Z
Electronic contribution:      3.136665901      -0.180143815       0.000248836
Nuclear contribution   :     -4.997766701       1.850481605      -0.001586925
                        -----------------------------------------
Total Dipole Moment    :     -1.861100800       1.670337790      -0.001338089
                        -----------------------------------------
Magnitude (a.u.)       :      2.500745151
Magnitude (Debye)      :      6.356389024

Rotational constants in cm-1:             0.367795             0.320749             0.176987
Rotational constants in MHz :         11026.222988          9615.800912          5305.947705

                             ****ORCA TERMINATED NORMALLY****
TOTAL RUN TIME: 0 days 0 hours 0 minutes 53 seconds 622 msec
