                         Program Version 6.0.0  -   RELEASE  -
|  1> ! r2scan-3c def2/J RI DEFGRID2 scfconv6 printgap
|  2> %output
|  3>     printlevel normal
|  4> end
|  5> * xyz 0 1
|  6> C 4.6748857319 -1.5487466898 -0.7437728199
|  7> C 4.6984077974 -0.1414401606 -0.182908606
|  8> O 3.5053624854 0.1722428893 0.5557031898
|  9> P 2.0827667087 0.3322689752 -0.1386602503
| 10> S 2.1354998598 1.1809239205 -1.9090166907
| 11> O 1.2674658172 1.0584897129 1.0088348441
| 12> C 1.2232705332 2.4913722529 1.145918905
| 13> C 2.5759350183 3.0762174701 1.4906883795
| 14> S 1.2789904264 -1.6070950001 -0.0063473549
| 15> C 0.1436670813 -1.6030793794 -1.4371381834
| 16> S -1.5691423329 -1.9210513705 -0.9654340604
| 17> P -1.9516737105 -0.074369868 0.0172697966
| 18> S -1.3772279468 1.5229636502 -0.9558909738
| 19> O -1.3183888857 -0.1638161771 1.4531771848
| 20> C -1.5665280847 -1.2515725613 2.3816435682
| 21> C -2.6749521769 -0.8900490581 3.3476777292
| 22> O -3.5096171766 -0.1696862794 0.3048599498
| 23> C -4.4710741752 -0.0744539959 -0.7672415477
| 24> C -5.8349389185 0.1552854902 -0.1489926131
| 25> H 4.4491101513 -2.2656457152 0.0415111282
| 26> H 3.9153687036 -1.6258357926 -1.5205277735
| 27> H 5.643713875 -1.7776484163 -1.1759364245
| 28> H 4.8057970298 0.5899979146 -0.9903951256
| 29> H 5.4983041019 -0.0114413 0.5472094427
| 30> H 0.8378303168 2.915523357 0.212314492
| 31> H 0.4925561206 2.6500333802 1.9407974079
| 32> H 3.2593158619 2.9499603209 0.6517383107
| 33> H 2.4637945968 4.1360479347 1.6971011013
| 34> H 2.989483594 2.5758145952 2.3624958314
| 35> H 0.4298834513 -2.4172561795 -2.0976694221
| 36> H 0.2184629641 -0.6369578918 -1.9442916153
| 37> H -1.8122248759 -2.1534565373 1.8138275953
| 38> H -0.6121085105 -1.3891445709 2.8938738091
| 39> H -3.6092669643 -0.7470660232 2.8116801193
| 40> H -2.79201343 -1.6946181515 4.0669067901
| 41> H -2.4282642218 0.0283292209 3.8732848307
| 42> H -4.1802400192 0.753675715 -1.4217706147
| 43> H -4.4398771294 -1.0076909016 -1.3356345371
| 44> H -5.833481659 1.076113959 0.4274842862
| 45> H -6.574420988 0.229483062 -0.9394295515
| 46> H -6.0911926681 -0.6723753367 0.505827937
| 47> *
| 48>
| 49>                          ****END OF INPUT****

CARTESIAN COORDINATES (ANGSTROEM)
---------------------------------
  C      4.674886   -1.548747   -0.743773
  C      4.698408   -0.141440   -0.182909
  O      3.505362    0.172243    0.555703
  P      2.082767    0.332269   -0.138660
  S      2.135500    1.180924   -1.909017
  O      1.267466    1.058490    1.008835
  C      1.223271    2.491372    1.145919
  C      2.575935    3.076217    1.490688
  S      1.278990   -1.607095   -0.006347
  C      0.143667   -1.603079   -1.437138
  S     -1.569142   -1.921051   -0.965434
  P     -1.951674   -0.074370    0.017270
  S     -1.377228    1.522964   -0.955891
  O     -1.318389   -0.163816    1.453177
  C     -1.566528   -1.251573    2.381644
  C     -2.674952   -0.890049    3.347678
  O     -3.509617   -0.169686    0.304860
  C     -4.471074   -0.074454   -0.767242
  C     -5.834939    0.155285   -0.148993
  H      4.449110   -2.265646    0.041511
  H      3.915369   -1.625836   -1.520528
  H      5.643714   -1.777648   -1.175936
  H      4.805797    0.589998   -0.990395
  H      5.498304   -0.011441    0.547209
  H      0.837830    2.915523    0.212314
  H      0.492556    2.650033    1.940797
  H      3.259316    2.949960    0.651738
  H      2.463795    4.136048    1.697101
  H      2.989484    2.575815    2.362496
  H      0.429883   -2.417256   -2.097669
  H      0.218463   -0.636958   -1.944292
  H     -1.812225   -2.153457    1.813828
  H     -0.612109   -1.389145    2.893874
  H     -3.609267   -0.747066    2.811680
  H     -2.792013   -1.694618    4.066907
  H     -2.428264    0.028329    3.873285
  H     -4.180240    0.753676   -1.421771
  H     -4.439877   -1.007691   -1.335635
  H     -5.833482    1.076114    0.427484
  H     -6.574421    0.229483   -0.939430
  H     -6.091193   -0.672375    0.505828

 Total Charge           Charge          ....    0
 Multiplicity           Mult            ....    1
 Number of Electrons    NEL             ....  202
 Basis Dimension        Dim             ....  539

ORBITAL ENERGIES
----------------

  NO   OCC          E(Eh)            E(eV)
   0   2.0000     -88.575307     -2410.2566
   1   2.0000     -88.571416     -2410.1508
   2   2.0000     -88.513994     -2408.5882
   3   2.0000     -88.512169     -2408.5386
   4   2.0000     -76.910505     -2092.8412
   5   2.0000     -76.907224     -2092.7520
   6   2.0000     -18.993521      -516.8400
   7   2.0000     -18.989441      -516.7290
   8   2.0000     -18.985663      -516.6261
   9   2.0000     -18.977492      -516.4038
  10   2.0000     -10.105237      -274.9775
  11   2.0000     -10.100295      -274.8430
  12   2.0000     -10.099318      -274.8164
  13   2.0000     -10.093614      -274.6612
  14   2.0000     -10.083751      -274.3928
  15   2.0000     -10.035249      -273.0730
  16   2.0000     -10.030338      -272.9394
  17   2.0000     -10.024734      -272.7869
  18   2.0000     -10.019677      -272.6493
  19   2.0000      -7.869849      -214.1495
  20   2.0000      -7.866133      -214.0483
  21   2.0000      -7.808669      -212.4847
  22   2.0000      -7.806989      -212.4390
  23   2.0000      -6.589069      -179.2977
  24   2.0000      -6.585670      -179.2052
  25   2.0000      -5.816639      -158.2788
  26   2.0000      -5.813486      -158.1930
  27   2.0000      -5.812953      -158.1785
  28   2.0000      -5.810054      -158.0996
  29   2.0000      -5.807228      -158.0227
  30   2.0000      -5.803152      -157.9118
  31   2.0000      -5.756303      -156.6370
  32   2.0000      -5.754785      -156.5957
  33   2.0000      -5.749188      -156.4434
  34   2.0000      -5.748467      -156.4237
  35   2.0000      -5.747152      -156.3880
  36   2.0000      -5.746955      -156.3826
  37   2.0000      -4.734890      -128.8429
  38   2.0000      -4.734202      -128.8242
  39   2.0000      -4.732293      -128.7722
  40   2.0000      -4.730962      -128.7360
  41   2.0000      -4.730466      -128.7225
  42   2.0000      -4.729729      -128.7025
  43   2.0000      -1.050846       -28.5950
  44   2.0000      -1.041499       -28.3406
  45   2.0000      -1.010419       -27.4949
  46   2.0000      -1.001167       -27.2431
  47   2.0000      -0.798375       -21.7249
  48   2.0000      -0.757595       -20.6152
  49   2.0000      -0.745439       -20.2844
  50   2.0000      -0.736812       -20.0497
  51   2.0000      -0.724686       -19.7197
  52   2.0000      -0.707809       -19.2605
  53   2.0000      -0.681821       -18.5533
  54   2.0000      -0.661745       -18.0070
  55   2.0000      -0.627841       -17.0844
  56   2.0000      -0.618712       -16.8360
  57   2.0000      -0.603133       -16.4121
  58   2.0000      -0.598319       -16.2811
  59   2.0000      -0.592562       -16.1244
  60   2.0000      -0.532145       -14.4804
  61   2.0000      -0.510062       -13.8795
  62   2.0000      -0.500041       -13.6068
  63   2.0000      -0.483452       -13.1554
  64   2.0000      -0.465436       -12.6652
  65   2.0000      -0.464394       -12.6368
  66   2.0000      -0.455814       -12.4033
  67   2.0000      -0.451091       -12.2748
  68   2.0000      -0.449160       -12.2223
  69   2.0000      -0.430496       -11.7144
  70   2.0000      -0.423458       -11.5229
  71   2.0000      -0.407401       -11.0859
  72   2.0000      -0.402201       -10.9444
  73   2.0000      -0.400244       -10.8912
  74   2.0000      -0.396543       -10.7905
  75   2.0000      -0.392462       -10.6794
  76   2.0000      -0.379526       -10.3274
  77   2.0000      -0.371494       -10.1089
  78   2.0000      -0.368852       -10.0370
  79   2.0000      -0.364068        -9.9068
  80   2.0000      -0.360218        -9.8020
  81   2.0000      -0.356415        -9.6985
  82   2.0000      -0.353560        -9.6209
  83   2.0000      -0.348882        -9.4936
  84   2.0000      -0.345427        -9.3996
  85   2.0000      -0.330043        -8.9809
  86   2.0000      -0.320009        -8.7079
  87   2.0000      -0.316020        -8.5993
  88   2.0000      -0.306071        -8.3286
  89   2.0000      -0.304049        -8.2736
  90   2.0000      -0.290819        -7.9136
  91   2.0000      -0.285824        -7.7777
  92   2.0000      -0.277517        -7.5516
  93   2.0000      -0.276585        -7.5263
  94   2.0000      -0.270060        -7.3487
  95   2.0000      -0.248445        -6.7605
  96   2.0000      -0.230144        -6.2625
  97   2.0000      -0.226245        -6.1564
  98   2.0000      -0.214972        -5.8497
  99   2.0000      -0.204205        -5.5567
 100   2.0000      -0.197372        -5.3708
 101   0.0000      -0.040884        -1.1125
 102   0.0000      -0.029932        -0.8145
 103   0.0000      -0.006272        -0.1707
 104   0.0000       0.018182         0.4948
 105   0.0000       0.018785         0.5112

MULLIKEN ATOMIC CHARGES
-----------------------
   0 C :   -0.445681
   1 C :   -0.157552
   2 O :   -0.299358
   3 P :    0.655089
   4 S :   -0.463214
   5 O :   -0.267969
   6 C :   -0.156597
   7 C :   -0.448517
   8 S :   -0.128177
   9 C :   -0.218508
  10 S :   -0.180627
  11 P :    0.678260
  12 S :   -0.423238
  13 O :   -0.257111
  14 C :   -0.116124
  15 C :   -0.458872
  16 O :   -0.295894
  17 C :   -0.160611
  18 C :   -0.441378
  19 H :    0.153895
  20 H :    0.173578
  21 H :    0.146238
  22 H :    0.172656
  23 H :    0.146764
  24 H :    0.182565
  25 H :    0.154711
  26 H :    0.165150
  27 H :    0.145755
  28 H :    0.154401
  29 H :    0.194840
  30 H :    0.219085
  31 H :    0.163493
  32 H :    0.164407
  33 H :    0.165008
  34 H :    0.146222
  35 H :    0.155921
  36 H :    0.173957
  37 H :    0.149149
  38 H :    0.159908
  39 H :    0.148038
  40 H :    0.150336
Sum of atomic charges:   -0.0000000

LOEWDIN ATOMIC CHARGES
----------------------
   0 C :   -0.408365
   1 C :    0.017555
   2 O :   -0.668302
   3 P :    0.373895
   4 S :   -0.125899
   5 O :   -0.668000
   6 C :    0.012967
   7 C :   -0.401114
   8 S :    0.174041
   9 C :   -0.412664
  10 S :    0.119044
  11 P :    0.374780
  12 S :   -0.074278
  13 O :   -0.649597
  14 C :    0.018987
  15 C :   -0.393721
  16 O :   -0.675542
  17 C :    0.019180
  18 C :   -0.386233
  19 H :    0.159983
  20 H :    0.164171
  21 H :    0.157983
  22 H :    0.179658
  23 H :    0.178546
  24 H :    0.184603
  25 H :    0.182816
  26 H :    0.163779
  27 H :    0.158449
  28 H :    0.160211
  29 H :    0.179644
  30 H :    0.202673
  31 H :    0.177100
  32 H :    0.183427
  33 H :    0.166116
  34 H :    0.158460
  35 H :    0.160797
  36 H :    0.182306
  37 H :    0.171489
  38 H :    0.162272
  39 H :    0.160740
  40 H :    0.158043

  Mayer bond orders larger than 0.100000
B(  0-C ,  1-C ) :   0.9212 B(  0-C , 19-H ) :   0.9677 B(  0-C , 20-H ) :   0.9659
B(  0-C , 21-H ) :   0.9595 B(  1-C ,  2-O ) :   0.8225 B(  1-C , 22-H ) :   0.9671
B(  1-C , 23-H ) :   0.9592 B(  2-O ,  3-P ) :   1.0530 B(  3-P ,  4-S ) :   1.7540
B(  3-P ,  5-O ) :   1.1706 B(  3-P ,  8-S ) :   1.1200 B(  5-O ,  6-C ) :   0.8080
B(  6-C ,  7-C ) :   0.9080 B(  6-C , 24-H ) :   0.9634 B(  6-C , 25-H ) :   0.9631
B(  7-C , 26-H ) :   0.9630 B(  7-C , 27-H ) :   0.9611 B(  7-C , 28-H ) :   0.9731
B(  8-S ,  9-C ) :   0.8950 B(  9-C , 10-S ) :   0.9207 B(  9-C , 29-H ) :   0.9137
B(  9-C , 30-H ) :   0.9055 B( 10-S , 11-P ) :   0.9941 B( 11-P , 12-S ) :   1.8378
B( 11-P , 13-O ) :   1.1418 B( 11-P , 16-O ) :   1.0533 B( 13-O , 14-C ) :   0.7380
B( 14-C , 15-C ) :   0.9365 B( 14-C , 31-H ) :   0.9637 B( 14-C , 32-H ) :   0.9619
B( 15-C , 33-H ) :   0.9658 B( 15-C , 34-H ) :   0.9665 B( 15-C , 35-H ) :   0.9735
B( 16-O , 17-C ) :   0.7901 B( 17-C , 18-C ) :   0.9567 B( 17-C , 36-H ) :   0.9497
B( 17-C , 37-H ) :   0.9422 B( 18-C , 38-H ) :   0.9711 B( 18-C , 39-H ) :   0.9632
B( 18-C , 40-H ) :   0.9718

Dispersion correction           -0.021930289
FINAL SINGLE POINT ENERGY     -2932.459577135404

DIPOLE MOMENT
-------------

Method             : SCF
Type of density    : Electron Density
Multiplicity       :   1
Irrep              :   0
Energy             : -2932.4841964820379872 Eh
Relativity type    :
Basis              : AO
                                X                 Y                 Z
Electronic contribution:      2.877212127      -2.152000183     -10.894718492
Nuclear contribution   :     -3.292641709       1.219453034      11.921199682
                        -----------------------------------------
Total Dipole Moment    :     -0.415429582      -0.932547149       1.026481190
                        -----------------------------------------
Magnitude (a.u.)       :      1.447718743
Magnitude (Debye)      :      3.679808604

Rotational constants in cm-1:             0.013308             0.005013             0.004832
Rotational constants in MHz :           398.974636           150.274464           144.871834

                             ****ORCA TERMINATED NORMALLY****
TOTAL RUN TIME: 0 days 0 hours 1 minutes 24 seconds 638 msec
