                         Program Version 6.0.0  -   RELEASE  -
|  1> ! r2scan-3c def2/J RI DEFGRID2 scfconv6 printgap
|  2> %output
|  3>     printlevel normal
|  4> end
|  5> %cpcm
|  6>     smd true
|  7>     smdsolvent "water"
|  8> end
|  9> * xyz 0 1
| 10> C 4.6748857319 -1.5487466898 -0.7437728199
| 11> C 4.6984077974 -0.1414401606 -0.182908606
| 12> O 3.5053624854 0.1722428893 0.5557031898
| 13> P 2.0827667087 0.3322689752 -0.1386602503
| 14> S 2.1354998598 1.1809239205 -1.9090166907
| 15> O 1.2674658172 1.0584897129 1.0088348441
| 16> C 1.2232705332 2.4913722529 1.145918905
| 17> C 2.5759350183 3.0762174701 1.4906883795
| 18> S 1.2789904264 -1.6070950001 -0.0063473549
| 19> C 0.1436670813 -1.6030793794 -1.4371381834
| 20> S -1.5691423329 -1.9210513705 -0.9654340604
| 21> P -1.9516737105 -0.074369868 0.0172697966
| 22> S -1.3772279468 1.5229636502 -0.9558909738
| 23> O -1.3183888857 -0.1638161771 1.4531771848
| 24> C -1.5665280847 -1.2515725613 2.3816435682
| 25> C -2.6749521769 -0.8900490581 3.3476777292
| 26> O -3.5096171766 -0.1696862794 0.3048599498
| 27> C -4.4710741752 -0.0744539959 -0.7672415477
| 28> C -5.8349389185 0.1552854902 -0.1489926131
| 29> H 4.4491101513 -2.2656457152 0.0415111282
| 30> H 3.9153687036 -1.6258357926 -1.5205277735
| 31> H 5.643713875 -1.7776484163 -1.1759364245
| 32> H 4.8057970298 0.5899979146 -0.9903951256
| 33> H 5.4983041019 -0.0114413 0.5472094427
| 34> H 0.8378303168 2.915523357 0.212314492
| 35> H 0.4925561206 2.6500333802 1.9407974079
| 36> H 3.2593158619 2.9499603209 0.6517383107
| 37> H 2.4637945968 4.1360479347 1.6971011013
| 38> H 2.989483594 2.5758145952 2.3624958314
| 39> H 0.4298834513 -2.4172561795 -2.0976694221
| 40> H 0.2184629641 -0.6369578918 -1.9442916153
| 41> H -1.8122248759 -2.1534565373 1.8138275953
| 42> H -0.6121085105 -1.3891445709 2.8938738091
| 43> H -3.6092669643 -0.7470660232 2.8116801193
| 44> H -2.79201343 -1.6946181515 4.0669067901
| 45> H -2.4282642218 0.0283292209 3.8732848307
| 46> H -4.1802400192 0.753675715 -1.4217706147
| 47> H -4.4398771294 -1.0076909016 -1.3356345371
| 48> H -5.833481659 1.076113959 0.4274842862
| 49> H -6.574420988 0.229483062 -0.9394295515
| 50> H -6.0911926681 -0.6723753367 0.505827937
| 51> *
| 52>
| 53>                          ****END OF INPUT****

CARTESIAN COORDINATES (ANGSTROEM)
---------------------------------
  C      4.674886   -1.548747   -0.743773
  C      4.698408   -0.141440   -0.182909
  O      3.505362    0.172243    0.555703
  P      2.082767    0.332269   -0.138660
  S      2.135500    1.180924   -1.909017
  O      1.267466    1.058490    1.008835
  C      1.223271    2.491372    1.145919
  C      2.575935    3.076217    1.490688
  S      1.278990   -1.607095   -0.006347
  C      0.143667   -1.603079   -1.437138
  S     -1.569142   -1.921051   -0.965434
  P     -1.951674   -0.074370    0.017270
  S     -1.377228    1.522964   -0.955891
  O     -1.318389   -0.163816    1.453177
  C     -1.566528   -1.251573    2.381644
  C     -2.674952   -0.890049    3.347678
  O     -3.509617   -0.169686    0.304860
  C     -4.471074   -0.074454   -0.767242
  C     -5.834939    0.155285   -0.148993
  H      4.449110   -2.265646    0.041511
  H      3.915369   -1.625836   -1.520528
  H      5.643714   -1.777648   -1.175936
  H      4.805797    0.589998   -0.990395
  H      5.498304   -0.011441    0.547209
  H      0.837830    2.915523    0.212314
  H      0.492556    2.650033    1.940797
  H      3.259316    2.949960    0.651738
  H      2.463795    4.136048    1.697101
  H      2.989484    2.575815    2.362496
  H      0.429883   -2.417256   -2.097669
  H      0.218463   -0.636958   -1.944292
  H     -1.812225   -2.153457    1.813828
  H     -0.612109   -1.389145    2.893874
  H     -3.609267   -0.747066    2.811680
  H     -2.792013   -1.694618    4.066907
  H     -2.428264    0.028329    3.873285
  H     -4.180240    0.753676   -1.421771
  H     -4.439877   -1.007691   -1.335635
  H     -5.833482    1.076114    0.427484
  H     -6.574421    0.229483   -0.939430
  H     -6.091193   -0.672375    0.505828

 Total Charge           Charge          ....    0
 Multiplicity           Mult            ....    1
 Number of Electrons    NEL             ....  202
 Basis Dimension        Dim             ....  539

ORBITAL ENERGIES
----------------

  NO   OCC          E(Eh)            E(eV)
   0   2.0000     -88.578955     -2410.3559
   1   2.0000     -88.576590     -2410.2915
   2   2.0000     -88.525284     -2408.8954
   3   2.0000     -88.523215     -2408.8391
   4   2.0000     -76.917359     -2093.0278
   5   2.0000     -76.916563     -2093.0061
   6   2.0000     -18.995021      -516.8808
   7   2.0000     -18.994601      -516.8694
   8   2.0000     -18.991950      -516.7972
   9   2.0000     -18.987883      -516.6866
  10   2.0000     -10.105067      -274.9729
  11   2.0000     -10.091458      -274.6025
  12   2.0000     -10.090827      -274.5854
  13   2.0000     -10.087869      -274.5049
  14   2.0000     -10.085702      -274.4459
  15   2.0000     -10.019905      -272.6555
  16   2.0000     -10.018243      -272.6102
  17   2.0000     -10.017229      -272.5827
  18   2.0000     -10.017184      -272.5814
  19   2.0000      -7.873414      -214.2465
  20   2.0000      -7.871256      -214.1878
  21   2.0000      -7.820283      -212.8007
  22   2.0000      -7.818395      -212.7493
  23   2.0000      -6.595963      -179.4853
  24   2.0000      -6.595065      -179.4608
  25   2.0000      -5.820213      -158.3760
  26   2.0000      -5.818094      -158.3184
  27   2.0000      -5.817067      -158.2904
  28   2.0000      -5.815192      -158.2394
  29   2.0000      -5.810783      -158.1194
  30   2.0000      -5.808259      -158.0508
  31   2.0000      -5.767850      -156.9512
  32   2.0000      -5.766072      -156.9028
  33   2.0000      -5.760790      -156.7591
  34   2.0000      -5.760098      -156.7402
  35   2.0000      -5.758609      -156.6997
  36   2.0000      -5.758359      -156.6929
  37   2.0000      -4.741731      -129.0291
  38   2.0000      -4.741051      -129.0106
  39   2.0000      -4.740336      -128.9911
  40   2.0000      -4.739860      -128.9782
  41   2.0000      -4.739323      -128.9635
  42   2.0000      -4.739169      -128.9594
  43   2.0000      -1.053965       -28.6798
  44   2.0000      -1.049251       -28.5516
  45   2.0000      -1.013096       -27.5678
  46   2.0000      -1.008887       -27.4532
  47   2.0000      -0.801042       -21.7975
  48   2.0000      -0.755757       -20.5652
  49   2.0000      -0.744054       -20.2467
  50   2.0000      -0.727154       -19.7869
  51   2.0000      -0.721992       -19.6464
  52   2.0000      -0.709543       -19.3076
  53   2.0000      -0.687528       -18.7086
  54   2.0000      -0.669598       -18.2207
  55   2.0000      -0.630744       -17.1634
  56   2.0000      -0.615162       -16.7394
  57   2.0000      -0.597710       -16.2645
  58   2.0000      -0.597397       -16.2560
  59   2.0000      -0.591707       -16.1012
  60   2.0000      -0.529640       -14.4122
  61   2.0000      -0.511791       -13.9265
  62   2.0000      -0.497478       -13.5371
  63   2.0000      -0.486276       -13.2323
  64   2.0000      -0.468721       -12.7546
  65   2.0000      -0.461786       -12.5658
  66   2.0000      -0.455320       -12.3899
  67   2.0000      -0.451591       -12.2884
  68   2.0000      -0.444074       -12.0839
  69   2.0000      -0.431840       -11.7510
  70   2.0000      -0.420754       -11.4493
  71   2.0000      -0.406593       -11.0640
  72   2.0000      -0.402039       -10.9400
  73   2.0000      -0.400920       -10.9096
  74   2.0000      -0.394946       -10.7470
  75   2.0000      -0.390796       -10.6341
  76   2.0000      -0.377781       -10.2799
  77   2.0000      -0.365221        -9.9382
  78   2.0000      -0.362499        -9.8641
  79   2.0000      -0.359467        -9.7816
  80   2.0000      -0.353699        -9.6246
  81   2.0000      -0.351968        -9.5775
  82   2.0000      -0.349097        -9.4994
  83   2.0000      -0.347866        -9.4659
  84   2.0000      -0.344364        -9.3706
  85   2.0000      -0.325404        -8.8547
  86   2.0000      -0.322128        -8.7655
  87   2.0000      -0.314188        -8.5495
  88   2.0000      -0.303468        -8.2578
  89   2.0000      -0.302829        -8.2404
  90   2.0000      -0.294871        -8.0238
  91   2.0000      -0.288785        -7.8582
  92   2.0000      -0.282176        -7.6784
  93   2.0000      -0.278712        -7.5841
  94   2.0000      -0.273520        -7.4429
  95   2.0000      -0.253017        -6.8850
  96   2.0000      -0.238803        -6.4982
  97   2.0000      -0.237240        -6.4556
  98   2.0000      -0.226226        -6.1559
  99   2.0000      -0.213914        -5.8209
 100   2.0000      -0.209440        -5.6992
 101   0.0000      -0.046051        -1.2531
 102   0.0000      -0.036945        -1.0053
 103   0.0000      -0.010829        -0.2947
 104   0.0000       0.010698         0.2911
 105   0.0000       0.014912         0.4058

MULLIKEN ATOMIC CHARGES
-----------------------
   0 C :   -0.479566
   1 C :   -0.158173
   2 O :   -0.326827
   3 P :    0.694951
   4 S :   -0.518734
   5 O :   -0.297300
   6 C :   -0.156059
   7 C :   -0.491434
   8 S :   -0.127025
   9 C :   -0.218361
  10 S :   -0.178673
  11 P :    0.689142
  12 S :   -0.479045
  13 O :   -0.289235
  14 C :   -0.101098
  15 C :   -0.500515
  16 O :   -0.315552
  17 C :   -0.150122
  18 C :   -0.481217
  19 H :    0.166102
  20 H :    0.171850
  21 H :    0.171136
  22 H :    0.177044
  23 H :    0.173695
  24 H :    0.181478
  25 H :    0.176741
  26 H :    0.168487
  27 H :    0.170764
  28 H :    0.168928
  29 H :    0.236686
  30 H :    0.211810
  31 H :    0.176161
  32 H :    0.180756
  33 H :    0.168938
  34 H :    0.171012
  35 H :    0.167901
  36 H :    0.173999
  37 H :    0.168535
  38 H :    0.167022
  39 H :    0.169702
  40 H :    0.166094
Sum of atomic charges:    0.0000000

LOEWDIN ATOMIC CHARGES
----------------------
   0 C :   -0.410793
   1 C :    0.023131
   2 O :   -0.680493
   3 P :    0.379021
   4 S :   -0.159678
   5 O :   -0.687111
   6 C :    0.013419
   7 C :   -0.403255
   8 S :    0.177770
   9 C :   -0.406847
  10 S :    0.128490
  11 P :    0.376292
  12 S :   -0.115937
  13 O :   -0.670759
  14 C :    0.025670
  15 C :   -0.395772
  16 O :   -0.682682
  17 C :    0.023700
  18 C :   -0.389134
  19 H :    0.163147
  20 H :    0.161121
  21 H :    0.167140
  22 H :    0.181104
  23 H :    0.189947
  24 H :    0.183230
  25 H :    0.190348
  26 H :    0.162883
  27 H :    0.167962
  28 H :    0.164096
  29 H :    0.196332
  30 H :    0.199497
  31 H :    0.182915
  32 H :    0.190181
  33 H :    0.165814
  34 H :    0.168709
  35 H :    0.163497
  36 H :    0.181859
  37 H :    0.179375
  38 H :    0.163551
  39 H :    0.169148
  40 H :    0.163114

  Mayer bond orders larger than 0.100000
B(  0-C ,  1-C ) :   0.9100 B(  0-C , 19-H ) :   0.9652 B(  0-C , 20-H ) :   0.9659
B(  0-C , 21-H ) :   0.9543 B(  1-C ,  2-O ) :   0.8094 B(  1-C , 22-H ) :   0.9652
B(  1-C , 23-H ) :   0.9494 B(  2-O ,  3-P ) :   1.0625 B(  3-P ,  4-S ) :   1.6993
B(  3-P ,  5-O ) :   1.1685 B(  3-P ,  8-S ) :   1.1452 B(  5-O ,  6-C ) :   0.7925
B(  6-C ,  7-C ) :   0.9057 B(  6-C , 24-H ) :   0.9602 B(  6-C , 25-H ) :   0.9515
B(  7-C , 26-H ) :   0.9621 B(  7-C , 27-H ) :   0.9544 B(  7-C , 28-H ) :   0.9712
B(  8-S ,  9-C ) :   0.8884 B(  9-C , 10-S ) :   0.9128 B(  9-C , 29-H ) :   0.8978
B(  9-C , 30-H ) :   0.9101 B( 10-S , 11-P ) :   1.0163 B( 11-P , 12-S ) :   1.8082
B( 11-P , 13-O ) :   1.1433 B( 11-P , 16-O ) :   1.0642 B( 13-O , 14-C ) :   0.7275
B( 14-C , 15-C ) :   0.9302 B( 14-C , 31-H ) :   0.9541 B( 14-C , 32-H ) :   0.9528
B( 15-C , 33-H ) :   0.9653 B( 15-C , 34-H ) :   0.9595 B( 15-C , 35-H ) :   0.9717
B( 16-O , 17-C ) :   0.7813 B( 17-C , 18-C ) :   0.9563 B( 17-C , 36-H ) :   0.9465
B( 17-C , 37-H ) :   0.9333 B( 18-C , 38-H ) :   0.9689 B( 18-C , 39-H ) :   0.9576
B( 18-C , 40-H ) :   0.9682

Dispersion correction           -0.021930289
FINAL SINGLE POINT ENERGY     -2932.468995916649

DIPOLE MOMENT
-------------

Method             : SCF
Type of density    : Electron Density
Multiplicity       :   1
Irrep              :   0
Energy             : -2932.4936152632822086 Eh
Relativity type    :
Basis              : AO
                                X                 Y                 Z
Electronic contribution:      2.847336981      -2.768248311     -10.660573661
Nuclear contribution   :     -3.292641709       1.219453034      11.921199682
                        -----------------------------------------
Total Dipole Moment    :     -0.445304728      -1.548795277       1.260626021
                        -----------------------------------------
Magnitude (a.u.)       :      2.046030566
Magnitude (Debye)      :      5.200596399

Rotational constants in cm-1:             0.013308             0.005013             0.004832
Rotational constants in MHz :           398.974636           150.274464           144.871834

                             ****ORCA TERMINATED NORMALLY****
TOTAL RUN TIME: 0 days 0 hours 1 minutes 56 seconds 812 msec
