                         Program Version 6.0.0  -   RELEASE  -
|  1> ! r2scan-3c def2/J RI DEFGRID2 scfconv6 printgap
|  2> %output
|  3>     printlevel normal
|  4> end
|  5> * xyz 0 1
|  6> C 0.45148027 -2.4814357838 2.0342829318
|  7> C 1.5153819996 -1.4358635747 2.3027299732
|  8> O 1.3382608614 -0.301708536 1.4212198503
|  9> P 2.2484605094 -0.0463823851 0.1564109541
| 10> S 2.9965200859 -1.6144180895 -0.7573076599
| 11> O 3.3430982819 0.9276720504 0.7743723174
| 12> C 4.5094877706 1.3417209545 0.0339910712
| 13> C 5.5828875005 1.7319085056 1.030156404
| 14> S 1.0413490887 1.2520872283 -0.9872012937
| 15> C 0.3020716456 -0.0104948449 -2.0624041836
| 16> S -0.6824422141 -1.2281458082 -1.1529703151
| 17> P -2.0904423955 0.1305499688 -0.3517743618
| 18> S -2.6478890321 1.5930331875 -1.5374873879
| 19> O -1.4260500838 0.5337019964 1.0238410355
| 20> C -1.6361945624 1.822184805 1.6328528582
| 21> C -3.0220985755 1.9219169404 2.2339553124
| 22> O -3.2558232708 -0.8244736682 0.1459907702
| 23> C -4.1868479484 -1.4202141733 -0.7811940721
| 24> C -5.3418207802 -1.9854305361 0.0202427828
| 25> H -0.5351149175 -2.0253437467 2.0710446235
| 26> H 0.594511781 -2.9203190216 1.0488253813
| 27> H 0.5182865962 -3.26187219 2.7853829453
| 28> H 2.5168597995 -1.8514233317 2.1599362079
| 29> H 1.4274541936 -1.0230070438 3.3088223322
| 30> H 4.8345628474 0.5092544464 -0.5993496322
| 31> H 4.2252343866 2.1858870005 -0.599410178
| 32> H 6.4600543584 2.0745966917 0.4912649564
| 33> H 5.2197030861 2.5287579957 1.6726149194
| 34> H 5.8510613809 0.8775912099 1.6453702193
| 35> H 1.0889840341 -0.5669143769 -2.5702139511
| 36> H -0.3322733779 0.523660137 -2.76905415
| 37> H -0.8522265561 1.8879464516 2.3886562421
| 38> H -1.4826668103 2.5976928703 0.8747944744
| 39> H -3.1854243376 1.1124952314 2.9402470062
| 40> H -3.1289778399 2.8754670767 2.7413410201
| 41> H -3.7679174395 1.8549196707 1.4424952662
| 42> H -4.5208303022 -0.6479252447 -1.4821526719
| 43> H -3.6639662819 -2.2038787599 -1.3364994981
| 44> H -5.848768493 -1.1905821404 0.5596710436
| 45> H -6.0430785693 -2.4636633256 -0.655590211
| 46> H -4.9731852729 -2.71643078 0.7338309557
| 47> *
| 48>
| 49>                          ****END OF INPUT****

CARTESIAN COORDINATES (ANGSTROEM)
---------------------------------
  C      0.451480   -2.481436    2.034283
  C      1.515382   -1.435864    2.302730
  O      1.338261   -0.301709    1.421220
  P      2.248461   -0.046382    0.156411
  S      2.996520   -1.614418   -0.757308
  O      3.343098    0.927672    0.774372
  C      4.509488    1.341721    0.033991
  C      5.582888    1.731909    1.030156
  S      1.041349    1.252087   -0.987201
  C      0.302072   -0.010495   -2.062404
  S     -0.682442   -1.228146   -1.152970
  P     -2.090442    0.130550   -0.351774
  S     -2.647889    1.593033   -1.537487
  O     -1.426050    0.533702    1.023841
  C     -1.636195    1.822185    1.632853
  C     -3.022099    1.921917    2.233955
  O     -3.255823   -0.824474    0.145991
  C     -4.186848   -1.420214   -0.781194
  C     -5.341821   -1.985431    0.020243
  H     -0.535115   -2.025344    2.071045
  H      0.594512   -2.920319    1.048825
  H      0.518287   -3.261872    2.785383
  H      2.516860   -1.851423    2.159936
  H      1.427454   -1.023007    3.308822
  H      4.834563    0.509254   -0.599350
  H      4.225234    2.185887   -0.599410
  H      6.460054    2.074597    0.491265
  H      5.219703    2.528758    1.672615
  H      5.851061    0.877591    1.645370
  H      1.088984   -0.566914   -2.570214
  H     -0.332273    0.523660   -2.769054
  H     -0.852227    1.887946    2.388656
  H     -1.482667    2.597693    0.874794
  H     -3.185424    1.112495    2.940247
  H     -3.128978    2.875467    2.741341
  H     -3.767917    1.854920    1.442495
  H     -4.520830   -0.647925   -1.482153
  H     -3.663966   -2.203879   -1.336499
  H     -5.848768   -1.190582    0.559671
  H     -6.043079   -2.463663   -0.655590
  H     -4.973185   -2.716431    0.733831

 Total Charge           Charge          ....    0
 Multiplicity           Mult            ....    1
 Number of Electrons    NEL             ....  202
 Basis Dimension        Dim             ....  539

ORBITAL ENERGIES
----------------

  NO   OCC          E(Eh)            E(eV)
   0   2.0000     -88.575353     -2410.2579
   1   2.0000     -88.573703     -2410.2130
   2   2.0000     -88.519891     -2408.7487
   3   2.0000     -88.519314     -2408.7330
   4   2.0000     -76.912329     -2092.8909
   5   2.0000     -76.912031     -2092.8828
   6   2.0000     -18.993040      -516.8269
   7   2.0000     -18.989628      -516.7340
   8   2.0000     -18.987062      -516.6642
   9   2.0000     -18.985887      -516.6322
  10   2.0000     -10.105128      -274.9745
  11   2.0000     -10.099445      -274.8199
  12   2.0000     -10.096500      -274.7397
  13   2.0000     -10.096383      -274.7365
  14   2.0000     -10.094191      -274.6769
  15   2.0000     -10.034310      -273.0475
  16   2.0000     -10.031984      -272.9842
  17   2.0000     -10.026639      -272.8387
  18   2.0000     -10.021329      -272.6942
  19   2.0000      -7.869594      -214.1425
  20   2.0000      -7.868095      -214.1018
  21   2.0000      -7.814679      -212.6482
  22   2.0000      -7.814158      -212.6341
  23   2.0000      -6.591016      -179.3507
  24   2.0000      -6.590547      -179.3379
  25   2.0000      -5.816481      -158.2745
  26   2.0000      -5.814981      -158.2337
  27   2.0000      -5.813476      -158.1927
  28   2.0000      -5.811944      -158.1510
  29   2.0000      -5.806692      -158.0081
  30   2.0000      -5.805190      -157.9672
  31   2.0000      -5.762281      -156.7996
  32   2.0000      -5.761750      -156.7852
  33   2.0000      -5.754934      -156.5997
  34   2.0000      -5.754748      -156.5947
  35   2.0000      -5.754527      -156.5886
  36   2.0000      -5.754116      -156.5774
  37   2.0000      -4.736338      -128.8823
  38   2.0000      -4.735968      -128.8722
  39   2.0000      -4.735924      -128.8711
  40   2.0000      -4.735459      -128.8584
  41   2.0000      -4.734862      -128.8421
  42   2.0000      -4.734411      -128.8299
  43   2.0000      -1.049839       -28.5676
  44   2.0000      -1.046529       -28.4775
  45   2.0000      -1.010492       -27.4969
  46   2.0000      -1.006605       -27.3911
  47   2.0000      -0.802203       -21.8290
  48   2.0000      -0.759420       -20.6649
  49   2.0000      -0.749675       -20.3997
  50   2.0000      -0.731372       -19.9017
  51   2.0000      -0.728916       -19.8348
  52   2.0000      -0.707290       -19.2464
  53   2.0000      -0.682636       -18.5755
  54   2.0000      -0.668376       -18.1874
  55   2.0000      -0.630283       -17.1509
  56   2.0000      -0.621978       -16.9249
  57   2.0000      -0.602016       -16.3817
  58   2.0000      -0.598450       -16.2846
  59   2.0000      -0.590191       -16.0599
  60   2.0000      -0.532177       -14.4813
  61   2.0000      -0.525921       -14.3110
  62   2.0000      -0.495989       -13.4965
  63   2.0000      -0.493290       -13.4231
  64   2.0000      -0.473723       -12.8907
  65   2.0000      -0.461401       -12.5554
  66   2.0000      -0.455113       -12.3842
  67   2.0000      -0.451630       -12.2895
  68   2.0000      -0.447540       -12.1782
  69   2.0000      -0.431869       -11.7518
  70   2.0000      -0.421260       -11.4631
  71   2.0000      -0.410752       -11.1771
  72   2.0000      -0.401367       -10.9217
  73   2.0000      -0.397493       -10.8163
  74   2.0000      -0.395713       -10.7679
  75   2.0000      -0.388590       -10.5741
  76   2.0000      -0.387515       -10.5448
  77   2.0000      -0.373158       -10.1542
  78   2.0000      -0.367797       -10.0083
  79   2.0000      -0.366863        -9.9828
  80   2.0000      -0.361499        -9.8369
  81   2.0000      -0.360745        -9.8164
  82   2.0000      -0.357567        -9.7299
  83   2.0000      -0.352179        -9.5833
  84   2.0000      -0.346887        -9.4393
  85   2.0000      -0.331932        -9.0323
  86   2.0000      -0.318779        -8.6744
  87   2.0000      -0.314886        -8.5685
  88   2.0000      -0.313465        -8.5298
  89   2.0000      -0.304349        -8.2818
  90   2.0000      -0.296662        -8.0726
  91   2.0000      -0.293466        -7.9856
  92   2.0000      -0.281651        -7.6641
  93   2.0000      -0.276980        -7.5370
  94   2.0000      -0.272465        -7.4141
  95   2.0000      -0.245313        -6.6753
  96   2.0000      -0.230204        -6.2642
  97   2.0000      -0.226763        -6.1705
  98   2.0000      -0.220059        -5.9881
  99   2.0000      -0.213271        -5.8034
 100   2.0000      -0.210652        -5.7321
 101   0.0000      -0.047127        -1.2824
 102   0.0000      -0.024594        -0.6692
 103   0.0000       0.002559         0.0696
 104   0.0000       0.004266         0.1161
 105   0.0000       0.012548         0.3415

MULLIKEN ATOMIC CHARGES
-----------------------
   0 C :   -0.475867
   1 C :   -0.120840
   2 O :   -0.259806
   3 P :    0.695739
   4 S :   -0.486287
   5 O :   -0.283927
   6 C :   -0.147980
   7 C :   -0.444814
   8 S :   -0.140081
   9 C :   -0.235905
  10 S :   -0.137044
  11 P :    0.711751
  12 S :   -0.489810
  13 O :   -0.256893
  14 C :   -0.160678
  15 C :   -0.443168
  16 O :   -0.289016
  17 C :   -0.160075
  18 C :   -0.438310
  19 H :    0.165361
  20 H :    0.177905
  21 H :    0.140913
  22 H :    0.158892
  23 H :    0.146933
  24 H :    0.170001
  25 H :    0.150773
  26 H :    0.146377
  27 H :    0.153171
  28 H :    0.156259
  29 H :    0.207672
  30 H :    0.208109
  31 H :    0.158163
  32 H :    0.175016
  33 H :    0.152865
  34 H :    0.146720
  35 H :    0.167940
  36 H :    0.170680
  37 H :    0.153127
  38 H :    0.155105
  39 H :    0.147406
  40 H :    0.153625
Sum of atomic charges:   -0.0000000

LOEWDIN ATOMIC CHARGES
----------------------
   0 C :   -0.403155
   1 C :    0.028213
   2 O :   -0.659995
   3 P :    0.376339
   4 S :   -0.134774
   5 O :   -0.664753
   6 C :    0.019173
   7 C :   -0.386588
   8 S :    0.177776
   9 C :   -0.418093
  10 S :    0.169026
  11 P :    0.374398
  12 S :   -0.132690
  13 O :   -0.666533
  14 C :    0.017552
  15 C :   -0.399086
  16 O :   -0.663554
  17 C :    0.019443
  18 C :   -0.385414
  19 H :    0.164595
  20 H :    0.166719
  21 H :    0.155756
  22 H :    0.177632
  23 H :    0.176522
  24 H :    0.180813
  25 H :    0.171396
  26 H :    0.159715
  27 H :    0.159382
  28 H :    0.160391
  29 H :    0.189920
  30 H :    0.189600
  31 H :    0.181666
  32 H :    0.182128
  33 H :    0.158992
  34 H :    0.159352
  35 H :    0.164993
  36 H :    0.180219
  37 H :    0.172362
  38 H :    0.160346
  39 H :    0.160188
  40 H :    0.160026

  Mayer bond orders larger than 0.100000
B(  0-C ,  1-C ) :   0.9457 B(  0-C , 19-H ) :   0.9683 B(  0-C , 20-H ) :   0.9633
B(  0-C , 21-H ) :   0.9633 B(  1-C ,  2-O ) :   0.7581 B(  1-C , 22-H ) :   0.9646
B(  1-C , 23-H ) :   0.9604 B(  2-O ,  3-P ) :   1.1845 B(  3-P ,  4-S ) :   1.7389
B(  3-P ,  5-O ) :   1.0886 B(  3-P ,  8-S ) :   1.0644 B(  5-O ,  6-C ) :   0.7761
B(  6-C ,  7-C ) :   0.9586 B(  6-C , 24-H ) :   0.9520 B(  6-C , 25-H ) :   0.9451
B(  7-C , 26-H ) :   0.9648 B(  7-C , 27-H ) :   0.9719 B(  7-C , 28-H ) :   0.9725
B(  8-S ,  9-C ) :   0.9081 B(  9-C , 10-S ) :   0.9081 B(  9-C , 29-H ) :   0.9104
B(  9-C , 30-H ) :   0.9095 B( 10-S , 11-P ) :   1.0509 B( 11-P , 12-S ) :   1.7364
B( 11-P , 13-O ) :   1.1567 B( 11-P , 16-O ) :   1.0917 B( 13-O , 14-C ) :   0.7775
B( 14-C , 15-C ) :   0.9240 B( 14-C , 31-H ) :   0.9632 B( 14-C , 32-H ) :   0.9624
B( 15-C , 33-H ) :   0.9731 B( 15-C , 34-H ) :   0.9640 B( 15-C , 35-H ) :   0.9611
B( 16-O , 17-C ) :   0.7809 B( 17-C , 18-C ) :   0.9550 B( 17-C , 36-H ) :   0.9512
B( 17-C , 37-H ) :   0.9453 B( 18-C , 38-H ) :   0.9715 B( 18-C , 39-H ) :   0.9644
B( 18-C , 40-H ) :   0.9716

Dispersion correction           -0.021407835
FINAL SINGLE POINT ENERGY     -2932.466590257044

DIPOLE MOMENT
-------------

Method             : SCF
Type of density    : Electron Density
Multiplicity       :   1
Irrep              :   0
Energy             : -2932.4913793415566943 Eh
Relativity type    :
Basis              : AO
                                X                 Y                 Z
Electronic contribution:      5.259719052       1.789393145     -15.126809658
Nuclear contribution   :     -5.413299782      -1.799450076      16.162877581
                        -----------------------------------------
Total Dipole Moment    :     -0.153580729      -0.010056931       1.036067923
                        -----------------------------------------
Magnitude (a.u.)       :      1.047437312
Magnitude (Debye)      :      2.662374065

Rotational constants in cm-1:             0.013347             0.004777             0.004629
Rotational constants in MHz :           400.145686           143.201859           138.770978

                             ****ORCA TERMINATED NORMALLY****
TOTAL RUN TIME: 0 days 0 hours 1 minutes 19 seconds 364 msec
