                         Program Version 6.0.0  -   RELEASE  -
|  1> ! r2scan-3c def2/J RI DEFGRID2 scfconv6 printgap
|  2> %output
|  3>     printlevel normal
|  4> end
|  5> %cpcm
|  6>     smd true
|  7>     smdsolvent "water"
|  8> end
|  9> * xyz 0 1
| 10> C 0.45148027 -2.4814357838 2.0342829318
| 11> C 1.5153819996 -1.4358635747 2.3027299732
| 12> O 1.3382608614 -0.301708536 1.4212198503
| 13> P 2.2484605094 -0.0463823851 0.1564109541
| 14> S 2.9965200859 -1.6144180895 -0.7573076599
| 15> O 3.3430982819 0.9276720504 0.7743723174
| 16> C 4.5094877706 1.3417209545 0.0339910712
| 17> C 5.5828875005 1.7319085056 1.030156404
| 18> S 1.0413490887 1.2520872283 -0.9872012937
| 19> C 0.3020716456 -0.0104948449 -2.0624041836
| 20> S -0.6824422141 -1.2281458082 -1.1529703151
| 21> P -2.0904423955 0.1305499688 -0.3517743618
| 22> S -2.6478890321 1.5930331875 -1.5374873879
| 23> O -1.4260500838 0.5337019964 1.0238410355
| 24> C -1.6361945624 1.822184805 1.6328528582
| 25> C -3.0220985755 1.9219169404 2.2339553124
| 26> O -3.2558232708 -0.8244736682 0.1459907702
| 27> C -4.1868479484 -1.4202141733 -0.7811940721
| 28> C -5.3418207802 -1.9854305361 0.0202427828
| 29> H -0.5351149175 -2.0253437467 2.0710446235
| 30> H 0.594511781 -2.9203190216 1.0488253813
| 31> H 0.5182865962 -3.26187219 2.7853829453
| 32> H 2.5168597995 -1.8514233317 2.1599362079
| 33> H 1.4274541936 -1.0230070438 3.3088223322
| 34> H 4.8345628474 0.5092544464 -0.5993496322
| 35> H 4.2252343866 2.1858870005 -0.599410178
| 36> H 6.4600543584 2.0745966917 0.4912649564
| 37> H 5.2197030861 2.5287579957 1.6726149194
| 38> H 5.8510613809 0.8775912099 1.6453702193
| 39> H 1.0889840341 -0.5669143769 -2.5702139511
| 40> H -0.3322733779 0.523660137 -2.76905415
| 41> H -0.8522265561 1.8879464516 2.3886562421
| 42> H -1.4826668103 2.5976928703 0.8747944744
| 43> H -3.1854243376 1.1124952314 2.9402470062
| 44> H -3.1289778399 2.8754670767 2.7413410201
| 45> H -3.7679174395 1.8549196707 1.4424952662
| 46> H -4.5208303022 -0.6479252447 -1.4821526719
| 47> H -3.6639662819 -2.2038787599 -1.3364994981
| 48> H -5.848768493 -1.1905821404 0.5596710436
| 49> H -6.0430785693 -2.4636633256 -0.655590211
| 50> H -4.9731852729 -2.71643078 0.7338309557
| 51> *
| 52>
| 53>                          ****END OF INPUT****

CARTESIAN COORDINATES (ANGSTROEM)
---------------------------------
  C      0.451480   -2.481436    2.034283
  C      1.515382   -1.435864    2.302730
  O      1.338261   -0.301709    1.421220
  P      2.248461   -0.046382    0.156411
  S      2.996520   -1.614418   -0.757308
  O      3.343098    0.927672    0.774372
  C      4.509488    1.341721    0.033991
  C      5.582888    1.731909    1.030156
  S      1.041349    1.252087   -0.987201
  C      0.302072   -0.010495   -2.062404
  S     -0.682442   -1.228146   -1.152970
  P     -2.090442    0.130550   -0.351774
  S     -2.647889    1.593033   -1.537487
  O     -1.426050    0.533702    1.023841
  C     -1.636195    1.822185    1.632853
  C     -3.022099    1.921917    2.233955
  O     -3.255823   -0.824474    0.145991
  C     -4.186848   -1.420214   -0.781194
  C     -5.341821   -1.985431    0.020243
  H     -0.535115   -2.025344    2.071045
  H      0.594512   -2.920319    1.048825
  H      0.518287   -3.261872    2.785383
  H      2.516860   -1.851423    2.159936
  H      1.427454   -1.023007    3.308822
  H      4.834563    0.509254   -0.599350
  H      4.225234    2.185887   -0.599410
  H      6.460054    2.074597    0.491265
  H      5.219703    2.528758    1.672615
  H      5.851061    0.877591    1.645370
  H      1.088984   -0.566914   -2.570214
  H     -0.332273    0.523660   -2.769054
  H     -0.852227    1.887946    2.388656
  H     -1.482667    2.597693    0.874794
  H     -3.185424    1.112495    2.940247
  H     -3.128978    2.875467    2.741341
  H     -3.767917    1.854920    1.442495
  H     -4.520830   -0.647925   -1.482153
  H     -3.663966   -2.203879   -1.336499
  H     -5.848768   -1.190582    0.559671
  H     -6.043079   -2.463663   -0.655590
  H     -4.973185   -2.716431    0.733831

 Total Charge           Charge          ....    0
 Multiplicity           Mult            ....    1
 Number of Electrons    NEL             ....  202
 Basis Dimension        Dim             ....  539

ORBITAL ENERGIES
----------------

  NO   OCC          E(Eh)            E(eV)
   0   2.0000     -88.580536     -2410.3989
   1   2.0000     -88.578352     -2410.3395
   2   2.0000     -88.527891     -2408.9664
   3   2.0000     -88.527515     -2408.9561
   4   2.0000     -76.918585     -2093.0611
   5   2.0000     -76.918430     -2093.0569
   6   2.0000     -18.995914      -516.9051
   7   2.0000     -18.993672      -516.8441
   8   2.0000     -18.992248      -516.8053
   9   2.0000     -18.991096      -516.7740
  10   2.0000     -10.105565      -274.9864
  11   2.0000     -10.090531      -274.5773
  12   2.0000     -10.090025      -274.5635
  13   2.0000     -10.089082      -274.5379
  14   2.0000     -10.088806      -274.5304
  15   2.0000     -10.019829      -272.6534
  16   2.0000     -10.019218      -272.6368
  17   2.0000     -10.018245      -272.6103
  18   2.0000     -10.015815      -272.5442
  19   2.0000      -7.874815      -214.2846
  20   2.0000      -7.872756      -214.2286
  21   2.0000      -7.822959      -212.8735
  22   2.0000      -7.822624      -212.8644
  23   2.0000      -6.597154      -179.5177
  24   2.0000      -6.597132      -179.5171
  25   2.0000      -5.821682      -158.4160
  26   2.0000      -5.819622      -158.3600
  27   2.0000      -5.818681      -158.3344
  28   2.0000      -5.816598      -158.2777
  29   2.0000      -5.811956      -158.1514
  30   2.0000      -5.809885      -158.0950
  31   2.0000      -5.770506      -157.0235
  32   2.0000      -5.770168      -157.0143
  33   2.0000      -5.763197      -156.8246
  34   2.0000      -5.763047      -156.8205
  35   2.0000      -5.762984      -156.8188
  36   2.0000      -5.762588      -156.8080
  37   2.0000      -4.742468      -129.0491
  38   2.0000      -4.742443      -129.0484
  39   2.0000      -4.742112      -129.0394
  40   2.0000      -4.742056      -129.0379
  41   2.0000      -4.741052      -129.0106
  42   2.0000      -4.741050      -129.0105
  43   2.0000      -1.053633       -28.6708
  44   2.0000      -1.050843       -28.5949
  45   2.0000      -1.013725       -27.5848
  46   2.0000      -1.010286       -27.4913
  47   2.0000      -0.805438       -21.9171
  48   2.0000      -0.757450       -20.6113
  49   2.0000      -0.744707       -20.2645
  50   2.0000      -0.723808       -19.6958
  51   2.0000      -0.722316       -19.6552
  52   2.0000      -0.708228       -19.2719
  53   2.0000      -0.687403       -18.7052
  54   2.0000      -0.675213       -18.3735
  55   2.0000      -0.629604       -17.1324
  56   2.0000      -0.619432       -16.8556
  57   2.0000      -0.596927       -16.2432
  58   2.0000      -0.591730       -16.1018
  59   2.0000      -0.588830       -16.0229
  60   2.0000      -0.530364       -14.4319
  61   2.0000      -0.523868       -14.2552
  62   2.0000      -0.495553       -13.4847
  63   2.0000      -0.492414       -13.3993
  64   2.0000      -0.474885       -12.9223
  65   2.0000      -0.459002       -12.4901
  66   2.0000      -0.452648       -12.3172
  67   2.0000      -0.447021       -12.1640
  68   2.0000      -0.443231       -12.0609
  69   2.0000      -0.434249       -11.8165
  70   2.0000      -0.421067       -11.4578
  71   2.0000      -0.408279       -11.1098
  72   2.0000      -0.401356       -10.9215
  73   2.0000      -0.397486       -10.8162
  74   2.0000      -0.393312       -10.7026
  75   2.0000      -0.386187       -10.5087
  76   2.0000      -0.384330       -10.4582
  77   2.0000      -0.367388        -9.9971
  78   2.0000      -0.362203        -9.8560
  79   2.0000      -0.358583        -9.7575
  80   2.0000      -0.355315        -9.6686
  81   2.0000      -0.353312        -9.6141
  82   2.0000      -0.350307        -9.5323
  83   2.0000      -0.347588        -9.4583
  84   2.0000      -0.343769        -9.3544
  85   2.0000      -0.328607        -8.9419
  86   2.0000      -0.316901        -8.6233
  87   2.0000      -0.313672        -8.5355
  88   2.0000      -0.311425        -8.4743
  89   2.0000      -0.304173        -8.2770
  90   2.0000      -0.297434        -8.0936
  91   2.0000      -0.294528        -8.0145
  92   2.0000      -0.281994        -7.6734
  93   2.0000      -0.278073        -7.5667
  94   2.0000      -0.274499        -7.4695
  95   2.0000      -0.250239        -6.8093
  96   2.0000      -0.236980        -6.4485
  97   2.0000      -0.235294        -6.4027
  98   2.0000      -0.228236        -6.2106
  99   2.0000      -0.221700        -6.0328
 100   2.0000      -0.218579        -5.9478
 101   0.0000      -0.052842        -1.4379
 102   0.0000      -0.031596        -0.8598
 103   0.0000      -0.003200        -0.0871
 104   0.0000      -0.000699        -0.0190
 105   0.0000       0.010169         0.2767

MULLIKEN ATOMIC CHARGES
-----------------------
   0 C :   -0.499351
   1 C :   -0.124238
   2 O :   -0.287843
   3 P :    0.724049
   4 S :   -0.527726
   5 O :   -0.312731
   6 C :   -0.141843
   7 C :   -0.485602
   8 S :   -0.152319
   9 C :   -0.248266
  10 S :   -0.145562
  11 P :    0.740796
  12 S :   -0.532810
  13 O :   -0.286701
  14 C :   -0.149751
  15 C :   -0.485546
  16 O :   -0.317367
  17 C :   -0.150350
  18 C :   -0.481595
  19 H :    0.166227
  20 H :    0.171300
  21 H :    0.167277
  22 H :    0.170544
  23 H :    0.174859
  24 H :    0.171007
  25 H :    0.171061
  26 H :    0.169235
  27 H :    0.165623
  28 H :    0.166164
  29 H :    0.230074
  30 H :    0.230778
  31 H :    0.179833
  32 H :    0.176627
  33 H :    0.169060
  34 H :    0.171963
  35 H :    0.167059
  36 H :    0.173241
  37 H :    0.170775
  38 H :    0.166216
  39 H :    0.169900
  40 H :    0.165935
Sum of atomic charges:   -0.0000000

LOEWDIN ATOMIC CHARGES
----------------------
   0 C :   -0.405237
   1 C :    0.032904
   2 O :   -0.675597
   3 P :    0.380341
   4 S :   -0.160967
   5 O :   -0.678352
   6 C :    0.023636
   7 C :   -0.390374
   8 S :    0.171162
   9 C :   -0.411685
  10 S :    0.165456
  11 P :    0.378415
  12 S :   -0.160074
  13 O :   -0.682798
  14 C :    0.021224
  15 C :   -0.401968
  16 O :   -0.676326
  17 C :    0.024277
  18 C :   -0.388795
  19 H :    0.163725
  20 H :    0.162391
  21 H :    0.165456
  22 H :    0.181765
  23 H :    0.188268
  24 H :    0.181521
  25 H :    0.179566
  26 H :    0.168700
  27 H :    0.162899
  28 H :    0.162400
  29 H :    0.196987
  30 H :    0.196632
  31 H :    0.190545
  32 H :    0.182609
  33 H :    0.163659
  34 H :    0.168765
  35 H :    0.162472
  36 H :    0.181529
  37 H :    0.179507
  38 H :    0.162863
  39 H :    0.169104
  40 H :    0.163392

  Mayer bond orders larger than 0.100000
B(  0-C ,  1-C ) :   0.9355 B(  0-C , 19-H ) :   0.9666 B(  0-C , 20-H ) :   0.9654
B(  0-C , 21-H ) :   0.9589 B(  1-C ,  2-O ) :   0.7454 B(  1-C , 22-H ) :   0.9615
B(  1-C , 23-H ) :   0.9497 B(  2-O ,  3-P ) :   1.1874 B(  3-P ,  4-S ) :   1.7061
B(  3-P ,  5-O ) :   1.0945 B(  3-P ,  8-S ) :   1.0790 B(  5-O ,  6-C ) :   0.7688
B(  6-C ,  7-C ) :   0.9542 B(  6-C , 24-H ) :   0.9491 B(  6-C , 25-H ) :   0.9364
B(  7-C , 26-H ) :   0.9588 B(  7-C , 27-H ) :   0.9689 B(  7-C , 28-H ) :   0.9701
B(  8-S ,  9-C ) :   0.8989 B(  9-C , 10-S ) :   0.8991 B(  9-C , 29-H ) :   0.9045
B(  9-C , 30-H ) :   0.9033 B( 10-S , 11-P ) :   1.0666 B( 11-P , 12-S ) :   1.7021
B( 11-P , 13-O ) :   1.1591 B( 11-P , 16-O ) :   1.0975 B( 13-O , 14-C ) :   0.7653
B( 14-C , 15-C ) :   0.9173 B( 14-C , 31-H ) :   0.9527 B( 14-C , 32-H ) :   0.9574
B( 15-C , 33-H ) :   0.9711 B( 15-C , 34-H ) :   0.9579 B( 15-C , 35-H ) :   0.9610
B( 16-O , 17-C ) :   0.7743 B( 17-C , 18-C ) :   0.9512 B( 17-C , 36-H ) :   0.9474
B( 17-C , 37-H ) :   0.9365 B( 18-C , 38-H ) :   0.9693 B( 18-C , 39-H ) :   0.9583
B( 18-C , 40-H ) :   0.9690

Dispersion correction           -0.021407835
FINAL SINGLE POINT ENERGY     -2932.474269493678

DIPOLE MOMENT
-------------

Method             : SCF
Type of density    : Electron Density
Multiplicity       :   1
Irrep              :   0
Energy             : -2932.4990585781906702 Eh
Relativity type    :
Basis              : AO
                                X                 Y                 Z
Electronic contribution:      5.288135471       1.773910805     -14.951074478
Nuclear contribution   :     -5.413299782      -1.799450076      16.162877581
                        -----------------------------------------
Total Dipole Moment    :     -0.125164311      -0.025539271       1.211803102
                        -----------------------------------------
Magnitude (a.u.)       :      1.218517590
Magnitude (Debye)      :      3.097225574

Rotational constants in cm-1:             0.013347             0.004777             0.004629
Rotational constants in MHz :           400.145686           143.201859           138.770978

                             ****ORCA TERMINATED NORMALLY****
TOTAL RUN TIME: 0 days 0 hours 1 minutes 49 seconds 95 msec
