                         Program Version 6.0.0  -   RELEASE  -
|  1> ! wb97x-v def2-tzvp def2/J RIJCOSX DEFGRID2 scfconv7 GCP(DFT/TZ) printgap
|  2> %output
|  3>     printlevel normal
|  4> end
|  5> * xyz 0 1
|  6> C -2.5197641495474383 -0.7615011579861782 0.00036650328802656756
|  7> C -1.2314911842557812 0.009915167675956514 0.00027248423813014123
|  8> C -1.215172933783513 1.4067096935701826 0.00021743616549750117
|  9> C -0.016463662325059126 2.1132924585520483 2.9155323958201547e-05
| 10> C 1.191335495418805 1.420225938546291 -0.00010340856242999586
| 11> C 1.2236636645550383 0.025142673066589995 -3.2594009354174295e-05
| 12> C 0.000659154427707465 -0.6583818955295939 9.57203320169882e-05
| 13> O 0.07101717099211736 -2.038175933701994 0.00015638232582427985
| 14> C 2.5156043049390053 -0.7370520816351929 0.00017184560758576813
| 15> H -2.609254335156593 -1.4038520435035564 -0.8850494292882412
| 16> H -2.6073176500161503 -1.4070660287564662 0.8836265807698302
| 17> H -3.3720885735326926 -0.07905616983922782 0.002599641984395919
| 18> H -2.162387019838342 1.939066227196923 0.0003727198760610659
| 19> H -0.022929156468873172 3.1985041555087643 -3.161728419006998e-05
| 20> H 2.1320466146187025 1.9640746193606924 -0.0002933813562669997
| 21> H -0.8228053674635295 -2.4065009012200886 -0.0007207642267103725
| 22> H 2.596259139549261 -1.3882552691977934 -0.8772576596181347
| 23> H 3.364213866171834 -0.04912392517842747 -0.0035329842163305545
| 24> H 2.59935262076214 -1.3822807538702377 0.8817691276948089
| 25> *
| 26>
| 27>                          ****END OF INPUT****

CARTESIAN COORDINATES (ANGSTROEM)
---------------------------------
  C     -2.519764   -0.761501    0.000367
  C     -1.231491    0.009915    0.000272
  C     -1.215173    1.406710    0.000217
  C     -0.016464    2.113292    0.000029
  C      1.191335    1.420226   -0.000103
  C      1.223664    0.025143   -0.000033
  C      0.000659   -0.658382    0.000096
  O      0.071017   -2.038176    0.000156
  C      2.515604   -0.737052    0.000172
  H     -2.609254   -1.403852   -0.885049
  H     -2.607318   -1.407066    0.883627
  H     -3.372089   -0.079056    0.002600
  H     -2.162387    1.939066    0.000373
  H     -0.022929    3.198504   -0.000032
  H      2.132047    1.964075   -0.000293
  H     -0.822805   -2.406501   -0.000721
  H      2.596259   -1.388255   -0.877258
  H      3.364214   -0.049124   -0.003533
  H      2.599353   -1.382281    0.881769

 Total Charge           Charge          ....    0
 Multiplicity           Mult            ....    1
 Number of Electrons    NEL             ....   66
 Basis Dimension        Dim             ....  339

ORBITAL ENERGIES
----------------

  NO   OCC          E(Eh)            E(eV)
   0   2.0000     -21.700807      -590.5090
   1   2.0000     -12.104601      -329.3829
   2   2.0000     -12.057860      -328.1111
   3   2.0000     -12.056537      -328.0751
   4   2.0000     -12.051859      -327.9478
   5   2.0000     -12.046687      -327.8070
   6   2.0000     -12.044449      -327.7461
   7   2.0000     -12.039625      -327.6149
   8   2.0000     -12.036084      -327.5185
   9   2.0000      -1.712784       -46.6072
  10   2.0000      -1.384988       -37.6874
  11   2.0000      -1.306789       -35.5595
  12   2.0000      -1.281689       -34.8765
  13   2.0000      -1.210766       -32.9466
  14   2.0000      -1.187864       -32.3234
  15   2.0000      -1.138395       -30.9773
  16   2.0000      -1.087886       -29.6029
  17   2.0000      -1.051216       -28.6051
  18   2.0000      -1.000257       -27.2184
  19   2.0000      -0.944246       -25.6942
  20   2.0000      -0.942490       -25.6465
  21   2.0000      -0.929103       -25.2822
  22   2.0000      -0.889831       -24.2135
  23   2.0000      -0.867958       -23.6183
  24   2.0000      -0.849940       -23.1280
  25   2.0000      -0.845873       -23.0174
  26   2.0000      -0.828244       -22.5377
  27   2.0000      -0.823555       -22.4101
  28   2.0000      -0.809944       -22.0397
  29   2.0000      -0.803139       -21.8545
  30   2.0000      -0.750519       -20.4226
  31   2.0000      -0.631352       -17.1800
  32   2.0000      -0.627745       -17.0818
  33   0.0000      -0.242277        -6.5927
  34   0.0000      -0.236828        -6.4444
  35   0.0000      -0.150216        -4.0876
  36   0.0000      -0.072495        -1.9727
  37   0.0000      -0.068494        -1.8638

MULLIKEN ATOMIC CHARGES
-----------------------
   0 C :   -0.473158
   1 C :    0.125205
   2 C :   -0.186270
   3 C :   -0.131723
   4 C :   -0.173634
   5 C :    0.036897
   6 C :    0.122129
   7 O :   -0.390658
   8 C :   -0.333247
   9 H :    0.138104
  10 H :    0.137941
  11 H :    0.126808
  12 H :    0.107573
  13 H :    0.111783
  14 H :    0.109663
  15 H :    0.317663
  16 H :    0.122164
  17 H :    0.110724
  18 H :    0.122037
Sum of atomic charges:   -0.0000000

LOEWDIN ATOMIC CHARGES
----------------------
   0 C :   -0.265592
   1 C :   -0.169958
   2 C :   -0.124111
   3 C :   -0.157579
   4 C :   -0.118781
   5 C :   -0.153406
   6 C :   -0.200503
   7 O :    0.071568
   8 C :   -0.248855
   9 H :    0.124634
  10 H :    0.124588
  11 H :    0.130681
  12 H :    0.142206
  13 H :    0.139947
  14 H :    0.143051
  15 H :    0.182114
  16 H :    0.128639
  17 H :    0.122712
  18 H :    0.128647

  Mayer bond orders larger than 0.100000
B(  0-C ,  1-C ) :   0.8773 B(  0-C ,  9-H ) :   0.9840 B(  0-C , 10-H ) :   0.9841
B(  0-C , 11-H ) :   0.9816 B(  1-C ,  2-C ) :   1.3896 B(  1-C ,  6-C ) :   1.3296
B(  2-C ,  3-C ) :   1.4508 B(  2-C , 12-H ) :   0.9657 B(  3-C ,  4-C ) :   1.4366
B(  3-C , 13-H ) :   0.9804 B(  4-C ,  5-C ) :   1.4313 B(  4-C , 14-H ) :   0.9707
B(  5-C ,  6-C ) :   1.3728 B(  5-C ,  8-C ) :   0.9621 B(  6-C ,  7-O ) :   1.2019
B(  7-O , 15-H ) :   0.8838 B(  8-C , 16-H ) :   0.9666 B(  8-C , 17-H ) :   0.9944
B(  8-C , 18-H ) :   0.9665

FINAL SINGLE POINT ENERGY      -386.123375796506

DIPOLE MOMENT
-------------

Method             : SCF
Type of density    : Electron Density
Multiplicity       :   1
Irrep              :   0
Energy             :  -386.1347561548062686 Eh
Relativity type    :
Basis              : AO
                                X                 Y                 Z
Electronic contribution:      0.260617415       0.872448600      -0.000533645
Nuclear contribution   :     -0.817451197      -0.998822129       0.000145881
                        -----------------------------------------
Total Dipole Moment    :     -0.556833782      -0.126373529      -0.000387765
                        -----------------------------------------
Magnitude (a.u.)       :      0.570994115
Magnitude (Debye)      :      1.451351700

Rotational constants in cm-1:             0.076063             0.058811             0.033581
Rotational constants in MHz :          2280.324137          1763.110559          1006.742542

                             ****ORCA TERMINATED NORMALLY****
TOTAL RUN TIME: 0 days 0 hours 3 minutes 17 seconds 565 msec
