                         Program Version 6.0.0  -   RELEASE  -
|  1> ! wb97x-v def2-tzvp def2/J RIJCOSX DEFGRID2 scfconv7 GCP(DFT/TZ) printgap
|  2> %output
|  3>     printlevel normal
|  4> end
|  5> %cpcm
|  6>     smd true
|  7>     smdsolvent "water"
|  8> end
|  9> * xyz 0 1
| 10> C -2.5197641495474383 -0.7615011579861782 0.00036650328802656756
| 11> C -1.2314911842557812 0.009915167675956514 0.00027248423813014123
| 12> C -1.215172933783513 1.4067096935701826 0.00021743616549750117
| 13> C -0.016463662325059126 2.1132924585520483 2.9155323958201547e-05
| 14> C 1.191335495418805 1.420225938546291 -0.00010340856242999586
| 15> C 1.2236636645550383 0.025142673066589995 -3.2594009354174295e-05
| 16> C 0.000659154427707465 -0.6583818955295939 9.57203320169882e-05
| 17> O 0.07101717099211736 -2.038175933701994 0.00015638232582427985
| 18> C 2.5156043049390053 -0.7370520816351929 0.00017184560758576813
| 19> H -2.609254335156593 -1.4038520435035564 -0.8850494292882412
| 20> H -2.6073176500161503 -1.4070660287564662 0.8836265807698302
| 21> H -3.3720885735326926 -0.07905616983922782 0.002599641984395919
| 22> H -2.162387019838342 1.939066227196923 0.0003727198760610659
| 23> H -0.022929156468873172 3.1985041555087643 -3.161728419006998e-05
| 24> H 2.1320466146187025 1.9640746193606924 -0.0002933813562669997
| 25> H -0.8228053674635295 -2.4065009012200886 -0.0007207642267103725
| 26> H 2.596259139549261 -1.3882552691977934 -0.8772576596181347
| 27> H 3.364213866171834 -0.04912392517842747 -0.0035329842163305545
| 28> H 2.59935262076214 -1.3822807538702377 0.8817691276948089
| 29> *
| 30>
| 31>                          ****END OF INPUT****

CARTESIAN COORDINATES (ANGSTROEM)
---------------------------------
  C     -2.519764   -0.761501    0.000367
  C     -1.231491    0.009915    0.000272
  C     -1.215173    1.406710    0.000217
  C     -0.016464    2.113292    0.000029
  C      1.191335    1.420226   -0.000103
  C      1.223664    0.025143   -0.000033
  C      0.000659   -0.658382    0.000096
  O      0.071017   -2.038176    0.000156
  C      2.515604   -0.737052    0.000172
  H     -2.609254   -1.403852   -0.885049
  H     -2.607318   -1.407066    0.883627
  H     -3.372089   -0.079056    0.002600
  H     -2.162387    1.939066    0.000373
  H     -0.022929    3.198504   -0.000032
  H      2.132047    1.964075   -0.000293
  H     -0.822805   -2.406501   -0.000721
  H      2.596259   -1.388255   -0.877258
  H      3.364214   -0.049124   -0.003533
  H      2.599353   -1.382281    0.881769

 Total Charge           Charge          ....    0
 Multiplicity           Mult            ....    1
 Number of Electrons    NEL             ....   66
 Basis Dimension        Dim             ....  339

ORBITAL ENERGIES
----------------

  NO   OCC          E(Eh)            E(eV)
   0   2.0000     -21.699683      -590.4784
   1   2.0000     -12.104968      -329.3929
   2   2.0000     -12.055849      -328.0563
   3   2.0000     -12.053499      -327.9924
   4   2.0000     -12.044602      -327.7503
   5   2.0000     -12.043975      -327.7332
   6   2.0000     -12.039504      -327.6116
   7   2.0000     -12.038644      -327.5882
   8   2.0000     -12.034214      -327.4676
   9   2.0000      -1.711985       -46.5855
  10   2.0000      -1.385700       -37.7068
  11   2.0000      -1.304446       -35.4958
  12   2.0000      -1.281559       -34.8730
  13   2.0000      -1.203503       -32.7490
  14   2.0000      -1.185864       -32.2690
  15   2.0000      -1.135730       -30.9048
  16   2.0000      -1.086740       -29.5717
  17   2.0000      -1.049474       -28.5576
  18   2.0000      -1.001824       -27.2610
  19   2.0000      -0.945729       -25.7346
  20   2.0000      -0.942567       -25.6486
  21   2.0000      -0.926193       -25.2030
  22   2.0000      -0.885097       -24.0847
  23   2.0000      -0.864518       -23.5247
  24   2.0000      -0.838725       -22.8229
  25   2.0000      -0.835166       -22.7260
  26   2.0000      -0.826407       -22.4877
  27   2.0000      -0.815115       -22.1804
  28   2.0000      -0.803459       -21.8632
  29   2.0000      -0.800528       -21.7835
  30   2.0000      -0.751207       -20.4414
  31   2.0000      -0.631653       -17.1881
  32   2.0000      -0.630458       -17.1556
  33   0.0000      -0.243961        -6.6385
  34   0.0000      -0.237781        -6.4703
  35   0.0000      -0.147896        -4.0244
  36   0.0000      -0.072570        -1.9747
  37   0.0000      -0.042976        -1.1694

MULLIKEN ATOMIC CHARGES
-----------------------
   0 C :   -0.461019
   1 C :    0.060707
   2 C :   -0.232917
   3 C :   -0.181453
   4 C :   -0.226714
   5 C :    0.020881
   6 C :    0.153084
   7 O :   -0.460822
   8 C :   -0.393186
   9 H :    0.155744
  10 H :    0.155696
  11 H :    0.148903
  12 H :    0.156928
  13 H :    0.156563
  14 H :    0.155484
  15 H :    0.374170
  16 H :    0.138093
  17 H :    0.141703
  18 H :    0.138154
Sum of atomic charges:   -0.0000000

LOEWDIN ATOMIC CHARGES
----------------------
   0 C :   -0.259547
   1 C :   -0.170661
   2 C :   -0.133318
   3 C :   -0.173119
   4 C :   -0.132966
   5 C :   -0.165564
   6 C :   -0.209165
   7 O :    0.050013
   8 C :   -0.255744
   9 H :    0.133526
  10 H :    0.133498
  11 H :    0.134744
  12 H :    0.152825
  13 H :    0.148313
  14 H :    0.152456
  15 H :    0.203492
  16 H :    0.130345
  17 H :    0.130468
  18 H :    0.130403

  Mayer bond orders larger than 0.100000
B(  0-C ,  1-C ) :   0.9301 B(  0-C ,  9-H ) :   0.9718 B(  0-C , 10-H ) :   0.9719
B(  0-C , 11-H ) :   0.9766 B(  1-C ,  2-C ) :   1.3652 B(  1-C ,  6-C ) :   1.3291
B(  2-C ,  3-C ) :   1.4187 B(  2-C , 12-H ) :   0.9703 B(  3-C ,  4-C ) :   1.4167
B(  3-C , 13-H ) :   0.9853 B(  4-C ,  5-C ) :   1.4102 B(  4-C , 14-H ) :   0.9754
B(  5-C ,  6-C ) :   1.3618 B(  5-C ,  8-C ) :   0.9530 B(  6-C ,  7-O ) :   1.1689
B(  7-O , 15-H ) :   0.8473 B(  8-C , 16-H ) :   0.9670 B(  8-C , 17-H ) :   0.9883
B(  8-C , 18-H ) :   0.9669

FINAL SINGLE POINT ENERGY      -386.131294043003

DIPOLE MOMENT
-------------

Method             : SCF
Type of density    : Electron Density
Multiplicity       :   1
Irrep              :   0
Energy             :  -386.1426744013032817 Eh
Relativity type    :
Basis              : AO
                                X                 Y                 Z
Electronic contribution:      0.010807977       0.802346808      -0.000686175
Nuclear contribution   :     -0.817451197      -0.998822129       0.000145881
                        -----------------------------------------
Total Dipole Moment    :     -0.806643220      -0.196475321      -0.000540294
                        -----------------------------------------
Magnitude (a.u.)       :      0.830226552
Magnitude (Debye)      :      2.110268190

Rotational constants in cm-1:             0.076063             0.058811             0.033581
Rotational constants in MHz :          2280.324137          1763.110559          1006.742542

                             ****ORCA TERMINATED NORMALLY****
TOTAL RUN TIME: 0 days 0 hours 3 minutes 21 seconds 992 msec
