                         Program Version 6.0.0  -   RELEASE  -
|  1> ! r2scan-3c def2/J RI DEFGRID2 scfconv6 printgap
|  2> %output
|  3>     printlevel normal
|  4> end
|  5> * xyz 0 1
|  6> C 5.2342603592 -2.1630505383 -1.6435287808
|  7> C 4.1783427365 -1.082450048 -1.7609090988
|  8> O 3.1832414874 -1.3208640357 -0.7442184474
|  9> P 2.2340629783 -0.1650725319 -0.2052978722
| 10> S 3.1623730441 1.5029315246 0.2529937256
| 11> O 1.4903339789 -0.9137824914 0.9681105533
| 12> C 1.8899663005 -0.8190492797 2.3553448911
| 13> C 0.650861517 -0.6717725242 3.2147372576
| 14> S 0.7394388864 -0.0421821253 -1.6864774617
| 15> C 0.1009887456 1.5912107542 -1.2141391195
| 16> S -0.6116163169 1.6241330989 0.4495808856
| 17> P -2.1564156341 0.2281398563 0.0783846363
| 18> S -3.0187280962 0.3041450356 -1.6842857855
| 19> O -3.1325417041 0.3865404577 1.3208553505
| 20> C -4.2437076538 1.2999536331 1.3222397368
| 21> C -3.7949195075 2.747040063 1.3329999757
| 22> O -1.4067136219 -1.1161966867 0.4463265014
| 23> C -1.7815004469 -2.3888778562 -0.1124423064
| 24> C -3.107955017 -2.8696547229 0.4376296654
| 25> H 4.7766220194 -3.1413707087 -1.7579857916
| 26> H 5.9777743284 -2.0195823167 -2.4205778941
| 27> H 5.7162319951 -2.1106362794 -0.671348469
| 28> H 3.6817209442 -1.1114470905 -2.734237678
| 29> H 4.6051209972 -0.0860245192 -1.6040432358
| 30> H 2.4333822512 -1.7366016851 2.5906348731
| 31> H 2.5587009134 0.0407344861 2.4722903608
| 32> H 0.9420070038 -0.6753280814 4.2601670547
| 33> H 0.1418958961 0.2618804331 2.9874063658
| 34> H -0.0331428303 -1.4940480683 3.0251091521
| 35> H -0.6631020422 1.8436435606 -1.9486453555
| 36> H 0.9146647172 2.3157613654 -1.2172533023
| 37> H -4.8592993327 1.0961554647 0.4402395467
| 38> H -4.7934164127 1.0414767029 2.2282237022
| 39> H -4.6601033878 3.3907886563 1.4551174304
| 40> H -3.0965667279 2.9210322714 2.147760211
| 41> H -3.3025883824 2.9922467243 0.3928448276
| 42> H -1.8243464362 -2.2918931423 -1.2025701766
| 43> H -0.9580583947 -3.0494962457 0.1636923718
| 44> H -3.0819234844 -2.8869110712 1.5239623783
| 45> H -3.9036987374 -2.198823273 0.115469228
| 46> H -3.3139669422 -3.8673672869 0.0629826098
| 47> *
| 48>
| 49>                          ****END OF INPUT****

CARTESIAN COORDINATES (ANGSTROEM)
---------------------------------
  C      5.234260   -2.163051   -1.643529
  C      4.178343   -1.082450   -1.760909
  O      3.183241   -1.320864   -0.744218
  P      2.234063   -0.165073   -0.205298
  S      3.162373    1.502932    0.252994
  O      1.490334   -0.913782    0.968111
  C      1.889966   -0.819049    2.355345
  C      0.650862   -0.671773    3.214737
  S      0.739439   -0.042182   -1.686477
  C      0.100989    1.591211   -1.214139
  S     -0.611616    1.624133    0.449581
  P     -2.156416    0.228140    0.078385
  S     -3.018728    0.304145   -1.684286
  O     -3.132542    0.386540    1.320855
  C     -4.243708    1.299954    1.322240
  C     -3.794920    2.747040    1.333000
  O     -1.406714   -1.116197    0.446327
  C     -1.781500   -2.388878   -0.112442
  C     -3.107955   -2.869655    0.437630
  H      4.776622   -3.141371   -1.757986
  H      5.977774   -2.019582   -2.420578
  H      5.716232   -2.110636   -0.671348
  H      3.681721   -1.111447   -2.734238
  H      4.605121   -0.086025   -1.604043
  H      2.433382   -1.736602    2.590635
  H      2.558701    0.040734    2.472290
  H      0.942007   -0.675328    4.260167
  H      0.141896    0.261880    2.987406
  H     -0.033143   -1.494048    3.025109
  H     -0.663102    1.843644   -1.948645
  H      0.914665    2.315761   -1.217253
  H     -4.859299    1.096155    0.440240
  H     -4.793416    1.041477    2.228224
  H     -4.660103    3.390789    1.455117
  H     -3.096567    2.921032    2.147760
  H     -3.302588    2.992247    0.392845
  H     -1.824346   -2.291893   -1.202570
  H     -0.958058   -3.049496    0.163692
  H     -3.081923   -2.886911    1.523962
  H     -3.903699   -2.198823    0.115469
  H     -3.313967   -3.867367    0.062983

 Total Charge           Charge          ....    0
 Multiplicity           Mult            ....    1
 Number of Electrons    NEL             ....  202
 Basis Dimension        Dim             ....  539

ORBITAL ENERGIES
----------------

  NO   OCC          E(Eh)            E(eV)
   0   2.0000     -88.574607     -2410.2376
   1   2.0000     -88.574149     -2410.2251
   2   2.0000     -88.522156     -2408.8103
   3   2.0000     -88.518453     -2408.7096
   4   2.0000     -76.913463     -2092.9217
   5   2.0000     -76.911349     -2092.8642
   6   2.0000     -18.994141      -516.8568
   7   2.0000     -18.989671      -516.7352
   8   2.0000     -18.985811      -516.6302
   9   2.0000     -18.985522      -516.6223
  10   2.0000     -10.105162      -274.9754
  11   2.0000     -10.100014      -274.8354
  12   2.0000     -10.096637      -274.7434
  13   2.0000     -10.094229      -274.6779
  14   2.0000     -10.093901      -274.6690
  15   2.0000     -10.031978      -272.9840
  16   2.0000     -10.029525      -272.9173
  17   2.0000     -10.027309      -272.8569
  18   2.0000     -10.024115      -272.7700
  19   2.0000      -7.868890      -214.1234
  20   2.0000      -7.868613      -214.1158
  21   2.0000      -7.816902      -212.7087
  22   2.0000      -7.813326      -212.6114
  23   2.0000      -6.592079      -179.3796
  24   2.0000      -6.589927      -179.3210
  25   2.0000      -5.815807      -158.2561
  26   2.0000      -5.815514      -158.2482
  27   2.0000      -5.812731      -158.1725
  28   2.0000      -5.812519      -158.1667
  29   2.0000      -5.805995      -157.9891
  30   2.0000      -5.805619      -157.9789
  31   2.0000      -5.764482      -156.8595
  32   2.0000      -5.760847      -156.7606
  33   2.0000      -5.757195      -156.6612
  34   2.0000      -5.756969      -156.6551
  35   2.0000      -5.753615      -156.5638
  36   2.0000      -5.753416      -156.5584
  37   2.0000      -4.737416      -128.9116
  38   2.0000      -4.736945      -128.8988
  39   2.0000      -4.736014      -128.8735
  40   2.0000      -4.735293      -128.8539
  41   2.0000      -4.734871      -128.8424
  42   2.0000      -4.733746      -128.8118
  43   2.0000      -1.049818       -28.5670
  44   2.0000      -1.046190       -28.4683
  45   2.0000      -1.010456       -27.4959
  46   2.0000      -1.006570       -27.3902
  47   2.0000      -0.802460       -21.8360
  48   2.0000      -0.758775       -20.6473
  49   2.0000      -0.748413       -20.3653
  50   2.0000      -0.730690       -19.8831
  51   2.0000      -0.729595       -19.8533
  52   2.0000      -0.709176       -19.2977
  53   2.0000      -0.683827       -18.6079
  54   2.0000      -0.668315       -18.1858
  55   2.0000      -0.633821       -17.2472
  56   2.0000      -0.621444       -16.9104
  57   2.0000      -0.604608       -16.4522
  58   2.0000      -0.600182       -16.3318
  59   2.0000      -0.588157       -16.0046
  60   2.0000      -0.531157       -14.4535
  61   2.0000      -0.517484       -14.0814
  62   2.0000      -0.496652       -13.5146
  63   2.0000      -0.492307       -13.3964
  64   2.0000      -0.473457       -12.8834
  65   2.0000      -0.458472       -12.4756
  66   2.0000      -0.457902       -12.4602
  67   2.0000      -0.451424       -12.2839
  68   2.0000      -0.448325       -12.1995
  69   2.0000      -0.431384       -11.7386
  70   2.0000      -0.422216       -11.4891
  71   2.0000      -0.410856       -11.1800
  72   2.0000      -0.404836       -11.0161
  73   2.0000      -0.404255       -11.0003
  74   2.0000      -0.393990       -10.7210
  75   2.0000      -0.391027       -10.6404
  76   2.0000      -0.384262       -10.4563
  77   2.0000      -0.372500       -10.1362
  78   2.0000      -0.370684       -10.0868
  79   2.0000      -0.364305        -9.9132
  80   2.0000      -0.362886        -9.8746
  81   2.0000      -0.360127        -9.7996
  82   2.0000      -0.355840        -9.6829
  83   2.0000      -0.351413        -9.5624
  84   2.0000      -0.347602        -9.4587
  85   2.0000      -0.333222        -9.0674
  86   2.0000      -0.318650        -8.6709
  87   2.0000      -0.313942        -8.5428
  88   2.0000      -0.310650        -8.4532
  89   2.0000      -0.304108        -8.2752
  90   2.0000      -0.295070        -8.0293
  91   2.0000      -0.291757        -7.9391
  92   2.0000      -0.280191        -7.6244
  93   2.0000      -0.278368        -7.5748
  94   2.0000      -0.273765        -7.4495
  95   2.0000      -0.244432        -6.6513
  96   2.0000      -0.229949        -6.2572
  97   2.0000      -0.227098        -6.1797
  98   2.0000      -0.220903        -6.0111
  99   2.0000      -0.213277        -5.8036
 100   2.0000      -0.212355        -5.7785
 101   0.0000      -0.046987        -1.2786
 102   0.0000      -0.023871        -0.6496
 103   0.0000       0.000883         0.0240
 104   0.0000       0.003762         0.1024
 105   0.0000       0.011876         0.3232

MULLIKEN ATOMIC CHARGES
-----------------------
   0 C :   -0.443654
   1 C :   -0.149444
   2 O :   -0.293069
   3 P :    0.725248
   4 S :   -0.500707
   5 O :   -0.259139
   6 C :   -0.131803
   7 C :   -0.459983
   8 S :   -0.141481
   9 C :   -0.243424
  10 S :   -0.126042
  11 P :    0.697038
  12 S :   -0.486199
  13 O :   -0.307498
  14 C :   -0.153285
  15 C :   -0.450702
  16 O :   -0.243151
  17 C :   -0.169392
  18 C :   -0.441000
  19 H :    0.153062
  20 H :    0.146502
  21 H :    0.156703
  22 H :    0.150525
  23 H :    0.170235
  24 H :    0.146139
  25 H :    0.169587
  26 H :    0.141917
  27 H :    0.164608
  28 H :    0.156209
  29 H :    0.208328
  30 H :    0.211322
  31 H :    0.171936
  32 H :    0.148643
  33 H :    0.148565
  34 H :    0.155560
  35 H :    0.177328
  36 H :    0.173610
  37 H :    0.159151
  38 H :    0.153943
  39 H :    0.166932
  40 H :    0.146880
Sum of atomic charges:    0.0000000

LOEWDIN ATOMIC CHARGES
----------------------
   0 C :   -0.386412
   1 C :    0.019494
   2 O :   -0.663658
   3 P :    0.373504
   4 S :   -0.141089
   5 O :   -0.658672
   6 C :    0.026340
   7 C :   -0.392606
   8 S :    0.178946
   9 C :   -0.418658
  10 S :    0.173702
  11 P :    0.380500
  12 S :   -0.130561
  13 O :   -0.659378
  14 C :    0.020066
  15 C :   -0.406902
  16 O :   -0.672677
  17 C :    0.017241
  18 C :   -0.399532
  19 H :    0.159455
  20 H :    0.159747
  21 H :    0.160645
  22 H :    0.171295
  23 H :    0.180802
  24 H :    0.171614
  25 H :    0.182702
  26 H :    0.156775
  27 H :    0.164021
  28 H :    0.161918
  29 H :    0.189266
  30 H :    0.191092
  31 H :    0.179536
  32 H :    0.179642
  33 H :    0.159472
  34 H :    0.160313
  35 H :    0.165729
  36 H :    0.181484
  37 H :    0.181921
  38 H :    0.159491
  39 H :    0.164249
  40 H :    0.159184

  Mayer bond orders larger than 0.100000
B(  0-C ,  1-C ) :   0.9576 B(  0-C , 19-H ) :   0.9719 B(  0-C , 20-H ) :   0.9647
B(  0-C , 21-H ) :   0.9721 B(  1-C ,  2-O ) :   0.7780 B(  1-C , 22-H ) :   0.9455
B(  1-C , 23-H ) :   0.9523 B(  2-O ,  3-P ) :   1.0890 B(  3-P ,  4-S ) :   1.7214
B(  3-P ,  5-O ) :   1.1906 B(  3-P ,  8-S ) :   1.0643 B(  5-O ,  6-C ) :   0.7666
B(  6-C ,  7-C ) :   0.9631 B(  6-C , 24-H ) :   0.9515 B(  6-C , 25-H ) :   0.9581
B(  7-C , 26-H ) :   0.9640 B(  7-C , 27-H ) :   0.9663 B(  7-C , 28-H ) :   0.9686
B(  8-S ,  9-C ) :   0.9055 B(  9-C , 10-S ) :   0.9070 B(  9-C , 29-H ) :   0.9104
B(  9-C , 30-H ) :   0.9085 B( 10-S , 11-P ) :   1.0791 B( 11-P , 12-S ) :   1.7503
B( 11-P , 13-O ) :   1.0540 B( 11-P , 16-O ) :   1.1211 B( 13-O , 14-C ) :   0.8136
B( 14-C , 15-C ) :   0.9231 B( 14-C , 31-H ) :   0.9677 B( 14-C , 32-H ) :   0.9581
B( 15-C , 33-H ) :   0.9586 B( 15-C , 34-H ) :   0.9683 B( 15-C , 35-H ) :   0.9627
B( 16-O , 17-C ) :   0.7822 B( 17-C , 18-C ) :   0.9179 B( 17-C , 36-H ) :   0.9610
B( 17-C , 37-H ) :   0.9647 B( 18-C , 38-H ) :   0.9736 B( 18-C , 39-H ) :   0.9608
B( 18-C , 40-H ) :   0.9633

Dispersion correction           -0.021695334
FINAL SINGLE POINT ENERGY     -2932.465165147049

DIPOLE MOMENT
-------------

Method             : SCF
Type of density    : Electron Density
Multiplicity       :   1
Irrep              :   0
Energy             : -2932.4898744723464006 Eh
Relativity type    :
Basis              : AO
                                X                 Y                 Z
Electronic contribution:      2.468033883       9.469873623      -9.282257940
Nuclear contribution   :     -2.647800676     -10.298535294       9.891959063
                        -----------------------------------------
Total Dipole Moment    :     -0.179766792      -0.828661671       0.609701122
                        -----------------------------------------
Magnitude (a.u.)       :      1.044381024
Magnitude (Debye)      :      2.654605598

Rotational constants in cm-1:             0.012991             0.004925             0.004797
Rotational constants in MHz :           389.473106           147.659950           143.817650

                             ****ORCA TERMINATED NORMALLY****
TOTAL RUN TIME: 0 days 0 hours 1 minutes 19 seconds 850 msec
