                         Program Version 6.0.0  -   RELEASE  -
|  1> ! r2scan-3c def2/J RI DEFGRID2 scfconv6 printgap
|  2> %output
|  3>     printlevel normal
|  4> end
|  5> %cpcm
|  6>     smd true
|  7>     smdsolvent "water"
|  8> end
|  9> * xyz 0 1
| 10> C 5.2342603592 -2.1630505383 -1.6435287808
| 11> C 4.1783427365 -1.082450048 -1.7609090988
| 12> O 3.1832414874 -1.3208640357 -0.7442184474
| 13> P 2.2340629783 -0.1650725319 -0.2052978722
| 14> S 3.1623730441 1.5029315246 0.2529937256
| 15> O 1.4903339789 -0.9137824914 0.9681105533
| 16> C 1.8899663005 -0.8190492797 2.3553448911
| 17> C 0.650861517 -0.6717725242 3.2147372576
| 18> S 0.7394388864 -0.0421821253 -1.6864774617
| 19> C 0.1009887456 1.5912107542 -1.2141391195
| 20> S -0.6116163169 1.6241330989 0.4495808856
| 21> P -2.1564156341 0.2281398563 0.0783846363
| 22> S -3.0187280962 0.3041450356 -1.6842857855
| 23> O -3.1325417041 0.3865404577 1.3208553505
| 24> C -4.2437076538 1.2999536331 1.3222397368
| 25> C -3.7949195075 2.747040063 1.3329999757
| 26> O -1.4067136219 -1.1161966867 0.4463265014
| 27> C -1.7815004469 -2.3888778562 -0.1124423064
| 28> C -3.107955017 -2.8696547229 0.4376296654
| 29> H 4.7766220194 -3.1413707087 -1.7579857916
| 30> H 5.9777743284 -2.0195823167 -2.4205778941
| 31> H 5.7162319951 -2.1106362794 -0.671348469
| 32> H 3.6817209442 -1.1114470905 -2.734237678
| 33> H 4.6051209972 -0.0860245192 -1.6040432358
| 34> H 2.4333822512 -1.7366016851 2.5906348731
| 35> H 2.5587009134 0.0407344861 2.4722903608
| 36> H 0.9420070038 -0.6753280814 4.2601670547
| 37> H 0.1418958961 0.2618804331 2.9874063658
| 38> H -0.0331428303 -1.4940480683 3.0251091521
| 39> H -0.6631020422 1.8436435606 -1.9486453555
| 40> H 0.9146647172 2.3157613654 -1.2172533023
| 41> H -4.8592993327 1.0961554647 0.4402395467
| 42> H -4.7934164127 1.0414767029 2.2282237022
| 43> H -4.6601033878 3.3907886563 1.4551174304
| 44> H -3.0965667279 2.9210322714 2.147760211
| 45> H -3.3025883824 2.9922467243 0.3928448276
| 46> H -1.8243464362 -2.2918931423 -1.2025701766
| 47> H -0.9580583947 -3.0494962457 0.1636923718
| 48> H -3.0819234844 -2.8869110712 1.5239623783
| 49> H -3.9036987374 -2.198823273 0.115469228
| 50> H -3.3139669422 -3.8673672869 0.0629826098
| 51> *
| 52>
| 53>                          ****END OF INPUT****

CARTESIAN COORDINATES (ANGSTROEM)
---------------------------------
  C      5.234260   -2.163051   -1.643529
  C      4.178343   -1.082450   -1.760909
  O      3.183241   -1.320864   -0.744218
  P      2.234063   -0.165073   -0.205298
  S      3.162373    1.502932    0.252994
  O      1.490334   -0.913782    0.968111
  C      1.889966   -0.819049    2.355345
  C      0.650862   -0.671773    3.214737
  S      0.739439   -0.042182   -1.686477
  C      0.100989    1.591211   -1.214139
  S     -0.611616    1.624133    0.449581
  P     -2.156416    0.228140    0.078385
  S     -3.018728    0.304145   -1.684286
  O     -3.132542    0.386540    1.320855
  C     -4.243708    1.299954    1.322240
  C     -3.794920    2.747040    1.333000
  O     -1.406714   -1.116197    0.446327
  C     -1.781500   -2.388878   -0.112442
  C     -3.107955   -2.869655    0.437630
  H      4.776622   -3.141371   -1.757986
  H      5.977774   -2.019582   -2.420578
  H      5.716232   -2.110636   -0.671348
  H      3.681721   -1.111447   -2.734238
  H      4.605121   -0.086025   -1.604043
  H      2.433382   -1.736602    2.590635
  H      2.558701    0.040734    2.472290
  H      0.942007   -0.675328    4.260167
  H      0.141896    0.261880    2.987406
  H     -0.033143   -1.494048    3.025109
  H     -0.663102    1.843644   -1.948645
  H      0.914665    2.315761   -1.217253
  H     -4.859299    1.096155    0.440240
  H     -4.793416    1.041477    2.228224
  H     -4.660103    3.390789    1.455117
  H     -3.096567    2.921032    2.147760
  H     -3.302588    2.992247    0.392845
  H     -1.824346   -2.291893   -1.202570
  H     -0.958058   -3.049496    0.163692
  H     -3.081923   -2.886911    1.523962
  H     -3.903699   -2.198823    0.115469
  H     -3.313967   -3.867367    0.062983

 Total Charge           Charge          ....    0
 Multiplicity           Mult            ....    1
 Number of Electrons    NEL             ....  202
 Basis Dimension        Dim             ....  539

ORBITAL ENERGIES
----------------

  NO   OCC          E(Eh)            E(eV)
   0   2.0000     -88.580015     -2410.3847
   1   2.0000     -88.578044     -2410.3311
   2   2.0000     -88.528794     -2408.9909
   3   2.0000     -88.527676     -2408.9605
   4   2.0000     -76.918615     -2093.0619
   5   2.0000     -76.918598     -2093.0615
   6   2.0000     -18.996201      -516.9129
   7   2.0000     -18.994197      -516.8584
   8   2.0000     -18.991903      -516.7960
   9   2.0000     -18.990201      -516.7496
  10   2.0000     -10.105448      -274.9832
  11   2.0000     -10.090037      -274.5639
  12   2.0000     -10.089312      -274.5441
  13   2.0000     -10.089006      -274.5358
  14   2.0000     -10.088496      -274.5219
  15   2.0000     -10.019360      -272.6407
  16   2.0000     -10.018660      -272.6216
  17   2.0000     -10.018225      -272.6098
  18   2.0000     -10.017410      -272.5876
  19   2.0000      -7.874325      -214.2713
  20   2.0000      -7.872531      -214.2225
  21   2.0000      -7.823805      -212.8966
  22   2.0000      -7.822822      -212.8698
  23   2.0000      -6.597271      -179.5209
  24   2.0000      -6.597210      -179.5192
  25   2.0000      -5.821221      -158.4035
  26   2.0000      -5.819423      -158.3545
  27   2.0000      -5.818146      -158.3198
  28   2.0000      -5.816434      -158.2732
  29   2.0000      -5.811478      -158.1384
  30   2.0000      -5.809554      -158.0860
  31   2.0000      -5.771344      -157.0462
  32   2.0000      -5.770287      -157.0175
  33   2.0000      -5.764078      -156.8485
  34   2.0000      -5.763883      -156.8432
  35   2.0000      -5.763107      -156.8221
  36   2.0000      -5.762920      -156.8170
  37   2.0000      -4.742569      -129.0519
  38   2.0000      -4.742545      -129.0512
  39   2.0000      -4.742161      -129.0408
  40   2.0000      -4.742151      -129.0405
  41   2.0000      -4.741254      -129.0161
  42   2.0000      -4.741081      -129.0114
  43   2.0000      -1.052862       -28.6498
  44   2.0000      -1.051114       -28.6023
  45   2.0000      -1.013122       -27.5685
  46   2.0000      -1.010906       -27.5082
  47   2.0000      -0.805511       -21.9191
  48   2.0000      -0.757351       -20.6086
  49   2.0000      -0.743791       -20.2396
  50   2.0000      -0.723279       -19.6814
  51   2.0000      -0.722843       -19.6696
  52   2.0000      -0.709610       -19.3095
  53   2.0000      -0.688374       -18.7316
  54   2.0000      -0.675232       -18.3740
  55   2.0000      -0.633064       -17.2266
  56   2.0000      -0.619020       -16.8444
  57   2.0000      -0.598825       -16.2948
  58   2.0000      -0.595603       -16.2072
  59   2.0000      -0.586977       -15.9725
  60   2.0000      -0.530119       -14.4253
  61   2.0000      -0.514596       -14.0029
  62   2.0000      -0.496996       -13.5240
  63   2.0000      -0.490052       -13.3350
  64   2.0000      -0.474697       -12.9172
  65   2.0000      -0.455431       -12.3929
  66   2.0000      -0.454607       -12.3705
  67   2.0000      -0.450518       -12.2592
  68   2.0000      -0.444297       -12.0899
  69   2.0000      -0.429301       -11.6819
  70   2.0000      -0.421819       -11.4783
  71   2.0000      -0.409798       -11.1512
  72   2.0000      -0.405387       -11.0311
  73   2.0000      -0.403386       -10.9767
  74   2.0000      -0.392944       -10.6926
  75   2.0000      -0.387664       -10.5489
  76   2.0000      -0.382947       -10.4205
  77   2.0000      -0.367249        -9.9934
  78   2.0000      -0.362571        -9.8661
  79   2.0000      -0.360845        -9.8191
  80   2.0000      -0.356233        -9.6936
  81   2.0000      -0.352709        -9.5977
  82   2.0000      -0.348779        -9.4908
  83   2.0000      -0.345778        -9.4091
  84   2.0000      -0.345386        -9.3984
  85   2.0000      -0.330799        -9.0015
  86   2.0000      -0.318194        -8.6585
  87   2.0000      -0.312205        -8.4955
  88   2.0000      -0.306526        -8.3410
  89   2.0000      -0.304847        -8.2953
  90   2.0000      -0.296459        -8.0671
  91   2.0000      -0.291969        -7.9449
  92   2.0000      -0.280046        -7.6204
  93   2.0000      -0.279597        -7.6082
  94   2.0000      -0.276098        -7.5130
  95   2.0000      -0.249425        -6.7872
  96   2.0000      -0.236500        -6.4355
  97   2.0000      -0.235328        -6.4036
  98   2.0000      -0.228718        -6.2237
  99   2.0000      -0.221525        -6.0280
 100   2.0000      -0.220025        -5.9872
 101   0.0000      -0.052577        -1.4307
 102   0.0000      -0.030728        -0.8362
 103   0.0000      -0.003839        -0.1045
 104   0.0000      -0.001779        -0.0484
 105   0.0000       0.009859         0.2683

MULLIKEN ATOMIC CHARGES
-----------------------
   0 C :   -0.484348
   1 C :   -0.142858
   2 O :   -0.320264
   3 P :    0.747047
   4 S :   -0.542869
   5 O :   -0.287481
   6 C :   -0.118790
   7 C :   -0.511414
   8 S :   -0.152863
   9 C :   -0.254438
  10 S :   -0.135498
  11 P :    0.732627
  12 S :   -0.527992
  13 O :   -0.334058
  14 C :   -0.153587
  15 C :   -0.487236
  16 O :   -0.274675
  17 C :   -0.160736
  18 C :   -0.483674
  19 H :    0.165712
  20 H :    0.169519
  21 H :    0.166227
  22 H :    0.171105
  23 H :    0.171237
  24 H :    0.172152
  25 H :    0.170521
  26 H :    0.168237
  27 H :    0.169589
  28 H :    0.169678
  29 H :    0.231429
  30 H :    0.232213
  31 H :    0.178417
  32 H :    0.175642
  33 H :    0.173215
  34 H :    0.169534
  35 H :    0.173170
  36 H :    0.176257
  37 H :    0.180293
  38 H :    0.169598
  39 H :    0.167576
  40 H :    0.171788
Sum of atomic charges:    0.0000000

LOEWDIN ATOMIC CHARGES
----------------------
   0 C :   -0.390036
   1 C :    0.023992
   2 O :   -0.677220
   3 P :    0.376561
   4 S :   -0.168967
   5 O :   -0.674814
   6 C :    0.031416
   7 C :   -0.397330
   8 S :    0.172815
   9 C :   -0.412195
  10 S :    0.169340
  11 P :    0.385417
  12 S :   -0.155497
  13 O :   -0.670733
  14 C :    0.025958
  15 C :   -0.410017
  16 O :   -0.690219
  17 C :    0.020882
  18 C :   -0.402455
  19 H :    0.163075
  20 H :    0.168825
  21 H :    0.162540
  22 H :    0.179588
  23 H :    0.181510
  24 H :    0.182733
  25 H :    0.183409
  26 H :    0.167183
  27 H :    0.162194
  28 H :    0.163874
  29 H :    0.196592
  30 H :    0.197456
  31 H :    0.181668
  32 H :    0.191170
  33 H :    0.168497
  34 H :    0.163649
  35 H :    0.161651
  36 H :    0.182229
  37 H :    0.190628
  38 H :    0.163808
  39 H :    0.162314
  40 H :    0.168512

  Mayer bond orders larger than 0.100000
B(  0-C ,  1-C ) :   0.9537 B(  0-C , 19-H ) :   0.9689 B(  0-C , 20-H ) :   0.9586
B(  0-C , 21-H ) :   0.9696 B(  1-C ,  2-O ) :   0.7701 B(  1-C , 22-H ) :   0.9367
B(  1-C , 23-H ) :   0.9492 B(  2-O ,  3-P ) :   1.0949 B(  3-P ,  4-S ) :   1.6900
B(  3-P ,  5-O ) :   1.1926 B(  3-P ,  8-S ) :   1.0808 B(  5-O ,  6-C ) :   0.7596
B(  6-C ,  7-C ) :   0.9470 B(  6-C , 24-H ) :   0.9409 B(  6-C , 25-H ) :   0.9555
B(  7-C , 26-H ) :   0.9576 B(  7-C , 27-H ) :   0.9662 B(  7-C , 28-H ) :   0.9674
B(  8-S ,  9-C ) :   0.8956 B(  9-C , 10-S ) :   0.8959 B(  9-C , 29-H ) :   0.9043
B(  9-C , 30-H ) :   0.9033 B( 10-S , 11-P ) :   1.0892 B( 11-P , 12-S ) :   1.7137
B( 11-P , 13-O ) :   1.0626 B( 11-P , 16-O ) :   1.1262 B( 13-O , 14-C ) :   0.8012
B( 14-C , 15-C ) :   0.9098 B( 14-C , 31-H ) :   0.9661 B( 14-C , 32-H ) :   0.9482
B( 15-C , 33-H ) :   0.9532 B( 15-C , 34-H ) :   0.9655 B( 15-C , 35-H ) :   0.9637
B( 16-O , 17-C ) :   0.7705 B( 17-C , 18-C ) :   0.9108 B( 17-C , 36-H ) :   0.9563
B( 17-C , 37-H ) :   0.9542 B( 18-C , 38-H ) :   0.9719 B( 18-C , 39-H ) :   0.9602
B( 18-C , 40-H ) :   0.9571

Dispersion correction           -0.021695334
FINAL SINGLE POINT ENERGY     -2932.472828572692

DIPOLE MOMENT
-------------

Method             : SCF
Type of density    : Electron Density
Multiplicity       :   1
Irrep              :   0
Energy             : -2932.4975378979893321 Eh
Relativity type    :
Basis              : AO
                                X                 Y                 Z
Electronic contribution:      2.409155583       9.315476473      -9.160074548
Nuclear contribution   :     -2.647800676     -10.298535294       9.891959063
                        -----------------------------------------
Total Dipole Moment    :     -0.238645092      -0.983058820       0.731884514
                        -----------------------------------------
Magnitude (a.u.)       :      1.248603647
Magnitude (Debye)      :      3.173698252

Rotational constants in cm-1:             0.012991             0.004925             0.004797
Rotational constants in MHz :           389.473106           147.659950           143.817650

                             ****ORCA TERMINATED NORMALLY****
TOTAL RUN TIME: 0 days 0 hours 1 minutes 50 seconds 987 msec
