                         Program Version 6.0.0  -   RELEASE  -
|  1> ! pbe def2-sv(p) def2/J RI DEFGRID1 loosescf d4 GCP(DFT/SV(P)) printgap
|  2> %output
|  3>     printlevel normal
|  4> end
|  5> * xyz 0 1
|  6> C 5.2565072095 -2.1435087004 -1.6458652578
|  7> C 4.2085773253 -1.0512977674 -1.7201176599
|  8> O 3.1766849475 -1.3583211344 -0.7605345446
|  9> P 2.2047668085 -0.2416758716 -0.1784795834
| 10> S 3.1231319987 1.3928020863 0.4029390066
| 11> O 1.4302041994 -1.0742502951 0.9176611123
| 12> C 1.8347778592 -1.1114222363 2.3066600089
| 13> C 0.9513144026 -0.2035181677 3.1387381252
| 14> S 0.7463103243 -0.0424311265 -1.6880064942
| 15> C 0.1320410159 1.5956086256 -1.198184164
| 16> S -0.6032911537 1.6200770719 0.4563778026
| 17> P -2.1652573632 0.2554705856 0.0583750914
| 18> S -3.0106865555 0.3537120963 -1.7111346958
| 19> O -3.1511061655 0.4216836552 1.2931669525
| 20> C -4.2440873012 1.3568039791 1.2915551413
| 21> C -3.766677761 2.7941969418 1.3310907674
| 22> O -1.4441579996 -1.1056524166 0.426590196
| 23> C -1.8372016243 -2.3674983766 -0.1442836171
| 24> C -3.1716830765 -2.8326686116 0.3996231513
| 25> H 5.7019955711 -2.1681654392 -0.6553557852
| 26> H 4.8011438746 -3.1078803287 -1.851525317
| 27> H 6.0290856385 -1.9452670544 -2.381424669
| 28> H 3.7475705185 -1.005605257 -2.7101843247
| 29> H 4.6322850294 -0.0714353239 -1.4748350302
| 30> H 1.724588889 -2.1567458641 2.5991735434
| 31> H 2.8843115838 -0.8144165636 2.3852170565
| 32> H -0.0953352152 -0.4428637222 2.965881525
| 33> H 1.1856143959 -0.3402858734 4.1895144255
| 34> H 1.118565076 0.8369733266 2.8675508832
| 35> H -0.6157652867 1.8728849408 -1.9403679357
| 36> H 0.9585707105 2.3049311679 -1.1780729482
| 37> H -4.8501598899 1.1777419273 0.3976261682
| 38> H -4.812536374 1.0959704434 2.1852713042
| 39> H -3.259781902 3.0452838997 0.4003550781
| 40> H -4.6202463212 3.452836959 1.4555917157
| 41> H -3.073480076 2.9399096444 2.1557815329
| 42> H -1.8767566838 -2.2593763235 -1.2335266162
| 43> H -1.0243913326 -3.0428223225 0.1272504682
| 44> H -3.1461602555 -2.8622360985 1.4856751355
| 45> H -3.9563462214 -2.1456957868 0.0842160684
| 46> H -3.3932024973 -3.8228360915 0.0139689561
| 47> *
| 48>
| 49>                          ****END OF INPUT****

CARTESIAN COORDINATES (ANGSTROEM)
---------------------------------
  C      5.256507   -2.143509   -1.645865
  C      4.208577   -1.051298   -1.720118
  O      3.176685   -1.358321   -0.760535
  P      2.204767   -0.241676   -0.178480
  S      3.123132    1.392802    0.402939
  O      1.430204   -1.074250    0.917661
  C      1.834778   -1.111422    2.306660
  C      0.951314   -0.203518    3.138738
  S      0.746310   -0.042431   -1.688006
  C      0.132041    1.595609   -1.198184
  S     -0.603291    1.620077    0.456378
  P     -2.165257    0.255471    0.058375
  S     -3.010687    0.353712   -1.711135
  O     -3.151106    0.421684    1.293167
  C     -4.244087    1.356804    1.291555
  C     -3.766678    2.794197    1.331091
  O     -1.444158   -1.105652    0.426590
  C     -1.837202   -2.367498   -0.144284
  C     -3.171683   -2.832669    0.399623
  H      5.701996   -2.168165   -0.655356
  H      4.801144   -3.107880   -1.851525
  H      6.029086   -1.945267   -2.381425
  H      3.747571   -1.005605   -2.710184
  H      4.632285   -0.071435   -1.474835
  H      1.724589   -2.156746    2.599174
  H      2.884312   -0.814417    2.385217
  H     -0.095335   -0.442864    2.965882
  H      1.185614   -0.340286    4.189514
  H      1.118565    0.836973    2.867551
  H     -0.615765    1.872885   -1.940368
  H      0.958571    2.304931   -1.178073
  H     -4.850160    1.177742    0.397626
  H     -4.812536    1.095970    2.185271
  H     -3.259782    3.045284    0.400355
  H     -4.620246    3.452837    1.455592
  H     -3.073480    2.939910    2.155782
  H     -1.876757   -2.259376   -1.233527
  H     -1.024391   -3.042822    0.127250
  H     -3.146160   -2.862236    1.485675
  H     -3.956346   -2.145696    0.084216
  H     -3.393202   -3.822836    0.013969

 Total Charge           Charge          ....    0
 Multiplicity           Mult            ....    1
 Number of Electrons    NEL             ....  202
 Basis Dimension        Dim             ....  334

ORBITAL ENERGIES
----------------

  NO   OCC          E(Eh)            E(eV)
   0   2.0000     -88.042386     -2395.7551
   1   2.0000     -88.041764     -2395.7382
   2   2.0000     -87.990060     -2394.3313
   3   2.0000     -87.987030     -2394.2488
   4   2.0000     -76.426572     -2079.6728
   5   2.0000     -76.424464     -2079.6154
   6   2.0000     -18.795876      -511.4618
   7   2.0000     -18.791013      -511.3294
   8   2.0000     -18.786569      -511.2085
   9   2.0000     -18.786177      -511.1979
  10   2.0000      -9.954573      -270.8777
  11   2.0000      -9.953992      -270.8619
  12   2.0000      -9.950726      -270.7730
  13   2.0000      -9.949986      -270.7529
  14   2.0000      -9.947217      -270.6775
  15   2.0000      -9.887406      -269.0500
  16   2.0000      -9.884977      -268.9839
  17   2.0000      -9.881990      -268.9026
  18   2.0000      -9.875139      -268.7162
  19   2.0000      -7.687195      -209.1792
  20   2.0000      -7.686934      -209.1721
  21   2.0000      -7.634950      -207.7576
  22   2.0000      -7.632039      -207.6783
  23   2.0000      -6.424064      -174.8077
  24   2.0000      -6.422178      -174.7563
  25   2.0000      -5.715061      -155.5147
  26   2.0000      -5.714799      -155.5076
  27   2.0000      -5.711824      -155.4266
  28   2.0000      -5.711517      -155.4183
  29   2.0000      -5.704025      -155.2144
  30   2.0000      -5.703807      -155.2085
  31   2.0000      -5.663713      -154.1175
  32   2.0000      -5.660789      -154.0379
  33   2.0000      -5.655572      -153.8959
  34   2.0000      -5.655302      -153.8886
  35   2.0000      -5.652772      -153.8197
  36   2.0000      -5.652268      -153.8060
  37   2.0000      -4.646433      -126.4359
  38   2.0000      -4.645813      -126.4190
  39   2.0000      -4.644718      -126.3892
  40   2.0000      -4.644548      -126.3846
  41   2.0000      -4.643958      -126.3685
  42   2.0000      -4.642777      -126.3364
  43   2.0000      -0.987097       -26.8603
  44   2.0000      -0.983731       -26.7687
  45   2.0000      -0.945529       -25.7292
  46   2.0000      -0.941634       -25.6232
  47   2.0000      -0.765378       -20.8270
  48   2.0000      -0.721356       -19.6291
  49   2.0000      -0.707788       -19.2599
  50   2.0000      -0.686460       -18.6795
  51   2.0000      -0.684282       -18.6203
  52   2.0000      -0.672485       -18.2992
  53   2.0000      -0.650200       -17.6928
  54   2.0000      -0.639007       -17.3883
  55   2.0000      -0.602726       -16.4010
  56   2.0000      -0.590205       -16.0603
  57   2.0000      -0.571084       -15.5400
  58   2.0000      -0.567713       -15.4483
  59   2.0000      -0.557556       -15.1719
  60   2.0000      -0.505986       -13.7686
  61   2.0000      -0.492591       -13.4041
  62   2.0000      -0.473775       -12.8921
  63   2.0000      -0.473179       -12.8758
  64   2.0000      -0.456284       -12.4161
  65   2.0000      -0.441361       -12.0100
  66   2.0000      -0.439958       -11.9719
  67   2.0000      -0.433625       -11.7995
  68   2.0000      -0.429293       -11.6817
  69   2.0000      -0.414370       -11.2756
  70   2.0000      -0.407120       -11.0783
  71   2.0000      -0.391459       -10.6521
  72   2.0000      -0.387872       -10.5545
  73   2.0000      -0.383971       -10.4484
  74   2.0000      -0.379568       -10.3286
  75   2.0000      -0.376563       -10.2468
  76   2.0000      -0.371970       -10.1218
  77   2.0000      -0.357352        -9.7240
  78   2.0000      -0.353035        -9.6066
  79   2.0000      -0.349991        -9.5237
  80   2.0000      -0.347305        -9.4507
  81   2.0000      -0.344778        -9.3819
  82   2.0000      -0.341440        -9.2911
  83   2.0000      -0.336896        -9.1674
  84   2.0000      -0.333299        -9.0695
  85   2.0000      -0.319305        -8.6887
  86   2.0000      -0.303333        -8.2541
  87   2.0000      -0.298923        -8.1341
  88   2.0000      -0.296426        -8.0662
  89   2.0000      -0.288474        -7.8498
  90   2.0000      -0.280929        -7.6445
  91   2.0000      -0.277281        -7.5452
  92   2.0000      -0.265763        -7.2318
  93   2.0000      -0.263506        -7.1704
  94   2.0000      -0.259964        -7.0740
  95   2.0000      -0.231901        -6.3103
  96   2.0000      -0.217792        -5.9264
  97   2.0000      -0.214843        -5.8462
  98   2.0000      -0.208365        -5.6699
  99   2.0000      -0.201315        -5.4781
 100   2.0000      -0.199976        -5.4416
 101   0.0000      -0.044751        -1.2177
 102   0.0000      -0.023923        -0.6510
 103   0.0000       0.001242         0.0338
 104   0.0000       0.004485         0.1221
 105   0.0000       0.008390         0.2283

MULLIKEN ATOMIC CHARGES
-----------------------
   0 C :   -0.280275
   1 C :   -0.009877
   2 O :   -0.377170
   3 P :    0.616257
   4 S :   -0.343330
   5 O :   -0.355006
   6 C :   -0.001719
   7 C :   -0.294143
   8 S :   -0.082521
   9 C :   -0.359846
  10 S :   -0.069891
  11 P :    0.619527
  12 S :   -0.337449
  13 O :   -0.373449
  14 C :   -0.005114
  15 C :   -0.315746
  16 O :   -0.353714
  17 C :   -0.000899
  18 C :   -0.304373
  19 H :    0.117177
  20 H :    0.116183
  21 H :    0.111856
  22 H :    0.101303
  23 H :    0.105383
  24 H :    0.102650
  25 H :    0.103232
  26 H :    0.119079
  27 H :    0.103026
  28 H :    0.128184
  29 H :    0.189543
  30 H :    0.192383
  31 H :    0.111350
  32 H :    0.106084
  33 H :    0.127001
  34 H :    0.113925
  35 H :    0.119456
  36 H :    0.111818
  37 H :    0.104269
  38 H :    0.113986
  39 H :    0.119916
  40 H :    0.110935
Sum of atomic charges:    0.0000000

LOEWDIN ATOMIC CHARGES
----------------------
   0 C :   -0.350502
   1 C :   -0.121136
   2 O :   -0.252563
   3 P :    0.568055
   4 S :   -0.329137
   5 O :   -0.233822
   6 C :   -0.109789
   7 C :   -0.363292
   8 S :    0.088399
   9 C :   -0.480053
  10 S :    0.109567
  11 P :    0.572273
  12 S :   -0.326306
  13 O :   -0.243823
  14 C :   -0.118903
  15 C :   -0.369352
  16 O :   -0.229907
  17 C :   -0.117748
  18 C :   -0.364353
  19 H :    0.127509
  20 H :    0.126600
  21 H :    0.130693
  22 H :    0.110198
  23 H :    0.107004
  24 H :    0.116829
  25 H :    0.108322
  26 H :    0.123195
  27 H :    0.125600
  28 H :    0.122794
  29 H :    0.130413
  30 H :    0.131570
  31 H :    0.110739
  32 H :    0.119135
  33 H :    0.121304
  34 H :    0.131488
  35 H :    0.125084
  36 H :    0.109655
  37 H :    0.118156
  38 H :    0.124982
  39 H :    0.121443
  40 H :    0.129680

  Mayer bond orders larger than 0.100000
B(  0-C ,  1-C ) :   1.1610 B(  0-C , 19-H ) :   0.9512 B(  0-C , 20-H ) :   0.9509
B(  0-C , 21-H ) :   0.9421 B(  1-C ,  2-O ) :   0.9065 B(  1-C , 22-H ) :   0.9297
B(  1-C , 23-H ) :   0.9073 B(  2-O ,  3-P ) :   1.1114 B(  3-P ,  4-S ) :   1.5910
B(  3-P ,  5-O ) :   1.1484 B(  3-P ,  8-S ) :   0.9636 B(  4-S ,  8-S ) :   0.1094
B(  5-O ,  6-C ) :   0.8916 B(  6-C ,  7-C ) :   1.1727 B(  6-C , 24-H ) :   0.9338
B(  6-C , 25-H ) :   0.9136 B(  7-C , 26-H ) :   0.9424 B(  7-C , 27-H ) :   0.9388
B(  7-C , 28-H ) :   0.9377 B(  8-S ,  9-C ) :   1.0024 B(  9-C , 10-S ) :   1.0068
B(  9-C , 29-H ) :   0.8852 B(  9-C , 30-H ) :   0.8851 B( 10-S , 11-P ) :   0.9581
B( 10-S , 12-S ) :   0.1071 B( 11-P , 12-S ) :   1.5827 B( 11-P , 13-O ) :   1.1072
B( 11-P , 16-O ) :   1.1234 B( 13-O , 14-C ) :   0.9083 B( 14-C , 15-C ) :   1.1662
B( 14-C , 31-H ) :   0.9164 B( 14-C , 32-H ) :   0.9340 B( 15-C , 33-H ) :   0.9357
B( 15-C , 34-H ) :   0.9377 B( 15-C , 35-H ) :   0.9446 B( 16-O , 17-C ) :   0.9049
B( 17-C , 18-C ) :   1.1622 B( 17-C , 36-H ) :   0.9159 B( 17-C , 37-H ) :   0.9331
B( 18-C , 38-H ) :   0.9468 B( 18-C , 39-H ) :   0.9369 B( 18-C , 40-H ) :   0.9401

Dispersion correction           -0.066443679
FINAL SINGLE POINT ENERGY     -2929.528306969912

DIPOLE MOMENT
-------------

Method             : SCF
Type of density    : Electron Density
Multiplicity       :   1
Irrep              :   0
Energy             : -2929.6460373376594362 Eh
Relativity type    :
Basis              : AO
                                X                 Y                 Z
Electronic contribution:      1.753956568       8.307428421      -8.980802668
Nuclear contribution   :     -1.862982168      -9.028968081       9.485069401
                        -----------------------------------------
Total Dipole Moment    :     -0.109025599      -0.721539660       0.504266732
                        -----------------------------------------
Magnitude (a.u.)       :      0.887012401
Magnitude (Debye)      :      2.254606347

Rotational constants in cm-1:             0.013128             0.004948             0.004774
Rotational constants in MHz :           393.576299           148.338853           143.127771

                             ****ORCA TERMINATED NORMALLY****
TOTAL RUN TIME: 0 days 0 hours 0 minutes 21 seconds 399 msec
