                         Program Version 6.0.0  -   RELEASE  -
|  1> ! pbe def2-sv(p) def2/J RI DEFGRID1 loosescf d4 GCP(DFT/SV(P)) printgap
|  2> %output
|  3>     printlevel normal
|  4> end
|  5> * xyz 0 1
|  6> C 2.969197289 -0.4327144425 -2.3914566293
|  7> C 1.693603945 0.2289328316 -1.9183975629
|  8> O 1.0944531604 -0.4928010043 -0.8237859434
|  9> P 1.7799883777 -0.5221339772 0.6095884451
| 10> S 2.8803513785 1.0299383121 1.1026385899
| 11> O 2.5745355136 -1.8951846239 0.5346326492
| 12> C 3.4660881609 -2.3148975553 1.5878910817
| 13> C 4.4052155439 -3.3586483648 1.0177850833
| 14> S 0.1838488451 -1.0390940596 1.8760554241
| 15> C -0.6056357268 0.5917442779 2.0950075719
| 16> S -0.5482068908 1.6708203729 0.6405016682
| 17> P -1.9632854502 0.7577174 -0.638177195
| 18> S -1.8311636749 1.2001923708 -2.5411279774
| 19> O -3.4005889067 1.0560147867 -0.0017496571
| 20> C -4.1722160155 2.2100840747 -0.3664464104
| 21> C -3.5457993942 3.493198611 0.1414739733
| 22> O -1.7857529641 -0.7585400594 -0.2375514166
| 23> C -2.3123468757 -1.8370128581 -1.0432893525
| 24> C -1.4613317015 -3.0640285723 -0.7892377098
| 25> H 3.7208682219 -0.3833814851 -1.6042684145
| 26> H 2.7832250471 -1.4743364201 -2.6392509319
| 27> H 3.3389330719 0.0896265614 -3.2681512523
| 28> H 0.921972317 0.2344236265 -2.691163969
| 29> H 1.8844466235 1.2575969557 -1.5922854864
| 30> H 4.0116405128 -1.4377147902 1.9521453653
| 31> H 2.8611868969 -2.7236188277 2.4014754486
| 32> H 3.8338299631 -4.1927279325 0.6211860938
| 33> H 5.0036868181 -2.9299459234 0.218879005
| 34> H 5.0618548568 -3.7133413843 1.8053186967
| 35> H -0.0763392949 1.1407320615 2.8718198532
| 36> H -1.6378326894 0.3980272081 2.3766640207
| 37> H -4.2628016057 2.2333831367 -1.4571924856
| 38> H -5.1490650915 2.029882411 0.0842634731
| 39> H -3.3991408408 3.447077477 1.2174275638
| 40> H -2.5785076761 3.6478224027 -0.3373063148
| 41> H -4.1942572166 4.3297389211 -0.0980471565
| 42> H -3.3509358071 -1.9980329813 -0.7452687874
| 43> H -2.2809462484 -1.5341760279 -2.0956944353
| 44> H -1.8309909832 -3.8862120949 -1.3931693552
| 45> H -0.4263343855 -2.8592743513 -1.0526800925
| 46> H -1.5036717686 -3.3351366509 0.2620648127
| 47> *
| 48>
| 49>                          ****END OF INPUT****

CARTESIAN COORDINATES (ANGSTROEM)
---------------------------------
  C      2.969197   -0.432714   -2.391457
  C      1.693604    0.228933   -1.918398
  O      1.094453   -0.492801   -0.823786
  P      1.779988   -0.522134    0.609588
  S      2.880351    1.029938    1.102639
  O      2.574536   -1.895185    0.534633
  C      3.466088   -2.314898    1.587891
  C      4.405216   -3.358648    1.017785
  S      0.183849   -1.039094    1.876055
  C     -0.605636    0.591744    2.095008
  S     -0.548207    1.670820    0.640502
  P     -1.963285    0.757717   -0.638177
  S     -1.831164    1.200192   -2.541128
  O     -3.400589    1.056015   -0.001750
  C     -4.172216    2.210084   -0.366446
  C     -3.545799    3.493199    0.141474
  O     -1.785753   -0.758540   -0.237551
  C     -2.312347   -1.837013   -1.043289
  C     -1.461332   -3.064029   -0.789238
  H      3.720868   -0.383381   -1.604268
  H      2.783225   -1.474336   -2.639251
  H      3.338933    0.089627   -3.268151
  H      0.921972    0.234424   -2.691164
  H      1.884447    1.257597   -1.592285
  H      4.011641   -1.437715    1.952145
  H      2.861187   -2.723619    2.401475
  H      3.833830   -4.192728    0.621186
  H      5.003687   -2.929946    0.218879
  H      5.061855   -3.713341    1.805319
  H     -0.076339    1.140732    2.871820
  H     -1.637833    0.398027    2.376664
  H     -4.262802    2.233383   -1.457192
  H     -5.149065    2.029882    0.084263
  H     -3.399141    3.447077    1.217428
  H     -2.578508    3.647822   -0.337306
  H     -4.194257    4.329739   -0.098047
  H     -3.350936   -1.998033   -0.745269
  H     -2.280946   -1.534176   -2.095694
  H     -1.830991   -3.886212   -1.393169
  H     -0.426334   -2.859274   -1.052680
  H     -1.503672   -3.335137    0.262065

 Total Charge           Charge          ....    0
 Multiplicity           Mult            ....    1
 Number of Electrons    NEL             ....  202
 Basis Dimension        Dim             ....  334

ORBITAL ENERGIES
----------------

  NO   OCC          E(Eh)            E(eV)
   0   2.0000     -88.046543     -2395.8682
   1   2.0000     -88.039140     -2395.6668
   2   2.0000     -87.990963     -2394.3558
   3   2.0000     -87.982003     -2394.1120
   4   2.0000     -76.426626     -2079.6742
   5   2.0000     -76.424124     -2079.6061
   6   2.0000     -18.792372      -511.3664
   7   2.0000     -18.790791      -511.3234
   8   2.0000     -18.789136      -511.2784
   9   2.0000     -18.785282      -511.1735
  10   2.0000      -9.963184      -271.1120
  11   2.0000      -9.951628      -270.7976
  12   2.0000      -9.951405      -270.7915
  13   2.0000      -9.951260      -270.7875
  14   2.0000      -9.937312      -270.4080
  15   2.0000      -9.887929      -269.0642
  16   2.0000      -9.884472      -268.9702
  17   2.0000      -9.880727      -268.8683
  18   2.0000      -9.875160      -268.7168
  19   2.0000      -7.691135      -209.2864
  20   2.0000      -7.684523      -209.1065
  21   2.0000      -7.635956      -207.7849
  22   2.0000      -7.627007      -207.5414
  23   2.0000      -6.424382      -174.8163
  24   2.0000      -6.421243      -174.7309
  25   2.0000      -5.719492      -155.6353
  26   2.0000      -5.715429      -155.5247
  27   2.0000      -5.712643      -155.4489
  28   2.0000      -5.709108      -155.3527
  29   2.0000      -5.707821      -155.3177
  30   2.0000      -5.701066      -155.1339
  31   2.0000      -5.664738      -154.1453
  32   2.0000      -5.656815      -153.9298
  33   2.0000      -5.656004      -153.9077
  34   2.0000      -5.655903      -153.9050
  35   2.0000      -5.647611      -153.6793
  36   2.0000      -5.647254      -153.6696
  37   2.0000      -4.646803      -126.4459
  38   2.0000      -4.646295      -126.4321
  39   2.0000      -4.644849      -126.3928
  40   2.0000      -4.643676      -126.3609
  41   2.0000      -4.643120      -126.3457
  42   2.0000      -4.641780      -126.3093
  43   2.0000      -0.986449       -26.8426
  44   2.0000      -0.983383       -26.7592
  45   2.0000      -0.944084       -25.6898
  46   2.0000      -0.941491       -25.6193
  47   2.0000      -0.765062       -20.8184
  48   2.0000      -0.721436       -19.6313
  49   2.0000      -0.707620       -19.2553
  50   2.0000      -0.685420       -18.6512
  51   2.0000      -0.682562       -18.5734
  52   2.0000      -0.672309       -18.2945
  53   2.0000      -0.652108       -17.7448
  54   2.0000      -0.637888       -17.3578
  55   2.0000      -0.598156       -16.2767
  56   2.0000      -0.589566       -16.0429
  57   2.0000      -0.573336       -15.6013
  58   2.0000      -0.564692       -15.3661
  59   2.0000      -0.558477       -15.1969
  60   2.0000      -0.504481       -13.7276
  61   2.0000      -0.500595       -13.6219
  62   2.0000      -0.472781       -12.8650
  63   2.0000      -0.470554       -12.8044
  64   2.0000      -0.456708       -12.4276
  65   2.0000      -0.443218       -12.0606
  66   2.0000      -0.440396       -11.9838
  67   2.0000      -0.429242       -11.6803
  68   2.0000      -0.426591       -11.6081
  69   2.0000      -0.415528       -11.3071
  70   2.0000      -0.409477       -11.1424
  71   2.0000      -0.396682       -10.7943
  72   2.0000      -0.392866       -10.6904
  73   2.0000      -0.385422       -10.4879
  74   2.0000      -0.379366       -10.3231
  75   2.0000      -0.372403       -10.1336
  76   2.0000      -0.369449       -10.0532
  77   2.0000      -0.356101        -9.6900
  78   2.0000      -0.353929        -9.6309
  79   2.0000      -0.350476        -9.5369
  80   2.0000      -0.344161        -9.3651
  81   2.0000      -0.343111        -9.3365
  82   2.0000      -0.338043        -9.1986
  83   2.0000      -0.336044        -9.1442
  84   2.0000      -0.326260        -8.8780
  85   2.0000      -0.319160        -8.6848
  86   2.0000      -0.310254        -8.4424
  87   2.0000      -0.299668        -8.1544
  88   2.0000      -0.297352        -8.0914
  89   2.0000      -0.293619        -7.9898
  90   2.0000      -0.280219        -7.6251
  91   2.0000      -0.271775        -7.3954
  92   2.0000      -0.265541        -7.2257
  93   2.0000      -0.261797        -7.1238
  94   2.0000      -0.260352        -7.0845
  95   2.0000      -0.228594        -6.2204
  96   2.0000      -0.221589        -6.0297
  97   2.0000      -0.213269        -5.8033
  98   2.0000      -0.205970        -5.6047
  99   2.0000      -0.195300        -5.3144
 100   2.0000      -0.194168        -5.2836
 101   0.0000      -0.048234        -1.3125
 102   0.0000      -0.027756        -0.7553
 103   0.0000      -0.010876        -0.2960
 104   0.0000       0.000968         0.0263
 105   0.0000       0.017027         0.4633

MULLIKEN ATOMIC CHARGES
-----------------------
   0 C :   -0.301841
   1 C :   -0.016764
   2 O :   -0.366336
   3 P :    0.617147
   4 S :   -0.331874
   5 O :   -0.378262
   6 C :   -0.012755
   7 C :   -0.282192
   8 S :   -0.093505
   9 C :   -0.319848
  10 S :   -0.075057
  11 P :    0.630015
  12 S :   -0.324994
  13 O :   -0.381460
  14 C :   -0.006775
  15 C :   -0.309390
  16 O :   -0.369382
  17 C :   -0.006770
  18 C :   -0.286872
  19 H :    0.118391
  20 H :    0.111018
  21 H :    0.110580
  22 H :    0.114934
  23 H :    0.112183
  24 H :    0.106187
  25 H :    0.101526
  26 H :    0.116140
  27 H :    0.121277
  28 H :    0.111834
  29 H :    0.192291
  30 H :    0.181311
  31 H :    0.110607
  32 H :    0.103007
  33 H :    0.113006
  34 H :    0.124883
  35 H :    0.112938
  36 H :    0.100701
  37 H :    0.105239
  38 H :    0.105844
  39 H :    0.128197
  40 H :    0.114820
Sum of atomic charges:    0.0000000

LOEWDIN ATOMIC CHARGES
----------------------
   0 C :   -0.365544
   1 C :   -0.127717
   2 O :   -0.235655
   3 P :    0.565336
   4 S :   -0.332816
   5 O :   -0.247598
   6 C :   -0.121857
   7 C :   -0.350473
   8 S :    0.084585
   9 C :   -0.465616
  10 S :    0.116588
  11 P :    0.571413
  12 S :   -0.309680
  13 O :   -0.256020
  14 C :   -0.122490
  15 C :   -0.366721
  16 O :   -0.239219
  17 C :   -0.111614
  18 C :   -0.355327
  19 H :    0.118714
  20 H :    0.123284
  21 H :    0.130092
  22 H :    0.112255
  23 H :    0.109898
  24 H :    0.108098
  25 H :    0.109412
  26 H :    0.126694
  27 H :    0.128606
  28 H :    0.130819
  29 H :    0.139969
  30 H :    0.135128
  31 H :    0.109037
  32 H :    0.117354
  33 H :    0.123074
  34 H :    0.119864
  35 H :    0.130689
  36 H :    0.112059
  37 H :    0.107509
  38 H :    0.127161
  39 H :    0.127656
  40 H :    0.123051

  Mayer bond orders larger than 0.100000
B(  0-C ,  1-C ) :   1.1622 B(  0-C , 19-H ) :   0.9333 B(  0-C , 20-H ) :   0.9470
B(  0-C , 21-H ) :   0.9396 B(  1-C ,  2-O ) :   0.8898 B(  1-C , 22-H ) :   0.9177
B(  1-C , 23-H ) :   0.9160 B(  2-O ,  3-P ) :   1.1065 B(  3-P ,  4-S ) :   1.6009
B(  3-P ,  5-O ) :   1.0987 B(  3-P ,  8-S ) :   0.9861 B(  4-S ,  8-S ) :   0.1115
B(  5-O ,  6-C ) :   0.9051 B(  6-C ,  7-C ) :   1.1606 B(  6-C , 24-H ) :   0.9072
B(  6-C , 25-H ) :   0.9298 B(  7-C , 26-H ) :   0.9503 B(  7-C , 27-H ) :   0.9514
B(  7-C , 28-H ) :   0.9419 B(  8-S ,  9-C ) :   0.9773 B(  9-C , 10-S ) :   1.0054
B(  9-C , 29-H ) :   0.9037 B(  9-C , 30-H ) :   0.9067 B( 10-S , 11-P ) :   0.9571
B( 11-P , 12-S ) :   1.6295 B( 11-P , 13-O ) :   1.0747 B( 11-P , 16-O ) :   1.1292
B( 13-O , 14-C ) :   0.9192 B( 14-C , 15-C ) :   1.1620 B( 14-C , 31-H ) :   0.9145
B( 14-C , 32-H ) :   0.9338 B( 15-C , 33-H ) :   0.9457 B( 15-C , 34-H ) :   0.9367
B( 15-C , 35-H ) :   0.9388 B( 16-O , 17-C ) :   0.8961 B( 17-C , 18-C ) :   1.1633
B( 17-C , 36-H ) :   0.9331 B( 17-C , 37-H ) :   0.9101 B( 18-C , 38-H ) :   0.9397
B( 18-C , 39-H ) :   0.9433 B( 18-C , 40-H ) :   0.9477

Dispersion correction           -0.067407675
FINAL SINGLE POINT ENERGY     -2929.519882159845

DIPOLE MOMENT
-------------

Method             : SCF
Type of density    : Electron Density
Multiplicity       :   1
Irrep              :   0
Energy             : -2929.6379263624953637 Eh
Relativity type    :
Basis              : AO
                                X                 Y                 Z
Electronic contribution:     -3.414757052      10.368527599       5.354618289
Nuclear contribution   :      2.683459630     -11.262995412      -4.857490317
                        -----------------------------------------
Total Dipole Moment    :     -0.731297423      -0.894467813       0.497127973
                        -----------------------------------------
Magnitude (a.u.)       :      1.257777727
Magnitude (Debye)      :      3.197016911

Rotational constants in cm-1:             0.013110             0.005226             0.005077
Rotational constants in MHz :           393.031407           156.671697           152.199296

                             ****ORCA TERMINATED NORMALLY****
TOTAL RUN TIME: 0 days 0 hours 0 minutes 21 seconds 736 msec
