                         Program Version 6.0.0  -   RELEASE  -
|  1> ! r2scan-3c def2/J RI DEFGRID2 scfconv6 printgap
|  2> %output
|  3>     printlevel normal
|  4> end
|  5> * xyz 0 1
|  6> C 1.2480190973 -0.1792631439 4.0866e-06
|  7> C -0.1064654827 0.4456322316 -1.12961e-05
|  8> C -1.2431321217 -0.2252401436 5.1961e-06
|  9> H 1.8066176892 0.1397350338 0.8788989329
| 10> H 1.8065786694 0.1396136431 -0.8789654042
| 11> H 1.176463974 -1.2637452513 7.48227e-05
| 12> H -0.1163128939 1.528346473 2.79043e-05
| 13> H -2.1996082182 0.2688940195 1.34747e-05
| 14> H -1.2633182487 -1.3029410646 -2.57394e-05
| 15> *
| 16>
| 17>                          ****END OF INPUT****

CARTESIAN COORDINATES (ANGSTROEM)
---------------------------------
  C      1.248019   -0.179263    0.000004
  C     -0.106465    0.445632   -0.000011
  C     -1.243132   -0.225240    0.000005
  H      1.806618    0.139735    0.878899
  H      1.806579    0.139614   -0.878965
  H      1.176464   -1.263745    0.000075
  H     -0.116313    1.528346    0.000028
  H     -2.199608    0.268894    0.000013
  H     -1.263318   -1.302941   -0.000026

 Total Charge           Charge          ....    0
 Multiplicity           Mult            ....    1
 Number of Electrons    NEL             ....   24
 Basis Dimension        Dim             ....   87

ORBITAL ENERGIES
----------------

  NO   OCC          E(Eh)            E(eV)
   0   2.0000     -10.034958      -273.0651
   1   2.0000     -10.025776      -272.8152
   2   2.0000     -10.016329      -272.5582
   3   2.0000      -0.756390       -20.5824
   4   2.0000      -0.653660       -17.7870
   5   2.0000      -0.522961       -14.2305
   6   2.0000      -0.436580       -11.8799
   7   2.0000      -0.390754       -10.6330
   8   2.0000      -0.385503       -10.4901
   9   2.0000      -0.340475        -9.2648
  10   2.0000      -0.313237        -8.5236
  11   2.0000      -0.235928        -6.4199
  12   0.0000      -0.009101        -0.2477
  13   0.0000       0.105050         2.8586
  14   0.0000       0.137486         3.7412
  15   0.0000       0.145768         3.9665
  16   0.0000       0.150115         4.0848

MULLIKEN ATOMIC CHARGES
-----------------------
   0 C :   -0.450151
   1 C :   -0.065080
   2 C :   -0.358142
   3 H :    0.148014
   4 H :    0.148016
   5 H :    0.146972
   6 H :    0.150215
   7 H :    0.141294
   8 H :    0.138863
Sum of atomic charges:    0.0000000

LOEWDIN ATOMIC CHARGES
----------------------
   0 C :   -0.411277
   1 C :   -0.203209
   2 C :   -0.326562
   3 H :    0.159333
   4 H :    0.159334
   5 H :    0.155658
   6 H :    0.156647
   7 H :    0.156611
   8 H :    0.153466

  Mayer bond orders larger than 0.100000
B(  0-C ,  1-C ) :   0.9248 B(  0-C ,  3-H ) :   0.9608 B(  0-C ,  4-H ) :   0.9608
B(  0-C ,  5-H ) :   0.9958 B(  1-C ,  2-C ) :   1.9339 B(  1-C ,  6-H ) :   0.9293
B(  2-C ,  7-H ) :   0.9633 B(  2-C ,  8-H ) :   0.9817

Dispersion correction           -0.001357747
FINAL SINGLE POINT ENERGY      -117.860155487349

DIPOLE MOMENT
-------------

Method             : SCF
Type of density    : Electron Density
Multiplicity       :   1
Irrep              :   0
Energy             :  -117.8620766939580307 Eh
Relativity type    :
Basis              : AO
                                X                 Y                 Z
Electronic contribution:     -0.958516197       0.491641922      -0.000018244
Nuclear contribution   :      1.135582405      -0.459795153       0.000022508
                        -----------------------------------------
Total Dipole Moment    :      0.177066208       0.031846769       0.000004264
                        -----------------------------------------
Magnitude (a.u.)       :      0.179907361
Magnitude (Debye)      :      0.457288171

Rotational constants in cm-1:             1.571693             0.315467             0.276137
Rotational constants in MHz :         47118.181373          9457.456742          8278.378896

                             ****ORCA TERMINATED NORMALLY****
TOTAL RUN TIME: 0 days 0 hours 0 minutes 6 seconds 861 msec
