                         Program Version 6.0.0  -   RELEASE  -
|  1> ! r2scan-3c def2/J RI DEFGRID2 scfconv6 printgap
|  2> %output
|  3>     printlevel normal
|  4> end
|  5> %cpcm
|  6>     smd true
|  7>     smdsolvent "water"
|  8> end
|  9> * xyz 0 1
| 10> C 1.2480190973 -0.1792631439 4.0866e-06
| 11> C -0.1064654827 0.4456322316 -1.12961e-05
| 12> C -1.2431321217 -0.2252401436 5.1961e-06
| 13> H 1.8066176892 0.1397350338 0.8788989329
| 14> H 1.8065786694 0.1396136431 -0.8789654042
| 15> H 1.176463974 -1.2637452513 7.48227e-05
| 16> H -0.1163128939 1.528346473 2.79043e-05
| 17> H -2.1996082182 0.2688940195 1.34747e-05
| 18> H -1.2633182487 -1.3029410646 -2.57394e-05
| 19> *
| 20>
| 21>                          ****END OF INPUT****

CARTESIAN COORDINATES (ANGSTROEM)
---------------------------------
  C      1.248019   -0.179263    0.000004
  C     -0.106465    0.445632   -0.000011
  C     -1.243132   -0.225240    0.000005
  H      1.806618    0.139735    0.878899
  H      1.806579    0.139614   -0.878965
  H      1.176464   -1.263745    0.000075
  H     -0.116313    1.528346    0.000028
  H     -2.199608    0.268894    0.000013
  H     -1.263318   -1.302941   -0.000026

 Total Charge           Charge          ....    0
 Multiplicity           Mult            ....    1
 Number of Electrons    NEL             ....   24
 Basis Dimension        Dim             ....   87

ORBITAL ENERGIES
----------------

  NO   OCC          E(Eh)            E(eV)
   0   2.0000     -10.032818      -273.0068
   1   2.0000     -10.016949      -272.5750
   2   2.0000     -10.012918      -272.4654
   3   2.0000      -0.753092       -20.4927
   4   2.0000      -0.648443       -17.6450
   5   2.0000      -0.518042       -14.0966
   6   2.0000      -0.431775       -11.7492
   7   2.0000      -0.385677       -10.4948
   8   2.0000      -0.378087       -10.2883
   9   2.0000      -0.333131        -9.0650
  10   2.0000      -0.307355        -8.3636
  11   2.0000      -0.236887        -6.4460
  12   0.0000      -0.009229        -0.2511
  13   0.0000       0.111582         3.0363
  14   0.0000       0.144877         3.9423
  15   0.0000       0.154565         4.2059
  16   0.0000       0.156129         4.2485

MULLIKEN ATOMIC CHARGES
-----------------------
   0 C :   -0.479309
   1 C :   -0.089925
   2 C :   -0.432595
   3 H :    0.165127
   4 H :    0.165128
   5 H :    0.163623
   6 H :    0.176928
   7 H :    0.165584
   8 H :    0.165438
Sum of atomic charges:    0.0000000

LOEWDIN ATOMIC CHARGES
----------------------
   0 C :   -0.418596
   1 C :   -0.207525
   2 C :   -0.352807
   3 H :    0.165892
   4 H :    0.165893
   5 H :    0.159926
   6 H :    0.164554
   7 H :    0.162194
   8 H :    0.160470

  Mayer bond orders larger than 0.100000
B(  0-C ,  1-C ) :   0.9156 B(  0-C ,  3-H ) :   0.9544 B(  0-C ,  4-H ) :   0.9544
B(  0-C ,  5-H ) :   0.9927 B(  1-C ,  2-C ) :   1.8983 B(  1-C ,  6-H ) :   0.9278
B(  2-C ,  7-H ) :   0.9626 B(  2-C ,  8-H ) :   0.9763

Dispersion correction           -0.001357747
FINAL SINGLE POINT ENERGY      -117.858777531633

DIPOLE MOMENT
-------------

Method             : SCF
Type of density    : Electron Density
Multiplicity       :   1
Irrep              :   0
Energy             :  -117.8606987382414957 Eh
Relativity type    :
Basis              : AO
                                X                 Y                 Z
Electronic contribution:     -0.878567703       0.512052897      -0.000018043
Nuclear contribution   :      1.135582405      -0.459795153       0.000022508
                        -----------------------------------------
Total Dipole Moment    :      0.257014702       0.052257744       0.000004465
                        -----------------------------------------
Magnitude (a.u.)       :      0.262273576
Magnitude (Debye)      :      0.666646452

Rotational constants in cm-1:             1.571693             0.315467             0.276137
Rotational constants in MHz :         47118.181373          9457.456742          8278.378896

                             ****ORCA TERMINATED NORMALLY****
TOTAL RUN TIME: 0 days 0 hours 0 minutes 7 seconds 924 msec
