                         Program Version 6.0.1  -  RELEASE   -
|  1> ! pbe def2-sv(p) def2/J RI DEFGRID1 loosescf d4 GCP(DFT/SV(P)) printgap
|  2> %output
|  3>     printlevel normal
|  4> end
|  5> * xyz 0 1
|  6> C 4.9919777496 -2.649469855 -0.8028097725
|  7> C 3.6311977193 -3.0797324634 -1.326786659
|  8> O 2.9388663702 -1.9687831256 -1.9309793688
|  9> C 2.2295143625 -1.174410794 -1.165464376
| 10> O 2.0743596567 -1.3165447261 0.0323514517
| 11> C 1.6155203947 -0.0292940568 -1.9424014628
| 12> C 0.4318371038 0.52220881 -1.1610239406
| 13> H 0.0875408403 1.4710054075 -1.581666088
| 14> C 0.7865444177 0.7514482408 0.2946418013
| 15> O 0.053611036 0.4002506333 1.2031672468
| 16> O 1.8776575538 1.4496624218 0.4371200196
| 17> C 2.2664985711 1.8365621405 1.7732110562
| 18> C 1.5491079353 3.1094442452 2.1914926369
| 19> S -0.9700315715 -0.6533424585 -1.2039309111
| 20> P -2.2139640921 0.174352076 0.3021027787
| 21> S -2.228741001 2.1264712613 0.5593953813
| 22> O -3.6233704495 -0.3249856414 -0.2916995938
| 23> C -4.1592798602 0.2253750377 -1.4964626966
| 24> O -2.3299223075 -0.7872862196 1.5597093788
| 25> C -1.8976912462 -0.4952897295 2.8883821504
| 26> H 5.519712084 -3.5171936324 -0.4210571068
| 27> H 5.5742467677 -2.1982972462 -1.6012930212
| 28> H 4.872391909 -1.9279155962 0.0022461618
| 29> H 3.0115501019 -3.4806702251 -0.5197014313
| 30> H 3.7262071507 -3.8087746057 -2.1313131881
| 31> H 1.311611453 -0.3727428327 -2.9298979447
| 32> H 2.3731517691 0.7496933088 -2.0527376859
| 33> H 2.038156558 1.0112104482 2.4523790275
| 34> H 3.3436893195 1.9876520178 1.7055820209
| 35> H 0.4711359791 2.9573079953 2.1807403876
| 36> H 1.8559681619 3.3821279521 3.1955708906
| 37> H 1.7902354129 3.9187245008 1.5082952439
| 38> H -3.6000111863 -0.1388299238 -2.358829265
| 39> H -4.1197470792 1.3162614174 -1.4598491663
| 40> H -5.1910553481 -0.114031441 -1.5386828979
| 41> H -1.8462870512 0.5831770207 3.0453501768
| 42> H -0.9163264112 -0.9365078062 3.0538060351
| 43> H -2.641506866 -0.9404118949 3.5460319157
| 44> *
| 45>
| 46>                          ****END OF INPUT****

CARTESIAN COORDINATES (ANGSTROEM)
---------------------------------
  C      4.991978   -2.649470   -0.802810
  C      3.631198   -3.079732   -1.326787
  O      2.938866   -1.968783   -1.930979
  C      2.229514   -1.174411   -1.165464
  O      2.074360   -1.316545    0.032351
  C      1.615520   -0.029294   -1.942401
  C      0.431837    0.522209   -1.161024
  H      0.087541    1.471005   -1.581666
  C      0.786544    0.751448    0.294642
  O      0.053611    0.400251    1.203167
  O      1.877658    1.449662    0.437120
  C      2.266499    1.836562    1.773211
  C      1.549108    3.109444    2.191493
  S     -0.970032   -0.653342   -1.203931
  P     -2.213964    0.174352    0.302103
  S     -2.228741    2.126471    0.559395
  O     -3.623370   -0.324986   -0.291700
  C     -4.159280    0.225375   -1.496463
  O     -2.329922   -0.787286    1.559709
  C     -1.897691   -0.495290    2.888382
  H      5.519712   -3.517194   -0.421057
  H      5.574247   -2.198297   -1.601293
  H      4.872392   -1.927916    0.002246
  H      3.011550   -3.480670   -0.519701
  H      3.726207   -3.808775   -2.131313
  H      1.311611   -0.372743   -2.929898
  H      2.373152    0.749693   -2.052738
  H      2.038157    1.011210    2.452379
  H      3.343689    1.987652    1.705582
  H      0.471136    2.957308    2.180740
  H      1.855968    3.382128    3.195571
  H      1.790235    3.918725    1.508295
  H     -3.600011   -0.138830   -2.358829
  H     -4.119747    1.316261   -1.459849
  H     -5.191055   -0.114031   -1.538683
  H     -1.846287    0.583177    3.045350
  H     -0.916326   -0.936508    3.053806
  H     -2.641507   -0.940412    3.546032

 Total Charge           Charge          ....    0
 Multiplicity           Mult            ....    1
 Number of Electrons    NEL             ....  174
 Basis Dimension        Dim             ....  316

ORBITAL ENERGIES
----------------

  NO   OCC          E(Eh)            E(eV)
   0   2.0000     -88.029593     -2395.4070
   1   2.0000     -87.964431     -2393.6339
   2   2.0000     -76.413524     -2079.3177
   3   2.0000     -18.818562      -512.0791
   4   2.0000     -18.813486      -511.9410
   5   2.0000     -18.771298      -510.7930
   6   2.0000     -18.763856      -510.5905
   7   2.0000     -18.754529      -510.3367
   8   2.0000     -18.748300      -510.1672
   9   2.0000     -10.025617      -272.8109
  10   2.0000     -10.023097      -272.7423
  11   2.0000      -9.959547      -271.0131
  12   2.0000      -9.952350      -270.8172
  13   2.0000      -9.947540      -270.6863
  14   2.0000      -9.925574      -270.0886
  15   2.0000      -9.925149      -270.0770
  16   2.0000      -9.923755      -270.0391
  17   2.0000      -9.897722      -269.3307
  18   2.0000      -9.883520      -268.9443
  19   2.0000      -7.674550      -208.8351
  20   2.0000      -7.609625      -207.0684
  21   2.0000      -6.408507      -174.3844
  22   2.0000      -5.702552      -155.1743
  23   2.0000      -5.699139      -155.0815
  24   2.0000      -5.691345      -154.8694
  25   2.0000      -5.638691      -153.4366
  26   2.0000      -5.630585      -153.2160
  27   2.0000      -5.629255      -153.1798
  28   2.0000      -4.631027      -126.0166
  29   2.0000      -4.630638      -126.0061
  30   2.0000      -4.629168      -125.9661
  31   2.0000      -1.028303       -27.9816
  32   2.0000      -1.022463       -27.8226
  33   2.0000      -0.963945       -26.2303
  34   2.0000      -0.932350       -25.3705
  35   2.0000      -0.927913       -25.2498
  36   2.0000      -0.916826       -24.9481
  37   2.0000      -0.767423       -20.8826
  38   2.0000      -0.721064       -19.6211
  39   2.0000      -0.706325       -19.2201
  40   2.0000      -0.686438       -18.6789
  41   2.0000      -0.655484       -17.8366
  42   2.0000      -0.624309       -16.9883
  43   2.0000      -0.613074       -16.6826
  44   2.0000      -0.604002       -16.4357
  45   2.0000      -0.602643       -16.3987
  46   2.0000      -0.564874       -15.3710
  47   2.0000      -0.511505       -13.9188
  48   2.0000      -0.507426       -13.8078
  49   2.0000      -0.497315       -13.5326
  50   2.0000      -0.488948       -13.3049
  51   2.0000      -0.466417       -12.6919
  52   2.0000      -0.456314       -12.4169
  53   2.0000      -0.447940       -12.1891
  54   2.0000      -0.442045       -12.0287
  55   2.0000      -0.431983       -11.7549
  56   2.0000      -0.429373       -11.6838
  57   2.0000      -0.418087       -11.3767
  58   2.0000      -0.408497       -11.1158
  59   2.0000      -0.400644       -10.9021
  60   2.0000      -0.396238       -10.7822
  61   2.0000      -0.393658       -10.7120
  62   2.0000      -0.387277       -10.5383
  63   2.0000      -0.386696       -10.5225
  64   2.0000      -0.374600       -10.1934
  65   2.0000      -0.371435       -10.1073
  66   2.0000      -0.366447        -9.9715
  67   2.0000      -0.353272        -9.6130
  68   2.0000      -0.350402        -9.5349
  69   2.0000      -0.340865        -9.2754
  70   2.0000      -0.338560        -9.2127
  71   2.0000      -0.332423        -9.0457
  72   2.0000      -0.329566        -8.9679
  73   2.0000      -0.307535        -8.3685
  74   2.0000      -0.304555        -8.2874
  75   2.0000      -0.297607        -8.0983
  76   2.0000      -0.286523        -7.7967
  77   2.0000      -0.279461        -7.6045
  78   2.0000      -0.272988        -7.4284
  79   2.0000      -0.265651        -7.2287
  80   2.0000      -0.252848        -6.8803
  81   2.0000      -0.240792        -6.5523
  82   2.0000      -0.239261        -6.5106
  83   2.0000      -0.232426        -6.3246
  84   2.0000      -0.212660        -5.7868
  85   2.0000      -0.186727        -5.0811
  86   2.0000      -0.177022        -4.8170
  87   0.0000      -0.041367        -1.1257
  88   0.0000      -0.031803        -0.8654
  89   0.0000      -0.025588        -0.6963
  90   0.0000       0.012134         0.3302
  91   0.0000       0.033709         0.9173

MULLIKEN ATOMIC CHARGES
-----------------------
   0 C :   -0.307116
   1 C :   -0.014835
   2 O :   -0.220550
   3 C :    0.122528
   4 O :   -0.195873
   5 C :   -0.101128
   6 C :   -0.282918
   7 H :    0.146861
   8 C :    0.249330
   9 O :   -0.208267
  10 O :   -0.229888
  11 C :   -0.009146
  12 C :   -0.313919
  13 S :   -0.099577
  14 P :    0.632508
  15 S :   -0.362802
  16 O :   -0.379418
  17 C :   -0.097524
  18 O :   -0.367198
  19 C :   -0.082932
  20 H :    0.118615
  21 H :    0.116725
  22 H :    0.126128
  23 H :    0.118438
  24 H :    0.109259
  25 H :    0.130450
  26 H :    0.139754
  27 H :    0.115443
  28 H :    0.101021
  29 H :    0.145717
  30 H :    0.110805
  31 H :    0.111995
  32 H :    0.104233
  33 H :    0.108376
  34 H :    0.117840
  35 H :    0.113141
  36 H :    0.118187
  37 H :    0.115736
Sum of atomic charges:   -0.0000000

LOEWDIN ATOMIC CHARGES
----------------------
   0 C :   -0.355639
   1 C :   -0.108318
   2 O :   -0.049223
   3 C :    0.038824
   4 O :   -0.147772
   5 C :   -0.250987
   6 C :   -0.260502
   7 H :    0.145684
   8 C :    0.026578
   9 O :   -0.157686
  10 O :   -0.041738
  11 C :   -0.103499
  12 C :   -0.359761
  13 S :    0.095031
  14 P :    0.592239
  15 S :   -0.357382
  16 O :   -0.262978
  17 C :   -0.223292
  18 O :   -0.237148
  19 C :   -0.207663
  20 H :    0.133499
  21 H :    0.126107
  22 H :    0.130035
  23 H :    0.124371
  24 H :    0.121183
  25 H :    0.143842
  26 H :    0.155300
  27 H :    0.123415
  28 H :    0.117235
  29 H :    0.133432
  30 H :    0.130096
  31 H :    0.124889
  32 H :    0.100823
  33 H :    0.104845
  34 H :    0.118514
  35 H :    0.108349
  36 H :    0.113663
  37 H :    0.115635

  Mayer bond orders larger than 0.100000
B(  0-C ,  1-C ) :   1.1739 B(  0-C , 20-H ) :   0.9438 B(  0-C , 21-H ) :   0.9485
B(  0-C , 22-H ) :   0.9463 B(  1-C ,  2-O ) :   0.9069 B(  1-C , 23-H ) :   0.9152
B(  1-C , 24-H ) :   0.9369 B(  2-O ,  3-C ) :   1.2609 B(  3-C ,  4-O ) :   1.9808
B(  3-C ,  5-C ) :   0.9912 B(  4-O ,  8-C ) :   0.1142 B(  5-C ,  6-C ) :   1.0568
B(  5-C , 25-H ) :   0.9015 B(  5-C , 26-H ) :   0.8760 B(  6-C ,  7-H ) :   0.8615
B(  6-C ,  8-C ) :   0.8903 B(  6-C , 13-S ) :   1.0356 B(  8-C ,  9-O ) :   1.8880
B(  8-C , 10-O ) :   1.2639 B(  9-O , 14-P ) :   0.1458 B( 10-O , 11-C ) :   0.9005
B( 11-C , 12-C ) :   1.1764 B( 11-C , 27-H ) :   0.9166 B( 11-C , 28-H ) :   0.9375
B( 12-C , 29-H ) :   0.9317 B( 12-C , 30-H ) :   0.9421 B( 12-C , 31-H ) :   0.9479
B( 13-S , 14-P ) :   0.9276 B( 13-S , 15-S ) :   0.1115 B( 14-P , 15-S ) :   1.5521
B( 14-P , 16-O ) :   1.0706 B( 14-P , 18-O ) :   1.1355 B( 16-O , 17-C ) :   0.9506
B( 17-C , 32-H ) :   0.9436 B( 17-C , 33-H ) :   0.9318 B( 17-C , 34-H ) :   0.9597
B( 18-O , 19-C ) :   0.9306 B( 19-C , 35-H ) :   0.9381 B( 19-C , 36-H ) :   0.9534
B( 19-C , 37-H ) :   0.9536

Dispersion correction           -0.052046661
FINAL SINGLE POINT ENERGY     -1979.012164590966

DIPOLE MOMENT
-------------

Method             : SCF
Type of density    : Electron Density
Multiplicity       :   1
Irrep              :   0
Energy             : -1979.1436072717033312 Eh
Relativity type    :
Basis              : AO
                                X                 Y                 Z
Electronic contribution:    -16.511012605      -0.151317947      -4.107138703
Nuclear contribution   :     18.654199619      -0.290777244       3.605468231
                        -----------------------------------------
Total Dipole Moment    :      2.143187013      -0.442095191      -0.501670472
                        -----------------------------------------
Magnitude (a.u.)       :      2.245077280
Magnitude (Debye)      :      5.706532941

Rotational constants in cm-1:             0.014300             0.006629             0.005499
Rotational constants in MHz :           428.698821           198.740889           164.857050

                             ****ORCA TERMINATED NORMALLY****
TOTAL RUN TIME: 0 days 0 hours 0 minutes 36 seconds 450 msec
