                         Program Version 6.0.0  -   RELEASE  -
|  1> ! pbe def2-sv(p) def2/J RI DEFGRID1 loosescf d4 GCP(DFT/SV(P)) printgap
|  2> %output
|  3>     printlevel normal
|  4> end
|  5> * xyz 0 1
|  6> C 3.6198556803 1.7408501185 -1.1467384808
|  7> C 3.7322313504 0.7894589064 0.0277319076
|  8> O 3.0053359693 -0.4271567251 -0.2359365443
|  9> P 1.7659643149 -0.9666595511 0.6067306102
| 10> S 1.255161197 0.165684599 2.1267250236
| 11> O 2.1241755803 -2.4628007753 1.0076126219
| 12> C 2.7191714192 -2.7969775532 2.2750948294
| 13> C 4.1530613372 -2.3146300595 2.3643715106
| 14> S 0.4282595441 -1.5608203465 -0.9137595347
| 15> C 0.462843961 -0.0688361026 -1.9480930229
| 16> S -0.004106347 1.4361817388 -1.0443675888
| 17> P -1.9752524103 0.8609785146 -0.5962963166
| 18> S -2.9225177113 -0.1484990623 -1.9889510482
| 19> O -2.6490479134 2.2247373977 -0.1349174647
| 20> C -3.0251882041 3.257332324 -1.0722032047
| 21> C -4.4876807273 3.1325453133 -1.4522582994
| 22> O -1.8041011604 0.1276532667 0.7919875213
| 23> C -2.7569154347 -0.82309796 1.316071221
| 24> C -1.9997474133 -1.9199822685 2.03661146
| 25> H 2.5924461674 2.0808490885 -1.2664293338
| 26> H 4.2538766931 2.6016935176 -0.9607814401
| 27> H 3.9459018955 1.2500011937 -2.059612095
| 28> H 3.3384380486 1.2452596568 0.9428129589
| 29> H 4.7684694513 0.4836837261 0.1866995247
| 30> H 2.1139237285 -2.353444412 3.0725282905
| 31> H 2.6528363465 -3.8848254014 2.3188518816
| 32> H 4.723146961 -2.675534524 1.5121808175
| 33> H 4.1748236762 -1.2252776089 2.373242333
| 34> H 4.6015270844 -2.6832149852 3.2815533023
| 35> H -0.2541273794 -0.245522765 -2.7504210903
| 36> H 1.4649730053 0.0903837341 -2.3382500879
| 37> H -2.8277695345 4.1917388555 -0.5437305174
| 38> H -2.382993549 3.1945670366 -1.9552155629
| 39> H -4.6628332317 2.1937411123 -1.9731281624
| 40> H -5.1083793137 3.1601466663 -0.561070141
| 41> H -4.7579765544 3.9559939272 -2.1052727067
| 42> H -3.4119054341 -0.2777847206 1.9989178978
| 43> H -3.3467700766 -1.2243855802 0.4843572123
| 44> H -2.7086338562 -2.5964706844 2.5023729969
| 45> H -1.3799609414 -2.4760867581 1.3356190567
| 46> H -1.359837459 -1.4836384269 2.7998341006
| 47> *
| 48>
| 49>                          ****END OF INPUT****

CARTESIAN COORDINATES (ANGSTROEM)
---------------------------------
  C      3.619856    1.740850   -1.146738
  C      3.732231    0.789459    0.027732
  O      3.005336   -0.427157   -0.235937
  P      1.765964   -0.966660    0.606731
  S      1.255161    0.165685    2.126725
  O      2.124176   -2.462801    1.007613
  C      2.719171   -2.796978    2.275095
  C      4.153061   -2.314630    2.364372
  S      0.428260   -1.560820   -0.913760
  C      0.462844   -0.068836   -1.948093
  S     -0.004106    1.436182   -1.044368
  P     -1.975252    0.860979   -0.596296
  S     -2.922518   -0.148499   -1.988951
  O     -2.649048    2.224737   -0.134917
  C     -3.025188    3.257332   -1.072203
  C     -4.487681    3.132545   -1.452258
  O     -1.804101    0.127653    0.791988
  C     -2.756915   -0.823098    1.316071
  C     -1.999747   -1.919982    2.036611
  H      2.592446    2.080849   -1.266429
  H      4.253877    2.601694   -0.960781
  H      3.945902    1.250001   -2.059612
  H      3.338438    1.245260    0.942813
  H      4.768469    0.483684    0.186700
  H      2.113924   -2.353444    3.072528
  H      2.652836   -3.884825    2.318852
  H      4.723147   -2.675535    1.512181
  H      4.174824   -1.225278    2.373242
  H      4.601527   -2.683215    3.281553
  H     -0.254127   -0.245523   -2.750421
  H      1.464973    0.090384   -2.338250
  H     -2.827770    4.191739   -0.543731
  H     -2.382994    3.194567   -1.955216
  H     -4.662833    2.193741   -1.973128
  H     -5.108379    3.160147   -0.561070
  H     -4.757977    3.955994   -2.105273
  H     -3.411905   -0.277785    1.998918
  H     -3.346770   -1.224386    0.484357
  H     -2.708634   -2.596471    2.502373
  H     -1.379961   -2.476087    1.335619
  H     -1.359837   -1.483638    2.799834

 Total Charge           Charge          ....    0
 Multiplicity           Mult            ....    1
 Number of Electrons    NEL             ....  202
 Basis Dimension        Dim             ....  334

ORBITAL ENERGIES
----------------

  NO   OCC          E(Eh)            E(eV)
   0   2.0000     -88.044660     -2395.8170
   1   2.0000     -88.039772     -2395.6840
   2   2.0000     -87.985283     -2394.2013
   3   2.0000     -87.984268     -2394.1737
   4   2.0000     -76.424739     -2079.6229
   5   2.0000     -76.424157     -2079.6070
   6   2.0000     -18.794857      -511.4341
   7   2.0000     -18.789619      -511.2915
   8   2.0000     -18.789232      -511.2810
   9   2.0000     -18.781739      -511.0771
  10   2.0000      -9.957278      -270.9513
  11   2.0000      -9.954191      -270.8673
  12   2.0000      -9.953223      -270.8410
  13   2.0000      -9.951063      -270.7822
  14   2.0000      -9.942173      -270.5403
  15   2.0000      -9.891339      -269.1570
  16   2.0000      -9.887241      -269.0455
  17   2.0000      -9.879630      -268.8384
  18   2.0000      -9.871696      -268.6225
  19   2.0000      -7.689570      -209.2438
  20   2.0000      -7.684869      -209.1159
  21   2.0000      -7.630296      -207.6309
  22   2.0000      -7.629237      -207.6021
  23   2.0000      -6.422139      -174.7553
  24   2.0000      -6.421690      -174.7431
  25   2.0000      -5.717410      -155.5786
  26   2.0000      -5.714071      -155.4878
  27   2.0000      -5.713048      -155.4599
  28   2.0000      -5.709399      -155.3607
  29   2.0000      -5.706574      -155.2838
  30   2.0000      -5.701472      -155.1449
  31   2.0000      -5.659016      -153.9896
  32   2.0000      -5.658044      -153.9632
  33   2.0000      -5.650986      -153.7711
  34   2.0000      -5.650578      -153.7600
  35   2.0000      -5.649796      -153.7388
  36   2.0000      -5.649538      -153.7317
  37   2.0000      -4.644826      -126.3921
  38   2.0000      -4.644085      -126.3720
  39   2.0000      -4.643794      -126.3641
  40   2.0000      -4.643461      -126.3550
  41   2.0000      -4.642613      -126.3319
  42   2.0000      -4.642308      -126.3236
  43   2.0000      -0.983660       -26.7668
  44   2.0000      -0.981279       -26.7020
  45   2.0000      -0.946454       -25.7543
  46   2.0000      -0.939146       -25.5555
  47   2.0000      -0.765489       -20.8300
  48   2.0000      -0.723128       -19.6773
  49   2.0000      -0.707351       -19.2480
  50   2.0000      -0.690854       -18.7991
  51   2.0000      -0.680779       -18.5249
  52   2.0000      -0.668530       -18.1916
  53   2.0000      -0.649579       -17.6759
  54   2.0000      -0.638748       -17.3812
  55   2.0000      -0.599666       -16.3177
  56   2.0000      -0.587514       -15.9871
  57   2.0000      -0.576266       -15.6810
  58   2.0000      -0.568725       -15.4758
  59   2.0000      -0.554128       -15.0786
  60   2.0000      -0.502226       -13.6663
  61   2.0000      -0.497676       -13.5425
  62   2.0000      -0.478748       -13.0274
  63   2.0000      -0.474286       -12.9060
  64   2.0000      -0.457876       -12.4594
  65   2.0000      -0.440920       -11.9980
  66   2.0000      -0.436671       -11.8824
  67   2.0000      -0.433967       -11.8088
  68   2.0000      -0.422542       -11.4979
  69   2.0000      -0.409294       -11.1375
  70   2.0000      -0.401197       -10.9171
  71   2.0000      -0.397669       -10.8211
  72   2.0000      -0.394472       -10.7341
  73   2.0000      -0.389051       -10.5866
  74   2.0000      -0.379909       -10.3379
  75   2.0000      -0.374199       -10.1825
  76   2.0000      -0.368338       -10.0230
  77   2.0000      -0.361133        -9.8269
  78   2.0000      -0.353824        -9.6280
  79   2.0000      -0.348779        -9.4908
  80   2.0000      -0.344215        -9.3666
  81   2.0000      -0.344152        -9.3649
  82   2.0000      -0.337339        -9.1795
  83   2.0000      -0.331480        -9.0200
  84   2.0000      -0.330662        -8.9978
  85   2.0000      -0.322812        -8.7842
  86   2.0000      -0.308885        -8.4052
  87   2.0000      -0.296433        -8.0664
  88   2.0000      -0.294903        -8.0247
  89   2.0000      -0.283514        -7.7148
  90   2.0000      -0.282485        -7.6868
  91   2.0000      -0.276603        -7.5267
  92   2.0000      -0.268815        -7.3148
  93   2.0000      -0.264066        -7.1856
  94   2.0000      -0.260944        -7.1006
  95   2.0000      -0.237160        -6.4534
  96   2.0000      -0.216310        -5.8861
  97   2.0000      -0.207149        -5.6368
  98   2.0000      -0.201723        -5.4892
  99   2.0000      -0.197501        -5.3743
 100   2.0000      -0.194131        -5.2826
 101   0.0000      -0.050073        -1.3625
 102   0.0000      -0.026136        -0.7112
 103   0.0000      -0.003436        -0.0935
 104   0.0000       0.001631         0.0444
 105   0.0000       0.020802         0.5661

MULLIKEN ATOMIC CHARGES
-----------------------
   0 C :   -0.306714
   1 C :   -0.019331
   2 O :   -0.383903
   3 P :    0.627423
   4 S :   -0.306451
   5 O :   -0.377801
   6 C :   -0.003410
   7 C :   -0.316674
   8 S :   -0.066811
   9 C :   -0.368421
  10 S :   -0.100558
  11 P :    0.629996
  12 S :   -0.342240
  13 O :   -0.370491
  14 C :   -0.008837
  15 C :   -0.290580
  16 O :   -0.348977
  17 C :   -0.005016
  18 C :   -0.292864
  19 H :    0.132840
  20 H :    0.114496
  21 H :    0.119608
  22 H :    0.115982
  23 H :    0.104333
  24 H :    0.112479
  25 H :    0.105915
  26 H :    0.118115
  27 H :    0.122114
  28 H :    0.114088
  29 H :    0.194469
  30 H :    0.188139
  31 H :    0.107885
  32 H :    0.099640
  33 H :    0.129018
  34 H :    0.112768
  35 H :    0.106507
  36 H :    0.100355
  37 H :    0.105897
  38 H :    0.101571
  39 H :    0.121299
  40 H :    0.124143
Sum of atomic charges:    0.0000000

LOEWDIN ATOMIC CHARGES
----------------------
   0 C :   -0.360196
   1 C :   -0.122117
   2 O :   -0.251294
   3 P :    0.565552
   4 S :   -0.297643
   5 O :   -0.248842
   6 C :   -0.119780
   7 C :   -0.365298
   8 S :    0.108615
   9 C :   -0.479170
  10 S :    0.089256
  11 P :    0.570238
  12 S :   -0.324058
  13 O :   -0.246709
  14 C :   -0.115576
  15 C :   -0.362637
  16 O :   -0.230530
  17 C :   -0.113177
  18 C :   -0.358588
  19 H :    0.116389
  20 H :    0.133597
  21 H :    0.125203
  22 H :    0.107286
  23 H :    0.115118
  24 H :    0.109805
  25 H :    0.119250
  26 H :    0.126436
  27 H :    0.120849
  28 H :    0.131549
  29 H :    0.132132
  30 H :    0.131216
  31 H :    0.118980
  32 H :    0.106341
  33 H :    0.124975
  34 H :    0.125583
  35 H :    0.128250
  36 H :    0.113142
  37 H :    0.105400
  38 H :    0.125541
  39 H :    0.120250
  40 H :    0.124661

  Mayer bond orders larger than 0.100000
B(  0-C ,  1-C ) :   1.1678 B(  0-C , 19-H ) :   0.9310 B(  0-C , 20-H ) :   0.9372
B(  0-C , 21-H ) :   0.9434 B(  1-C ,  2-O ) :   0.9086 B(  1-C , 22-H ) :   0.8955
B(  1-C , 23-H ) :   0.9306 B(  2-O ,  3-P ) :   1.0910 B(  3-P ,  4-S ) :   1.6160
B(  3-P ,  5-O ) :   1.1112 B(  3-P ,  8-S ) :   0.9596 B(  4-S ,  8-S ) :   0.1069
B(  5-O ,  6-C ) :   0.9142 B(  6-C ,  7-C ) :   1.1611 B(  6-C , 24-H ) :   0.9135
B(  6-C , 25-H ) :   0.9340 B(  7-C , 26-H ) :   0.9464 B(  7-C , 27-H ) :   0.9339
B(  7-C , 28-H ) :   0.9392 B(  8-S ,  9-C ) :   1.0027 B(  9-C , 10-S ) :   1.0068
B(  9-C , 29-H ) :   0.8826 B(  9-C , 30-H ) :   0.8965 B( 10-S , 11-P ) :   0.9551
B( 10-S , 12-S ) :   0.1065 B( 11-P , 12-S ) :   1.5983 B( 11-P , 13-O ) :   1.1196
B( 11-P , 16-O ) :   1.1565 B( 13-O , 14-C ) :   0.9028 B( 14-C , 15-C ) :   1.1674
B( 14-C , 31-H ) :   0.9358 B( 14-C , 32-H ) :   0.9148 B( 15-C , 33-H ) :   0.9326
B( 15-C , 34-H ) :   0.9476 B( 15-C , 35-H ) :   0.9397 B( 16-O , 17-C ) :   0.8976
B( 17-C , 18-C ) :   1.1661 B( 17-C , 36-H ) :   0.9334 B( 17-C , 37-H ) :   0.9056
B( 18-C , 38-H ) :   0.9391 B( 18-C , 39-H ) :   0.9453 B( 18-C , 40-H ) :   0.9418

Dispersion correction           -0.066983931
FINAL SINGLE POINT ENERGY     -2929.522305930884

DIPOLE MOMENT
-------------

Method             : SCF
Type of density    : Electron Density
Multiplicity       :   1
Irrep              :   0
Energy             : -2929.6393566685719634 Eh
Relativity type    :
Basis              : AO
                                X                 Y                 Z
Electronic contribution:     -5.328119729      -2.779551805      -5.810607595
Nuclear contribution   :      6.264675669       3.206062871       5.970378214
                        -----------------------------------------
Total Dipole Moment    :      0.936555940       0.426511066       0.159770619
                        -----------------------------------------
Magnitude (a.u.)       :      1.041429483
Magnitude (Debye)      :      2.647103378

Rotational constants in cm-1:             0.013329             0.005200             0.004595
Rotational constants in MHz :           399.603216           155.884994           137.740546

                             ****ORCA TERMINATED NORMALLY****
TOTAL RUN TIME: 0 days 0 hours 0 minutes 21 seconds 148 msec
