                         Program Version 6.0.0  -   RELEASE  -
|  1> ! pbe def2-sv(p) def2/J RI DEFGRID1 loosescf d4 GCP(DFT/SV(P)) printgap
|  2> %output
|  3>     printlevel normal
|  4> end
|  5> * xyz 0 1
|  6> C -1.7661016345 0.6793869738 -0.0010163407
|  7> C -0.4699736115 -0.0952096375 0.0017414829
|  8> O -0.4446954989 -1.3256392175 -5.69992e-05
|  9> N 0.6441071457 0.649045698 0.0014765637
| 10> C 1.9762051368 0.0887354205 -0.000916902
| 11> H -2.3078676151 0.4456902189 -0.9145009818
| 12> H -2.3744242081 0.3429561312 0.834875538
| 13> H -1.605545503 1.7494092255 0.0665581038
| 14> H 0.5712220943 1.6544498145 -0.0004850953
| 15> H 2.5193934038 0.4041468383 -0.891553192
| 16> H 1.8808907972 -0.9958286516 -0.0011023822
| 17> H 2.5210417009 0.4036486604 0.8888789543
| 18> *
| 19>
| 20>                          ****END OF INPUT****

CARTESIAN COORDINATES (ANGSTROEM)
---------------------------------
  C     -1.766102    0.679387   -0.001016
  C     -0.469974   -0.095210    0.001741
  O     -0.444695   -1.325639   -0.000057
  N      0.644107    0.649046    0.001477
  C      1.976205    0.088735   -0.000917
  H     -2.307868    0.445690   -0.914501
  H     -2.374424    0.342956    0.834876
  H     -1.605546    1.749409    0.066558
  H      0.571222    1.654450   -0.000485
  H      2.519393    0.404147   -0.891553
  H      1.880891   -0.995829   -0.001102
  H      2.521042    0.403649    0.888879

 Total Charge           Charge          ....    0
 Multiplicity           Mult            ....    1
 Number of Electrons    NEL             ....   40
 Basis Dimension        Dim             ....   84

ORBITAL ENERGIES
----------------

  NO   OCC          E(Eh)            E(eV)
   0   2.0000     -18.698136      -508.8021
   1   2.0000     -14.019857      -381.4997
   2   2.0000      -9.972051      -271.3533
   3   2.0000      -9.915123      -269.8042
   4   2.0000      -9.884031      -268.9582
   5   2.0000      -0.919282       -25.0149
   6   2.0000      -0.830374       -22.5956
   7   2.0000      -0.676567       -18.4103
   8   2.0000      -0.615897       -16.7594
   9   2.0000      -0.530221       -14.4280
  10   2.0000      -0.452451       -12.3118
  11   2.0000      -0.411561       -11.1992
  12   2.0000      -0.408432       -11.1140
  13   2.0000      -0.378351       -10.2954
  14   2.0000      -0.355320        -9.6687
  15   2.0000      -0.347904        -9.4670
  16   2.0000      -0.326713        -8.8903
  17   2.0000      -0.303895        -8.2694
  18   2.0000      -0.210091        -5.7169
  19   2.0000      -0.188829        -5.1383
  20   0.0000       0.006211         0.1690
  21   0.0000       0.021464         0.5841
  22   0.0000       0.063994         1.7414
  23   0.0000       0.081145         2.2081
  24   0.0000       0.109696         2.9850

MULLIKEN ATOMIC CHARGES
-----------------------
   0 C :   -0.267730
   1 C :    0.036783
   2 O :   -0.244477
   3 N :   -0.268722
   4 C :   -0.185859
   5 H :    0.132147
   6 H :    0.130886
   7 H :    0.084320
   8 H :    0.218326
   9 H :    0.112094
  10 H :    0.140043
  11 H :    0.112188
Sum of atomic charges:    0.0000000

LOEWDIN ATOMIC CHARGES
----------------------
   0 C :   -0.361444
   1 C :    0.007144
   2 O :   -0.223341
   3 N :   -0.163523
   4 C :   -0.265483
   5 H :    0.144912
   6 H :    0.144401
   7 H :    0.115601
   8 H :    0.229232
   9 H :    0.117165
  10 H :    0.138110
  11 H :    0.117226

  Mayer bond orders larger than 0.100000
B(  0-C ,  1-C ) :   1.0576 B(  0-C ,  5-H ) :   0.9324 B(  0-C ,  6-H ) :   0.9338
B(  0-C ,  7-H ) :   0.9386 B(  1-C ,  2-O ) :   2.0407 B(  1-C ,  3-N ) :   1.2387
B(  3-N ,  4-C ) :   1.0145 B(  3-N ,  8-H ) :   0.8610 B(  4-C ,  9-H ) :   0.9593
B(  4-C , 10-H ) :   0.9326 B(  4-C , 11-H ) :   0.9594

Dispersion correction           -0.007306093
FINAL SINGLE POINT ENERGY      -247.970662245521

DIPOLE MOMENT
-------------

Method             : SCF
Type of density    : Electron Density
Multiplicity       :   1
Irrep              :   0
Energy             :  -248.0166914426613971 Eh
Relativity type    :
Basis              : AO
                                X                 Y                 Z
Electronic contribution:     -0.723193888      -2.337390551       0.007519814
Nuclear contribution   :      1.127167576       3.740767074      -0.016250367
                        -----------------------------------------
Total Dipole Moment    :      0.403973688       1.403376523      -0.008730553
                        -----------------------------------------
Magnitude (a.u.)       :      1.460389204
Magnitude (Debye)      :      3.712014358

Rotational constants in cm-1:             0.334462             0.130178             0.097104
Rotational constants in MHz :         10026.906319          3902.637642          2911.111244

                             ****ORCA TERMINATED NORMALLY****
TOTAL RUN TIME: 0 days 0 hours 0 minutes 4 seconds 609 msec
