                         Program Version 6.0.0  -   RELEASE  -
|  1> ! pbe def2-sv(p) def2/J RI DEFGRID1 loosescf d4 GCP(DFT/SV(P)) printgap
|  2> %output
|  3>     printlevel normal
|  4> end
|  5> * xyz 0 1
|  6> C 2.4631448439 0.4833679092 -2.430333845
|  7> C 2.0695256566 1.5090553463 -1.3887298399
|  8> O 1.265521565 0.9543961349 -0.3122894397
|  9> P 1.7981426535 -0.0484253334 0.7937629459
| 10> S 0.8705007247 0.2394833944 2.4977880023
| 11> O 3.3528108326 0.2707809151 0.8055341401
| 12> C 4.3754325586 -0.6254508609 1.2814832225
| 13> C 4.1172299798 -1.1263271471 2.686361304
| 14> S 1.7218416165 -2.0147344311 -0.0339892012
| 15> C 0.0827911803 -1.9911910218 -0.8045354745
| 16> S -1.2859314633 -1.5840400288 0.3275585693
| 17> P -1.8806926822 0.2752200005 -0.4671006193
| 18> S -1.2781543949 0.7432693538 -2.2733961438
| 19> O -1.482604525 1.24951967 0.7117728211
| 20> C -1.3714679715 2.6750618756 0.5543055858
| 21> C -2.7131681114 3.3303272145 0.3035305227
| 22> O -3.4657838275 0.2508510959 -0.3068523465
| 23> C -4.3448985002 -0.2416276937 -1.3323228272
| 24> C -4.2049025618 -1.7345368513 -1.5502808836
| 25> H 3.055693582 0.9787915524 -3.1932024397
| 26> H 3.0542030821 -0.3133844482 -1.9851254463
| 27> H 1.57812008 0.0604796585 -2.899825864
| 28> H 1.4178929831 2.2708951832 -1.8206923424
| 29> H 2.947587557 1.9765096606 -0.9419702303
| 30> H 4.4444906436 -1.4636655435 0.5825633083
| 31> H 5.2841250039 -0.0228508373 1.2328852367
| 32> H 3.2110553906 -1.7305773457 2.7081407754
| 33> H 4.955736099 -1.7335988704 3.0114761612
| 34> H 3.987331969 -0.2915711625 3.3711283547
| 35> H -0.0735151052 -3.007509522 -1.1579695152
| 36> H 0.0677569177 -1.2789723957 -1.6332441534
| 37> H -0.9244635572 3.0015892189 1.4952400239
| 38> H -0.6778000238 2.8760469892 -0.2685173091
| 39> H -2.5901507627 4.4088869042 0.3077355196
| 40> H -3.1045476161 3.020833687 -0.6648957167
| 41> H -3.419571483 3.0420471292 1.0777191045
| 42> H -5.3395908905 0.0205823008 -0.9693569858
| 43> H -4.1314048238 0.3019019006 -2.2586349653
| 44> H -3.2305457117 -1.9593558777 -1.9818435808
| 45> H -4.3012472343 -2.265187204 -0.6063043461
| 46> H -4.978669021 -2.0692577318 -2.2337099618
| 47> *
| 48>
| 49>                          ****END OF INPUT****

CARTESIAN COORDINATES (ANGSTROEM)
---------------------------------
  C      2.463145    0.483368   -2.430334
  C      2.069526    1.509055   -1.388730
  O      1.265522    0.954396   -0.312289
  P      1.798143   -0.048425    0.793763
  S      0.870501    0.239483    2.497788
  O      3.352811    0.270781    0.805534
  C      4.375433   -0.625451    1.281483
  C      4.117230   -1.126327    2.686361
  S      1.721842   -2.014734   -0.033989
  C      0.082791   -1.991191   -0.804535
  S     -1.285931   -1.584040    0.327559
  P     -1.880693    0.275220   -0.467101
  S     -1.278154    0.743269   -2.273396
  O     -1.482605    1.249520    0.711773
  C     -1.371468    2.675062    0.554306
  C     -2.713168    3.330327    0.303531
  O     -3.465784    0.250851   -0.306852
  C     -4.344899   -0.241628   -1.332323
  C     -4.204903   -1.734537   -1.550281
  H      3.055694    0.978792   -3.193202
  H      3.054203   -0.313384   -1.985125
  H      1.578120    0.060480   -2.899826
  H      1.417893    2.270895   -1.820692
  H      2.947588    1.976510   -0.941970
  H      4.444491   -1.463666    0.582563
  H      5.284125   -0.022851    1.232885
  H      3.211055   -1.730577    2.708141
  H      4.955736   -1.733599    3.011476
  H      3.987332   -0.291571    3.371128
  H     -0.073515   -3.007510   -1.157970
  H      0.067757   -1.278972   -1.633244
  H     -0.924464    3.001589    1.495240
  H     -0.677800    2.876047   -0.268517
  H     -2.590151    4.408887    0.307736
  H     -3.104548    3.020834   -0.664896
  H     -3.419571    3.042047    1.077719
  H     -5.339591    0.020582   -0.969357
  H     -4.131405    0.301902   -2.258635
  H     -3.230546   -1.959356   -1.981844
  H     -4.301247   -2.265187   -0.606304
  H     -4.978669   -2.069258   -2.233710

 Total Charge           Charge          ....    0
 Multiplicity           Mult            ....    1
 Number of Electrons    NEL             ....  202
 Basis Dimension        Dim             ....  334

ORBITAL ENERGIES
----------------

  NO   OCC          E(Eh)            E(eV)
   0   2.0000     -88.041429     -2395.7291
   1   2.0000     -88.040045     -2395.6914
   2   2.0000     -87.990863     -2394.3531
   3   2.0000     -87.971068     -2393.8145
   4   2.0000     -76.424003     -2079.6029
   5   2.0000     -76.421905     -2079.5458
   6   2.0000     -18.791787      -511.3505
   7   2.0000     -18.788437      -511.2594
   8   2.0000     -18.786693      -511.2119
   9   2.0000     -18.779875      -511.0264
  10   2.0000      -9.959605      -271.0146
  11   2.0000      -9.957713      -270.9631
  12   2.0000      -9.950195      -270.7586
  13   2.0000      -9.949718      -270.7456
  14   2.0000      -9.942322      -270.5443
  15   2.0000      -9.882894      -268.9272
  16   2.0000      -9.882258      -268.9099
  17   2.0000      -9.881637      -268.8930
  18   2.0000      -9.878076      -268.7961
  19   2.0000      -7.686414      -209.1580
  20   2.0000      -7.685168      -209.1240
  21   2.0000      -7.635679      -207.7774
  22   2.0000      -7.616248      -207.2486
  23   2.0000      -6.421547      -174.7392
  24   2.0000      -6.418783      -174.6640
  25   2.0000      -5.714260      -155.4929
  26   2.0000      -5.713054      -155.4601
  27   2.0000      -5.711124      -155.4076
  28   2.0000      -5.709645      -155.3673
  29   2.0000      -5.703153      -155.1907
  30   2.0000      -5.702162      -155.1637
  31   2.0000      -5.664311      -154.1337
  32   2.0000      -5.656688      -153.9263
  33   2.0000      -5.655690      -153.8991
  34   2.0000      -5.645487      -153.6215
  35   2.0000      -5.636702      -153.3824
  36   2.0000      -5.636268      -153.3707
  37   2.0000      -4.643736      -126.3625
  38   2.0000      -4.643176      -126.3472
  39   2.0000      -4.642508      -126.3291
  40   2.0000      -4.642072      -126.3172
  41   2.0000      -4.640857      -126.2841
  42   2.0000      -4.638360      -126.2162
  43   2.0000      -0.985388       -26.8138
  44   2.0000      -0.980965       -26.6934
  45   2.0000      -0.940808       -25.6007
  46   2.0000      -0.937938       -25.5226
  47   2.0000      -0.760638       -20.6980
  48   2.0000      -0.716994       -19.5104
  49   2.0000      -0.706748       -19.2316
  50   2.0000      -0.689721       -18.7683
  51   2.0000      -0.683639       -18.6028
  52   2.0000      -0.673271       -18.3206
  53   2.0000      -0.649490       -17.6735
  54   2.0000      -0.636150       -17.3105
  55   2.0000      -0.599480       -16.3127
  56   2.0000      -0.583505       -15.8780
  57   2.0000      -0.577376       -15.7112
  58   2.0000      -0.567692       -15.4477
  59   2.0000      -0.562231       -15.2991
  60   2.0000      -0.496309       -13.5052
  61   2.0000      -0.488316       -13.2877
  62   2.0000      -0.469282       -12.7698
  63   2.0000      -0.467765       -12.7285
  64   2.0000      -0.452098       -12.3022
  65   2.0000      -0.448100       -12.1934
  66   2.0000      -0.436457       -11.8766
  67   2.0000      -0.432066       -11.7571
  68   2.0000      -0.430744       -11.7211
  69   2.0000      -0.415646       -11.3103
  70   2.0000      -0.409512       -11.1434
  71   2.0000      -0.401597       -10.9280
  72   2.0000      -0.386146       -10.5076
  73   2.0000      -0.385192       -10.4816
  74   2.0000      -0.384280       -10.4568
  75   2.0000      -0.381766       -10.3884
  76   2.0000      -0.353919        -9.6306
  77   2.0000      -0.351339        -9.5604
  78   2.0000      -0.349480        -9.5098
  79   2.0000      -0.345540        -9.4026
  80   2.0000      -0.343583        -9.3494
  81   2.0000      -0.341471        -9.2919
  82   2.0000      -0.337430        -9.1819
  83   2.0000      -0.335888        -9.1400
  84   2.0000      -0.332148        -9.0382
  85   2.0000      -0.323136        -8.7930
  86   2.0000      -0.309185        -8.4134
  87   2.0000      -0.297784        -8.1031
  88   2.0000      -0.293701        -7.9920
  89   2.0000      -0.289751        -7.8845
  90   2.0000      -0.277948        -7.5634
  91   2.0000      -0.272682        -7.4200
  92   2.0000      -0.264102        -7.1866
  93   2.0000      -0.263325        -7.1654
  94   2.0000      -0.253482        -6.8976
  95   2.0000      -0.235909        -6.4194
  96   2.0000      -0.220215        -5.9924
  97   2.0000      -0.207626        -5.6498
  98   2.0000      -0.204948        -5.5769
  99   2.0000      -0.184862        -5.0303
 100   2.0000      -0.179982        -4.8976
 101   0.0000      -0.046106        -1.2546
 102   0.0000      -0.031894        -0.8679
 103   0.0000      -0.015241        -0.4147
 104   0.0000       0.005777         0.1572
 105   0.0000       0.021219         0.5774

MULLIKEN ATOMIC CHARGES
-----------------------
   0 C :   -0.331744
   1 C :    0.008779
   2 O :   -0.369894
   3 P :    0.597732
   4 S :   -0.284569
   5 O :   -0.383579
   6 C :   -0.014269
   7 C :   -0.309929
   8 S :   -0.129761
   9 C :   -0.358213
  10 S :   -0.061754
  11 P :    0.630037
  12 S :   -0.351538
  13 O :   -0.342699
  14 C :   -0.001307
  15 C :   -0.305808
  16 O :   -0.372453
  17 C :   -0.002821
  18 C :   -0.309006
  19 H :    0.107958
  20 H :    0.120726
  21 H :    0.137471
  22 H :    0.112794
  23 H :    0.108308
  24 H :    0.114048
  25 H :    0.109322
  26 H :    0.130169
  27 H :    0.110507
  28 H :    0.128323
  29 H :    0.181434
  30 H :    0.206944
  31 H :    0.108080
  32 H :    0.110865
  33 H :    0.108492
  34 H :    0.117439
  35 H :    0.118445
  36 H :    0.105101
  37 H :    0.108440
  38 H :    0.116057
  39 H :    0.120872
  40 H :    0.111000
Sum of atomic charges:   -0.0000000

LOEWDIN ATOMIC CHARGES
----------------------
   0 C :   -0.371119
   1 C :   -0.113542
   2 O :   -0.240753
   3 P :    0.562179
   4 S :   -0.298139
   5 O :   -0.246677
   6 C :   -0.115671
   7 C :   -0.370417
   8 S :    0.055622
   9 C :   -0.478763
  10 S :    0.112038
  11 P :    0.578185
  12 S :   -0.314144
  13 O :   -0.221611
  14 C :   -0.114049
  15 C :   -0.364908
  16 O :   -0.245142
  17 C :   -0.119594
  18 C :   -0.369468
  19 H :    0.130628
  20 H :    0.116168
  21 H :    0.123910
  22 H :    0.116807
  23 H :    0.113470
  24 H :    0.107042
  25 H :    0.121346
  26 H :    0.122712
  27 H :    0.129649
  28 H :    0.131141
  29 H :    0.138129
  30 H :    0.119874
  31 H :    0.120254
  32 H :    0.109030
  33 H :    0.128589
  34 H :    0.120192
  35 H :    0.127282
  36 H :    0.118748
  37 H :    0.108436
  38 H :    0.117558
  39 H :    0.125301
  40 H :    0.129707

  Mayer bond orders larger than 0.100000
B(  0-C ,  1-C ) :   1.1782 B(  0-C , 19-H ) :   0.9352 B(  0-C , 20-H ) :   0.9353
B(  0-C , 21-H ) :   0.9310 B(  1-C ,  2-O ) :   0.8904 B(  1-C , 22-H ) :   0.9190
B(  1-C , 23-H ) :   0.9262 B(  2-O ,  3-P ) :   1.1033 B(  3-P ,  4-S ) :   1.7034
B(  3-P ,  5-O ) :   1.0642 B(  3-P ,  8-S ) :   0.9312 B(  4-S ,  8-S ) :   0.1127
B(  5-O ,  6-C ) :   0.9159 B(  6-C ,  7-C ) :   1.1678 B(  6-C , 24-H ) :   0.9232
B(  6-C , 25-H ) :   0.9338 B(  7-C , 26-H ) :   0.9323 B(  7-C , 27-H ) :   0.9337
B(  7-C , 28-H ) :   0.9415 B(  8-S ,  9-C ) :   0.9978 B(  9-C , 10-S ) :   1.0135
B(  9-C , 29-H ) :   0.9123 B(  9-C , 30-H ) :   0.8480 B( 10-S , 11-P ) :   0.9748
B( 10-S , 12-S ) :   0.1158 B( 11-P , 12-S ) :   1.5524 B( 11-P , 13-O ) :   1.1631
B( 11-P , 16-O ) :   1.0986 B( 13-O , 14-C ) :   0.9057 B( 14-C , 15-C ) :   1.1594
B( 14-C , 31-H ) :   0.9303 B( 14-C , 32-H ) :   0.9193 B( 15-C , 33-H ) :   0.9397
B( 15-C , 34-H ) :   0.9393 B( 15-C , 35-H ) :   0.9452 B( 16-O , 17-C ) :   0.9155
B( 17-C , 18-C ) :   1.1670 B( 17-C , 36-H ) :   0.9341 B( 17-C , 37-H ) :   0.9160
B( 18-C , 38-H ) :   0.9388 B( 18-C , 39-H ) :   0.9431 B( 18-C , 40-H ) :   0.9376

Dispersion correction           -0.070569789
FINAL SINGLE POINT ENERGY     -2929.509422309958

DIPOLE MOMENT
-------------

Method             : SCF
Type of density    : Electron Density
Multiplicity       :   1
Irrep              :   0
Energy             : -2929.6267881042081171 Eh
Relativity type    :
Basis              : AO
                                X                 Y                 Z
Electronic contribution:     -0.773345036      -5.395637075       7.642234282
Nuclear contribution   :      1.224337442       5.376080565      -8.576126028
                        -----------------------------------------
Total Dipole Moment    :      0.450992406      -0.019556511      -0.933891746
                        -----------------------------------------
Magnitude (a.u.)       :      1.037270650
Magnitude (Debye)      :      2.636532463

Rotational constants in cm-1:             0.013070             0.005585             0.005372
Rotational constants in MHz :           391.826999           167.422170           161.045099

                             ****ORCA TERMINATED NORMALLY****
TOTAL RUN TIME: 0 days 0 hours 0 minutes 21 seconds 904 msec
