                         Program Version 6.0.0  -   RELEASE  -
|  1> ! r2scan-3c def2/J RI DEFGRID2 scfconv6 printgap
|  2> %output
|  3>     printlevel normal
|  4> end
|  5> * xyz 0 1
|  6> C 1.219808856 -0.3545487515 -3.0872540856
|  7> C 2.2968916322 0.3568550508 -2.2926690333
|  8> O 2.7995777748 -0.4985323494 -1.2502892443
|  9> P 2.4696738113 -0.3418511018 0.2829196772
| 10> S 2.5823800827 1.4556441101 1.0677602539
| 11> O 3.5857684219 -1.3529983953 0.7669857872
| 12> C 3.7825305199 -1.6021780997 2.1737198391
| 13> C 5.1477918532 -2.236442368 2.3464659271
| 14> S 0.6521608212 -1.3931850567 0.6482315368
| 15> C -0.1479626545 -0.2592666458 1.8406101253
| 16> S -1.933732349 -0.2075351641 1.618845175
| 17> P -1.9608433646 0.5618686648 -0.3704867516
| 18> S -0.6032123713 1.9104264422 -0.780669418
| 19> O -3.4681455857 1.0349323946 -0.5227608493
| 20> C -3.9594580666 2.1986776562 0.1742645169
| 21> C -5.3032599094 2.5627300821 -0.4233272593
| 22> O -1.8808282633 -0.6753578935 -1.3383916769
| 23> C -2.7954379499 -1.8003801489 -1.2755862205
| 24> C -3.9010849452 -1.6436032223 -2.2983712011
| 25> H 0.9437839619 0.260666786 -3.9376542409
| 26> H 1.5897887582 -1.3147204795 -3.4350778639
| 27> H 0.3359229297 -0.5154756357 -2.4731535379
| 28> H 1.9200412028 1.2886098447 -1.856983689
| 29> H 3.1652241191 0.5781628334 -2.9165851346
| 30> H 3.7129459586 -0.650407396 2.7127043157
| 31> H 2.987591419 -2.2711805957 2.5167770173
| 32> H 5.9196023954 -1.5586655546 1.9934330705
| 33> H 5.3111224576 -2.4517457363 3.39726267
| 34> H 5.2014786191 -3.1579587983 1.7744315802
| 35> H 0.2769979762 0.7393006763 1.7009496246
| 36> H 0.0198976775 -0.6221028441 2.8514745174
| 37> H -4.0466398583 1.9499813764 1.235311424
| 38> H -3.232610713 3.008791681 0.0547489542
| 39> H -5.6943256017 3.4361910245 0.0878390542
| 40> H -5.1936699083 2.7862354785 -1.4808057034
| 41> H -5.9985494946 1.7367506631 -0.3058451219
| 42> H -2.1706672912 -2.6701379278 -1.4866481014
| 43> H -3.1976593823 -1.8731452717 -0.2614933233
| 44> H -4.5367238467 -2.5230142414 -2.2697257027
| 45> H -4.496110082 -0.7620123064 -2.0760653444
| 46> H -3.4774587271 -1.5387996467 -3.2933026968
| 47> *
| 48>
| 49>                          ****END OF INPUT****

CARTESIAN COORDINATES (ANGSTROEM)
---------------------------------
  C      1.219809   -0.354549   -3.087254
  C      2.296892    0.356855   -2.292669
  O      2.799578   -0.498532   -1.250289
  P      2.469674   -0.341851    0.282920
  S      2.582380    1.455644    1.067760
  O      3.585768   -1.352998    0.766986
  C      3.782531   -1.602178    2.173720
  C      5.147792   -2.236442    2.346466
  S      0.652161   -1.393185    0.648232
  C     -0.147963   -0.259267    1.840610
  S     -1.933732   -0.207535    1.618845
  P     -1.960843    0.561869   -0.370487
  S     -0.603212    1.910426   -0.780669
  O     -3.468146    1.034932   -0.522761
  C     -3.959458    2.198678    0.174265
  C     -5.303260    2.562730   -0.423327
  O     -1.880828   -0.675358   -1.338392
  C     -2.795438   -1.800380   -1.275586
  C     -3.901085   -1.643603   -2.298371
  H      0.943784    0.260667   -3.937654
  H      1.589789   -1.314720   -3.435078
  H      0.335923   -0.515476   -2.473154
  H      1.920041    1.288610   -1.856984
  H      3.165224    0.578163   -2.916585
  H      3.712946   -0.650407    2.712704
  H      2.987591   -2.271181    2.516777
  H      5.919602   -1.558666    1.993433
  H      5.311122   -2.451746    3.397263
  H      5.201479   -3.157959    1.774432
  H      0.276998    0.739301    1.700950
  H      0.019898   -0.622103    2.851475
  H     -4.046640    1.949981    1.235311
  H     -3.232611    3.008792    0.054749
  H     -5.694326    3.436191    0.087839
  H     -5.193670    2.786235   -1.480806
  H     -5.998549    1.736751   -0.305845
  H     -2.170667   -2.670138   -1.486648
  H     -3.197659   -1.873145   -0.261493
  H     -4.536724   -2.523014   -2.269726
  H     -4.496110   -0.762012   -2.076065
  H     -3.477459   -1.538800   -3.293303

 Total Charge           Charge          ....    0
 Multiplicity           Mult            ....    1
 Number of Electrons    NEL             ....  202
 Basis Dimension        Dim             ....  539

ORBITAL ENERGIES
----------------

  NO   OCC          E(Eh)            E(eV)
   0   2.0000     -88.579536     -2410.3717
   1   2.0000     -88.571617     -2410.1562
   2   2.0000     -88.517730     -2408.6899
   3   2.0000     -88.514401     -2408.5993
   4   2.0000     -76.915748     -2092.9839
   5   2.0000     -76.907242     -2092.7525
   6   2.0000     -18.998032      -516.9627
   7   2.0000     -18.995941      -516.9058
   8   2.0000     -18.984607      -516.5974
   9   2.0000     -18.981538      -516.5139
  10   2.0000     -10.105822      -274.9934
  11   2.0000     -10.103583      -274.9325
  12   2.0000     -10.103303      -274.9249
  13   2.0000     -10.093200      -274.6499
  14   2.0000     -10.086271      -274.4614
  15   2.0000     -10.037892      -273.1449
  16   2.0000     -10.034690      -273.0578
  17   2.0000     -10.027870      -272.8722
  18   2.0000     -10.013416      -272.4789
  19   2.0000      -7.873890      -214.2594
  20   2.0000      -7.865668      -214.0357
  21   2.0000      -7.812451      -212.5876
  22   2.0000      -7.809091      -212.4962
  23   2.0000      -6.594254      -179.4388
  24   2.0000      -6.585762      -179.2077
  25   2.0000      -5.820747      -158.3906
  26   2.0000      -5.817528      -158.3030
  27   2.0000      -5.812459      -158.1651
  28   2.0000      -5.811243      -158.1320
  29   2.0000      -5.809550      -158.0859
  30   2.0000      -5.802903      -157.9050
  31   2.0000      -5.760250      -156.7444
  32   2.0000      -5.756689      -156.6475
  33   2.0000      -5.752566      -156.5353
  34   2.0000      -5.752468      -156.5326
  35   2.0000      -5.749433      -156.4500
  36   2.0000      -5.749092      -156.4408
  37   2.0000      -4.740041      -128.9831
  38   2.0000      -4.739365      -128.9647
  39   2.0000      -4.737528      -128.9147
  40   2.0000      -4.731043      -128.7382
  41   2.0000      -4.730877      -128.7337
  42   2.0000      -4.729498      -128.6962
  43   2.0000      -1.056485       -28.7484
  44   2.0000      -1.045679       -28.4544
  45   2.0000      -1.015992       -27.6465
  46   2.0000      -1.002264       -27.2730
  47   2.0000      -0.798645       -21.7322
  48   2.0000      -0.760687       -20.6994
  49   2.0000      -0.750201       -20.4140
  50   2.0000      -0.741117       -20.1668
  51   2.0000      -0.720950       -19.6180
  52   2.0000      -0.708299       -19.2738
  53   2.0000      -0.683177       -18.5902
  54   2.0000      -0.661505       -18.0005
  55   2.0000      -0.624033       -16.9808
  56   2.0000      -0.621592       -16.9144
  57   2.0000      -0.607992       -16.5443
  58   2.0000      -0.597279       -16.2528
  59   2.0000      -0.586363       -15.9558
  60   2.0000      -0.536899       -14.6098
  61   2.0000      -0.523587       -14.2475
  62   2.0000      -0.505457       -13.7542
  63   2.0000      -0.487840       -13.2748
  64   2.0000      -0.468612       -12.7516
  65   2.0000      -0.463671       -12.6171
  66   2.0000      -0.461949       -12.5703
  67   2.0000      -0.451289       -12.2802
  68   2.0000      -0.450645       -12.2627
  69   2.0000      -0.430097       -11.7035
  70   2.0000      -0.424598       -11.5539
  71   2.0000      -0.410998       -11.1838
  72   2.0000      -0.409224       -11.1356
  73   2.0000      -0.401546       -10.9266
  74   2.0000      -0.388993       -10.5850
  75   2.0000      -0.386557       -10.5187
  76   2.0000      -0.379882       -10.3371
  77   2.0000      -0.373924       -10.1750
  78   2.0000      -0.372253       -10.1295
  79   2.0000      -0.367494       -10.0000
  80   2.0000      -0.363611        -9.8943
  81   2.0000      -0.358931        -9.7670
  82   2.0000      -0.352716        -9.5979
  83   2.0000      -0.348819        -9.4918
  84   2.0000      -0.338614        -9.2142
  85   2.0000      -0.334274        -9.0961
  86   2.0000      -0.322391        -8.7727
  87   2.0000      -0.319927        -8.7057
  88   2.0000      -0.312819        -8.5123
  89   2.0000      -0.311502        -8.4764
  90   2.0000      -0.295303        -8.0356
  91   2.0000      -0.294181        -8.0051
  92   2.0000      -0.279383        -7.6024
  93   2.0000      -0.276409        -7.5215
  94   2.0000      -0.267785        -7.2868
  95   2.0000      -0.248389        -6.7590
  96   2.0000      -0.235990        -6.4216
  97   2.0000      -0.222361        -6.0508
  98   2.0000      -0.215144        -5.8544
  99   2.0000      -0.210002        -5.7145
 100   2.0000      -0.200690        -5.4611
 101   0.0000      -0.045264        -1.2317
 102   0.0000      -0.033706        -0.9172
 103   0.0000      -0.009148        -0.2489
 104   0.0000       0.011423         0.3108
 105   0.0000       0.017809         0.4846

MULLIKEN ATOMIC CHARGES
-----------------------
   0 C :   -0.443165
   1 C :   -0.139423
   2 O :   -0.300048
   3 P :    0.696494
   4 S :   -0.453375
   5 O :   -0.280845
   6 C :   -0.142581
   7 C :   -0.443735
   8 S :   -0.168454
   9 C :   -0.217193
  10 S :   -0.182354
  11 P :    0.663994
  12 S :   -0.418467
  13 O :   -0.285101
  14 C :   -0.155003
  15 C :   -0.441218
  16 O :   -0.270361
  17 C :   -0.107943
  18 C :   -0.458152
  19 H :    0.144268
  20 H :    0.145166
  21 H :    0.180254
  22 H :    0.172842
  23 H :    0.145925
  24 H :    0.165175
  25 H :    0.149779
  26 H :    0.159163
  27 H :    0.143241
  28 H :    0.153510
  29 H :    0.226715
  30 H :    0.186348
  31 H :    0.151253
  32 H :    0.172654
  33 H :    0.148927
  34 H :    0.159963
  35 H :    0.150701
  36 H :    0.160599
  37 H :    0.159817
  38 H :    0.147197
  39 H :    0.166356
  40 H :    0.157076
Sum of atomic charges:   -0.0000000

LOEWDIN ATOMIC CHARGES
----------------------
   0 C :   -0.404044
   1 C :    0.024699
   2 O :   -0.640398
   3 P :    0.379825
   4 S :   -0.122517
   5 O :   -0.659263
   6 C :    0.015942
   7 C :   -0.385176
   8 S :    0.137759
   9 C :   -0.419485
  10 S :    0.121607
  11 P :    0.374104
  12 S :   -0.082469
  13 O :   -0.676053
  14 C :    0.020244
  15 C :   -0.385777
  16 O :   -0.669099
  17 C :    0.021873
  18 C :   -0.392221
  19 H :    0.160957
  20 H :    0.155683
  21 H :    0.175921
  22 H :    0.183985
  23 H :    0.175790
  24 H :    0.178259
  25 H :    0.170017
  26 H :    0.162032
  27 H :    0.158234
  28 H :    0.160029
  29 H :    0.201219
  30 H :    0.176394
  31 H :    0.172355
  32 H :    0.182068
  33 H :    0.161245
  34 H :    0.162255
  35 H :    0.158253
  36 H :    0.182067
  37 H :    0.176614
  38 H :    0.159088
  39 H :    0.166459
  40 H :    0.161525

  Mayer bond orders larger than 0.100000
B(  0-C ,  1-C ) :   0.9522 B(  0-C , 19-H ) :   0.9654 B(  0-C , 20-H ) :   0.9740
B(  0-C , 21-H ) :   0.9501 B(  1-C ,  2-O ) :   0.7610 B(  1-C , 22-H ) :   0.9583
B(  1-C , 23-H ) :   0.9643 B(  2-O ,  3-P ) :   1.1779 B(  3-P ,  4-S ) :   1.7655
B(  3-P ,  5-O ) :   1.1346 B(  3-P ,  8-S ) :   1.0302 B(  5-O ,  6-C ) :   0.7825
B(  6-C ,  7-C ) :   0.9630 B(  6-C , 24-H ) :   0.9506 B(  6-C , 25-H ) :   0.9435
B(  7-C , 26-H ) :   0.9723 B(  7-C , 27-H ) :   0.9651 B(  7-C , 28-H ) :   0.9720
B(  8-S ,  9-C ) :   0.8942 B(  9-C , 10-S ) :   0.9318 B(  9-C , 29-H ) :   0.8992
B(  9-C , 30-H ) :   0.9151 B( 10-S , 11-P ) :   0.9865 B( 11-P , 12-S ) :   1.8407
B( 11-P , 13-O ) :   1.0616 B( 11-P , 16-O ) :   1.1288 B( 13-O , 14-C ) :   0.7886
B( 14-C , 15-C ) :   0.9553 B( 14-C , 31-H ) :   0.9417 B( 14-C , 32-H ) :   0.9492
B( 15-C , 33-H ) :   0.9630 B( 15-C , 34-H ) :   0.9711 B( 15-C , 35-H ) :   0.9720
B( 16-O , 17-C ) :   0.7380 B( 17-C , 18-C ) :   0.9401 B( 17-C , 36-H ) :   0.9604
B( 17-C , 37-H ) :   0.9640 B( 18-C , 38-H ) :   0.9658 B( 18-C , 39-H ) :   0.9666
B( 18-C , 40-H ) :   0.9712

Dispersion correction           -0.021153412
FINAL SINGLE POINT ENERGY     -2932.461588940321

DIPOLE MOMENT
-------------

Method             : SCF
Type of density    : Electron Density
Multiplicity       :   1
Irrep              :   0
Energy             : -2932.4869143480673301 Eh
Relativity type    :
Basis              : AO
                                X                 Y                 Z
Electronic contribution:      8.940634781       4.968802799       7.224247608
Nuclear contribution   :    -10.460415091      -6.015783380      -7.037066264
                        -----------------------------------------
Total Dipole Moment    :     -1.519780311      -1.046980582       0.187181344
                        -----------------------------------------
Magnitude (a.u.)       :      1.854976384
Magnitude (Debye)      :      4.714975264

Rotational constants in cm-1:             0.013504             0.004489             0.004388
Rotational constants in MHz :           404.827764           134.563749           131.558350

                             ****ORCA TERMINATED NORMALLY****
TOTAL RUN TIME: 0 days 0 hours 1 minutes 18 seconds 107 msec
