                         Program Version 6.0.0  -   RELEASE  -
|  1> ! r2scan-3c def2/J RI DEFGRID2 scfconv6 printgap
|  2> %output
|  3>     printlevel normal
|  4> end
|  5> %cpcm
|  6>     smd true
|  7>     smdsolvent "water"
|  8> end
|  9> * xyz 0 1
| 10> C 1.219808856 -0.3545487515 -3.0872540856
| 11> C 2.2968916322 0.3568550508 -2.2926690333
| 12> O 2.7995777748 -0.4985323494 -1.2502892443
| 13> P 2.4696738113 -0.3418511018 0.2829196772
| 14> S 2.5823800827 1.4556441101 1.0677602539
| 15> O 3.5857684219 -1.3529983953 0.7669857872
| 16> C 3.7825305199 -1.6021780997 2.1737198391
| 17> C 5.1477918532 -2.236442368 2.3464659271
| 18> S 0.6521608212 -1.3931850567 0.6482315368
| 19> C -0.1479626545 -0.2592666458 1.8406101253
| 20> S -1.933732349 -0.2075351641 1.618845175
| 21> P -1.9608433646 0.5618686648 -0.3704867516
| 22> S -0.6032123713 1.9104264422 -0.780669418
| 23> O -3.4681455857 1.0349323946 -0.5227608493
| 24> C -3.9594580666 2.1986776562 0.1742645169
| 25> C -5.3032599094 2.5627300821 -0.4233272593
| 26> O -1.8808282633 -0.6753578935 -1.3383916769
| 27> C -2.7954379499 -1.8003801489 -1.2755862205
| 28> C -3.9010849452 -1.6436032223 -2.2983712011
| 29> H 0.9437839619 0.260666786 -3.9376542409
| 30> H 1.5897887582 -1.3147204795 -3.4350778639
| 31> H 0.3359229297 -0.5154756357 -2.4731535379
| 32> H 1.9200412028 1.2886098447 -1.856983689
| 33> H 3.1652241191 0.5781628334 -2.9165851346
| 34> H 3.7129459586 -0.650407396 2.7127043157
| 35> H 2.987591419 -2.2711805957 2.5167770173
| 36> H 5.9196023954 -1.5586655546 1.9934330705
| 37> H 5.3111224576 -2.4517457363 3.39726267
| 38> H 5.2014786191 -3.1579587983 1.7744315802
| 39> H 0.2769979762 0.7393006763 1.7009496246
| 40> H 0.0198976775 -0.6221028441 2.8514745174
| 41> H -4.0466398583 1.9499813764 1.235311424
| 42> H -3.232610713 3.008791681 0.0547489542
| 43> H -5.6943256017 3.4361910245 0.0878390542
| 44> H -5.1936699083 2.7862354785 -1.4808057034
| 45> H -5.9985494946 1.7367506631 -0.3058451219
| 46> H -2.1706672912 -2.6701379278 -1.4866481014
| 47> H -3.1976593823 -1.8731452717 -0.2614933233
| 48> H -4.5367238467 -2.5230142414 -2.2697257027
| 49> H -4.496110082 -0.7620123064 -2.0760653444
| 50> H -3.4774587271 -1.5387996467 -3.2933026968
| 51> *
| 52>
| 53>                          ****END OF INPUT****

CARTESIAN COORDINATES (ANGSTROEM)
---------------------------------
  C      1.219809   -0.354549   -3.087254
  C      2.296892    0.356855   -2.292669
  O      2.799578   -0.498532   -1.250289
  P      2.469674   -0.341851    0.282920
  S      2.582380    1.455644    1.067760
  O      3.585768   -1.352998    0.766986
  C      3.782531   -1.602178    2.173720
  C      5.147792   -2.236442    2.346466
  S      0.652161   -1.393185    0.648232
  C     -0.147963   -0.259267    1.840610
  S     -1.933732   -0.207535    1.618845
  P     -1.960843    0.561869   -0.370487
  S     -0.603212    1.910426   -0.780669
  O     -3.468146    1.034932   -0.522761
  C     -3.959458    2.198678    0.174265
  C     -5.303260    2.562730   -0.423327
  O     -1.880828   -0.675358   -1.338392
  C     -2.795438   -1.800380   -1.275586
  C     -3.901085   -1.643603   -2.298371
  H      0.943784    0.260667   -3.937654
  H      1.589789   -1.314720   -3.435078
  H      0.335923   -0.515476   -2.473154
  H      1.920041    1.288610   -1.856984
  H      3.165224    0.578163   -2.916585
  H      3.712946   -0.650407    2.712704
  H      2.987591   -2.271181    2.516777
  H      5.919602   -1.558666    1.993433
  H      5.311122   -2.451746    3.397263
  H      5.201479   -3.157959    1.774432
  H      0.276998    0.739301    1.700950
  H      0.019898   -0.622103    2.851475
  H     -4.046640    1.949981    1.235311
  H     -3.232611    3.008792    0.054749
  H     -5.694326    3.436191    0.087839
  H     -5.193670    2.786235   -1.480806
  H     -5.998549    1.736751   -0.305845
  H     -2.170667   -2.670138   -1.486648
  H     -3.197659   -1.873145   -0.261493
  H     -4.536724   -2.523014   -2.269726
  H     -4.496110   -0.762012   -2.076065
  H     -3.477459   -1.538800   -3.293303

 Total Charge           Charge          ....    0
 Multiplicity           Mult            ....    1
 Number of Electrons    NEL             ....  202
 Basis Dimension        Dim             ....  539

ORBITAL ENERGIES
----------------

  NO   OCC          E(Eh)            E(eV)
   0   2.0000     -88.581014     -2410.4119
   1   2.0000     -88.577777     -2410.3238
   2   2.0000     -88.528029     -2408.9701
   3   2.0000     -88.525620     -2408.9046
   4   2.0000     -76.918993     -2093.0722
   5   2.0000     -76.918694     -2093.0641
   6   2.0000     -18.996551      -516.9224
   7   2.0000     -18.996163      -516.9119
   8   2.0000     -18.995705      -516.8994
   9   2.0000     -18.991463      -516.7840
  10   2.0000     -10.102788      -274.9108
  11   2.0000     -10.092644      -274.6348
  12   2.0000     -10.091346      -274.5995
  13   2.0000     -10.089155      -274.5399
  14   2.0000     -10.089086      -274.5380
  15   2.0000     -10.020073      -272.6600
  16   2.0000     -10.019263      -272.6380
  17   2.0000     -10.018739      -272.6238
  18   2.0000     -10.014681      -272.5133
  19   2.0000      -7.875289      -214.2975
  20   2.0000      -7.871772      -214.2018
  21   2.0000      -7.823030      -212.8755
  22   2.0000      -7.820700      -212.8121
  23   2.0000      -6.597538      -179.5281
  24   2.0000      -6.597302      -179.5217
  25   2.0000      -5.822162      -158.4291
  26   2.0000      -5.818956      -158.3419
  27   2.0000      -5.818585      -158.3317
  28   2.0000      -5.815682      -158.2528
  29   2.0000      -5.812608      -158.1691
  30   2.0000      -5.808978      -158.0703
  31   2.0000      -5.770545      -157.0245
  32   2.0000      -5.768374      -156.9654
  33   2.0000      -5.763354      -156.8288
  34   2.0000      -5.763073      -156.8212
  35   2.0000      -5.760833      -156.7602
  36   2.0000      -5.760755      -156.7581
  37   2.0000      -4.743255      -129.0705
  38   2.0000      -4.742625      -129.0534
  39   2.0000      -4.742625      -129.0534
  40   2.0000      -4.742374      -129.0466
  41   2.0000      -4.741058      -129.0107
  42   2.0000      -4.740954      -129.0079
  43   2.0000      -1.056712       -28.7546
  44   2.0000      -1.055209       -28.7137
  45   2.0000      -1.014030       -27.5932
  46   2.0000      -1.012271       -27.5453
  47   2.0000      -0.800363       -21.7790
  48   2.0000      -0.757344       -20.6084
  49   2.0000      -0.747764       -20.3477
  50   2.0000      -0.727818       -19.8049
  51   2.0000      -0.720095       -19.5948
  52   2.0000      -0.710522       -19.3343
  53   2.0000      -0.687168       -18.6988
  54   2.0000      -0.670264       -18.2388
  55   2.0000      -0.626443       -17.0464
  56   2.0000      -0.616200       -16.7677
  57   2.0000      -0.599780       -16.3208
  58   2.0000      -0.593516       -16.1504
  59   2.0000      -0.586207       -15.9515
  60   2.0000      -0.532975       -14.5030
  61   2.0000      -0.525282       -14.2937
  62   2.0000      -0.498465       -13.5639
  63   2.0000      -0.494315       -13.4510
  64   2.0000      -0.468318       -12.7436
  65   2.0000      -0.461468       -12.5572
  66   2.0000      -0.458740       -12.4830
  67   2.0000      -0.452818       -12.3218
  68   2.0000      -0.443710       -12.0740
  69   2.0000      -0.431193       -11.7334
  70   2.0000      -0.420988       -11.4557
  71   2.0000      -0.415813       -11.3149
  72   2.0000      -0.403066       -10.9680
  73   2.0000      -0.393466       -10.7068
  74   2.0000      -0.390154       -10.6166
  75   2.0000      -0.389506       -10.5990
  76   2.0000      -0.376624       -10.2485
  77   2.0000      -0.367644       -10.0041
  78   2.0000      -0.361212        -9.8291
  79   2.0000      -0.359740        -9.7890
  80   2.0000      -0.355772        -9.6810
  81   2.0000      -0.351730        -9.5710
  82   2.0000      -0.348695        -9.4885
  83   2.0000      -0.347764        -9.4631
  84   2.0000      -0.341501        -9.2927
  85   2.0000      -0.327254        -8.9050
  86   2.0000      -0.324722        -8.8361
  87   2.0000      -0.314744        -8.5646
  88   2.0000      -0.314359        -8.5541
  89   2.0000      -0.306896        -8.3511
  90   2.0000      -0.299154        -8.1404
  91   2.0000      -0.290067        -7.8931
  92   2.0000      -0.282215        -7.6795
  93   2.0000      -0.278145        -7.5687
  94   2.0000      -0.274410        -7.4671
  95   2.0000      -0.252146        -6.8612
  96   2.0000      -0.244574        -6.6552
  97   2.0000      -0.234233        -6.3738
  98   2.0000      -0.223162        -6.0725
  99   2.0000      -0.220446        -5.9986
 100   2.0000      -0.212411        -5.7800
 101   0.0000      -0.048763        -1.3269
 102   0.0000      -0.042231        -1.1492
 103   0.0000      -0.013705        -0.3729
 104   0.0000       0.006685         0.1819
 105   0.0000       0.013808         0.3757

MULLIKEN ATOMIC CHARGES
-----------------------
   0 C :   -0.489597
   1 C :   -0.127783
   2 O :   -0.327205
   3 P :    0.719176
   4 S :   -0.504644
   5 O :   -0.320988
   6 C :   -0.129016
   7 C :   -0.483360
   8 S :   -0.168791
   9 C :   -0.214474
  10 S :   -0.178416
  11 P :    0.680164
  12 S :   -0.476238
  13 O :   -0.303215
  14 C :   -0.144658
  15 C :   -0.481261
  16 O :   -0.296094
  17 C :   -0.093339
  18 C :   -0.500038
  19 H :    0.169268
  20 H :    0.163143
  21 H :    0.171831
  22 H :    0.168607
  23 H :    0.172410
  24 H :    0.169235
  25 H :    0.170361
  26 H :    0.165971
  27 H :    0.168892
  28 H :    0.165602
  29 H :    0.217658
  30 H :    0.230390
  31 H :    0.168676
  32 H :    0.173218
  33 H :    0.169850
  34 H :    0.166963
  35 H :    0.166316
  36 H :    0.180701
  37 H :    0.172207
  38 H :    0.171398
  39 H :    0.169636
  40 H :    0.167442
Sum of atomic charges:   -0.0000000

LOEWDIN ATOMIC CHARGES
----------------------
   0 C :   -0.408347
   1 C :    0.026770
   2 O :   -0.658203
   3 P :    0.381854
   4 S :   -0.158465
   5 O :   -0.681085
   6 C :    0.022743
   7 C :   -0.389201
   8 S :    0.143178
   9 C :   -0.412741
  10 S :    0.132755
  11 P :    0.376844
  12 S :   -0.124995
  13 O :   -0.682141
  14 C :    0.024530
  15 C :   -0.388844
  16 O :   -0.683660
  17 C :    0.029107
  18 C :   -0.395011
  19 H :    0.168808
  20 H :    0.161921
  21 H :    0.170743
  22 H :    0.182805
  23 H :    0.186376
  24 H :    0.181055
  25 H :    0.179388
  26 H :    0.162615
  27 H :    0.168564
  28 H :    0.163153
  29 H :    0.198028
  30 H :    0.193282
  31 H :    0.179555
  32 H :    0.181692
  33 H :    0.169233
  34 H :    0.163514
  35 H :    0.163258
  36 H :    0.190388
  37 H :    0.182401
  38 H :    0.168961
  39 H :    0.165678
  40 H :    0.163493

  Mayer bond orders larger than 0.100000
B(  0-C ,  1-C ) :   0.9395 B(  0-C , 19-H ) :   0.9626 B(  0-C , 20-H ) :   0.9700
B(  0-C , 21-H ) :   0.9554 B(  1-C ,  2-O ) :   0.7525 B(  1-C , 22-H ) :   0.9552
B(  1-C , 23-H ) :   0.9546 B(  2-O ,  3-P ) :   1.1726 B(  3-P ,  4-S ) :   1.7294
B(  3-P ,  5-O ) :   1.1359 B(  3-P ,  8-S ) :   1.0592 B(  5-O ,  6-C ) :   0.7783
B(  6-C ,  7-C ) :   0.9546 B(  6-C , 24-H ) :   0.9466 B(  6-C , 25-H ) :   0.9348
B(  7-C , 26-H ) :   0.9705 B(  7-C , 27-H ) :   0.9587 B(  7-C , 28-H ) :   0.9691
B(  8-S ,  9-C ) :   0.8869 B(  9-C , 10-S ) :   0.9265 B(  9-C , 29-H ) :   0.9037
B(  9-C , 30-H ) :   0.9000 B( 10-S , 11-P ) :   1.0017 B( 11-P , 12-S ) :   1.8056
B( 11-P , 13-O ) :   1.0721 B( 11-P , 16-O ) :   1.1380 B( 13-O , 14-C ) :   0.7804
B( 14-C , 15-C ) :   0.9546 B( 14-C , 31-H ) :   0.9331 B( 14-C , 32-H ) :   0.9467
B( 15-C , 33-H ) :   0.9577 B( 15-C , 34-H ) :   0.9690 B( 15-C , 35-H ) :   0.9684
B( 16-O , 17-C ) :   0.7285 B( 17-C , 18-C ) :   0.9315 B( 17-C , 36-H ) :   0.9510
B( 17-C , 37-H ) :   0.9551 B( 18-C , 38-H ) :   0.9592 B( 18-C , 39-H ) :   0.9664
B( 18-C , 40-H ) :   0.9700

Dispersion correction           -0.021153412
FINAL SINGLE POINT ENERGY     -2932.470488105741

DIPOLE MOMENT
-------------

Method             : SCF
Type of density    : Electron Density
Multiplicity       :   1
Irrep              :   0
Energy             : -2932.4958135134870645 Eh
Relativity type    :
Basis              : AO
                                X                 Y                 Z
Electronic contribution:      8.355446622       4.422423814       7.611827368
Nuclear contribution   :    -10.460415091      -6.015783380      -7.037066264
                        -----------------------------------------
Total Dipole Moment    :     -2.104968469      -1.593359566       0.574761104
                        -----------------------------------------
Magnitude (a.u.)       :      2.701858118
Magnitude (Debye)      :      6.867577561

Rotational constants in cm-1:             0.013504             0.004489             0.004388
Rotational constants in MHz :           404.827764           134.563749           131.558350

                             ****ORCA TERMINATED NORMALLY****
TOTAL RUN TIME: 0 days 0 hours 1 minutes 53 seconds 55 msec
