                         Program Version 6.0.0  -   RELEASE  -
|  1> ! r2scan-3c def2/J RI DEFGRID2 scfconv6 printgap
|  2> %output
|  3>     printlevel normal
|  4> end
|  5> * xyz 0 1
|  6> C 4.7848138702 -2.1810651484 -0.1599392999
|  7> C 4.1485028248 -1.7183094073 -1.4554997736
|  8> O 2.7270268848 -1.5458042032 -1.3065155699
|  9> P 2.0724179808 -0.2843244473 -0.5866496888
| 10> S 3.2224183681 1.2933542671 -0.4053237254
| 11> O 1.4627398689 -0.8458840827 0.7708219552
| 12> C 2.0252151039 -0.6329738293 2.0820347033
| 13> C 0.9165480205 -0.2833853367 3.0551163483
| 14> S 0.3680191193 -0.1472783794 -1.8072880692
| 15> C -0.1119290732 1.5362305131 -1.3233638816
| 16> S -0.5823091418 1.6551835128 0.4162482429
| 17> P -2.24980038 0.343526503 0.3113017161
| 18> S -3.3014332111 0.4402199516 -1.3463137485
| 19> O -2.9925576725 0.6209425152 1.6834953251
| 20> C -3.3407810289 1.9187754749 2.2002957773
| 21> C -4.1737518487 2.7329321084 1.2316782903
| 22> O -1.6995559674 -1.101540481 0.6538778366
| 23> C -1.9634640473 -2.2813345057 -0.1334827712
| 24> C -0.7724248669 -3.2134165791 -0.045335504
| 25> H 4.2966223039 -3.0841802843 0.196941647
| 26> H 5.8378404601 -2.3835739188 -0.3280259016
| 27> H 4.6914461376 -1.401422316 0.5956417986
| 28> H 4.2455028122 -2.4646426301 -2.2448472197
| 29> H 4.5859827267 -0.7702663061 -1.7830603242
| 30> H 2.517869308 -1.5657253099 2.3670477274
| 31> H 2.7670243566 0.1710569482 2.023094069
| 32> H 1.314231069 -0.2965189978 4.0647191643
| 33> H 0.5190303445 0.7050971315 2.8407038384
| 34> H 0.1096126785 -1.0070148436 2.9738467129
| 35> H -0.9603428737 1.8042940818 -1.9530351495
| 36> H 0.7262067847 2.2166181907 -1.4700238562
| 37> H -3.8978472482 1.6890775561 3.1103340587
| 38> H -2.417148485 2.4462662365 2.4544850625
| 39> H -4.4874953582 3.6540396575 1.7121266109
| 40> H -3.5903100121 2.9763610695 0.3449725647
| 41> H -5.0516458331 2.1710776862 0.9216122647
| 42> H -2.8591524317 -2.750341984 0.2813427805
| 43> H -2.1644929225 -1.9852184539 -1.1687646631
| 44> H -0.5638771651 -3.452362825 0.9934346978
| 45> H -1.0002656067 -4.1254293657 -0.5876216383
| 46> H 0.1092724035 -2.7513515605 -0.4833394533
| 47> *
| 48>
| 49>                          ****END OF INPUT****

CARTESIAN COORDINATES (ANGSTROEM)
---------------------------------
  C      4.784814   -2.181065   -0.159939
  C      4.148503   -1.718309   -1.455500
  O      2.727027   -1.545804   -1.306516
  P      2.072418   -0.284324   -0.586650
  S      3.222418    1.293354   -0.405324
  O      1.462740   -0.845884    0.770822
  C      2.025215   -0.632974    2.082035
  C      0.916548   -0.283385    3.055116
  S      0.368019   -0.147278   -1.807288
  C     -0.111929    1.536231   -1.323364
  S     -0.582309    1.655184    0.416248
  P     -2.249800    0.343527    0.311302
  S     -3.301433    0.440220   -1.346314
  O     -2.992558    0.620943    1.683495
  C     -3.340781    1.918775    2.200296
  C     -4.173752    2.732932    1.231678
  O     -1.699556   -1.101540    0.653878
  C     -1.963464   -2.281335   -0.133483
  C     -0.772425   -3.213417   -0.045336
  H      4.296622   -3.084180    0.196942
  H      5.837840   -2.383574   -0.328026
  H      4.691446   -1.401422    0.595642
  H      4.245503   -2.464643   -2.244847
  H      4.585983   -0.770266   -1.783060
  H      2.517869   -1.565725    2.367048
  H      2.767024    0.171057    2.023094
  H      1.314231   -0.296519    4.064719
  H      0.519030    0.705097    2.840704
  H      0.109613   -1.007015    2.973847
  H     -0.960343    1.804294   -1.953035
  H      0.726207    2.216618   -1.470024
  H     -3.897847    1.689078    3.110334
  H     -2.417148    2.446266    2.454485
  H     -4.487495    3.654040    1.712127
  H     -3.590310    2.976361    0.344973
  H     -5.051646    2.171078    0.921612
  H     -2.859152   -2.750342    0.281343
  H     -2.164493   -1.985218   -1.168765
  H     -0.563877   -3.452363    0.993435
  H     -1.000266   -4.125429   -0.587622
  H      0.109272   -2.751352   -0.483339

 Total Charge           Charge          ....    0
 Multiplicity           Mult            ....    1
 Number of Electrons    NEL             ....  202
 Basis Dimension        Dim             ....  539

ORBITAL ENERGIES
----------------

  NO   OCC          E(Eh)            E(eV)
   0   2.0000     -88.577075     -2410.3048
   1   2.0000     -88.576140     -2410.2793
   2   2.0000     -88.524915     -2408.8854
   3   2.0000     -88.517914     -2408.6949
   4   2.0000     -76.915989     -2092.9905
   5   2.0000     -76.913853     -2092.9324
   6   2.0000     -18.991970      -516.7978
   7   2.0000     -18.991859      -516.7948
   8   2.0000     -18.988295      -516.6978
   9   2.0000     -18.984361      -516.5907
  10   2.0000     -10.107187      -275.0305
  11   2.0000     -10.103767      -274.9375
  12   2.0000     -10.101516      -274.8762
  13   2.0000     -10.097645      -274.7709
  14   2.0000     -10.090275      -274.5703
  15   2.0000     -10.034855      -273.0623
  16   2.0000     -10.027199      -272.8539
  17   2.0000     -10.026471      -272.8341
  18   2.0000     -10.022559      -272.7277
  19   2.0000      -7.871436      -214.1927
  20   2.0000      -7.870716      -214.1731
  21   2.0000      -7.819717      -212.7853
  22   2.0000      -7.812747      -212.5956
  23   2.0000      -6.594356      -179.4415
  24   2.0000      -6.591965      -179.3765
  25   2.0000      -5.818369      -158.3259
  26   2.0000      -5.817564      -158.3040
  27   2.0000      -5.815366      -158.2442
  28   2.0000      -5.814474      -158.2199
  29   2.0000      -5.808397      -158.0545
  30   2.0000      -5.807904      -158.0411
  31   2.0000      -5.767270      -156.9354
  32   2.0000      -5.760441      -156.7496
  33   2.0000      -5.760209      -156.7433
  34   2.0000      -5.759582      -156.7262
  35   2.0000      -5.753065      -156.5489
  36   2.0000      -5.752665      -156.5380
  37   2.0000      -4.739673      -128.9731
  38   2.0000      -4.739026      -128.9554
  39   2.0000      -4.738501      -128.9412
  40   2.0000      -4.737419      -128.9117
  41   2.0000      -4.737055      -128.9018
  42   2.0000      -4.735622      -128.8628
  43   2.0000      -1.048080       -28.5197
  44   2.0000      -1.046433       -28.4749
  45   2.0000      -1.010099       -27.4862
  46   2.0000      -1.006130       -27.3782
  47   2.0000      -0.805117       -21.9084
  48   2.0000      -0.761428       -20.7195
  49   2.0000      -0.750266       -20.4158
  50   2.0000      -0.733274       -19.9534
  51   2.0000      -0.727639       -19.8001
  52   2.0000      -0.709658       -19.3108
  53   2.0000      -0.686049       -18.6684
  54   2.0000      -0.671147       -18.2628
  55   2.0000      -0.634401       -17.2629
  56   2.0000      -0.624132       -16.9835
  57   2.0000      -0.607758       -16.5379
  58   2.0000      -0.600438       -16.3387
  59   2.0000      -0.588427       -16.0119
  60   2.0000      -0.528218       -14.3735
  61   2.0000      -0.522557       -14.2195
  62   2.0000      -0.499898       -13.6029
  63   2.0000      -0.489441       -13.3184
  64   2.0000      -0.477937       -13.0053
  65   2.0000      -0.462833       -12.5943
  66   2.0000      -0.455279       -12.3888
  67   2.0000      -0.450065       -12.2469
  68   2.0000      -0.442830       -12.0500
  69   2.0000      -0.435384       -11.8474
  70   2.0000      -0.421683       -11.4746
  71   2.0000      -0.417718       -11.3667
  72   2.0000      -0.408718       -11.1218
  73   2.0000      -0.406006       -11.0480
  74   2.0000      -0.399281       -10.8650
  75   2.0000      -0.395954       -10.7745
  76   2.0000      -0.378815       -10.3081
  77   2.0000      -0.374036       -10.1780
  78   2.0000      -0.366681        -9.9779
  79   2.0000      -0.364147        -9.9089
  80   2.0000      -0.361886        -9.8474
  81   2.0000      -0.358493        -9.7551
  82   2.0000      -0.352825        -9.6008
  83   2.0000      -0.352319        -9.5871
  84   2.0000      -0.345216        -9.3938
  85   2.0000      -0.338156        -9.2017
  86   2.0000      -0.325921        -8.8688
  87   2.0000      -0.312238        -8.4964
  88   2.0000      -0.311210        -8.4685
  89   2.0000      -0.302160        -8.2222
  90   2.0000      -0.296406        -8.0656
  91   2.0000      -0.292851        -7.9689
  92   2.0000      -0.289250        -7.8709
  93   2.0000      -0.282953        -7.6995
  94   2.0000      -0.267216        -7.2713
  95   2.0000      -0.243450        -6.6246
  96   2.0000      -0.231409        -6.2970
  97   2.0000      -0.229237        -6.2379
  98   2.0000      -0.221520        -6.0279
  99   2.0000      -0.213098        -5.7987
 100   2.0000      -0.211795        -5.7632
 101   0.0000      -0.050350        -1.3701
 102   0.0000      -0.026731        -0.7274
 103   0.0000      -0.003412        -0.0929
 104   0.0000       0.004099         0.1115
 105   0.0000       0.006993         0.1903

MULLIKEN ATOMIC CHARGES
-----------------------
   0 C :   -0.452474
   1 C :   -0.147025
   2 O :   -0.297000
   3 P :    0.682455
   4 S :   -0.495582
   5 O :   -0.219651
   6 C :   -0.129855
   7 C :   -0.482781
   8 S :   -0.124919
   9 C :   -0.243320
  10 S :   -0.156387
  11 P :    0.690412
  12 S :   -0.468926
  13 O :   -0.304373
  14 C :   -0.150327
  15 C :   -0.426430
  16 O :   -0.267463
  17 C :   -0.113717
  18 C :   -0.460978
  19 H :    0.158537
  20 H :    0.149825
  21 H :    0.163206
  22 H :    0.151576
  23 H :    0.174418
  24 H :    0.145888
  25 H :    0.173283
  26 H :    0.141656
  27 H :    0.161506
  28 H :    0.168569
  29 H :    0.210950
  30 H :    0.212591
  31 H :    0.150572
  32 H :    0.150403
  33 H :    0.146597
  34 H :    0.169109
  35 H :    0.164230
  36 H :    0.145883
  37 H :    0.173235
  38 H :    0.145095
  39 H :    0.143393
  40 H :    0.167822
Sum of atomic charges:   -0.0000000

LOEWDIN ATOMIC CHARGES
----------------------
   0 C :   -0.399610
   1 C :    0.021635
   2 O :   -0.676548
   3 P :    0.377941
   4 S :   -0.130567
   5 O :   -0.678624
   6 C :    0.018139
   7 C :   -0.396269
   8 S :    0.198026
   9 C :   -0.418011
  10 S :    0.153459
  11 P :    0.386469
  12 S :   -0.128232
  13 O :   -0.652803
  14 C :    0.022911
  15 C :   -0.406304
  16 O :   -0.657796
  17 C :    0.014951
  18 C :   -0.392736
  19 H :    0.159199
  20 H :    0.161175
  21 H :    0.161645
  22 H :    0.180093
  23 H :    0.180708
  24 H :    0.170468
  25 H :    0.182111
  26 H :    0.156403
  27 H :    0.161920
  28 H :    0.167291
  29 H :    0.191784
  30 H :    0.189890
  31 H :    0.181711
  32 H :    0.171218
  33 H :    0.157915
  34 H :    0.166047
  35 H :    0.165504
  36 H :    0.172063
  37 H :    0.183366
  38 H :    0.158008
  39 H :    0.157881
  40 H :    0.167567

  Mayer bond orders larger than 0.100000
B(  0-C ,  1-C ) :   0.9201 B(  0-C , 19-H ) :   0.9734 B(  0-C , 20-H ) :   0.9627
B(  0-C , 21-H ) :   0.9608 B(  1-C ,  2-O ) :   0.7945 B(  1-C , 22-H ) :   0.9606
B(  1-C , 23-H ) :   0.9649 B(  2-O ,  3-P ) :   1.1015 B(  3-P ,  4-S ) :   1.7464
B(  3-P ,  5-O ) :   1.0814 B(  3-P ,  8-S ) :   1.1149 B(  5-O ,  6-C ) :   0.7525
B(  6-C ,  7-C ) :   0.9573 B(  6-C , 24-H ) :   0.9523 B(  6-C , 25-H ) :   0.9506
B(  7-C , 26-H ) :   0.9637 B(  7-C , 27-H ) :   0.9661 B(  7-C , 28-H ) :   0.9695
B(  8-S ,  9-C ) :   0.9000 B(  9-C , 10-S ) :   0.9046 B(  9-C , 29-H ) :   0.9071
B(  9-C , 30-H ) :   0.9120 B( 10-S , 11-P ) :   1.0092 B( 11-P , 12-S ) :   1.7867
B( 11-P , 13-O ) :   1.1069 B( 11-P , 16-O ) :   1.1410 B( 13-O , 14-C ) :   0.8053
B( 14-C , 15-C ) :   0.9411 B( 14-C , 31-H ) :   0.9583 B( 14-C , 32-H ) :   0.9619
B( 15-C , 33-H ) :   0.9631 B( 15-C , 34-H ) :   0.9549 B( 15-C , 35-H ) :   0.9660
B( 16-O , 17-C ) :   0.7614 B( 17-C , 18-C ) :   0.9438 B( 17-C , 36-H ) :   0.9452
B( 17-C , 37-H ) :   0.9605 B( 18-C , 38-H ) :   0.9678 B( 18-C , 39-H ) :   0.9664
B( 18-C , 40-H ) :   0.9645

Dispersion correction           -0.022520125
FINAL SINGLE POINT ENERGY     -2932.459537015663

DIPOLE MOMENT
-------------

Method             : SCF
Type of density    : Electron Density
Multiplicity       :   1
Irrep              :   0
Energy             : -2932.4837323965634823 Eh
Relativity type    :
Basis              : AO
                                X                 Y                 Z
Electronic contribution:     -4.062701946       9.107893547     -13.200186847
Nuclear contribution   :      4.595278451      -9.762523672      14.306399659
                        -----------------------------------------
Total Dipole Moment    :      0.532576504      -0.654630124       1.106212812
                        -----------------------------------------
Magnitude (a.u.)       :      1.391360888
Magnitude (Debye)      :      3.536558321

Rotational constants in cm-1:             0.013529             0.005164             0.005011
Rotational constants in MHz :           405.586014           154.808054           150.222346

                             ****ORCA TERMINATED NORMALLY****
TOTAL RUN TIME: 0 days 0 hours 1 minutes 28 seconds 272 msec
