                         Program Version 6.0.0  -   RELEASE  -
|  1> ! r2scan-3c def2/J RI DEFGRID2 scfconv6 printgap
|  2> %output
|  3>     printlevel normal
|  4> end
|  5> %cpcm
|  6>     smd true
|  7>     smdsolvent "water"
|  8> end
|  9> * xyz 0 1
| 10> C 4.7848138702 -2.1810651484 -0.1599392999
| 11> C 4.1485028248 -1.7183094073 -1.4554997736
| 12> O 2.7270268848 -1.5458042032 -1.3065155699
| 13> P 2.0724179808 -0.2843244473 -0.5866496888
| 14> S 3.2224183681 1.2933542671 -0.4053237254
| 15> O 1.4627398689 -0.8458840827 0.7708219552
| 16> C 2.0252151039 -0.6329738293 2.0820347033
| 17> C 0.9165480205 -0.2833853367 3.0551163483
| 18> S 0.3680191193 -0.1472783794 -1.8072880692
| 19> C -0.1119290732 1.5362305131 -1.3233638816
| 20> S -0.5823091418 1.6551835128 0.4162482429
| 21> P -2.24980038 0.343526503 0.3113017161
| 22> S -3.3014332111 0.4402199516 -1.3463137485
| 23> O -2.9925576725 0.6209425152 1.6834953251
| 24> C -3.3407810289 1.9187754749 2.2002957773
| 25> C -4.1737518487 2.7329321084 1.2316782903
| 26> O -1.6995559674 -1.101540481 0.6538778366
| 27> C -1.9634640473 -2.2813345057 -0.1334827712
| 28> C -0.7724248669 -3.2134165791 -0.045335504
| 29> H 4.2966223039 -3.0841802843 0.196941647
| 30> H 5.8378404601 -2.3835739188 -0.3280259016
| 31> H 4.6914461376 -1.401422316 0.5956417986
| 32> H 4.2455028122 -2.4646426301 -2.2448472197
| 33> H 4.5859827267 -0.7702663061 -1.7830603242
| 34> H 2.517869308 -1.5657253099 2.3670477274
| 35> H 2.7670243566 0.1710569482 2.023094069
| 36> H 1.314231069 -0.2965189978 4.0647191643
| 37> H 0.5190303445 0.7050971315 2.8407038384
| 38> H 0.1096126785 -1.0070148436 2.9738467129
| 39> H -0.9603428737 1.8042940818 -1.9530351495
| 40> H 0.7262067847 2.2166181907 -1.4700238562
| 41> H -3.8978472482 1.6890775561 3.1103340587
| 42> H -2.417148485 2.4462662365 2.4544850625
| 43> H -4.4874953582 3.6540396575 1.7121266109
| 44> H -3.5903100121 2.9763610695 0.3449725647
| 45> H -5.0516458331 2.1710776862 0.9216122647
| 46> H -2.8591524317 -2.750341984 0.2813427805
| 47> H -2.1644929225 -1.9852184539 -1.1687646631
| 48> H -0.5638771651 -3.452362825 0.9934346978
| 49> H -1.0002656067 -4.1254293657 -0.5876216383
| 50> H 0.1092724035 -2.7513515605 -0.4833394533
| 51> *
| 52>
| 53>                          ****END OF INPUT****

CARTESIAN COORDINATES (ANGSTROEM)
---------------------------------
  C      4.784814   -2.181065   -0.159939
  C      4.148503   -1.718309   -1.455500
  O      2.727027   -1.545804   -1.306516
  P      2.072418   -0.284324   -0.586650
  S      3.222418    1.293354   -0.405324
  O      1.462740   -0.845884    0.770822
  C      2.025215   -0.632974    2.082035
  C      0.916548   -0.283385    3.055116
  S      0.368019   -0.147278   -1.807288
  C     -0.111929    1.536231   -1.323364
  S     -0.582309    1.655184    0.416248
  P     -2.249800    0.343527    0.311302
  S     -3.301433    0.440220   -1.346314
  O     -2.992558    0.620943    1.683495
  C     -3.340781    1.918775    2.200296
  C     -4.173752    2.732932    1.231678
  O     -1.699556   -1.101540    0.653878
  C     -1.963464   -2.281335   -0.133483
  C     -0.772425   -3.213417   -0.045336
  H      4.296622   -3.084180    0.196942
  H      5.837840   -2.383574   -0.328026
  H      4.691446   -1.401422    0.595642
  H      4.245503   -2.464643   -2.244847
  H      4.585983   -0.770266   -1.783060
  H      2.517869   -1.565725    2.367048
  H      2.767024    0.171057    2.023094
  H      1.314231   -0.296519    4.064719
  H      0.519030    0.705097    2.840704
  H      0.109613   -1.007015    2.973847
  H     -0.960343    1.804294   -1.953035
  H      0.726207    2.216618   -1.470024
  H     -3.897847    1.689078    3.110334
  H     -2.417148    2.446266    2.454485
  H     -4.487495    3.654040    1.712127
  H     -3.590310    2.976361    0.344973
  H     -5.051646    2.171078    0.921612
  H     -2.859152   -2.750342    0.281343
  H     -2.164493   -1.985218   -1.168765
  H     -0.563877   -3.452363    0.993435
  H     -1.000266   -4.125429   -0.587622
  H      0.109272   -2.751352   -0.483339

 Total Charge           Charge          ....    0
 Multiplicity           Mult            ....    1
 Number of Electrons    NEL             ....  202
 Basis Dimension        Dim             ....  539

ORBITAL ENERGIES
----------------

  NO   OCC          E(Eh)            E(eV)
   0   2.0000     -88.581282     -2410.4192
   1   2.0000     -88.579568     -2410.3726
   2   2.0000     -88.530162     -2409.0282
   3   2.0000     -88.526786     -2408.9363
   4   2.0000     -76.920577     -2093.1153
   5   2.0000     -76.919739     -2093.0925
   6   2.0000     -18.995674      -516.8986
   7   2.0000     -18.992410      -516.8097
   8   2.0000     -18.991622      -516.7883
   9   2.0000     -18.990024      -516.7448
  10   2.0000     -10.106452      -275.0105
  11   2.0000     -10.093195      -274.6498
  12   2.0000     -10.089534      -274.5502
  13   2.0000     -10.087980      -274.5079
  14   2.0000     -10.087825      -274.5037
  15   2.0000     -10.018551      -272.6186
  16   2.0000     -10.018531      -272.6181
  17   2.0000     -10.017260      -272.5835
  18   2.0000     -10.016596      -272.5654
  19   2.0000      -7.875723      -214.3093
  20   2.0000      -7.874078      -214.2646
  21   2.0000      -7.825223      -212.9352
  22   2.0000      -7.821915      -212.8451
  23   2.0000      -6.598772      -179.5617
  24   2.0000      -6.598097      -179.5434
  25   2.0000      -5.822591      -158.4408
  26   2.0000      -5.820949      -158.3961
  27   2.0000      -5.819603      -158.3595
  28   2.0000      -5.817840      -158.3115
  29   2.0000      -5.812802      -158.1744
  30   2.0000      -5.811251      -158.1322
  31   2.0000      -5.772735      -157.0841
  32   2.0000      -5.769539      -156.9971
  33   2.0000      -5.765639      -156.8910
  34   2.0000      -5.765160      -156.8780
  35   2.0000      -5.762266      -156.7992
  36   2.0000      -5.761814      -156.7869
  37   2.0000      -4.744197      -129.0962
  38   2.0000      -4.743874      -129.0874
  39   2.0000      -4.743355      -129.0733
  40   2.0000      -4.742779      -129.0576
  41   2.0000      -4.742465      -129.0490
  42   2.0000      -4.742324      -129.0452
  43   2.0000      -1.053031       -28.6544
  44   2.0000      -1.047025       -28.4910
  45   2.0000      -1.011206       -27.5163
  46   2.0000      -1.009984       -27.4831
  47   2.0000      -0.807215       -21.9654
  48   2.0000      -0.758848       -20.6493
  49   2.0000      -0.745408       -20.2836
  50   2.0000      -0.722731       -19.6665
  51   2.0000      -0.722093       -19.6491
  52   2.0000      -0.709143       -19.2968
  53   2.0000      -0.689521       -18.7628
  54   2.0000      -0.676790       -18.4164
  55   2.0000      -0.632552       -17.2126
  56   2.0000      -0.621152       -16.9024
  57   2.0000      -0.600406       -16.3379
  58   2.0000      -0.595902       -16.2153
  59   2.0000      -0.586905       -15.9705
  60   2.0000      -0.525032       -14.2868
  61   2.0000      -0.519767       -14.1436
  62   2.0000      -0.495052       -13.4711
  63   2.0000      -0.488609       -13.2957
  64   2.0000      -0.477738       -12.9999
  65   2.0000      -0.457956       -12.4616
  66   2.0000      -0.450756       -12.2657
  67   2.0000      -0.444436       -12.0937
  68   2.0000      -0.441091       -12.0027
  69   2.0000      -0.434598       -11.8260
  70   2.0000      -0.419351       -11.4111
  71   2.0000      -0.414090       -11.2680
  72   2.0000      -0.408214       -11.1081
  73   2.0000      -0.400518       -10.8986
  74   2.0000      -0.398808       -10.8521
  75   2.0000      -0.394676       -10.7397
  76   2.0000      -0.376691       -10.2503
  77   2.0000      -0.365920        -9.9572
  78   2.0000      -0.359872        -9.7926
  79   2.0000      -0.357370        -9.7245
  80   2.0000      -0.354772        -9.6538
  81   2.0000      -0.353786        -9.6270
  82   2.0000      -0.349373        -9.5069
  83   2.0000      -0.344264        -9.3679
  84   2.0000      -0.341667        -9.2972
  85   2.0000      -0.334576        -9.1043
  86   2.0000      -0.322976        -8.7886
  87   2.0000      -0.310736        -8.4556
  88   2.0000      -0.306492        -8.3401
  89   2.0000      -0.302346        -8.2273
  90   2.0000      -0.298045        -8.1102
  91   2.0000      -0.289951        -7.8900
  92   2.0000      -0.289440        -7.8761
  93   2.0000      -0.282121        -7.6769
  94   2.0000      -0.269003        -7.3199
  95   2.0000      -0.246895        -6.7184
  96   2.0000      -0.236389        -6.4325
  97   2.0000      -0.235920        -6.4197
  98   2.0000      -0.228540        -6.2189
  99   2.0000      -0.220389        -5.9971
 100   2.0000      -0.219876        -5.9831
 101   0.0000      -0.055028        -1.4974
 102   0.0000      -0.032469        -0.8835
 103   0.0000      -0.007988        -0.2174
 104   0.0000       0.002065         0.0562
 105   0.0000       0.005894         0.1604

MULLIKEN ATOMIC CHARGES
-----------------------
   0 C :   -0.480634
   1 C :   -0.146954
   2 O :   -0.324033
   3 P :    0.708903
   4 S :   -0.533522
   5 O :   -0.247093
   6 C :   -0.117187
   7 C :   -0.520324
   8 S :   -0.149394
   9 C :   -0.253334
  10 S :   -0.153630
  11 P :    0.721417
  12 S :   -0.514726
  13 O :   -0.337107
  14 C :   -0.151634
  15 C :   -0.466449
  16 O :   -0.299797
  17 C :   -0.105971
  18 C :   -0.510305
  19 H :    0.170259
  20 H :    0.171632
  21 H :    0.166248
  22 H :    0.175590
  23 H :    0.175387
  24 H :    0.173228
  25 H :    0.173914
  26 H :    0.167230
  27 H :    0.168918
  28 H :    0.169369
  29 H :    0.230928
  30 H :    0.236095
  31 H :    0.177319
  32 H :    0.171944
  33 H :    0.173291
  34 H :    0.165972
  35 H :    0.169989
  36 H :    0.170177
  37 H :    0.173074
  38 H :    0.167074
  39 H :    0.169096
  40 H :    0.165040
Sum of atomic charges:   -0.0000000

LOEWDIN ATOMIC CHARGES
----------------------
   0 C :   -0.401330
   1 C :    0.025849
   2 O :   -0.688563
   3 P :    0.381755
   4 S :   -0.154869
   5 O :   -0.691996
   6 C :    0.025342
   7 C :   -0.400069
   8 S :    0.183068
   9 C :   -0.411953
  10 S :    0.159143
  11 P :    0.389376
  12 S :   -0.158814
  13 O :   -0.668256
  14 C :    0.029522
  15 C :   -0.409865
  16 O :   -0.675742
  17 C :    0.017317
  18 C :   -0.396844
  19 H :    0.163743
  20 H :    0.168854
  21 H :    0.161971
  22 H :    0.189939
  23 H :    0.181165
  24 H :    0.182382
  25 H :    0.183577
  26 H :    0.166235
  27 H :    0.161653
  28 H :    0.165325
  29 H :    0.197965
  30 H :    0.197136
  31 H :    0.193156
  32 H :    0.179526
  33 H :    0.168111
  34 H :    0.161803
  35 H :    0.164375
  36 H :    0.181364
  37 H :    0.183243
  38 H :    0.163383
  39 H :    0.167965
  40 H :    0.164057

  Mayer bond orders larger than 0.100000
B(  0-C ,  1-C ) :   0.9175 B(  0-C , 19-H ) :   0.9696 B(  0-C , 20-H ) :   0.9583
B(  0-C , 21-H ) :   0.9590 B(  1-C ,  2-O ) :   0.7816 B(  1-C , 22-H ) :   0.9518
B(  1-C , 23-H ) :   0.9614 B(  2-O ,  3-P ) :   1.1092 B(  3-P ,  4-S ) :   1.7238
B(  3-P ,  5-O ) :   1.0877 B(  3-P ,  8-S ) :   1.1215 B(  5-O ,  6-C ) :   0.7483
B(  6-C ,  7-C ) :   0.9404 B(  6-C , 24-H ) :   0.9430 B(  6-C , 25-H ) :   0.9511
B(  7-C , 26-H ) :   0.9587 B(  7-C , 27-H ) :   0.9648 B(  7-C , 28-H ) :   0.9690
B(  8-S ,  9-C ) :   0.8883 B(  9-C , 10-S ) :   0.8935 B(  9-C , 29-H ) :   0.9016
B(  9-C , 30-H ) :   0.9055 B( 10-S , 11-P ) :   1.0283 B( 11-P , 12-S ) :   1.7519
B( 11-P , 13-O ) :   1.1132 B( 11-P , 16-O ) :   1.1374 B( 13-O , 14-C ) :   0.7957
B( 14-C , 15-C ) :   0.9220 B( 14-C , 31-H ) :   0.9484 B( 14-C , 32-H ) :   0.9565
B( 15-C , 33-H ) :   0.9568 B( 15-C , 34-H ) :   0.9574 B( 15-C , 35-H ) :   0.9670
B( 16-O , 17-C ) :   0.7541 B( 17-C , 18-C ) :   0.9311 B( 17-C , 36-H ) :   0.9362
B( 17-C , 37-H ) :   0.9580 B( 18-C , 38-H ) :   0.9655 B( 18-C , 39-H ) :   0.9598
B( 18-C , 40-H ) :   0.9657

Dispersion correction           -0.022520125
FINAL SINGLE POINT ENERGY     -2932.468214354671

DIPOLE MOMENT
-------------

Method             : SCF
Type of density    : Electron Density
Multiplicity       :   1
Irrep              :   0
Energy             : -2932.4924097355706181 Eh
Relativity type    :
Basis              : AO
                                X                 Y                 Z
Electronic contribution:     -3.806642033       9.018699532     -12.792800905
Nuclear contribution   :      4.595278451      -9.762523672      14.306399659
                        -----------------------------------------
Total Dipole Moment    :      0.788636418      -0.743824140       1.513598754
                        -----------------------------------------
Magnitude (a.u.)       :      1.861774138
Magnitude (Debye)      :      4.732253779

Rotational constants in cm-1:             0.013529             0.005164             0.005011
Rotational constants in MHz :           405.586014           154.808054           150.222346

                             ****ORCA TERMINATED NORMALLY****
TOTAL RUN TIME: 0 days 0 hours 2 minutes 1 seconds 102 msec
