                         Program Version 6.0.0  -   RELEASE  -
|  1> ! pbe def2-sv(p) def2/J RI DEFGRID1 loosescf d4 GCP(DFT/SV(P)) printgap
|  2> %output
|  3>     printlevel normal
|  4> end
|  5> * xyz 0 1
|  6> C 3.126946163 -2.4588570024 -2.3415874394
|  7> C 3.2184227317 -2.4155841401 -0.8296334217
|  8> O 3.5330203057 -1.0800229265 -0.365428957
|  9> P 2.4518643613 -0.0427269964 0.1481255091
| 10> S 3.2918239019 1.5543668716 0.8921974612
| 11> O 1.4816923196 -0.84468365 1.1392807327
| 12> C 1.6607027293 -0.7885814297 2.5690753154
| 13> C 2.8856083168 -1.5670091241 3.0036322618
| 14> S 1.1368564166 0.2523523196 -1.4852031351
| 15> C 0.3759965492 1.7655306994 -0.84550796
| 16> S -0.7233171562 1.4705200701 0.5562892346
| 17> P -2.1929514349 0.3679004031 -0.543979928
| 18> S -2.4903677194 0.9806927656 -2.3751736487
| 19> O -3.4489854518 0.4284408874 0.4249192736
| 20> C -4.1928553857 1.6523968677 0.6020084003
| 21> C -5.4976314707 1.3055918759 1.2896614418
| 22> O -1.7716081649 -1.1454565446 -0.4736062639
| 23> C -1.6357612347 -1.8704578417 0.7739810557
| 24> C -2.8684810567 -2.7104820321 1.0343106132
| 25> H 4.0387381167 -2.0635696361 -2.7806452666
| 26> H 2.9924743805 -3.4879024678 -2.660178774
| 27> H 2.2849944085 -1.8653905717 -2.6933812215
| 28> H 4.04760825 -3.0263988098 -0.4681851802
| 29> H 2.2846231842 -2.7432141721 -0.3667886746
| 30> H 1.7427201958 0.2610263718 2.8673687626
| 31> H 0.7423553568 -1.2175017658 2.9717767426
| 32> H 2.8123712372 -2.6036304949 2.6852176078
| 33> H 3.7778034258 -1.1223002748 2.5629459999
| 34> H 2.9713861494 -1.5279929116 4.0848960456
| 35> H -0.1976294315 2.1935637531 -1.6678960951
| 36> H 1.1555804821 2.4458520745 -0.5015449912
| 37> H -3.5891851694 2.3342854587 1.2070863093
| 38> H -4.3623482432 2.1011130143 -0.3820563632
| 39> H -5.3000075388 0.8404272801 2.2509816803
| 40> H -6.0706822664 2.2141444287 1.4422174084
| 41> H -6.0729661461 0.6191484881 0.6748941514
| 42> H -0.7478318797 -2.490472336 0.6367562945
| 43> H -1.4641456235 -1.1534710313 1.5815760112
| 44> H -2.7187482993 -3.2939328989 1.937380219
| 45> H -3.7378017039 -2.0704341625 1.1586574756
| 46> H -3.0439759498 -3.3807395875 0.197483194
| 47> *
| 48>
| 49>                          ****END OF INPUT****

CARTESIAN COORDINATES (ANGSTROEM)
---------------------------------
  C      3.126946   -2.458857   -2.341587
  C      3.218423   -2.415584   -0.829633
  O      3.533020   -1.080023   -0.365429
  P      2.451864   -0.042727    0.148126
  S      3.291824    1.554367    0.892197
  O      1.481692   -0.844684    1.139281
  C      1.660703   -0.788581    2.569075
  C      2.885608   -1.567009    3.003632
  S      1.136856    0.252352   -1.485203
  C      0.375997    1.765531   -0.845508
  S     -0.723317    1.470520    0.556289
  P     -2.192951    0.367900   -0.543980
  S     -2.490368    0.980693   -2.375174
  O     -3.448985    0.428441    0.424919
  C     -4.192855    1.652397    0.602008
  C     -5.497631    1.305592    1.289661
  O     -1.771608   -1.145457   -0.473606
  C     -1.635761   -1.870458    0.773981
  C     -2.868481   -2.710482    1.034311
  H      4.038738   -2.063570   -2.780645
  H      2.992474   -3.487902   -2.660179
  H      2.284994   -1.865391   -2.693381
  H      4.047608   -3.026399   -0.468185
  H      2.284623   -2.743214   -0.366789
  H      1.742720    0.261026    2.867369
  H      0.742355   -1.217502    2.971777
  H      2.812371   -2.603630    2.685218
  H      3.777803   -1.122300    2.562946
  H      2.971386   -1.527993    4.084896
  H     -0.197629    2.193564   -1.667896
  H      1.155580    2.445852   -0.501545
  H     -3.589185    2.334285    1.207086
  H     -4.362348    2.101113   -0.382056
  H     -5.300008    0.840427    2.250982
  H     -6.070682    2.214144    1.442217
  H     -6.072966    0.619148    0.674894
  H     -0.747832   -2.490472    0.636756
  H     -1.464146   -1.153471    1.581576
  H     -2.718748   -3.293933    1.937380
  H     -3.737802   -2.070434    1.158657
  H     -3.043976   -3.380740    0.197483

 Total Charge           Charge          ....    0
 Multiplicity           Mult            ....    1
 Number of Electrons    NEL             ....  202
 Basis Dimension        Dim             ....  334

ORBITAL ENERGIES
----------------

  NO   OCC          E(Eh)            E(eV)
   0   2.0000     -88.040279     -2395.6978
   1   2.0000     -88.039649     -2395.6806
   2   2.0000     -87.987356     -2394.2577
   3   2.0000     -87.985363     -2394.2034
   4   2.0000     -76.426711     -2079.6765
   5   2.0000     -76.426357     -2079.6669
   6   2.0000     -18.798498      -511.5331
   7   2.0000     -18.797517      -511.5065
   8   2.0000     -18.793976      -511.4101
   9   2.0000     -18.792878      -511.3802
  10   2.0000      -9.962514      -271.0938
  11   2.0000      -9.957525      -270.9580
  12   2.0000      -9.957084      -270.9460
  13   2.0000      -9.954440      -270.8741
  14   2.0000      -9.950135      -270.7570
  15   2.0000      -9.892856      -269.1983
  16   2.0000      -9.891168      -269.1524
  17   2.0000      -9.889270      -269.1007
  18   2.0000      -9.889034      -269.0943
  19   2.0000      -7.685347      -209.1289
  20   2.0000      -7.684588      -209.1083
  21   2.0000      -7.632647      -207.6949
  22   2.0000      -7.630702      -207.6420
  23   2.0000      -6.424674      -174.8243
  24   2.0000      -6.423991      -174.8057
  25   2.0000      -5.713180      -155.4635
  26   2.0000      -5.712270      -155.4388
  27   2.0000      -5.710056      -155.3785
  28   2.0000      -5.709191      -155.3550
  29   2.0000      -5.702157      -155.1636
  30   2.0000      -5.701712      -155.1515
  31   2.0000      -5.661669      -154.0619
  32   2.0000      -5.659672      -154.0075
  33   2.0000      -5.653247      -153.8327
  34   2.0000      -5.652652      -153.8165
  35   2.0000      -5.651204      -153.7771
  36   2.0000      -5.650880      -153.7683
  37   2.0000      -4.647666      -126.4694
  38   2.0000      -4.646937      -126.4496
  39   2.0000      -4.645993      -126.4239
  40   2.0000      -4.645741      -126.4170
  41   2.0000      -4.645150      -126.4010
  42   2.0000      -4.644087      -126.3720
  43   2.0000      -0.992308       -27.0021
  44   2.0000      -0.988390       -26.8955
  45   2.0000      -0.948775       -25.8175
  46   2.0000      -0.947530       -25.7836
  47   2.0000      -0.763671       -20.7806
  48   2.0000      -0.724425       -19.7126
  49   2.0000      -0.713942       -19.4273
  50   2.0000      -0.696096       -18.9417
  51   2.0000      -0.695462       -18.9245
  52   2.0000      -0.675213       -18.3735
  53   2.0000      -0.650396       -17.6982
  54   2.0000      -0.638225       -17.3670
  55   2.0000      -0.595869       -16.2144
  56   2.0000      -0.589822       -16.0499
  57   2.0000      -0.582644       -15.8546
  58   2.0000      -0.572898       -15.5894
  59   2.0000      -0.562840       -15.3156
  60   2.0000      -0.512590       -13.9483
  61   2.0000      -0.501854       -13.6561
  62   2.0000      -0.485595       -13.2137
  63   2.0000      -0.481111       -13.0917
  64   2.0000      -0.459447       -12.5022
  65   2.0000      -0.448165       -12.1952
  66   2.0000      -0.447219       -12.1694
  67   2.0000      -0.439628       -11.9629
  68   2.0000      -0.433141       -11.7864
  69   2.0000      -0.415401       -11.3036
  70   2.0000      -0.406702       -11.0669
  71   2.0000      -0.403016       -10.9666
  72   2.0000      -0.392507       -10.6807
  73   2.0000      -0.384402       -10.4601
  74   2.0000      -0.377687       -10.2774
  75   2.0000      -0.376354       -10.2411
  76   2.0000      -0.368911       -10.0386
  77   2.0000      -0.361797        -9.8450
  78   2.0000      -0.359612        -9.7855
  79   2.0000      -0.356421        -9.6987
  80   2.0000      -0.355033        -9.6609
  81   2.0000      -0.350764        -9.5448
  82   2.0000      -0.347120        -9.4456
  83   2.0000      -0.346330        -9.4241
  84   2.0000      -0.338974        -9.2239
  85   2.0000      -0.324507        -8.8303
  86   2.0000      -0.317140        -8.6298
  87   2.0000      -0.305190        -8.3046
  88   2.0000      -0.304248        -8.2790
  89   2.0000      -0.296774        -8.0756
  90   2.0000      -0.284055        -7.7295
  91   2.0000      -0.278589        -7.5808
  92   2.0000      -0.273595        -7.4449
  93   2.0000      -0.270235        -7.3535
  94   2.0000      -0.258622        -7.0375
  95   2.0000      -0.232259        -6.3201
  96   2.0000      -0.217135        -5.9085
  97   2.0000      -0.212570        -5.7843
  98   2.0000      -0.204282        -5.5588
  99   2.0000      -0.200372        -5.4524
 100   2.0000      -0.199553        -5.4301
 101   0.0000      -0.043657        -1.1880
 102   0.0000      -0.022011        -0.5989
 103   0.0000      -0.000662        -0.0180
 104   0.0000       0.002967         0.0807
 105   0.0000       0.007478         0.2035

MULLIKEN ATOMIC CHARGES
-----------------------
   0 C :   -0.299376
   1 C :   -0.034824
   2 O :   -0.366798
   3 P :    0.621254
   4 S :   -0.314231
   5 O :   -0.383848
   6 C :   -0.011174
   7 C :   -0.310974
   8 S :   -0.086471
   9 C :   -0.362009
  10 S :   -0.100533
  11 P :    0.598469
  12 S :   -0.313318
  13 O :   -0.385552
  14 C :   -0.012099
  15 C :   -0.282808
  16 O :   -0.346550
  17 C :   -0.026572
  18 C :   -0.283724
  19 H :    0.125526
  20 H :    0.112939
  21 H :    0.140388
  22 H :    0.111843
  23 H :    0.113392
  24 H :    0.115849
  25 H :    0.100258
  26 H :    0.108874
  27 H :    0.132037
  28 H :    0.114172
  29 H :    0.196417
  30 H :    0.192219
  31 H :    0.105849
  32 H :    0.108573
  33 H :    0.114949
  34 H :    0.115017
  35 H :    0.122940
  36 H :    0.114822
  37 H :    0.108039
  38 H :    0.106383
  39 H :    0.120910
  40 H :    0.119743
Sum of atomic charges:   -0.0000000

LOEWDIN ATOMIC CHARGES
----------------------
   0 C :   -0.360204
   1 C :   -0.117421
   2 O :   -0.241805
   3 P :    0.572568
   4 S :   -0.307010
   5 O :   -0.252992
   6 C :   -0.122109
   7 C :   -0.365617
   8 S :    0.091388
   9 C :   -0.486279
  10 S :    0.061663
  11 P :    0.567850
  12 S :   -0.309391
  13 O :   -0.250152
  14 C :   -0.119868
  15 C :   -0.350632
  16 O :   -0.228673
  17 C :   -0.113813
  18 C :   -0.358697
  19 H :    0.131830
  20 H :    0.131946
  21 H :    0.122198
  22 H :    0.121583
  23 H :    0.109058
  24 H :    0.110975
  25 H :    0.112119
  26 H :    0.121157
  27 H :    0.126479
  28 H :    0.131848
  29 H :    0.129906
  30 H :    0.129110
  31 H :    0.109319
  32 H :    0.111571
  33 H :    0.125431
  34 H :    0.132446
  35 H :    0.129505
  36 H :    0.117579
  37 H :    0.104244
  38 H :    0.127880
  39 H :    0.126047
  40 H :    0.128962

  Mayer bond orders larger than 0.100000
B(  0-C ,  1-C ) :   1.1694 B(  0-C , 19-H ) :   0.9458 B(  0-C , 20-H ) :   0.9380
B(  0-C , 21-H ) :   0.9331 B(  1-C ,  2-O ) :   0.8995 B(  1-C , 22-H ) :   0.9334
B(  1-C , 23-H ) :   0.9144 B(  2-O ,  3-P ) :   1.1245 B(  3-P ,  4-S ) :   1.6318
B(  3-P ,  5-O ) :   1.0596 B(  3-P ,  8-S ) :   0.9659 B(  4-S ,  8-S ) :   0.1032
B(  5-O ,  6-C ) :   0.9058 B(  6-C ,  7-C ) :   1.1622 B(  6-C , 24-H ) :   0.9121
B(  6-C , 25-H ) :   0.9288 B(  7-C , 26-H ) :   0.9470 B(  7-C , 27-H ) :   0.9337
B(  7-C , 28-H ) :   0.9397 B(  8-S ,  9-C ) :   1.0067 B(  9-C , 10-S ) :   1.0066
B(  9-C , 29-H ) :   0.8744 B(  9-C , 30-H ) :   0.8726 B( 10-S , 11-P ) :   0.9469
B( 10-S , 12-S ) :   0.1107 B( 11-P , 12-S ) :   1.6531 B( 11-P , 13-O ) :   1.0756
B( 11-P , 16-O ) :   1.1458 B( 13-O , 14-C ) :   0.9031 B( 14-C , 15-C ) :   1.1591
B( 14-C , 31-H ) :   0.9269 B( 14-C , 32-H ) :   0.9120 B( 15-C , 33-H ) :   0.9508
B( 15-C , 34-H ) :   0.9417 B( 15-C , 35-H ) :   0.9507 B( 16-O , 17-C ) :   0.8924
B( 17-C , 18-C ) :   1.1568 B( 17-C , 36-H ) :   0.9314 B( 17-C , 37-H ) :   0.9098
B( 18-C , 38-H ) :   0.9406 B( 18-C , 39-H ) :   0.9415 B( 18-C , 40-H ) :   0.9463

Dispersion correction           -0.064636122
FINAL SINGLE POINT ENERGY     -2929.520980887107

DIPOLE MOMENT
-------------

Method             : SCF
Type of density    : Electron Density
Multiplicity       :   1
Irrep              :   0
Energy             : -2929.6419357902323100 Eh
Relativity type    :
Basis              : AO
                                X                 Y                 Z
Electronic contribution:      7.561046606      16.848579990     -12.880057539
Nuclear contribution   :     -8.201490145     -18.313266622      14.261558037
                        -----------------------------------------
Total Dipole Moment    :     -0.640443539      -1.464686632       1.381500498
                        -----------------------------------------
Magnitude (a.u.)       :      2.112822397
Magnitude (Debye)      :      5.370367744

Rotational constants in cm-1:             0.012025             0.004828             0.004715
Rotational constants in MHz :           360.499300           144.735812           141.344997

                             ****ORCA TERMINATED NORMALLY****
TOTAL RUN TIME: 0 days 0 hours 0 minutes 21 seconds 148 msec
