                         Program Version 6.0.1  -  RELEASE   -
|  1> ! pbe def2-sv(p) def2/J RI DEFGRID1 loosescf d4 GCP(DFT/SV(P)) printgap
|  2> %output
|  3>     printlevel normal
|  4> end
|  5> * xyz 0 1
|  6> C 5.4921722208 -1.6787003334 -1.0140068206
|  7> C 4.6363296215 -0.4228081307 -0.9703409717
|  8> O 3.2433328042 -0.7405676686 -1.1559540542
|  9> C 2.5273000738 -1.0656232704 -0.0987301805
| 10> O 2.9492773097 -1.1140818416 1.0337090451
| 11> C 1.0880709443 -1.3716871274 -0.4815241678
| 12> C 0.4545274705 -0.1673160726 -1.1845060774
| 13> H 1.0195624985 0.073966896 -2.0877135747
| 14> C 0.4276849538 1.0271203095 -0.2567121551
| 15> O -0.6131582245 1.4964232838 0.1693272072
| 16> O 1.6144545323 1.4600325248 0.0424774368
| 17> C 1.7405534206 2.5206843894 1.0208956857
| 18> C 3.1592213199 2.4941023462 1.5525711724
| 19> S -1.2552563582 -0.4988661121 -1.7234790342
| 20> P -2.3524156564 -0.2146881726 0.061543924
| 21> S -1.704712456 -0.6369752963 1.8775592653
| 22> O -3.3049554264 1.0660675266 -0.0433587563
| 23> C -3.1933910983 2.2706895515 0.7127976594
| 24> O -3.4077108017 -1.3197524061 -0.440994236
| 25> C -4.5477004516 -1.6759024014 0.3436072921
| 26> H 6.5387382062 -1.4028442999 -0.9382897108
| 27> H 5.2390753138 -2.3324931389 -0.1824426119
| 28> H 5.3285560352 -2.2121299878 -1.9462021963
| 29> H 4.8741253999 0.2487306253 -1.7951400674
| 30> H 4.7515680539 0.0901747943 -0.0120235962
| 31> H 0.5352929671 -1.6280768233 0.4250677699
| 32> H 1.074177518 -2.2202490949 -1.1660251772
| 33> H 1.5103743245 3.4646611899 0.5198937681
| 34> H 1.0048036126 2.3456340033 1.8111120488
| 35> H 3.3721443443 1.5196190765 1.9855889356
| 36> H 3.8641339552 2.6888945669 0.750008191
| 37> H 3.2675176015 3.2545421688 2.3184634569
| 38> H -4.2116466999 2.6240411138 0.8609735423
| 39> H -2.6072492892 2.9980292545 0.1551681034
| 40> H -2.714222651 2.0696544248 1.6720327807
| 41> H -4.251788717 -1.8393493485 1.3823856017
| 42> H -4.9282937251 -2.5968161294 -0.0909759084
| 43> H -5.2986282155 -0.8880327717 0.2927928162
| 44> *
| 45>
| 46>                          ****END OF INPUT****

CARTESIAN COORDINATES (ANGSTROEM)
---------------------------------
  C      5.492172   -1.678700   -1.014007
  C      4.636330   -0.422808   -0.970341
  O      3.243333   -0.740568   -1.155954
  C      2.527300   -1.065623   -0.098730
  O      2.949277   -1.114082    1.033709
  C      1.088071   -1.371687   -0.481524
  C      0.454527   -0.167316   -1.184506
  H      1.019562    0.073967   -2.087714
  C      0.427685    1.027120   -0.256712
  O     -0.613158    1.496423    0.169327
  O      1.614455    1.460033    0.042477
  C      1.740553    2.520684    1.020896
  C      3.159221    2.494102    1.552571
  S     -1.255256   -0.498866   -1.723479
  P     -2.352416   -0.214688    0.061544
  S     -1.704712   -0.636975    1.877559
  O     -3.304955    1.066068   -0.043359
  C     -3.193391    2.270690    0.712798
  O     -3.407711   -1.319752   -0.440994
  C     -4.547700   -1.675902    0.343607
  H      6.538738   -1.402844   -0.938290
  H      5.239075   -2.332493   -0.182443
  H      5.328556   -2.212130   -1.946202
  H      4.874125    0.248731   -1.795140
  H      4.751568    0.090175   -0.012024
  H      0.535293   -1.628077    0.425068
  H      1.074178   -2.220249   -1.166025
  H      1.510374    3.464661    0.519894
  H      1.004804    2.345634    1.811112
  H      3.372144    1.519619    1.985589
  H      3.864134    2.688895    0.750008
  H      3.267518    3.254542    2.318463
  H     -4.211647    2.624041    0.860974
  H     -2.607249    2.998029    0.155168
  H     -2.714223    2.069654    1.672033
  H     -4.251789   -1.839349    1.382386
  H     -4.928294   -2.596816   -0.090976
  H     -5.298628   -0.888033    0.292793

 Total Charge           Charge          ....    0
 Multiplicity           Mult            ....    1
 Number of Electrons    NEL             ....  174
 Basis Dimension        Dim             ....  316

ORBITAL ENERGIES
----------------

  NO   OCC          E(Eh)            E(eV)
   0   2.0000     -88.032935     -2395.4979
   1   2.0000     -87.967888     -2393.7279
   2   2.0000     -76.416287     -2079.3929
   3   2.0000     -18.831888      -512.4417
   4   2.0000     -18.806984      -511.7640
   5   2.0000     -18.778273      -510.9828
   6   2.0000     -18.768377      -510.7135
   7   2.0000     -18.767020      -510.6766
   8   2.0000     -18.741283      -509.9762
   9   2.0000     -10.035892      -273.0905
  10   2.0000     -10.012853      -272.4636
  11   2.0000      -9.963806      -271.1289
  12   2.0000      -9.954197      -270.8675
  13   2.0000      -9.954180      -270.8670
  14   2.0000      -9.930918      -270.2340
  15   2.0000      -9.927305      -270.1357
  16   2.0000      -9.908091      -269.6129
  17   2.0000      -9.896568      -269.2993
  18   2.0000      -9.891814      -269.1699
  19   2.0000      -7.678251      -208.9358
  20   2.0000      -7.612907      -207.1577
  21   2.0000      -6.411763      -174.4729
  22   2.0000      -5.706561      -155.2834
  23   2.0000      -5.702911      -155.1841
  24   2.0000      -5.694533      -154.9561
  25   2.0000      -5.642078      -153.5288
  26   2.0000      -5.633832      -153.3044
  27   2.0000      -5.632509      -153.2684
  28   2.0000      -4.634469      -126.1103
  29   2.0000      -4.633741      -126.0905
  30   2.0000      -4.632394      -126.0539
  31   2.0000      -1.042488       -28.3675
  32   2.0000      -1.014758       -27.6130
  33   2.0000      -0.966916       -26.3111
  34   2.0000      -0.945976       -25.7413
  35   2.0000      -0.921441       -25.0737
  36   2.0000      -0.918512       -24.9940
  37   2.0000      -0.770407       -20.9638
  38   2.0000      -0.722324       -19.6554
  39   2.0000      -0.713891       -19.4260
  40   2.0000      -0.687116       -18.6974
  41   2.0000      -0.651583       -17.7305
  42   2.0000      -0.626026       -17.0350
  43   2.0000      -0.616137       -16.7659
  44   2.0000      -0.613473       -16.6935
  45   2.0000      -0.596920       -16.2430
  46   2.0000      -0.565763       -15.3952
  47   2.0000      -0.526669       -14.3314
  48   2.0000      -0.507518       -13.8103
  49   2.0000      -0.500984       -13.6325
  50   2.0000      -0.487292       -13.2599
  51   2.0000      -0.471548       -12.8315
  52   2.0000      -0.466169       -12.6851
  53   2.0000      -0.459716       -12.5095
  54   2.0000      -0.448388       -12.2013
  55   2.0000      -0.431200       -11.7335
  56   2.0000      -0.420209       -11.4345
  57   2.0000      -0.413946       -11.2640
  58   2.0000      -0.407938       -11.1006
  59   2.0000      -0.405668       -11.0388
  60   2.0000      -0.400522       -10.8988
  61   2.0000      -0.393091       -10.6965
  62   2.0000      -0.389618       -10.6020
  63   2.0000      -0.381957       -10.3936
  64   2.0000      -0.375705       -10.2235
  65   2.0000      -0.371539       -10.1101
  66   2.0000      -0.368931       -10.0391
  67   2.0000      -0.358129        -9.7452
  68   2.0000      -0.348996        -9.4967
  69   2.0000      -0.344821        -9.3831
  70   2.0000      -0.338570        -9.2130
  71   2.0000      -0.333187        -9.0665
  72   2.0000      -0.329047        -8.9538
  73   2.0000      -0.317111        -8.6290
  74   2.0000      -0.307652        -8.3716
  75   2.0000      -0.298040        -8.1101
  76   2.0000      -0.291288        -7.9263
  77   2.0000      -0.288079        -7.8390
  78   2.0000      -0.274217        -7.4618
  79   2.0000      -0.264551        -7.1988
  80   2.0000      -0.259740        -7.0679
  81   2.0000      -0.256197        -6.9715
  82   2.0000      -0.244740        -6.6597
  83   2.0000      -0.227819        -6.1993
  84   2.0000      -0.208945        -5.6857
  85   2.0000      -0.188182        -5.1207
  86   2.0000      -0.180788        -4.9195
  87   0.0000      -0.050940        -1.3861
  88   0.0000      -0.040427        -1.1001
  89   0.0000      -0.024149        -0.6571
  90   0.0000       0.012892         0.3508
  91   0.0000       0.029171         0.7938

MULLIKEN ATOMIC CHARGES
-----------------------
   0 C :   -0.302071
   1 C :   -0.022024
   2 O :   -0.240207
   3 C :    0.103356
   4 O :   -0.196171
   5 C :   -0.038699
   6 C :   -0.336433
   7 H :    0.155697
   8 C :    0.234437
   9 O :   -0.201678
  10 O :   -0.215564
  11 C :   -0.032131
  12 C :   -0.299731
  13 S :   -0.056473
  14 P :    0.647808
  15 S :   -0.351284
  16 O :   -0.391526
  17 C :   -0.083178
  18 O :   -0.395501
  19 C :   -0.094510
  20 H :    0.113576
  21 H :    0.129151
  22 H :    0.115028
  23 H :    0.101339
  24 H :    0.113195
  25 H :    0.125215
  26 H :    0.123113
  27 H :    0.109979
  28 H :    0.129567
  29 H :    0.150446
  30 H :    0.115368
  31 H :    0.116799
  32 H :    0.113851
  33 H :    0.110063
  34 H :    0.113210
  35 H :    0.111611
  36 H :    0.118769
  37 H :    0.105603
Sum of atomic charges:   -0.0000000

LOEWDIN ATOMIC CHARGES
----------------------
   0 C :   -0.355207
   1 C :   -0.111288
   2 O :   -0.062450
   3 C :    0.022256
   4 O :   -0.161333
   5 C :   -0.247264
   6 C :   -0.269228
   7 H :    0.149147
   8 C :    0.034303
   9 O :   -0.147647
  10 O :   -0.026477
  11 C :   -0.100458
  12 C :   -0.354731
  13 S :    0.124166
  14 P :    0.588557
  15 S :   -0.347129
  16 O :   -0.253182
  17 C :   -0.212251
  18 O :   -0.272374
  19 C :   -0.216235
  20 H :    0.131113
  21 H :    0.131956
  22 H :    0.125449
  23 H :    0.117016
  24 H :    0.119785
  25 H :    0.137441
  26 H :    0.144952
  27 H :    0.119480
  28 H :    0.128124
  29 H :    0.137884
  30 H :    0.124548
  31 H :    0.133970
  32 H :    0.114638
  33 H :    0.110439
  34 H :    0.107916
  35 H :    0.106949
  36 H :    0.119055
  37 H :    0.108110

  Mayer bond orders larger than 0.100000
B(  0-C ,  1-C ) :   1.1734 B(  0-C , 20-H ) :   0.9440 B(  0-C , 21-H ) :   0.9458
B(  0-C , 22-H ) :   0.9485 B(  1-C ,  2-O ) :   0.9157 B(  1-C , 23-H ) :   0.9373
B(  1-C , 24-H ) :   0.9101 B(  2-O ,  3-C ) :   1.1966 B(  3-C ,  4-O ) :   2.0448
B(  3-C ,  5-C ) :   1.0153 B(  5-C ,  6-C ) :   1.0191 B(  5-C , 25-H ) :   0.8772
B(  5-C , 26-H ) :   0.8875 B(  6-C ,  7-H ) :   0.8689 B(  6-C ,  8-C ) :   0.9120
B(  6-C , 13-S ) :   1.0444 B(  8-C ,  9-O ) :   1.9005 B(  8-C , 10-O ) :   1.2822
B(  9-O , 14-P ) :   0.1426 B( 10-O , 11-C ) :   0.8784 B( 11-C , 12-C ) :   1.1636
B( 11-C , 27-H ) :   0.9352 B( 11-C , 28-H ) :   0.9216 B( 12-C , 29-H ) :   0.9360
B( 12-C , 30-H ) :   0.9455 B( 12-C , 31-H ) :   0.9395 B( 13-S , 14-P ) :   0.9302
B( 13-S , 15-S ) :   0.1090 B( 14-P , 15-S ) :   1.5534 B( 14-P , 16-O ) :   1.0895
B( 14-P , 18-O ) :   1.0683 B( 16-O , 17-C ) :   0.9335 B( 17-C , 32-H ) :   0.9544
B( 17-C , 33-H ) :   0.9535 B( 17-C , 34-H ) :   0.9346 B( 18-O , 19-C ) :   0.9427
B( 19-C , 35-H ) :   0.9321 B( 19-C , 36-H ) :   0.9610 B( 19-C , 37-H ) :   0.9512

Dispersion correction           -0.051955311
FINAL SINGLE POINT ENERGY     -1979.011126108284

DIPOLE MOMENT
-------------

Method             : SCF
Type of density    : Electron Density
Multiplicity       :   1
Irrep              :   0
Energy             : -1979.1433098465522562 Eh
Relativity type    :
Basis              : AO
                                X                 Y                 Z
Electronic contribution:    -18.238713406      -4.851111229      -4.331440932
Nuclear contribution   :     19.427269696       6.108302610       3.644864525
                        -----------------------------------------
Total Dipole Moment    :      1.188556290       1.257191381      -0.686576408
                        -----------------------------------------
Magnitude (a.u.)       :      1.861339137
Magnitude (Debye)      :      4.731148097

Rotational constants in cm-1:             0.017665             0.005879             0.005201
Rotational constants in MHz :           529.577432           176.236396           155.930487

                             ****ORCA TERMINATED NORMALLY****
TOTAL RUN TIME: 0 days 0 hours 0 minutes 41 seconds 894 msec
