                         Program Version 6.0.0  -   RELEASE  -
|  1> ! pbe def2-sv(p) def2/J RI DEFGRID1 loosescf d4 GCP(DFT/SV(P)) printgap
|  2> %output
|  3>     printlevel normal
|  4> end
|  5> * xyz 0 1
|  6> C -1.4411375434 -0.9880393556 8.4038e-05
|  7> S -0.0003382451 0.0885908902 -0.0001429434
|  8> O -0.0029186522 0.8777414285 1.225419169
|  9> O -0.0022724165 0.8773555457 -1.2259176506
| 10> C 1.4474639765 -0.9908913536 0.0007310618
| 11> H -2.3214418773 -0.3584023237 -0.0012973377
| 12> H -1.4001084438 -1.5895834808 -0.8974231216
| 13> H -1.4010320575 -1.5871625738 0.899296862
| 14> H 1.1043911559 -2.0157636186 -0.0313766621
| 15> H 2.0347786543 -0.751028269 -0.8753193552
| 16> H 2.0011860844 -0.7944501819 0.9088667098
| 17> *
| 18>
| 19>                          ****END OF INPUT****

CARTESIAN COORDINATES (ANGSTROEM)
---------------------------------
  C     -1.441138   -0.988039    0.000084
  S     -0.000338    0.088591   -0.000143
  O     -0.002919    0.877741    1.225419
  O     -0.002272    0.877356   -1.225918
  C      1.447464   -0.990891    0.000731
  H     -2.321442   -0.358402   -0.001297
  H     -1.400108   -1.589583   -0.897423
  H     -1.401032   -1.587163    0.899297
  H      1.104391   -2.015764   -0.031377
  H      2.034779   -0.751028   -0.875319
  H      2.001186   -0.794450    0.908867

 Total Charge           Charge          ....    0
 Multiplicity           Mult            ....    1
 Number of Electrons    NEL             ....   50
 Basis Dimension        Dim             ....   86

ORBITAL ENERGIES
----------------

  NO   OCC          E(Eh)            E(eV)
   0   2.0000     -88.222317     -2400.6513
   1   2.0000     -18.725268      -509.5404
   2   2.0000     -18.725078      -509.5353
   3   2.0000      -9.923965      -270.0448
   4   2.0000      -9.922296      -269.9994
   5   2.0000      -7.839516      -213.3241
   6   2.0000      -5.865585      -159.6107
   7   2.0000      -5.865238      -159.6012
   8   2.0000      -5.864953      -159.5935
   9   2.0000      -1.000318       -27.2200
  10   2.0000      -0.883764       -24.0484
  11   2.0000      -0.722720       -19.6662
  12   2.0000      -0.678861       -18.4728
  13   2.0000      -0.535624       -14.5751
  14   2.0000      -0.454205       -12.3595
  15   2.0000      -0.434522       -11.8239
  16   2.0000      -0.428712       -11.6659
  17   2.0000      -0.407062       -11.0767
  18   2.0000      -0.390542       -10.6272
  19   2.0000      -0.382495       -10.4082
  20   2.0000      -0.359617        -9.7857
  21   2.0000      -0.273404        -7.4397
  22   2.0000      -0.250623        -6.8198
  23   2.0000      -0.242674        -6.6035
  24   2.0000      -0.231801        -6.3076
  25   0.0000       0.010811         0.2942
  26   0.0000       0.022649         0.6163
  27   0.0000       0.042828         1.1654
  28   0.0000       0.054875         1.4932
  29   0.0000       0.066532         1.8104

MULLIKEN ATOMIC CHARGES
-----------------------
   0 C :   -0.331636
   1 S :    0.612955
   2 O :   -0.439718
   3 O :   -0.439692
   4 C :   -0.340344
   5 H :    0.173331
   6 H :    0.146019
   7 H :    0.146067
   8 H :    0.140723
   9 H :    0.166547
  10 H :    0.165748
Sum of atomic charges:    0.0000000

LOEWDIN ATOMIC CHARGES
----------------------
   0 C :   -0.477374
   1 S :    1.098647
   2 O :   -0.503115
   3 O :   -0.503069
   4 C :   -0.481197
   5 H :    0.153580
   6 H :    0.138059
   7 H :    0.138166
   8 H :    0.137006
   9 H :    0.149924
  10 H :    0.149373

  Mayer bond orders larger than 0.100000
B(  0-C ,  1-S ) :   0.8794 B(  0-C ,  5-H ) :   0.9308 B(  0-C ,  6-H ) :   0.9279
B(  0-C ,  7-H ) :   0.9282 B(  1-S ,  2-O ) :   1.7095 B(  1-S ,  3-O ) :   1.7089
B(  1-S ,  4-C ) :   0.8511 B(  4-C ,  8-H ) :   0.9388 B(  4-C ,  9-H ) :   0.9320
B(  4-C , 10-H ) :   0.9319

Dispersion correction           -0.008644821
FINAL SINGLE POINT ENERGY      -627.597996051121

DIPOLE MOMENT
-------------

Method             : SCF
Type of density    : Electron Density
Multiplicity       :   1
Irrep              :   0
Energy             :  -627.6387263533767964 Eh
Relativity type    :
Basis              : AO
                                X                 Y                 Z
Electronic contribution:     -0.006568364       4.838952218      -0.003062492
Nuclear contribution   :      0.016607328      -6.634149872       0.002573950
                        -----------------------------------------
Total Dipole Moment    :      0.010038964      -1.795197654      -0.000488542
                        -----------------------------------------
Magnitude (a.u.)       :      1.795225790
Magnitude (Debye)      :      4.563101322

Rotational constants in cm-1:             0.152941             0.140193             0.131840
Rotational constants in MHz :          4585.046900          4202.874602          3952.451950

                             ****ORCA TERMINATED NORMALLY****
TOTAL RUN TIME: 0 days 0 hours 0 minutes 5 seconds 893 msec
