                         Program Version 6.0.0  -   RELEASE  -
|  1> ! r2scan-3c def2/J RI DEFGRID2 scfconv6 printgap
|  2> %output
|  3>     printlevel normal
|  4> end
|  5> * xyz 0 1
|  6> C -2.5132945529 -0.7584869865 0.0033784068
|  7> C -1.2152860048 -0.0048388141 0.0002356249
|  8> C -1.2145055271 1.3804093396 0.0004883865
|  9> C -0.0273924978 2.0898841605 -0.0012672125
| 10> C 1.1710154648 1.4048683327 -0.0010148169
| 11> C 1.2139561315 0.0151748431 -0.0004662974
| 12> C 0.0068568006 -0.6891467622 -0.0018289329
| 13> O -0.0533065237 -2.0558918254 -0.0038860947
| 14> C 2.5665146091 -0.6458171395 0.004544337
| 15> H -3.1005019261 -0.4992422103 -0.8759679444
| 16> H -2.3315179266 -1.8286829038 0.00306096
| 17> H -3.0953430578 -0.4991296079 0.8861115545
| 18> H -2.1600998093 1.9022108279 0.0011127492
| 19> H -0.0374096508 3.1691539357 -0.0020354996
| 20> H 2.1033855131 1.9505353977 -0.0006732426
| 21> H 0.8366045826 -2.4350495052 -0.0177534028
| 22> H 3.1208936373 -0.3353903189 0.8890591056
| 23> H 2.5234540126 -1.7315945206 0.0015676972
| 24> H 3.1313400675 -0.3300176885 -0.8712897225
| 25> *
| 26>
| 27>                          ****END OF INPUT****

CARTESIAN COORDINATES (ANGSTROEM)
---------------------------------
  C     -2.513295   -0.758487    0.003378
  C     -1.215286   -0.004839    0.000236
  C     -1.214506    1.380409    0.000488
  C     -0.027392    2.089884   -0.001267
  C      1.171015    1.404868   -0.001015
  C      1.213956    0.015175   -0.000466
  C      0.006857   -0.689147   -0.001829
  O     -0.053307   -2.055892   -0.003886
  C      2.566515   -0.645817    0.004544
  H     -3.100502   -0.499242   -0.875968
  H     -2.331518   -1.828683    0.003061
  H     -3.095343   -0.499130    0.886112
  H     -2.160100    1.902211    0.001113
  H     -0.037410    3.169154   -0.002035
  H      2.103386    1.950535   -0.000673
  H      0.836605   -2.435050   -0.017753
  H      3.120894   -0.335390    0.889059
  H      2.523454   -1.731595    0.001568
  H      3.131340   -0.330018   -0.871290

 Total Charge           Charge          ....    0
 Multiplicity           Mult            ....    1
 Number of Electrons    NEL             ....   66
 Basis Dimension        Dim             ....  226

ORBITAL ENERGIES
----------------

  NO   OCC          E(Eh)            E(eV)
   0   2.0000     -18.981095      -516.5019
   1   2.0000     -10.089103      -274.5384
   2   2.0000     -10.041299      -273.2376
   3   2.0000     -10.040622      -273.2192
   4   2.0000     -10.033947      -273.0376
   5   2.0000     -10.025577      -272.8098
   6   2.0000     -10.023353      -272.7493
   7   2.0000     -10.021113      -272.6883
   8   2.0000     -10.017304      -272.5847
   9   2.0000      -1.024283       -27.8722
  10   2.0000      -0.821595       -22.3567
  11   2.0000      -0.754580       -20.5332
  12   2.0000      -0.718420       -19.5492
  13   2.0000      -0.666122       -18.1261
  14   2.0000      -0.644039       -17.5252
  15   2.0000      -0.575272       -15.6539
  16   2.0000      -0.547621       -14.9015
  17   2.0000      -0.507769       -13.8171
  18   2.0000      -0.456942       -12.4340
  19   2.0000      -0.433195       -11.7878
  20   2.0000      -0.408736       -11.1223
  21   2.0000      -0.393027       -10.6948
  22   2.0000      -0.386115       -10.5067
  23   2.0000      -0.380924       -10.3655
  24   2.0000      -0.370835       -10.0909
  25   2.0000      -0.354187        -9.6379
  26   2.0000      -0.351385        -9.5617
  27   2.0000      -0.344668        -9.3789
  28   2.0000      -0.311426        -8.4743
  29   2.0000      -0.302983        -8.2446
  30   2.0000      -0.298569        -8.1245
  31   2.0000      -0.216372        -5.8878
  32   2.0000      -0.197248        -5.3674
  33   0.0000      -0.027568        -0.7502
  34   0.0000      -0.006654        -0.1811
  35   0.0000       0.043363         1.1800
  36   0.0000       0.087467         2.3801
  37   0.0000       0.106851         2.9076

MULLIKEN ATOMIC CHARGES
-----------------------
   0 C :   -0.573029
   1 C :    0.112191
   2 C :   -0.196410
   3 C :   -0.189966
   4 C :   -0.178931
   5 C :    0.024362
   6 C :    0.246050
   7 O :   -0.400463
   8 C :   -0.513894
   9 H :    0.157013
  10 H :    0.183725
  11 H :    0.157067
  12 H :    0.147153
  13 H :    0.142723
  14 H :    0.144347
  15 H :    0.288863
  16 H :    0.170881
  17 H :    0.107753
  18 H :    0.170564
Sum of atomic charges:    0.0000000

LOEWDIN ATOMIC CHARGES
----------------------
   0 C :   -0.379029
   1 C :   -0.073514
   2 C :   -0.159643
   3 C :   -0.180133
   4 C :   -0.163270
   5 C :   -0.100727
   6 C :    0.193188
   7 O :   -0.529848
   8 C :   -0.380251
   9 H :    0.164465
  10 H :    0.179371
  11 H :    0.164501
  12 H :    0.169100
  13 H :    0.165829
  14 H :    0.167975
  15 H :    0.278067
  16 H :    0.169638
  17 H :    0.144848
  18 H :    0.169433

  Mayer bond orders larger than 0.100000
B(  0-C ,  1-C ) :   0.7482 B(  0-C ,  9-H ) :   0.9787 B(  0-C , 10-H ) :   0.9923
B(  0-C , 11-H ) :   0.9787 B(  1-C ,  2-C ) :   1.3728 B(  1-C ,  6-C ) :   1.4817
B(  2-C ,  3-C ) :   1.4178 B(  2-C , 12-H ) :   0.9392 B(  3-C ,  4-C ) :   1.4514
B(  3-C , 13-H ) :   0.9433 B(  4-C ,  5-C ) :   1.3198 B(  4-C , 14-H ) :   0.9409
B(  5-C ,  6-C ) :   1.3830 B(  5-C ,  8-C ) :   0.8173 B(  6-C ,  7-O ) :   1.0364
B(  7-O , 15-H ) :   0.8733 B(  8-C , 16-H ) :   0.9774 B(  8-C , 17-H ) :   0.9805
B(  8-C , 18-H ) :   0.9777

Dispersion correction           -0.006235236
FINAL SINGLE POINT ENERGY      -386.001210858461

DIPOLE MOMENT
-------------

Method             : SCF
Type of density    : Electron Density
Multiplicity       :   1
Irrep              :   0
Energy             :  -386.0026472799372073 Eh
Relativity type    :
Basis              : AO
                                X                 Y                 Z
Electronic contribution:     -0.369164186       0.475553082      -0.016963697
Nuclear contribution   :      0.928752672      -0.628275746       0.012318968
                        -----------------------------------------
Total Dipole Moment    :      0.559588486      -0.152722665      -0.004644728
                        -----------------------------------------
Magnitude (a.u.)       :      0.580073323
Magnitude (Debye)      :      1.474429211

Rotational constants in cm-1:             0.077317             0.058389             0.033682
Rotational constants in MHz :          2317.907679          1750.461083          1009.771479

                             ****ORCA TERMINATED NORMALLY****
TOTAL RUN TIME: 0 days 0 hours 0 minutes 32 seconds 449 msec
