                         Program Version 6.0.0  -   RELEASE  -
|  1> ! r2scan-3c def2/J RI DEFGRID2 scfconv6 printgap
|  2> %output
|  3>     printlevel normal
|  4> end
|  5> %cpcm
|  6>     smd true
|  7>     smdsolvent "water"
|  8> end
|  9> * xyz 0 1
| 10> C -2.5132945529 -0.7584869865 0.0033784068
| 11> C -1.2152860048 -0.0048388141 0.0002356249
| 12> C -1.2145055271 1.3804093396 0.0004883865
| 13> C -0.0273924978 2.0898841605 -0.0012672125
| 14> C 1.1710154648 1.4048683327 -0.0010148169
| 15> C 1.2139561315 0.0151748431 -0.0004662974
| 16> C 0.0068568006 -0.6891467622 -0.0018289329
| 17> O -0.0533065237 -2.0558918254 -0.0038860947
| 18> C 2.5665146091 -0.6458171395 0.004544337
| 19> H -3.1005019261 -0.4992422103 -0.8759679444
| 20> H -2.3315179266 -1.8286829038 0.00306096
| 21> H -3.0953430578 -0.4991296079 0.8861115545
| 22> H -2.1600998093 1.9022108279 0.0011127492
| 23> H -0.0374096508 3.1691539357 -0.0020354996
| 24> H 2.1033855131 1.9505353977 -0.0006732426
| 25> H 0.8366045826 -2.4350495052 -0.0177534028
| 26> H 3.1208936373 -0.3353903189 0.8890591056
| 27> H 2.5234540126 -1.7315945206 0.0015676972
| 28> H 3.1313400675 -0.3300176885 -0.8712897225
| 29> *
| 30>
| 31>                          ****END OF INPUT****

CARTESIAN COORDINATES (ANGSTROEM)
---------------------------------
  C     -2.513295   -0.758487    0.003378
  C     -1.215286   -0.004839    0.000236
  C     -1.214506    1.380409    0.000488
  C     -0.027392    2.089884   -0.001267
  C      1.171015    1.404868   -0.001015
  C      1.213956    0.015175   -0.000466
  C      0.006857   -0.689147   -0.001829
  O     -0.053307   -2.055892   -0.003886
  C      2.566515   -0.645817    0.004544
  H     -3.100502   -0.499242   -0.875968
  H     -2.331518   -1.828683    0.003061
  H     -3.095343   -0.499130    0.886112
  H     -2.160100    1.902211    0.001113
  H     -0.037410    3.169154   -0.002035
  H      2.103386    1.950535   -0.000673
  H      0.836605   -2.435050   -0.017753
  H      3.120894   -0.335390    0.889059
  H      2.523454   -1.731595    0.001568
  H      3.131340   -0.330018   -0.871290

 Total Charge           Charge          ....    0
 Multiplicity           Mult            ....    1
 Number of Electrons    NEL             ....   66
 Basis Dimension        Dim             ....  226

ORBITAL ENERGIES
----------------

  NO   OCC          E(Eh)            E(eV)
   0   2.0000     -18.979638      -516.4622
   1   2.0000     -10.090589      -274.5789
   2   2.0000     -10.040028      -273.2030
   3   2.0000     -10.036995      -273.1205
   4   2.0000     -10.024975      -272.7934
   5   2.0000     -10.024643      -272.7844
   6   2.0000     -10.024265      -272.7741
   7   2.0000     -10.022465      -272.7251
   8   2.0000     -10.016540      -272.5639
   9   2.0000      -1.022894       -27.8344
  10   2.0000      -0.823610       -22.4116
  11   2.0000      -0.752009       -20.4632
  12   2.0000      -0.718035       -19.5387
  13   2.0000      -0.660467       -17.9722
  14   2.0000      -0.643009       -17.4972
  15   2.0000      -0.572528       -15.5793
  16   2.0000      -0.546851       -14.8806
  17   2.0000      -0.503858       -13.7107
  18   2.0000      -0.456501       -12.4220
  19   2.0000      -0.431434       -11.7399
  20   2.0000      -0.405122       -11.0239
  21   2.0000      -0.388733       -10.5780
  22   2.0000      -0.379911       -10.3379
  23   2.0000      -0.370439       -10.0801
  24   2.0000      -0.368033       -10.0147
  25   2.0000      -0.355719        -9.6796
  26   2.0000      -0.350110        -9.5270
  27   2.0000      -0.338895        -9.2218
  28   2.0000      -0.309397        -8.4191
  29   2.0000      -0.307258        -8.3609
  30   2.0000      -0.297544        -8.0966
  31   2.0000      -0.219210        -5.9650
  32   2.0000      -0.201308        -5.4779
  33   0.0000      -0.029889        -0.8133
  34   0.0000      -0.010742        -0.2923
  35   0.0000       0.063418         1.7257
  36   0.0000       0.094883         2.5819
  37   0.0000       0.110554         3.0083

MULLIKEN ATOMIC CHARGES
-----------------------
   0 C :   -0.585916
   1 C :    0.097747
   2 C :   -0.232514
   3 C :   -0.245994
   4 C :   -0.205609
   5 C :    0.016471
   6 C :    0.212148
   7 O :   -0.447729
   8 C :   -0.531096
   9 H :    0.175578
  10 H :    0.184343
  11 H :    0.175605
  12 H :    0.176088
  13 H :    0.172151
  14 H :    0.175757
  15 H :    0.349370
  16 H :    0.182920
  17 H :    0.148047
  18 H :    0.182631
Sum of atomic charges:    0.0000000

LOEWDIN ATOMIC CHARGES
----------------------
   0 C :   -0.384229
   1 C :   -0.085658
   2 C :   -0.175299
   3 C :   -0.198068
   4 C :   -0.174502
   5 C :   -0.098139
   6 C :    0.180675
   7 O :   -0.544141
   8 C :   -0.382114
   9 H :    0.171350
  10 H :    0.177200
  11 H :    0.171378
  12 H :    0.179085
  13 H :    0.175196
  14 H :    0.179305
  15 H :    0.297374
  16 H :    0.175017
  17 H :    0.160665
  18 H :    0.174906

  Mayer bond orders larger than 0.100000
B(  0-C ,  1-C ) :   0.7598 B(  0-C ,  9-H ) :   0.9691 B(  0-C , 10-H ) :   0.9953
B(  0-C , 11-H ) :   0.9692 B(  1-C ,  2-C ) :   1.3465 B(  1-C ,  6-C ) :   1.4331
B(  2-C ,  3-C ) :   1.3785 B(  2-C , 12-H ) :   0.9546 B(  3-C ,  4-C ) :   1.4010
B(  3-C , 13-H ) :   0.9640 B(  4-C ,  5-C ) :   1.3008 B(  4-C , 14-H ) :   0.9555
B(  5-C ,  6-C ) :   1.3499 B(  5-C ,  8-C ) :   0.8437 B(  6-C ,  7-O ) :   1.0392
B(  7-O , 15-H ) :   0.8498 B(  8-C , 16-H ) :   0.9695 B(  8-C , 17-H ) :   0.9759
B(  8-C , 18-H ) :   0.9695

Dispersion correction           -0.006235236
FINAL SINGLE POINT ENERGY      -386.008563048748

DIPOLE MOMENT
-------------

Method             : SCF
Type of density    : Electron Density
Multiplicity       :   1
Irrep              :   0
Energy             :  -386.0099994702249546 Eh
Relativity type    :
Basis              : AO
                                X                 Y                 Z
Electronic contribution:     -0.116515763       0.389050934      -0.019358030
Nuclear contribution   :      0.928752672      -0.628275746       0.012318968
                        -----------------------------------------
Total Dipole Moment    :      0.812236910      -0.239224812      -0.007039061
                        -----------------------------------------
Magnitude (a.u.)       :      0.846762574
Magnitude (Debye)      :      2.152299417

Rotational constants in cm-1:             0.077317             0.058389             0.033682
Rotational constants in MHz :          2317.907679          1750.461083          1009.771479

                             ****ORCA TERMINATED NORMALLY****
TOTAL RUN TIME: 0 days 0 hours 0 minutes 37 seconds 715 msec
