                         Program Version 6.0.0  -   RELEASE  -
|  1> ! pbe def2-sv(p) def2/J RI DEFGRID1 loosescf d4 GCP(DFT/SV(P)) printgap
|  2> %output
|  3>     printlevel normal
|  4> end
|  5> * xyz 0 1
|  6> C 3.3032627548 -3.0049171247 -0.8194924367
|  7> C 3.8368285302 -1.8912120389 -1.6931576459
|  8> O 3.9796521653 -0.6377531588 -0.9792759974
|  9> P 2.8652329281 0.1122303578 -0.1659557772
| 10> S 3.2975000345 2.0019933737 0.1061048275
| 11> O 2.8061922744 -0.7377854682 1.1791335949
| 12> C 2.1302106358 -0.3032289738 2.372340176
| 13> C 0.9224261338 -1.1799795332 2.6402584542
| 14> S 1.0604457878 -0.2616508834 -1.2588730039
| 15> C 0.2864002328 1.3555710929 -1.0545007342
| 16> S -0.6238984844 1.5135255869 0.5060473841
| 17> P -2.2452233659 0.2821983257 -0.0651526041
| 18> S -2.8847540595 0.508900925 -1.9100147972
| 19> O -3.3241337669 0.5407344635 1.0681273437
| 20> C -4.1551306673 1.7186831661 1.0706313259
| 21> C -5.3509495535 1.4426427993 1.9595668357
| 22> O -1.7014269493 -1.1513281113 0.3173728555
| 23> C -2.2180950709 -2.3541836429 -0.2919933543
| 24> C -3.639779088 -2.6298517373 0.14772134
| 25> H 3.3088981815 -3.9321896309 -1.3840398548
| 26> H 3.9215602881 -3.1169675193 0.0671597569
| 27> H 2.2826014019 -2.7824932751 -0.5141825195
| 28> H 3.1813005871 -1.7196179632 -2.5507067887
| 29> H 4.8518234437 -2.0959429469 -2.0368048541
| 30> H 2.8680094469 -0.3970123813 3.1721054317
| 31> H 1.8487047677 0.7503676512 2.2698506265
| 32> H 0.1907166293 -1.0841279439 1.8417556012
| 33> H 1.2283400184 -2.2195559671 2.7149683039
| 34> H 0.4620370816 -0.8719417845 3.57337586
| 35> H -0.4070687724 1.4849755659 -1.885872713
| 36> H 1.0580595901 2.1270524352 -1.0490807474
| 37> H -3.5607076465 2.5548606864 1.448684024
| 38> H -4.4606030763 1.9341003869 0.0409585335
| 39> H -5.0153049804 1.1841760777 2.959496867
| 40> H -5.9720497655 2.3310818263 2.0064803619
| 41> H -5.9345770432 0.6185411961 1.5593279661
| 42> H -2.1591138886 -2.2443338499 -1.3793408571
| 43> H -1.5300340226 -3.132309938 0.0398948902
| 44> H -3.6993221526 -2.6543820648 1.2324789638
| 45> H -4.297563065 -1.8447446878 -0.2236263177
| 46> H -3.9650989219 -3.5832214889 -0.2565561529
| 47> *
| 48>
| 49>                          ****END OF INPUT****

CARTESIAN COORDINATES (ANGSTROEM)
---------------------------------
  C      3.303263   -3.004917   -0.819492
  C      3.836829   -1.891212   -1.693158
  O      3.979652   -0.637753   -0.979276
  P      2.865233    0.112230   -0.165956
  S      3.297500    2.001993    0.106105
  O      2.806192   -0.737785    1.179134
  C      2.130211   -0.303229    2.372340
  C      0.922426   -1.179980    2.640258
  S      1.060446   -0.261651   -1.258873
  C      0.286400    1.355571   -1.054501
  S     -0.623898    1.513526    0.506047
  P     -2.245223    0.282198   -0.065153
  S     -2.884754    0.508901   -1.910015
  O     -3.324134    0.540734    1.068127
  C     -4.155131    1.718683    1.070631
  C     -5.350950    1.442643    1.959567
  O     -1.701427   -1.151328    0.317373
  C     -2.218095   -2.354184   -0.291993
  C     -3.639779   -2.629852    0.147721
  H      3.308898   -3.932190   -1.384040
  H      3.921560   -3.116968    0.067160
  H      2.282601   -2.782493   -0.514183
  H      3.181301   -1.719618   -2.550707
  H      4.851823   -2.095943   -2.036805
  H      2.868009   -0.397012    3.172105
  H      1.848705    0.750368    2.269851
  H      0.190717   -1.084128    1.841756
  H      1.228340   -2.219556    2.714968
  H      0.462037   -0.871942    3.573376
  H     -0.407069    1.484976   -1.885873
  H      1.058060    2.127052   -1.049081
  H     -3.560708    2.554861    1.448684
  H     -4.460603    1.934100    0.040959
  H     -5.015305    1.184176    2.959497
  H     -5.972050    2.331082    2.006480
  H     -5.934577    0.618541    1.559328
  H     -2.159114   -2.244334   -1.379341
  H     -1.530034   -3.132310    0.039895
  H     -3.699322   -2.654382    1.232479
  H     -4.297563   -1.844745   -0.223626
  H     -3.965099   -3.583221   -0.256556

 Total Charge           Charge          ....    0
 Multiplicity           Mult            ....    1
 Number of Electrons    NEL             ....  202
 Basis Dimension        Dim             ....  334

ORBITAL ENERGIES
----------------

  NO   OCC          E(Eh)            E(eV)
   0   2.0000     -88.045544     -2395.8410
   1   2.0000     -88.042535     -2395.7592
   2   2.0000     -87.994099     -2394.4412
   3   2.0000     -87.983374     -2394.1493
   4   2.0000     -76.431696     -2079.8122
   5   2.0000     -76.425737     -2079.6500
   6   2.0000     -18.800319      -511.5827
   7   2.0000     -18.798477      -511.5326
   8   2.0000     -18.793922      -511.4086
   9   2.0000     -18.786915      -511.2179
  10   2.0000      -9.960877      -271.0492
  11   2.0000      -9.958732      -270.9909
  12   2.0000      -9.957322      -270.9525
  13   2.0000      -9.951462      -270.7931
  14   2.0000      -9.945966      -270.6435
  15   2.0000      -9.893357      -269.2119
  16   2.0000      -9.891750      -269.1682
  17   2.0000      -9.889103      -269.0962
  18   2.0000      -9.876184      -268.7446
  19   2.0000      -7.690658      -209.2734
  20   2.0000      -7.687308      -209.1823
  21   2.0000      -7.638948      -207.8664
  22   2.0000      -7.628646      -207.5860
  23   2.0000      -6.429563      -174.9573
  24   2.0000      -6.423189      -174.7838
  25   2.0000      -5.718386      -155.6052
  26   2.0000      -5.715298      -155.5212
  27   2.0000      -5.715095      -155.5156
  28   2.0000      -5.711808      -155.4262
  29   2.0000      -5.707650      -155.3131
  30   2.0000      -5.704453      -155.2260
  31   2.0000      -5.667703      -154.2260
  32   2.0000      -5.659615      -154.0059
  33   2.0000      -5.659265      -153.9964
  34   2.0000      -5.657644      -153.9523
  35   2.0000      -5.649282      -153.7248
  36   2.0000      -5.648645      -153.7074
  37   2.0000      -4.651996      -126.5872
  38   2.0000      -4.651337      -126.5693
  39   2.0000      -4.650050      -126.5343
  40   2.0000      -4.645866      -126.4204
  41   2.0000      -4.644932      -126.3950
  42   2.0000      -4.643574      -126.3581
  43   2.0000      -0.994931       -27.0735
  44   2.0000      -0.986087       -26.8328
  45   2.0000      -0.954173       -25.9644
  46   2.0000      -0.943287       -25.6681
  47   2.0000      -0.765298       -20.8248
  48   2.0000      -0.725570       -19.7438
  49   2.0000      -0.714476       -19.4419
  50   2.0000      -0.694741       -18.9049
  51   2.0000      -0.689407       -18.7597
  52   2.0000      -0.676491       -18.4083
  53   2.0000      -0.651123       -17.7180
  54   2.0000      -0.638413       -17.3721
  55   2.0000      -0.604649       -16.4533
  56   2.0000      -0.597232       -16.2515
  57   2.0000      -0.572756       -15.5855
  58   2.0000      -0.570520       -15.5246
  59   2.0000      -0.561424       -15.2771
  60   2.0000      -0.510137       -13.8815
  61   2.0000      -0.496774       -13.5179
  62   2.0000      -0.484137       -13.1740
  63   2.0000      -0.476976       -12.9792
  64   2.0000      -0.462252       -12.5785
  65   2.0000      -0.450079       -12.2473
  66   2.0000      -0.442289       -12.0353
  67   2.0000      -0.440867       -11.9966
  68   2.0000      -0.430408       -11.7120
  69   2.0000      -0.418358       -11.3841
  70   2.0000      -0.406924       -11.0730
  71   2.0000      -0.403622       -10.9831
  72   2.0000      -0.394834       -10.7440
  73   2.0000      -0.386612       -10.5202
  74   2.0000      -0.383622       -10.4389
  75   2.0000      -0.377819       -10.2810
  76   2.0000      -0.366527        -9.9737
  77   2.0000      -0.362331        -9.8595
  78   2.0000      -0.357287        -9.7223
  79   2.0000      -0.354888        -9.6570
  80   2.0000      -0.353063        -9.6073
  81   2.0000      -0.351117        -9.5544
  82   2.0000      -0.344829        -9.3833
  83   2.0000      -0.341815        -9.3012
  84   2.0000      -0.329723        -8.9722
  85   2.0000      -0.324166        -8.8210
  86   2.0000      -0.314626        -8.5614
  87   2.0000      -0.306298        -8.3348
  88   2.0000      -0.293400        -7.9838
  89   2.0000      -0.291979        -7.9452
  90   2.0000      -0.287242        -7.8162
  91   2.0000      -0.282300        -7.6818
  92   2.0000      -0.276097        -7.5130
  93   2.0000      -0.268743        -7.3129
  94   2.0000      -0.256235        -6.9725
  95   2.0000      -0.236840        -6.4448
  96   2.0000      -0.220365        -5.9964
  97   2.0000      -0.216184        -5.8827
  98   2.0000      -0.206879        -5.6295
  99   2.0000      -0.203260        -5.5310
 100   2.0000      -0.198295        -5.3959
 101   0.0000      -0.047012        -1.2793
 102   0.0000      -0.027683        -0.7533
 103   0.0000      -0.008147        -0.2217
 104   0.0000       0.001317         0.0358
 105   0.0000       0.012469         0.3393

MULLIKEN ATOMIC CHARGES
-----------------------
   0 C :   -0.316725
   1 C :   -0.008151
   2 O :   -0.359392
   3 P :    0.601379
   4 S :   -0.309733
   5 O :   -0.373615
   6 C :   -0.003413
   7 C :   -0.319670
   8 S :   -0.119305
   9 C :   -0.362682
  10 S :   -0.081267
  11 P :    0.615599
  12 S :   -0.333450
  13 O :   -0.374748
  14 C :   -0.015245
  15 C :   -0.282028
  16 O :   -0.353609
  17 C :   -0.000505
  18 C :   -0.310337
  19 H :    0.115143
  20 H :    0.127014
  21 H :    0.127473
  22 H :    0.117527
  23 H :    0.115322
  24 H :    0.103650
  25 H :    0.103841
  26 H :    0.148900
  27 H :    0.104018
  28 H :    0.103893
  29 H :    0.195339
  30 H :    0.197592
  31 H :    0.107042
  32 H :    0.109175
  33 H :    0.118370
  34 H :    0.114898
  35 H :    0.119998
  36 H :    0.114048
  37 H :    0.106622
  38 H :    0.118324
  39 H :    0.124421
  40 H :    0.114288
Sum of atomic charges:   -0.0000000

LOEWDIN ATOMIC CHARGES
----------------------
   0 C :   -0.367587
   1 C :   -0.112097
   2 O :   -0.233471
   3 P :    0.571396
   4 S :   -0.304746
   5 O :   -0.246017
   6 C :   -0.117569
   7 C :   -0.368670
   8 S :    0.065098
   9 C :   -0.489000
  10 S :    0.090578
  11 P :    0.571800
  12 S :   -0.320562
  13 O :   -0.245161
  14 C :   -0.119674
  15 C :   -0.350174
  16 O :   -0.229889
  17 C :   -0.115831
  18 C :   -0.365107
  19 H :    0.132127
  20 H :    0.131179
  21 H :    0.118846
  22 H :    0.111789
  23 H :    0.125061
  24 H :    0.116834
  25 H :    0.102113
  26 H :    0.120501
  27 H :    0.120709
  28 H :    0.127951
  29 H :    0.128624
  30 H :    0.128323
  31 H :    0.112297
  32 H :    0.109829
  33 H :    0.127865
  34 H :    0.132383
  35 H :    0.128172
  36 H :    0.111830
  37 H :    0.119096
  38 H :    0.127118
  39 H :    0.122418
  40 H :    0.131617

  Mayer bond orders larger than 0.100000
B(  0-C ,  1-C ) :   1.1688 B(  0-C , 19-H ) :   0.9345 B(  0-C , 20-H ) :   0.9421
B(  0-C , 21-H ) :   0.9366 B(  1-C ,  2-O ) :   0.9009 B(  1-C , 22-H ) :   0.9219
B(  1-C , 23-H ) :   0.9340 B(  2-O ,  3-P ) :   1.1548 B(  3-P ,  4-S ) :   1.6393
B(  3-P ,  5-O ) :   1.0924 B(  3-P ,  8-S ) :   0.9259 B(  4-S ,  8-S ) :   0.1114
B(  4-S , 30-H ) :   0.1044 B(  5-O ,  6-C ) :   0.9029 B(  6-C ,  7-C ) :   1.1644
B(  6-C , 24-H ) :   0.9353 B(  6-C , 25-H ) :   0.9021 B(  7-C , 26-H ) :   0.9208
B(  7-C , 27-H ) :   0.9462 B(  7-C , 28-H ) :   0.9404 B(  8-S ,  9-C ) :   1.0187
B(  9-C , 10-S ) :   1.0010 B(  9-C , 29-H ) :   0.8683 B(  9-C , 30-H ) :   0.8570
B( 10-S , 11-P ) :   0.9661 B( 10-S , 12-S ) :   0.1080 B( 11-P , 12-S ) :   1.5990
B( 11-P , 13-O ) :   1.1130 B( 11-P , 16-O ) :   1.1240 B( 13-O , 14-C ) :   0.9008
B( 14-C , 15-C ) :   1.1616 B( 14-C , 31-H ) :   0.9295 B( 14-C , 32-H ) :   0.9101
B( 15-C , 33-H ) :   0.9502 B( 15-C , 34-H ) :   0.9414 B( 15-C , 35-H ) :   0.9514
B( 16-O , 17-C ) :   0.8967 B( 17-C , 18-C ) :   1.1650 B( 17-C , 36-H ) :   0.9164
B( 17-C , 37-H ) :   0.9334 B( 18-C , 38-H ) :   0.9459 B( 18-C , 39-H ) :   0.9345
B( 18-C , 40-H ) :   0.9386

Dispersion correction           -0.064114821
FINAL SINGLE POINT ENERGY     -2929.522274516278

DIPOLE MOMENT
-------------

Method             : SCF
Type of density    : Electron Density
Multiplicity       :   1
Irrep              :   0
Energy             : -2929.6433996903579100 Eh
Relativity type    :
Basis              : AO
                                X                 Y                 Z
Electronic contribution:     14.363241838      16.557614741     -10.600171449
Nuclear contribution   :    -15.375040269     -18.028649555      11.230241385
                        -----------------------------------------
Total Dipole Moment    :     -1.011798431      -1.471034813       0.630069936
                        -----------------------------------------
Magnitude (a.u.)       :      1.893321846
Magnitude (Debye)      :      4.812441681

Rotational constants in cm-1:             0.012860             0.004598             0.004330
Rotational constants in MHz :           385.537867           137.845894           129.811231

                             ****ORCA TERMINATED NORMALLY****
TOTAL RUN TIME: 0 days 0 hours 0 minutes 21 seconds 378 msec
