                         Program Version 6.0.0  -   RELEASE  -
|  1> ! pbe def2-sv(p) def2/J RI DEFGRID1 loosescf d4 GCP(DFT/SV(P)) printgap
|  2> %output
|  3>     printlevel normal
|  4> end
|  5> * xyz 0 1
|  6> C 3.2211288956 2.3251653287 -1.6482911065
|  7> C 3.9709365183 1.8105241764 -0.436201667
|  8> O 3.6671511051 0.4317381513 -0.1771102032
|  9> P 2.2345300728 -0.0354836231 0.3452379486
| 10> S 1.5183612928 1.1900343392 1.7040619966
| 11> O 2.5313040573 -1.5217904655 0.7959876815
| 12> C 2.9411869487 -1.8514435045 2.144702681
| 13> C 1.7542834571 -2.3228585103 2.9606932619
| 14> S 1.1864118361 -0.4500386027 -1.4517667809
| 15> C 0.1399893325 -1.8284710432 -0.8987554394
| 16> S -0.8759875145 -1.43654462 0.5498561937
| 17> P -2.0510223422 0.0471516201 -0.3781909212
| 18> S -2.5511863951 -0.2525492938 -2.2531045868
| 19> O -1.149935896 1.3142005294 -0.0843719596
| 20> C -1.2447544597 2.5369614003 -0.8393641644
| 21> C -2.5867943506 3.2128914513 -0.6576757937
| 22> O -3.2664598457 0.2688048175 0.6189520565
| 23> C -4.4982374078 -0.4667051341 0.5090680628
| 24> C -4.3218186601 -1.930161992 0.8594026752
| 25> H 3.5112381751 3.3512777274 -1.8493214484
| 26> H 3.4362621392 1.7084429241 -2.517129314
| 27> H 2.1477978758 2.2895692731 -1.4564301538
| 28> H 3.7138394956 2.394876127 0.4540408656
| 29> H 5.050397807 1.8221739828 -0.5908955689
| 30> H 3.6832323916 -2.6412249355 2.0188787579
| 31> H 3.4077285238 -0.9757948322 2.6039037888
| 32> H 2.0972673118 -2.6348232123 3.9417993078
| 33> H 1.0343049771 -1.5153520579 3.0760971689
| 34> H 1.2614296435 -3.155836456 2.4671151047
| 35> H 0.7633883789 -2.6772328031 -0.6317160987
| 36> H -0.5070397819 -2.0587632183 -1.746052759
| 37> H -0.4285018246 3.1454729771 -0.445079506
| 38> H -1.0629333041 2.304319177 -1.8941741979
| 39> H -3.3737031026 2.5928322148 -1.0862649306
| 40> H -2.7900663384 3.3607809133 0.3999143325
| 41> H -2.5773917117 4.1728769251 -1.164204722
| 42> H -5.1671385776 0.0381834696 1.2072439233
| 43> H -4.8742076565 -0.3588474481 -0.5135330661
| 44> H -3.7015175051 -2.4206890692 0.1103359221
| 45> H -3.8430236683 -2.0305447776 1.8303383592
| 46> H -5.293433179 -2.4130937885 0.8835921418
| 47> *
| 48>
| 49>                          ****END OF INPUT****

CARTESIAN COORDINATES (ANGSTROEM)
---------------------------------
  C      3.221129    2.325165   -1.648291
  C      3.970937    1.810524   -0.436202
  O      3.667151    0.431738   -0.177110
  P      2.234530   -0.035484    0.345238
  S      1.518361    1.190034    1.704062
  O      2.531304   -1.521790    0.795988
  C      2.941187   -1.851444    2.144703
  C      1.754283   -2.322859    2.960693
  S      1.186412   -0.450039   -1.451767
  C      0.139989   -1.828471   -0.898755
  S     -0.875988   -1.436545    0.549856
  P     -2.051022    0.047152   -0.378191
  S     -2.551186   -0.252549   -2.253105
  O     -1.149936    1.314201   -0.084372
  C     -1.244754    2.536961   -0.839364
  C     -2.586794    3.212891   -0.657676
  O     -3.266460    0.268805    0.618952
  C     -4.498237   -0.466705    0.509068
  C     -4.321819   -1.930162    0.859403
  H      3.511238    3.351278   -1.849321
  H      3.436262    1.708443   -2.517129
  H      2.147798    2.289569   -1.456430
  H      3.713839    2.394876    0.454041
  H      5.050398    1.822174   -0.590896
  H      3.683232   -2.641225    2.018879
  H      3.407729   -0.975795    2.603904
  H      2.097267   -2.634823    3.941799
  H      1.034305   -1.515352    3.076097
  H      1.261430   -3.155836    2.467115
  H      0.763388   -2.677233   -0.631716
  H     -0.507040   -2.058763   -1.746053
  H     -0.428502    3.145473   -0.445080
  H     -1.062933    2.304319   -1.894174
  H     -3.373703    2.592832   -1.086265
  H     -2.790066    3.360781    0.399914
  H     -2.577392    4.172877   -1.164205
  H     -5.167139    0.038183    1.207244
  H     -4.874208   -0.358847   -0.513533
  H     -3.701518   -2.420689    0.110336
  H     -3.843024   -2.030545    1.830338
  H     -5.293433   -2.413094    0.883592

 Total Charge           Charge          ....    0
 Multiplicity           Mult            ....    1
 Number of Electrons    NEL             ....  202
 Basis Dimension        Dim             ....  334

ORBITAL ENERGIES
----------------

  NO   OCC          E(Eh)            E(eV)
   0   2.0000     -88.042260     -2395.7517
   1   2.0000     -88.038549     -2395.6507
   2   2.0000     -87.987807     -2394.2700
   3   2.0000     -87.981050     -2394.0861
   4   2.0000     -76.424813     -2079.6249
   5   2.0000     -76.423302     -2079.5838
   6   2.0000     -18.793245      -511.3902
   7   2.0000     -18.792617      -511.3731
   8   2.0000     -18.786569      -511.2085
   9   2.0000     -18.782472      -511.0970
  10   2.0000      -9.955812      -270.9114
  11   2.0000      -9.954060      -270.8638
  12   2.0000      -9.952513      -270.8216
  13   2.0000      -9.948997      -270.7260
  14   2.0000      -9.944381      -270.6004
  15   2.0000      -9.885805      -269.0064
  16   2.0000      -9.884446      -268.9695
  17   2.0000      -9.881661      -268.8937
  18   2.0000      -9.878736      -268.8141
  19   2.0000      -7.687238      -209.1804
  20   2.0000      -7.683624      -209.0820
  21   2.0000      -7.632743      -207.6975
  22   2.0000      -7.626018      -207.5145
  23   2.0000      -6.422321      -174.7602
  24   2.0000      -6.420848      -174.7202
  25   2.0000      -5.715084      -155.5153
  26   2.0000      -5.711869      -155.4278
  27   2.0000      -5.711818      -155.4265
  28   2.0000      -5.708159      -155.3269
  29   2.0000      -5.704052      -155.2151
  30   2.0000      -5.700236      -155.1113
  31   2.0000      -5.661457      -154.0561
  32   2.0000      -5.654908      -153.8779
  33   2.0000      -5.653509      -153.8398
  34   2.0000      -5.652994      -153.8258
  35   2.0000      -5.646793      -153.6570
  36   2.0000      -5.646078      -153.6376
  37   2.0000      -4.644690      -126.3884
  38   2.0000      -4.644015      -126.3701
  39   2.0000      -4.643589      -126.3585
  40   2.0000      -4.643050      -126.3438
  41   2.0000      -4.642605      -126.3317
  42   2.0000      -4.641154      -126.2922
  43   2.0000      -0.984954       -26.8020
  44   2.0000      -0.984077       -26.7781
  45   2.0000      -0.944193       -25.6928
  46   2.0000      -0.942422       -25.6446
  47   2.0000      -0.763593       -20.7784
  48   2.0000      -0.719145       -19.5689
  49   2.0000      -0.705933       -19.2094
  50   2.0000      -0.685903       -18.6644
  51   2.0000      -0.684189       -18.6177
  52   2.0000      -0.671229       -18.2651
  53   2.0000      -0.650352       -17.6970
  54   2.0000      -0.637815       -17.3558
  55   2.0000      -0.600876       -16.3507
  56   2.0000      -0.590899       -16.0792
  57   2.0000      -0.573783       -15.6134
  58   2.0000      -0.569721       -15.5029
  59   2.0000      -0.559219       -15.2171
  60   2.0000      -0.499595       -13.5947
  61   2.0000      -0.490152       -13.3377
  62   2.0000      -0.471177       -12.8214
  63   2.0000      -0.468358       -12.7447
  64   2.0000      -0.456843       -12.4313
  65   2.0000      -0.440531       -11.9875
  66   2.0000      -0.438442       -11.9306
  67   2.0000      -0.435508       -11.8508
  68   2.0000      -0.424835       -11.5603
  69   2.0000      -0.414974       -11.2920
  70   2.0000      -0.409678       -11.1479
  71   2.0000      -0.396067       -10.7775
  72   2.0000      -0.390284       -10.6202
  73   2.0000      -0.383865       -10.4455
  74   2.0000      -0.380445       -10.3524
  75   2.0000      -0.376525       -10.2458
  76   2.0000      -0.370519       -10.0823
  77   2.0000      -0.358744        -9.7619
  78   2.0000      -0.353298        -9.6137
  79   2.0000      -0.351443        -9.5633
  80   2.0000      -0.345901        -9.4124
  81   2.0000      -0.344057        -9.3623
  82   2.0000      -0.341946        -9.3048
  83   2.0000      -0.338042        -9.1986
  84   2.0000      -0.330525        -8.9940
  85   2.0000      -0.318176        -8.6580
  86   2.0000      -0.302304        -8.2261
  87   2.0000      -0.295794        -8.0490
  88   2.0000      -0.294405        -8.0112
  89   2.0000      -0.285883        -7.7793
  90   2.0000      -0.279791        -7.6135
  91   2.0000      -0.275466        -7.4958
  92   2.0000      -0.269649        -7.3375
  93   2.0000      -0.263168        -7.1612
  94   2.0000      -0.258667        -7.0387
  95   2.0000      -0.234114        -6.3706
  96   2.0000      -0.216659        -5.8956
  97   2.0000      -0.208523        -5.6742
  98   2.0000      -0.204611        -5.5678
  99   2.0000      -0.195915        -5.3311
 100   2.0000      -0.190623        -5.1871
 101   0.0000      -0.047396        -1.2897
 102   0.0000      -0.022978        -0.6253
 103   0.0000      -0.017323        -0.4714
 104   0.0000       0.004948         0.1347
 105   0.0000       0.019842         0.5399

MULLIKEN ATOMIC CHARGES
-----------------------
   0 C :   -0.339339
   1 C :   -0.000592
   2 O :   -0.369387
   3 P :    0.611628
   4 S :   -0.316383
   5 O :   -0.378918
   6 C :    0.000071
   7 C :   -0.299851
   8 S :   -0.094504
   9 C :   -0.344480
  10 S :   -0.079823
  11 P :    0.619738
  12 S :   -0.342227
  13 O :   -0.344825
  14 C :   -0.013391
  15 C :   -0.302086
  16 O :   -0.368424
  17 C :   -0.004538
  18 C :   -0.315353
  19 H :    0.114889
  20 H :    0.123565
  21 H :    0.138751
  22 H :    0.107829
  23 H :    0.104574
  24 H :    0.107241
  25 H :    0.106114
  26 H :    0.109179
  27 H :    0.137233
  28 H :    0.109198
  29 H :    0.187779
  30 H :    0.190560
  31 H :    0.112572
  32 H :    0.110606
  33 H :    0.119335
  34 H :    0.118511
  35 H :    0.109281
  36 H :    0.106665
  37 H :    0.111107
  38 H :    0.125174
  39 H :    0.119176
  40 H :    0.113344
Sum of atomic charges:   -0.0000000

LOEWDIN ATOMIC CHARGES
----------------------
   0 C :   -0.370868
   1 C :   -0.123196
   2 O :   -0.248282
   3 P :    0.568988
   4 S :   -0.310835
   5 O :   -0.244550
   6 C :   -0.111931
   7 C :   -0.363892
   8 S :    0.086542
   9 C :   -0.476947
  10 S :    0.102972
  11 P :    0.575701
  12 S :   -0.329062
  13 O :   -0.227754
  14 C :   -0.118112
  15 C :   -0.365639
  16 O :   -0.240692
  17 C :   -0.118880
  18 C :   -0.369470
  19 H :    0.131924
  20 H :    0.126898
  21 H :    0.120138
  22 H :    0.107183
  23 H :    0.118534
  24 H :    0.118873
  25 H :    0.111250
  26 H :    0.129510
  27 H :    0.126690
  28 H :    0.120800
  29 H :    0.133232
  30 H :    0.130212
  31 H :    0.117629
  32 H :    0.109561
  33 H :    0.120284
  34 H :    0.127333
  35 H :    0.129277
  36 H :    0.119453
  37 H :    0.110467
  38 H :    0.120503
  39 H :    0.124958
  40 H :    0.131197

  Mayer bond orders larger than 0.100000
B(  0-C ,  1-C ) :   1.1603 B(  0-C , 19-H ) :   0.9388 B(  0-C , 20-H ) :   0.9435
B(  0-C , 21-H ) :   0.9293 B(  1-C ,  2-O ) :   0.9170 B(  1-C , 22-H ) :   0.9101
B(  1-C , 23-H ) :   0.9323 B(  2-O ,  3-P ) :   1.0996 B(  3-P ,  4-S ) :   1.6216
B(  3-P ,  5-O ) :   1.1146 B(  3-P ,  8-S ) :   0.9495 B(  4-S ,  8-S ) :   0.1086
B(  5-O ,  6-C ) :   0.8857 B(  6-C ,  7-C ) :   1.1712 B(  6-C , 24-H ) :   0.9340
B(  6-C , 25-H ) :   0.9127 B(  7-C , 26-H ) :   0.9389 B(  7-C , 27-H ) :   0.9344
B(  7-C , 28-H ) :   0.9461 B(  8-S ,  9-C ) :   1.0016 B(  9-C , 10-S ) :   1.0114
B(  9-C , 29-H ) :   0.9008 B(  9-C , 30-H ) :   0.8814 B( 10-S , 11-P ) :   0.9523
B( 10-S , 12-S ) :   0.1082 B( 11-P , 12-S ) :   1.5814 B( 11-P , 13-O ) :   1.1463
B( 11-P , 16-O ) :   1.1126 B( 13-O , 14-C ) :   0.9077 B( 14-C , 15-C ) :   1.1624
B( 14-C , 31-H ) :   0.9250 B( 14-C , 32-H ) :   0.9197 B( 15-C , 33-H ) :   0.9351
B( 15-C , 34-H ) :   0.9448 B( 15-C , 35-H ) :   0.9392 B( 16-O , 17-C ) :   0.9079
B( 17-C , 18-C ) :   1.1663 B( 17-C , 36-H ) :   0.9337 B( 17-C , 37-H ) :   0.9156
B( 18-C , 38-H ) :   0.9355 B( 18-C , 39-H ) :   0.9447 B( 18-C , 40-H ) :   0.9379

Dispersion correction           -0.067879001
FINAL SINGLE POINT ENERGY     -2929.521120085876

DIPOLE MOMENT
-------------

Method             : SCF
Type of density    : Electron Density
Multiplicity       :   1
Irrep              :   0
Energy             : -2929.6377207209834523 Eh
Relativity type    :
Basis              : AO
                                X                 Y                 Z
Electronic contribution:      3.621231259      -4.216313412      -4.486294328
Nuclear contribution   :     -3.411585965       4.057177390       4.871757118
                        -----------------------------------------
Total Dipole Moment    :      0.209645294      -0.159136022       0.385462790
                        -----------------------------------------
Magnitude (a.u.)       :      0.466751524
Magnitude (Debye)      :      1.186388091

Rotational constants in cm-1:             0.011664             0.005817             0.004911
Rotational constants in MHz :           349.683036           174.396598           147.240762

                             ****ORCA TERMINATED NORMALLY****
TOTAL RUN TIME: 0 days 0 hours 0 minutes 21 seconds 409 msec
