                         Program Version 6.0.1  -  RELEASE   -
|  1> ! pbe def2-sv(p) def2/J RI DEFGRID1 loosescf d4 GCP(DFT/SV(P)) printgap
|  2> %output
|  3>     printlevel normal
|  4> end
|  5> * xyz 0 1
|  6> C 1.9234087826 -3.7729671191 0.341677427
|  7> C 2.7362934465 -2.4945529785 0.4331290613
|  8> O 2.4451260544 -1.6796386706 -0.7187066301
|  9> C 2.150254087 -0.4121461751 -0.5679407457
| 10> O 2.1266723156 0.1873642332 0.4898168617
| 11> C 1.8222460807 0.2619149476 -1.8868986301
| 12> C 0.4725429767 0.9740680654 -1.7631207041
| 13> H 0.3309072698 1.6564455835 -2.6040600617
| 14> C 0.3867865152 1.7523600299 -0.467131476
| 15> O -0.4663707579 1.5150203358 0.3767571293
| 16> O 1.2493063598 2.7147063327 -0.393671334
| 17> C 1.3177209329 3.4763721865 0.8334634826
| 18> C 2.3473059495 4.5706867688 0.6413857123
| 19> S -0.9309414446 -0.1960885503 -1.8288523091
| 20> P -1.5604895433 -0.5433116922 0.1644386941
| 21> S -0.5126945636 -1.1063445814 1.7357673272
| 22> O -2.8514236215 0.3452995925 0.5076768729
| 23> C -2.9408598497 1.3199108603 1.5440073276
| 24> O -2.3404228432 -1.8256829313 -0.4414923489
| 25> C -3.1401719695 -2.6788064075 0.3758267681
| 26> H 2.1213005935 -4.274366711 -0.6008450842
| 27> H 2.1893859991 -4.4258167108 1.1659820493
| 28> H 0.8621016061 -3.5424131116 0.4062768108
| 29> H 3.8086701607 -2.7018222284 0.4061382134
| 30> H 2.4880038646 -1.9288843381 1.336227458
| 31> H 1.7888395076 -0.4762086166 -2.6856424354
| 32> H 2.5967513006 1.0041834763 -2.088858037
| 33> H 0.3232660254 3.8796300938 1.0457275853
| 34> H 1.5942337842 2.7832554075 1.6339447252
| 35> H 2.4121679984 5.16032549 1.5495604793
| 36> H 3.3182508053 4.1342733954 0.429476213
| 37> H 2.0596195283 5.2137382066 -0.1846759943
| 38> H -2.1949757003 1.1200807228 2.3152527559
| 39> H -3.9451297731 1.2328926127 1.9538598274
| 40> H -2.7797939312 2.3110728435 1.1243566486
| 41> H -3.2790076204 -3.5928867653 -0.1963615571
| 42> H -4.0996034408 -2.2050362009 0.5818870506
| 43> H -2.6231232903 -2.8908614608 1.3149344541
| 44> *
| 45>
| 46>                          ****END OF INPUT****

CARTESIAN COORDINATES (ANGSTROEM)
---------------------------------
  C      1.923409   -3.772967    0.341677
  C      2.736293   -2.494553    0.433129
  O      2.445126   -1.679639   -0.718707
  C      2.150254   -0.412146   -0.567941
  O      2.126672    0.187364    0.489817
  C      1.822246    0.261915   -1.886899
  C      0.472543    0.974068   -1.763121
  H      0.330907    1.656446   -2.604060
  C      0.386787    1.752360   -0.467131
  O     -0.466371    1.515020    0.376757
  O      1.249306    2.714706   -0.393671
  C      1.317721    3.476372    0.833463
  C      2.347306    4.570687    0.641386
  S     -0.930941   -0.196089   -1.828852
  P     -1.560490   -0.543312    0.164439
  S     -0.512695   -1.106345    1.735767
  O     -2.851424    0.345300    0.507677
  C     -2.940860    1.319911    1.544007
  O     -2.340423   -1.825683   -0.441492
  C     -3.140172   -2.678806    0.375827
  H      2.121301   -4.274367   -0.600845
  H      2.189386   -4.425817    1.165982
  H      0.862102   -3.542413    0.406277
  H      3.808670   -2.701822    0.406138
  H      2.488004   -1.928884    1.336227
  H      1.788840   -0.476209   -2.685642
  H      2.596751    1.004183   -2.088858
  H      0.323266    3.879630    1.045728
  H      1.594234    2.783255    1.633945
  H      2.412168    5.160325    1.549560
  H      3.318251    4.134273    0.429476
  H      2.059620    5.213738   -0.184676
  H     -2.194976    1.120081    2.315253
  H     -3.945130    1.232893    1.953860
  H     -2.779794    2.311073    1.124357
  H     -3.279008   -3.592887   -0.196362
  H     -4.099603   -2.205036    0.581887
  H     -2.623123   -2.890861    1.314934

 Total Charge           Charge          ....    0
 Multiplicity           Mult            ....    1
 Number of Electrons    NEL             ....  174
 Basis Dimension        Dim             ....  316

ORBITAL ENERGIES
----------------

  NO   OCC          E(Eh)            E(eV)
   0   2.0000     -88.030368     -2395.4281
   1   2.0000     -87.959772     -2393.5071
   2   2.0000     -76.412985     -2079.3030
   3   2.0000     -18.822792      -512.1942
   4   2.0000     -18.805484      -511.7232
   5   2.0000     -18.771349      -510.7944
   6   2.0000     -18.767962      -510.7022
   7   2.0000     -18.760312      -510.4940
   8   2.0000     -18.738766      -509.9078
   9   2.0000     -10.034943      -273.0647
  10   2.0000     -10.013322      -272.4764
  11   2.0000      -9.957959      -270.9698
  12   2.0000      -9.954056      -270.8636
  13   2.0000      -9.938467      -270.4394
  14   2.0000      -9.926534      -270.1147
  15   2.0000      -9.922087      -269.9937
  16   2.0000      -9.916742      -269.8483
  17   2.0000      -9.896753      -269.3043
  18   2.0000      -9.873640      -268.6754
  19   2.0000      -7.675414      -208.8586
  20   2.0000      -7.604933      -206.9407
  21   2.0000      -6.407524      -174.3576
  22   2.0000      -5.703921      -155.2116
  23   2.0000      -5.699712      -155.0971
  24   2.0000      -5.691932      -154.8854
  25   2.0000      -5.634071      -153.3109
  26   2.0000      -5.625691      -153.0828
  27   2.0000      -5.624635      -153.0541
  28   2.0000      -4.630458      -126.0012
  29   2.0000      -4.629580      -125.9773
  30   2.0000      -4.628064      -125.9360
  31   2.0000      -1.036810       -28.2130
  32   2.0000      -1.011211       -27.5164
  33   2.0000      -0.960119       -26.1262
  34   2.0000      -0.941180       -25.6108
  35   2.0000      -0.918020       -24.9806
  36   2.0000      -0.914411       -24.8824
  37   2.0000      -0.767924       -20.8963
  38   2.0000      -0.719379       -19.5753
  39   2.0000      -0.705923       -19.2091
  40   2.0000      -0.684421       -18.6241
  41   2.0000      -0.647624       -17.6227
  42   2.0000      -0.623074       -16.9547
  43   2.0000      -0.610914       -16.6238
  44   2.0000      -0.607326       -16.5262
  45   2.0000      -0.586476       -15.9588
  46   2.0000      -0.558970       -15.2104
  47   2.0000      -0.522282       -14.2120
  48   2.0000      -0.501438       -13.6448
  49   2.0000      -0.500602       -13.6221
  50   2.0000      -0.491094       -13.3634
  51   2.0000      -0.464208       -12.6317
  52   2.0000      -0.461643       -12.5619
  53   2.0000      -0.451904       -12.2969
  54   2.0000      -0.445806       -12.1310
  55   2.0000      -0.429309       -11.6821
  56   2.0000      -0.418923       -11.3995
  57   2.0000      -0.409853       -11.1527
  58   2.0000      -0.406542       -11.0626
  59   2.0000      -0.402344       -10.9483
  60   2.0000      -0.395307       -10.7569
  61   2.0000      -0.391423       -10.6512
  62   2.0000      -0.382967       -10.4211
  63   2.0000      -0.376237       -10.2379
  64   2.0000      -0.370753       -10.0887
  65   2.0000      -0.367913       -10.0114
  66   2.0000      -0.362328        -9.8595
  67   2.0000      -0.353120        -9.6089
  68   2.0000      -0.345668        -9.4061
  69   2.0000      -0.337100        -9.1730
  70   2.0000      -0.332357        -9.0439
  71   2.0000      -0.330401        -8.9907
  72   2.0000      -0.320217        -8.7135
  73   2.0000      -0.312366        -8.4999
  74   2.0000      -0.296452        -8.0669
  75   2.0000      -0.289474        -7.8770
  76   2.0000      -0.286442        -7.7945
  77   2.0000      -0.282671        -7.6919
  78   2.0000      -0.267726        -7.2852
  79   2.0000      -0.258001        -7.0206
  80   2.0000      -0.255613        -6.9556
  81   2.0000      -0.250291        -6.8108
  82   2.0000      -0.240008        -6.5310
  83   2.0000      -0.227535        -6.1915
  84   2.0000      -0.209617        -5.7040
  85   2.0000      -0.179580        -4.8866
  86   2.0000      -0.172133        -4.6840
  87   0.0000      -0.044893        -1.2216
  88   0.0000      -0.035610        -0.9690
  89   0.0000      -0.026396        -0.7183
  90   0.0000       0.010498         0.2857
  91   0.0000       0.033305         0.9063

MULLIKEN ATOMIC CHARGES
-----------------------
   0 C :   -0.288343
   1 C :   -0.029677
   2 O :   -0.215394
   3 C :    0.100566
   4 O :   -0.194280
   5 C :   -0.035147
   6 C :   -0.305443
   7 H :    0.148118
   8 C :    0.240121
   9 O :   -0.221388
  10 O :   -0.213853
  11 C :   -0.032960
  12 C :   -0.277375
  13 S :   -0.078325
  14 P :    0.665337
  15 S :   -0.340455
  16 O :   -0.395046
  17 C :   -0.084274
  18 O :   -0.410260
  19 C :   -0.092016
  20 H :    0.106180
  21 H :    0.105819
  22 H :    0.126979
  23 H :    0.098681
  24 H :    0.131557
  25 H :    0.118265
  26 H :    0.123212
  27 H :    0.110094
  28 H :    0.132333
  29 H :    0.116631
  30 H :    0.122132
  31 H :    0.115160
  32 H :    0.115234
  33 H :    0.111808
  34 H :    0.102361
  35 H :    0.114285
  36 H :    0.103140
  37 H :    0.106223
Sum of atomic charges:   -0.0000000

LOEWDIN ATOMIC CHARGES
----------------------
   0 C :   -0.354953
   1 C :   -0.110527
   2 O :   -0.040743
   3 C :    0.029324
   4 O :   -0.155249
   5 C :   -0.246580
   6 C :   -0.263134
   7 H :    0.147797
   8 C :    0.034172
   9 O :   -0.146932
  10 O :   -0.030763
  11 C :   -0.101136
  12 C :   -0.350139
  13 S :    0.118471
  14 P :    0.584854
  15 S :   -0.332600
  16 O :   -0.258638
  17 C :   -0.214742
  18 O :   -0.282261
  19 C :   -0.218294
  20 H :    0.121743
  21 H :    0.128496
  22 H :    0.126364
  23 H :    0.114012
  24 H :    0.124373
  25 H :    0.137085
  26 H :    0.145646
  27 H :    0.117966
  28 H :    0.130869
  29 H :    0.134108
  30 H :    0.130124
  31 H :    0.126618
  32 H :    0.108236
  33 H :    0.113601
  34 H :    0.106400
  35 H :    0.116619
  36 H :    0.106827
  37 H :    0.102986

  Mayer bond orders larger than 0.100000
B(  0-C ,  1-C ) :   1.1738 B(  0-C , 20-H ) :   0.9482 B(  0-C , 21-H ) :   0.9434
B(  0-C , 22-H ) :   0.9345 B(  1-C ,  2-O ) :   0.8944 B(  1-C , 23-H ) :   0.9342
B(  1-C , 24-H ) :   0.9041 B(  2-O ,  3-C ) :   1.2743 B(  2-O ,  4-O ) :   0.1042
B(  3-C ,  4-O ) :   1.9717 B(  3-C ,  5-C ) :   0.9889 B(  4-O ,  8-C ) :   0.1165
B(  5-C ,  6-C ) :   1.0208 B(  5-C , 25-H ) :   0.9052 B(  5-C , 26-H ) :   0.8783
B(  6-C ,  7-H ) :   0.8757 B(  6-C ,  8-C ) :   0.9199 B(  6-C , 13-S ) :   1.0418
B(  8-C ,  9-O ) :   1.8302 B(  8-C , 10-O ) :   1.2871 B(  9-O , 14-P ) :   0.1862
B( 10-O , 11-C ) :   0.8856 B( 11-C , 12-C ) :   1.1569 B( 11-C , 27-H ) :   0.9315
B( 11-C , 28-H ) :   0.9250 B( 12-C , 29-H ) :   0.9423 B( 12-C , 30-H ) :   0.9490
B( 12-C , 31-H ) :   0.9505 B( 13-S , 14-P ) :   0.9275 B( 13-S , 15-S ) :   0.1087
B( 14-P , 15-S ) :   1.5585 B( 14-P , 16-O ) :   1.0740 B( 14-P , 18-O ) :   1.0317
B( 16-O , 17-C ) :   0.9389 B( 17-C , 32-H ) :   0.9312 B( 17-C , 33-H ) :   0.9547
B( 17-C , 34-H ) :   0.9548 B( 18-O , 19-C ) :   0.9480 B( 19-C , 35-H ) :   0.9610
B( 19-C , 36-H ) :   0.9523 B( 19-C , 37-H ) :   0.9282

Dispersion correction           -0.053793766
FINAL SINGLE POINT ENERGY     -1979.007568317360

DIPOLE MOMENT
-------------

Method             : SCF
Type of density    : Electron Density
Multiplicity       :   1
Irrep              :   0
Energy             : -1979.1376588483508385 Eh
Relativity type    :
Basis              : AO
                                X                 Y                 Z
Electronic contribution:     -7.256794606      -1.710192896      -6.675678447
Nuclear contribution   :      7.979314817       2.847425146       6.329473878
                        -----------------------------------------
Total Dipole Moment    :      0.722520211       1.137232251      -0.346204569
                        -----------------------------------------
Magnitude (a.u.)       :      1.391111157
Magnitude (Debye)      :      3.535923557

Rotational constants in cm-1:             0.011589             0.009189             0.006705
Rotational constants in MHz :           347.439785           275.466116           201.009581

                             ****ORCA TERMINATED NORMALLY****
TOTAL RUN TIME: 0 days 0 hours 0 minutes 36 seconds 571 msec
