                         Program Version 6.0.0  -   RELEASE  -
|  1> ! pbe def2-sv(p) def2/J RI DEFGRID1 loosescf d4 GCP(DFT/SV(P)) printgap
|  2> %output
|  3>     printlevel normal
|  4> end
|  5> * xyz 0 1
|  6> C 2.7739188306 0.208221844 -2.8703757096
|  7> C 3.5702994659 0.9208106798 -1.7940887725
|  8> O 3.6432100659 0.1580122516 -0.5827682353
|  9> P 2.4165926388 -0.0360494544 0.4051967957
| 10> S 1.2016284589 1.5081127834 0.4497131112
| 11> O 3.3013822936 -0.2924667264 1.6890085812
| 12> C 2.8757132332 -1.0004287711 2.8693377013
| 13> C 1.5567717055 -0.4925792209 3.4155069513
| 14> S 1.6313819744 -1.9752102921 -0.0114587978
| 15> C -0.0061748289 -1.6218816944 -0.6928613917
| 16> S -1.1815634024 -0.9734433868 0.5397284928
| 17> P -2.1944856489 0.3994367696 -0.7359581511
| 18> S -1.1835425062 1.0965669206 -2.2587117777
| 19> O -2.8686806848 1.4545375681 0.2396603738
| 20> C -2.1742070886 2.4745957224 0.9816112577
| 21> C -1.9566793394 2.0391303767 2.4169271255
| 22> O -3.4638355726 -0.372738968 -1.2617293554
| 23> C -4.4153145711 -1.0401222943 -0.391395051
| 24> C -4.2898818681 -2.543314776 -0.5401626882
| 25> H 2.9183571976 0.7130009388 -3.8201873991
| 26> H 3.0994115745 -0.8254122546 -2.9581620539
| 27> H 1.7102831047 0.2344347767 -2.63325491
| 28> H 3.1279290562 1.8985772595 -1.5748253619
| 29> H 4.6139516938 1.0457143362 -2.0862276978
| 30> H 2.8122325742 -2.06452545 2.6259510877
| 31> H 3.6911799079 -0.8310677775 3.5747534233
| 32> H 0.7501801867 -0.7088432383 2.7145952494
| 33> H 1.3426200851 -0.9851029639 4.3584626451
| 34> H 1.602679298 0.5828692146 3.5722306479
| 35> H -0.3678986081 -2.5783891876 -1.0621395407
| 36> H 0.0639973864 -0.8890488343 -1.500872027
| 37> H -1.2236660487 2.7009867662 0.4900136854
| 38> H -2.8275939762 3.3473744276 0.9254393806
| 39> H -2.9034944311 1.7657893 2.8736111259
| 40> H -1.281929061 1.1875640461 2.4552600601
| 41> H -1.511997141 2.8609664795 2.9682666669
| 42> H -4.2422875689 -0.7248849604 0.6394953323
| 43> H -5.392520564 -0.6868998823 -0.7236311742
| 44> H -3.3340637968 -2.8870216358 -0.1527603869
| 45> H -5.0892177599 -3.0213937951 0.0170150164
| 46> H -4.3683360856 -2.8196509545 -1.5879729796
| 47> *
| 48>
| 49>                          ****END OF INPUT****

CARTESIAN COORDINATES (ANGSTROEM)
---------------------------------
  C      2.773919    0.208222   -2.870376
  C      3.570299    0.920811   -1.794089
  O      3.643210    0.158012   -0.582768
  P      2.416593   -0.036049    0.405197
  S      1.201628    1.508113    0.449713
  O      3.301382   -0.292467    1.689009
  C      2.875713   -1.000429    2.869338
  C      1.556772   -0.492579    3.415507
  S      1.631382   -1.975210   -0.011459
  C     -0.006175   -1.621882   -0.692861
  S     -1.181563   -0.973443    0.539728
  P     -2.194486    0.399437   -0.735958
  S     -1.183543    1.096567   -2.258712
  O     -2.868681    1.454538    0.239660
  C     -2.174207    2.474596    0.981611
  C     -1.956679    2.039130    2.416927
  O     -3.463836   -0.372739   -1.261729
  C     -4.415315   -1.040122   -0.391395
  C     -4.289882   -2.543315   -0.540163
  H      2.918357    0.713001   -3.820187
  H      3.099412   -0.825412   -2.958162
  H      1.710283    0.234435   -2.633255
  H      3.127929    1.898577   -1.574825
  H      4.613952    1.045714   -2.086228
  H      2.812233   -2.064525    2.625951
  H      3.691180   -0.831068    3.574753
  H      0.750180   -0.708843    2.714595
  H      1.342620   -0.985103    4.358463
  H      1.602679    0.582869    3.572231
  H     -0.367899   -2.578389   -1.062140
  H      0.063997   -0.889049   -1.500872
  H     -1.223666    2.700987    0.490014
  H     -2.827594    3.347374    0.925439
  H     -2.903494    1.765789    2.873611
  H     -1.281929    1.187564    2.455260
  H     -1.511997    2.860966    2.968267
  H     -4.242288   -0.724885    0.639495
  H     -5.392521   -0.686900   -0.723631
  H     -3.334064   -2.887022   -0.152760
  H     -5.089218   -3.021394    0.017015
  H     -4.368336   -2.819651   -1.587973

 Total Charge           Charge          ....    0
 Multiplicity           Mult            ....    1
 Number of Electrons    NEL             ....  202
 Basis Dimension        Dim             ....  334

ORBITAL ENERGIES
----------------

  NO   OCC          E(Eh)            E(eV)
   0   2.0000     -88.049051     -2395.9365
   1   2.0000     -88.044018     -2395.7995
   2   2.0000     -87.984553     -2394.1814
   3   2.0000     -87.982474     -2394.1248
   4   2.0000     -76.425891     -2079.6542
   5   2.0000     -76.425043     -2079.6311
   6   2.0000     -18.793821      -511.4059
   7   2.0000     -18.788430      -511.2592
   8   2.0000     -18.787531      -511.2347
   9   2.0000     -18.782039      -511.0853
  10   2.0000      -9.957688      -270.9625
  11   2.0000      -9.956393      -270.9272
  12   2.0000      -9.956110      -270.9195
  13   2.0000      -9.950948      -270.7791
  14   2.0000      -9.944486      -270.6032
  15   2.0000      -9.887568      -269.0544
  16   2.0000      -9.883416      -268.9414
  17   2.0000      -9.882522      -268.9171
  18   2.0000      -9.876662      -268.7576
  19   2.0000      -7.693837      -209.3600
  20   2.0000      -7.688197      -209.2065
  21   2.0000      -7.629189      -207.6008
  22   2.0000      -7.627666      -207.5593
  23   2.0000      -6.422712      -174.7709
  24   2.0000      -6.422488      -174.7648
  25   2.0000      -5.721696      -155.6953
  26   2.0000      -5.718143      -155.5986
  27   2.0000      -5.715988      -155.5400
  28   2.0000      -5.712915      -155.4563
  29   2.0000      -5.711095      -155.4068
  30   2.0000      -5.705166      -155.2455
  31   2.0000      -5.658074      -153.9640
  32   2.0000      -5.656683      -153.9262
  33   2.0000      -5.649724      -153.7368
  34   2.0000      -5.649528      -153.7315
  35   2.0000      -5.648355      -153.6996
  36   2.0000      -5.647597      -153.6789
  37   2.0000      -4.645258      -126.4039
  38   2.0000      -4.645058      -126.3985
  39   2.0000      -4.644821      -126.3920
  40   2.0000      -4.644307      -126.3780
  41   2.0000      -4.643143      -126.3463
  42   2.0000      -4.642730      -126.3351
  43   2.0000      -0.986885       -26.8545
  44   2.0000      -0.984929       -26.8013
  45   2.0000      -0.942460       -25.6456
  46   2.0000      -0.940252       -25.5856
  47   2.0000      -0.762636       -20.7524
  48   2.0000      -0.720821       -19.6145
  49   2.0000      -0.711454       -19.3596
  50   2.0000      -0.689014       -18.7490
  51   2.0000      -0.681445       -18.5431
  52   2.0000      -0.677108       -18.4250
  53   2.0000      -0.651847       -17.7377
  54   2.0000      -0.635072       -17.2812
  55   2.0000      -0.596670       -16.2362
  56   2.0000      -0.589812       -16.0496
  57   2.0000      -0.574320       -15.6280
  58   2.0000      -0.570131       -15.5140
  59   2.0000      -0.563409       -15.3311
  60   2.0000      -0.504830       -13.7371
  61   2.0000      -0.492446       -13.4001
  62   2.0000      -0.477760       -13.0005
  63   2.0000      -0.461258       -12.5515
  64   2.0000      -0.454439       -12.3659
  65   2.0000      -0.451746       -12.2926
  66   2.0000      -0.439705       -11.9650
  67   2.0000      -0.433186       -11.7876
  68   2.0000      -0.424289       -11.5455
  69   2.0000      -0.418643       -11.3919
  70   2.0000      -0.413829       -11.2609
  71   2.0000      -0.405265       -11.0278
  72   2.0000      -0.398826       -10.8526
  73   2.0000      -0.381306       -10.3759
  74   2.0000      -0.379242       -10.3197
  75   2.0000      -0.372527       -10.1370
  76   2.0000      -0.364678        -9.9234
  77   2.0000      -0.357609        -9.7310
  78   2.0000      -0.351888        -9.5754
  79   2.0000      -0.349379        -9.5071
  80   2.0000      -0.347041        -9.4435
  81   2.0000      -0.342779        -9.3275
  82   2.0000      -0.338442        -9.2095
  83   2.0000      -0.337382        -9.1806
  84   2.0000      -0.329583        -8.9684
  85   2.0000      -0.316049        -8.6001
  86   2.0000      -0.312057        -8.4915
  87   2.0000      -0.298836        -8.1318
  88   2.0000      -0.296381        -8.0649
  89   2.0000      -0.291707        -7.9378
  90   2.0000      -0.282811        -7.6957
  91   2.0000      -0.274328        -7.4648
  92   2.0000      -0.269704        -7.3390
  93   2.0000      -0.262934        -7.1548
  94   2.0000      -0.256926        -6.9913
  95   2.0000      -0.241093        -6.5605
  96   2.0000      -0.222745        -6.0612
  97   2.0000      -0.211899        -5.7661
  98   2.0000      -0.201206        -5.4751
  99   2.0000      -0.192306        -5.2329
 100   2.0000      -0.185548        -5.0490
 101   0.0000      -0.048237        -1.3126
 102   0.0000      -0.035359        -0.9622
 103   0.0000      -0.018292        -0.4977
 104   0.0000       0.000239         0.0065
 105   0.0000       0.018088         0.4922

MULLIKEN ATOMIC CHARGES
-----------------------
   0 C :   -0.343952
   1 C :    0.001665
   2 O :   -0.354695
   3 P :    0.601733
   4 S :   -0.328395
   5 O :   -0.356961
   6 C :    0.003456
   7 C :   -0.346216
   8 S :   -0.121385
   9 C :   -0.345045
  10 S :   -0.121044
  11 P :    0.607805
  12 S :   -0.296511
  13 O :   -0.378468
  14 C :   -0.012035
  15 C :   -0.315371
  16 O :   -0.358870
  17 C :   -0.008115
  18 C :   -0.288898
  19 H :    0.111077
  20 H :    0.114841
  21 H :    0.153572
  22 H :    0.114564
  23 H :    0.103325
  24 H :    0.111096
  25 H :    0.109723
  26 H :    0.150236
  27 H :    0.110193
  28 H :    0.127878
  29 H :    0.179363
  30 H :    0.213458
  31 H :    0.130250
  32 H :    0.106715
  33 H :    0.108729
  34 H :    0.145264
  35 H :    0.112581
  36 H :    0.102054
  37 H :    0.111914
  38 H :    0.115900
  39 H :    0.108642
  40 H :    0.119928
Sum of atomic charges:    0.0000000

LOEWDIN ATOMIC CHARGES
----------------------
   0 C :   -0.371419
   1 C :   -0.119290
   2 O :   -0.235763
   3 P :    0.563981
   4 S :   -0.301496
   5 O :   -0.233705
   6 C :   -0.114147
   7 C :   -0.375348
   8 S :    0.075446
   9 C :   -0.478561
  10 S :    0.070365
  11 P :    0.568856
  12 S :   -0.291515
  13 O :   -0.242287
  14 C :   -0.113476
  15 C :   -0.364670
  16 O :   -0.241696
  17 C :   -0.113214
  18 C :   -0.360305
  19 H :    0.131643
  20 H :    0.123883
  21 H :    0.121601
  22 H :    0.110759
  23 H :    0.118253
  24 H :    0.108113
  25 H :    0.121900
  26 H :    0.114513
  27 H :    0.129534
  28 H :    0.129406
  29 H :    0.135216
  30 H :    0.121129
  31 H :    0.109714
  32 H :    0.119659
  33 H :    0.122059
  34 H :    0.123261
  35 H :    0.132338
  36 H :    0.106354
  37 H :    0.122213
  38 H :    0.118475
  39 H :    0.129257
  40 H :    0.128968

  Mayer bond orders larger than 0.100000
B(  0-C ,  1-C ) :   1.1592 B(  0-C , 19-H ) :   0.9369 B(  0-C , 20-H ) :   0.9455
B(  0-C , 21-H ) :   0.9205 B(  1-C ,  2-O ) :   0.9179 B(  1-C , 22-H ) :   0.9133
B(  1-C , 23-H ) :   0.9338 B(  2-O ,  3-P ) :   1.1240 B(  3-P ,  4-S ) :   1.6359
B(  3-P ,  5-O ) :   1.1341 B(  3-P ,  8-S ) :   0.9235 B(  4-S ,  8-S ) :   0.1242
B(  5-O ,  6-C ) :   0.9171 B(  6-C ,  7-C ) :   1.1627 B(  6-C , 24-H ) :   0.9249
B(  6-C , 25-H ) :   0.9336 B(  7-C , 26-H ) :   0.9220 B(  7-C , 27-H ) :   0.9342
B(  7-C , 28-H ) :   0.9410 B(  8-S ,  9-C ) :   1.0090 B(  9-C , 10-S ) :   0.9926
B(  9-C , 29-H ) :   0.9067 B(  9-C , 30-H ) :   0.8380 B( 10-S , 11-P ) :   0.9301
B( 10-S , 12-S ) :   0.1150 B( 11-P , 12-S ) :   1.6467 B( 11-P , 13-O ) :   1.1106
B( 11-P , 16-O ) :   1.1326 B( 12-S , 30-H ) :   0.1123 B( 13-O , 14-C ) :   0.8959
B( 14-C , 15-C ) :   1.1699 B( 14-C , 31-H ) :   0.9058 B( 14-C , 32-H ) :   0.9338
B( 15-C , 33-H ) :   0.9461 B( 15-C , 34-H ) :   0.9313 B( 15-C , 35-H ) :   0.9398
B( 16-O , 17-C ) :   0.8916 B( 17-C , 18-C ) :   1.1630 B( 17-C , 36-H ) :   0.9177
B( 17-C , 37-H ) :   0.9344 B( 18-C , 38-H ) :   0.9383 B( 18-C , 39-H ) :   0.9401
B( 18-C , 40-H ) :   0.9464

Dispersion correction           -0.067028209
FINAL SINGLE POINT ENERGY     -2929.514092706416

DIPOLE MOMENT
-------------

Method             : SCF
Type of density    : Electron Density
Multiplicity       :   1
Irrep              :   0
Energy             : -2929.6312417536519206 Eh
Relativity type    :
Basis              : AO
                                X                 Y                 Z
Electronic contribution:      6.103812568       2.025828142      -7.843143943
Nuclear contribution   :     -6.592054947      -2.819657927       8.885350266
                        -----------------------------------------
Total Dipole Moment    :     -0.488242380      -0.793829785       1.042206323
                        -----------------------------------------
Magnitude (a.u.)       :      1.398120298
Magnitude (Debye)      :      3.553739378

Rotational constants in cm-1:             0.011205             0.005462             0.005142
Rotational constants in MHz :           335.907859           163.739726           154.153150

                             ****ORCA TERMINATED NORMALLY****
TOTAL RUN TIME: 0 days 0 hours 0 minutes 21 seconds 339 msec
