                         Program Version 6.0.0  -   RELEASE  -
|  1> ! pbe def2-sv(p) def2/J RI DEFGRID1 loosescf d4 GCP(DFT/SV(P)) printgap
|  2> %output
|  3>     printlevel normal
|  4> end
|  5> * xyz 0 1
|  6> C 3.8611179626 1.3628423516 -1.9583299833
|  7> C 2.4799457267 0.7780093972 -2.1604170501
|  8> O 2.2604513632 -0.3768907921 -1.3294523178
|  9> P 2.1154095618 -0.2840201773 0.2442465091
| 10> S 1.1991582635 1.3105090838 0.9413562139
| 11> O 3.6185872698 -0.4197326806 0.7411812836
| 12> C 4.0201793634 -0.0951229092 2.0829332634
| 13> C 3.4463851046 -1.0646114306 3.0958633827
| 14> S 1.3399989311 -2.2022059439 0.617148817
| 15> C -0.3039588533 -2.0675826046 -0.1348831027
| 16> S -1.5013267847 -1.1365765945 0.8685749462
| 17> P -1.9941025013 0.4376959142 -0.489296942
| 18> S -1.0266504891 0.4576266854 -2.1892527642
| 19> O -1.8173772856 1.8078176825 0.2545356993
| 20> C -2.330421653 2.0761205317 1.5826181339
| 21> C -3.5891646863 2.9140894268 1.5034977777
| 22> O -3.5844491454 0.3422350627 -0.5664353758
| 23> C -4.3424046453 -0.8487842984 -0.8406734848
| 24> C -4.0044806266 -1.4662320021 -2.1819471604
| 25> H 4.6152355568 0.5903924846 -2.0834797034
| 26> H 4.0245823276 2.1528616156 -2.684600044
| 27> H 3.9448466897 1.7798080832 -0.9554541812
| 28> H 2.3353753154 0.4005329502 -3.1737543811
| 29> H 1.7032645272 1.518533926 -1.9408129398
| 30> H 5.1093658989 -0.1419059682 2.0487034555
| 31> H 3.6955806508 0.9272746552 2.3030440975
| 32> H 3.6831322178 -2.0879355141 2.8156307396
| 33> H 3.8620266322 -0.8509926102 4.0753313695
| 34> H 2.3630193114 -0.9561177342 3.1399913821
| 35> H -0.6666919354 -3.088984586 -0.2153292079
| 36> H -0.2222894444 -1.5890197187 -1.1156466109
| 37> H -2.513302442 1.1261902756 2.0932013688
| 38> H -1.5186204969 2.6064471598 2.0854543029
| 39> H -3.3857356923 3.8384784691 0.9701051
| 40> H -4.3700262114 2.3707546509 0.9779067784
| 41> H -3.923956639 3.1453350523 2.5097033361
| 42> H -4.1668956617 -1.5611216233 -0.0292670886
| 43> H -5.3777453736 -0.5045567895 -0.8133699629
| 44> H -4.1157749658 -0.7315325825 -2.9758072958
| 45> H -2.9748751388 -1.820573783 -2.1881756974
| 46> H -4.6690779149 -2.3032054814 -2.3701458091
| 47> *
| 48>
| 49>                          ****END OF INPUT****

CARTESIAN COORDINATES (ANGSTROEM)
---------------------------------
  C      3.861118    1.362842   -1.958330
  C      2.479946    0.778009   -2.160417
  O      2.260451   -0.376891   -1.329452
  P      2.115410   -0.284020    0.244247
  S      1.199158    1.310509    0.941356
  O      3.618587   -0.419733    0.741181
  C      4.020179   -0.095123    2.082933
  C      3.446385   -1.064611    3.095863
  S      1.339999   -2.202206    0.617149
  C     -0.303959   -2.067583   -0.134883
  S     -1.501327   -1.136577    0.868575
  P     -1.994103    0.437696   -0.489297
  S     -1.026650    0.457627   -2.189253
  O     -1.817377    1.807818    0.254536
  C     -2.330422    2.076121    1.582618
  C     -3.589165    2.914089    1.503498
  O     -3.584449    0.342235   -0.566435
  C     -4.342405   -0.848784   -0.840673
  C     -4.004481   -1.466232   -2.181947
  H      4.615236    0.590392   -2.083480
  H      4.024582    2.152862   -2.684600
  H      3.944847    1.779808   -0.955454
  H      2.335375    0.400533   -3.173754
  H      1.703265    1.518534   -1.940813
  H      5.109366   -0.141906    2.048703
  H      3.695581    0.927275    2.303044
  H      3.683132   -2.087936    2.815631
  H      3.862027   -0.850993    4.075331
  H      2.363019   -0.956118    3.139991
  H     -0.666692   -3.088985   -0.215329
  H     -0.222289   -1.589020   -1.115647
  H     -2.513302    1.126190    2.093201
  H     -1.518620    2.606447    2.085454
  H     -3.385736    3.838478    0.970105
  H     -4.370026    2.370755    0.977907
  H     -3.923957    3.145335    2.509703
  H     -4.166896   -1.561122   -0.029267
  H     -5.377745   -0.504557   -0.813370
  H     -4.115775   -0.731533   -2.975807
  H     -2.974875   -1.820574   -2.188176
  H     -4.669078   -2.303205   -2.370146

 Total Charge           Charge          ....    0
 Multiplicity           Mult            ....    1
 Number of Electrons    NEL             ....  202
 Basis Dimension        Dim             ....  334

ORBITAL ENERGIES
----------------

  NO   OCC          E(Eh)            E(eV)
   0   2.0000     -88.042230     -2395.7509
   1   2.0000     -88.039569     -2395.6785
   2   2.0000     -87.983391     -2394.1498
   3   2.0000     -87.979787     -2394.0517
   4   2.0000     -76.424252     -2079.6096
   5   2.0000     -76.419943     -2079.4924
   6   2.0000     -18.789489      -511.2880
   7   2.0000     -18.787530      -511.2347
   8   2.0000     -18.786438      -511.2050
   9   2.0000     -18.781357      -511.0667
  10   2.0000      -9.955096      -270.8919
  11   2.0000      -9.954794      -270.8837
  12   2.0000      -9.953227      -270.8411
  13   2.0000      -9.949299      -270.7342
  14   2.0000      -9.938166      -270.4312
  15   2.0000      -9.884302      -268.9655
  16   2.0000      -9.883646      -268.9477
  17   2.0000      -9.882475      -268.9158
  18   2.0000      -9.875349      -268.7219
  19   2.0000      -7.686891      -209.1709
  20   2.0000      -7.685234      -209.1259
  21   2.0000      -7.628440      -207.5804
  22   2.0000      -7.624409      -207.4707
  23   2.0000      -6.421459      -174.7368
  24   2.0000      -6.417576      -174.6311
  25   2.0000      -5.714693      -155.5047
  26   2.0000      -5.713116      -155.4618
  27   2.0000      -5.711393      -155.4149
  28   2.0000      -5.709691      -155.3686
  29   2.0000      -5.704037      -155.2147
  30   2.0000      -5.702130      -155.1629
  31   2.0000      -5.657397      -153.9456
  32   2.0000      -5.653198      -153.8313
  33   2.0000      -5.649267      -153.7244
  34   2.0000      -5.648263      -153.6971
  35   2.0000      -5.645022      -153.6089
  36   2.0000      -5.644774      -153.6021
  37   2.0000      -4.644072      -126.3716
  38   2.0000      -4.643444      -126.3545
  39   2.0000      -4.641730      -126.3079
  40   2.0000      -4.640054      -126.2623
  41   2.0000      -4.639359      -126.2434
  42   2.0000      -4.638092      -126.2089
  43   2.0000      -0.985168       -26.8078
  44   2.0000      -0.980494       -26.6806
  45   2.0000      -0.940931       -25.6040
  46   2.0000      -0.939770       -25.5724
  47   2.0000      -0.759784       -20.6748
  48   2.0000      -0.718618       -19.5546
  49   2.0000      -0.706110       -19.2142
  50   2.0000      -0.688840       -18.7443
  51   2.0000      -0.682997       -18.5853
  52   2.0000      -0.671231       -18.2651
  53   2.0000      -0.648856       -17.6563
  54   2.0000      -0.635275       -17.2867
  55   2.0000      -0.596149       -16.2220
  56   2.0000      -0.587044       -15.9743
  57   2.0000      -0.572417       -15.5763
  58   2.0000      -0.566600       -15.4180
  59   2.0000      -0.563324       -15.3288
  60   2.0000      -0.502045       -13.6613
  61   2.0000      -0.486183       -13.2297
  62   2.0000      -0.472186       -12.8488
  63   2.0000      -0.467054       -12.7092
  64   2.0000      -0.450484       -12.2583
  65   2.0000      -0.444797       -12.1035
  66   2.0000      -0.437494       -11.9048
  67   2.0000      -0.433962       -11.8087
  68   2.0000      -0.426766       -11.6129
  69   2.0000      -0.414765       -11.2863
  70   2.0000      -0.408242       -11.1088
  71   2.0000      -0.405346       -11.0300
  72   2.0000      -0.385527       -10.4907
  73   2.0000      -0.383185       -10.4270
  74   2.0000      -0.379188       -10.3182
  75   2.0000      -0.373415       -10.1611
  76   2.0000      -0.358839        -9.7645
  77   2.0000      -0.355100        -9.6628
  78   2.0000      -0.351499        -9.5648
  79   2.0000      -0.348132        -9.4732
  80   2.0000      -0.343672        -9.3518
  81   2.0000      -0.343027        -9.3342
  82   2.0000      -0.339786        -9.2460
  83   2.0000      -0.335490        -9.1292
  84   2.0000      -0.329292        -8.9605
  85   2.0000      -0.317209        -8.6317
  86   2.0000      -0.308636        -8.3984
  87   2.0000      -0.295176        -8.0322
  88   2.0000      -0.291184        -7.9235
  89   2.0000      -0.284118        -7.7312
  90   2.0000      -0.276958        -7.5364
  91   2.0000      -0.273270        -7.4360
  92   2.0000      -0.265731        -7.2309
  93   2.0000      -0.260871        -7.0987
  94   2.0000      -0.256668        -6.9843
  95   2.0000      -0.238387        -6.4868
  96   2.0000      -0.219219        -5.9653
  97   2.0000      -0.204389        -5.5617
  98   2.0000      -0.200555        -5.4574
  99   2.0000      -0.192881        -5.2485
 100   2.0000      -0.188349        -5.1252
 101   0.0000      -0.038487        -1.0473
 102   0.0000      -0.029932        -0.8145
 103   0.0000      -0.011900        -0.3238
 104   0.0000       0.002649         0.0721
 105   0.0000       0.020423         0.5557

MULLIKEN ATOMIC CHARGES
-----------------------
   0 C :   -0.299669
   1 C :   -0.011830
   2 O :   -0.365904
   3 P :    0.612693
   4 S :   -0.328419
   5 O :   -0.372652
   6 C :   -0.002213
   7 C :   -0.322468
   8 S :   -0.083642
   9 C :   -0.351755
  10 S :   -0.112101
  11 P :    0.603850
  12 S :   -0.301654
  13 O :   -0.339894
  14 C :   -0.014946
  15 C :   -0.282885
  16 O :   -0.378534
  17 C :   -0.004554
  18 C :   -0.308316
  19 H :    0.113212
  20 H :    0.109897
  21 H :    0.118673
  22 H :    0.102183
  23 H :    0.127639
  24 H :    0.104611
  25 H :    0.109226
  26 H :    0.119644
  27 H :    0.113175
  28 H :    0.129994
  29 H :    0.180397
  30 H :    0.202654
  31 H :    0.103269
  32 H :    0.117063
  33 H :    0.121368
  34 H :    0.117795
  35 H :    0.108644
  36 H :    0.104315
  37 H :    0.105272
  38 H :    0.126131
  39 H :    0.120432
  40 H :    0.109296
Sum of atomic charges:    0.0000000

LOEWDIN ATOMIC CHARGES
----------------------
   0 C :   -0.364501
   1 C :   -0.122197
   2 O :   -0.236958
   3 P :    0.566851
   4 S :   -0.318319
   5 O :   -0.243458
   6 C :   -0.120696
   7 C :   -0.371610
   8 S :    0.091351
   9 C :   -0.482908
  10 S :    0.065722
  11 P :    0.570779
  12 S :   -0.284870
  13 O :   -0.222225
  14 C :   -0.111206
  15 C :   -0.357594
  16 O :   -0.249066
  17 C :   -0.120297
  18 C :   -0.367841
  19 H :    0.124646
  20 H :    0.129475
  21 H :    0.121405
  22 H :    0.117811
  23 H :    0.110714
  24 H :    0.118410
  25 H :    0.109308
  26 H :    0.124338
  27 H :    0.131276
  28 H :    0.122476
  29 H :    0.135939
  30 H :    0.123322
  31 H :    0.103857
  32 H :    0.121615
  33 H :    0.129856
  34 H :    0.125716
  35 H :    0.128775
  36 H :    0.102973
  37 H :    0.118977
  38 H :    0.130704
  39 H :    0.118602
  40 H :    0.128846

  Mayer bond orders larger than 0.100000
B(  0-C ,  1-C ) :   1.1591 B(  0-C , 19-H ) :   0.9453 B(  0-C , 20-H ) :   0.9398
B(  0-C , 21-H ) :   0.9387 B(  1-C ,  2-O ) :   0.8988 B(  1-C , 22-H ) :   0.9364
B(  1-C , 23-H ) :   0.9083 B(  2-O ,  3-P ) :   1.1312 B(  3-P ,  4-S ) :   1.6198
B(  3-P ,  5-O ) :   1.0975 B(  3-P ,  8-S ) :   0.9646 B(  4-S ,  8-S ) :   0.1149
B(  5-O ,  6-C ) :   0.9093 B(  6-C ,  7-C ) :   1.1659 B(  6-C , 24-H ) :   0.9332
B(  6-C , 25-H ) :   0.9131 B(  7-C , 26-H ) :   0.9438 B(  7-C , 27-H ) :   0.9381
B(  7-C , 28-H ) :   0.9337 B(  8-S ,  9-C ) :   1.0022 B(  9-C , 10-S ) :   0.9976
B(  9-C , 29-H ) :   0.9112 B(  9-C , 30-H ) :   0.8425 B( 10-S , 11-P ) :   0.9437
B( 10-S , 12-S ) :   0.1161 B( 11-P , 12-S ) :   1.6243 B( 11-P , 13-O ) :   1.1536
B( 11-P , 16-O ) :   1.0708 B( 12-S , 30-H ) :   0.1157 B( 13-O , 14-C ) :   0.8917
B( 14-C , 15-C ) :   1.1639 B( 14-C , 31-H ) :   0.9169 B( 14-C , 32-H ) :   0.9311
B( 15-C , 33-H ) :   0.9471 B( 15-C , 34-H ) :   0.9429 B( 15-C , 35-H ) :   0.9404
B( 16-O , 17-C ) :   0.9204 B( 17-C , 18-C ) :   1.1655 B( 17-C , 36-H ) :   0.9181
B( 17-C , 37-H ) :   0.9329 B( 18-C , 38-H ) :   0.9441 B( 18-C , 39-H ) :   0.9353
B( 18-C , 40-H ) :   0.9360

Dispersion correction           -0.067139946
FINAL SINGLE POINT ENERGY     -2929.517957482441

DIPOLE MOMENT
-------------

Method             : SCF
Type of density    : Electron Density
Multiplicity       :   1
Irrep              :   0
Energy             : -2929.6358896467245359 Eh
Relativity type    :
Basis              : AO
                                X                 Y                 Z
Electronic contribution:      2.020412630      -4.892337568      -1.859371414
Nuclear contribution   :     -2.511397696       4.450810379       2.519051549
                        -----------------------------------------
Total Dipole Moment    :     -0.490985065      -0.441527189       0.659680134
                        -----------------------------------------
Magnitude (a.u.)       :      0.933375848
Magnitude (Debye)      :      2.372452863

Rotational constants in cm-1:             0.012082             0.005158             0.005054
Rotational constants in MHz :           362.206969           154.624419           151.504494

                             ****ORCA TERMINATED NORMALLY****
TOTAL RUN TIME: 0 days 0 hours 0 minutes 20 seconds 798 msec
