                         Program Version 6.0.0  -   RELEASE  -
|  1> ! pbe def2-sv(p) def2/J RI DEFGRID1 loosescf d4 GCP(DFT/SV(P)) printgap
|  2> %output
|  3>     printlevel normal
|  4> end
|  5> * xyz 0 1
|  6> C 3.3951895669 0.5336440427 -2.0841945786
|  7> C 2.1893086912 0.8424042577 -1.2197243343
|  8> O 2.0056850659 -0.2361490662 -0.2909943831
|  9> P 1.5853286994 -0.0870982157 1.2388461013
| 10> S 1.7377644546 1.7177343879 1.9829993876
| 11> O 2.490603423 -1.1870369412 1.9500379904
| 12> C 3.7834087394 -0.8947116945 2.5118600983
| 13> C 4.794949938 -0.5040421228 1.4546398411
| 14> S -0.2350815875 -1.1365125389 1.4747378487
| 15> C -0.1956668404 -2.2220647992 0.0314293815
| 16> S -0.4548283226 -1.3984007561 -1.5879529693
| 17> P -1.7462979283 0.1951828453 -1.1266386154
| 18> S -2.5550632446 1.0630024301 -2.6834378808
| 19> O -0.7756893578 1.1303271813 -0.2687542638
| 20> C -1.0858855492 2.5285884287 -0.0814284838
| 21> C -2.2835596532 2.7267531971 0.821811911
| 22> O -2.7784284894 -0.3322331432 -0.0351598884
| 23> C -4.0619096625 -0.86727091 -0.4016278897
| 24> C -3.954708499 -2.2953087556 -0.8980185105
| 25> H 3.4952253523 1.3107194152 -2.8350710407
| 26> H 4.2992634584 0.4978744411 -1.48336328
| 27> H 3.2561440225 -0.4243707057 -2.5772305912
| 28> H 1.2861706812 0.9170863734 -1.8333528958
| 29> H 2.3157379787 1.7748584133 -0.6587727954
| 30> H 3.6651768555 -0.0913665201 3.2458449453
| 31> H 4.0615493293 -1.8205148765 3.0172587791
| 32> H 4.5191911311 0.4562611693 1.0202470641
| 33> H 5.7755480521 -0.412803709 1.9113651895
| 34> H 4.8295402375 -1.2562385384 0.6705362924
| 35> H -0.9922293757 -2.9450100386 0.1880752237
| 36> H 0.7718587947 -2.7119962363 -0.0450014717
| 37> H -0.1787433178 2.942609769 0.3629315607
| 38> H -1.2586175293 2.9754025928 -1.0658069987
| 39> H -3.185455577 2.3599044643 0.3343876873
| 40> H -2.1385704065 2.1883991898 1.7556457594
| 41> H -2.3983580876 3.7856186553 1.031187462
| 42> H -4.6482236754 -0.802818098 0.51583222
| 43> H -4.4999526577 -0.2232853199 -1.1717908321
| 44> H -3.5082965878 -2.9280400881 -0.1355843359
| 45> H -4.9475999325 -2.6666077403 -1.1310611288
| 46> H -3.3451797022 -2.3323903279 -1.8003352732
| 47> *
| 48>
| 49>                          ****END OF INPUT****

CARTESIAN COORDINATES (ANGSTROEM)
---------------------------------
  C      3.395190    0.533644   -2.084195
  C      2.189309    0.842404   -1.219724
  O      2.005685   -0.236149   -0.290994
  P      1.585329   -0.087098    1.238846
  S      1.737764    1.717734    1.982999
  O      2.490603   -1.187037    1.950038
  C      3.783409   -0.894712    2.511860
  C      4.794950   -0.504042    1.454640
  S     -0.235082   -1.136513    1.474738
  C     -0.195667   -2.222065    0.031429
  S     -0.454828   -1.398401   -1.587953
  P     -1.746298    0.195183   -1.126639
  S     -2.555063    1.063002   -2.683438
  O     -0.775689    1.130327   -0.268754
  C     -1.085886    2.528588   -0.081428
  C     -2.283560    2.726753    0.821812
  O     -2.778428   -0.332233   -0.035160
  C     -4.061910   -0.867271   -0.401628
  C     -3.954708   -2.295309   -0.898019
  H      3.495225    1.310719   -2.835071
  H      4.299263    0.497874   -1.483363
  H      3.256144   -0.424371   -2.577231
  H      1.286171    0.917086   -1.833353
  H      2.315738    1.774858   -0.658773
  H      3.665177   -0.091367    3.245845
  H      4.061549   -1.820515    3.017259
  H      4.519191    0.456261    1.020247
  H      5.775548   -0.412804    1.911365
  H      4.829540   -1.256239    0.670536
  H     -0.992229   -2.945010    0.188075
  H      0.771859   -2.711996   -0.045001
  H     -0.178743    2.942610    0.362932
  H     -1.258618    2.975403   -1.065807
  H     -3.185456    2.359904    0.334388
  H     -2.138570    2.188399    1.755646
  H     -2.398358    3.785619    1.031187
  H     -4.648224   -0.802818    0.515832
  H     -4.499953   -0.223285   -1.171791
  H     -3.508297   -2.928040   -0.135584
  H     -4.947600   -2.666608   -1.131061
  H     -3.345180   -2.332390   -1.800335

 Total Charge           Charge          ....    0
 Multiplicity           Mult            ....    1
 Number of Electrons    NEL             ....  202
 Basis Dimension        Dim             ....  334

ORBITAL ENERGIES
----------------

  NO   OCC          E(Eh)            E(eV)
   0   2.0000     -88.044359     -2395.8088
   1   2.0000     -88.041737     -2395.7374
   2   2.0000     -87.991821     -2394.3792
   3   2.0000     -87.987624     -2394.2650
   4   2.0000     -76.428484     -2079.7248
   5   2.0000     -76.428064     -2079.7134
   6   2.0000     -18.794906      -511.4354
   7   2.0000     -18.794623      -511.4277
   8   2.0000     -18.788205      -511.2530
   9   2.0000     -18.787721      -511.2399
  10   2.0000      -9.965268      -271.1687
  11   2.0000      -9.954189      -270.8673
  12   2.0000      -9.952131      -270.8112
  13   2.0000      -9.946220      -270.6504
  14   2.0000      -9.939439      -270.4659
  15   2.0000      -9.889912      -269.1182
  16   2.0000      -9.887327      -269.0479
  17   2.0000      -9.884792      -268.9789
  18   2.0000      -9.875325      -268.7212
  19   2.0000      -7.689308      -209.2367
  20   2.0000      -7.687130      -209.1775
  21   2.0000      -7.636795      -207.8078
  22   2.0000      -7.632774      -207.6983
  23   2.0000      -6.425879      -174.8571
  24   2.0000      -6.425337      -174.8423
  25   2.0000      -5.717772      -155.5885
  26   2.0000      -5.715663      -155.5311
  27   2.0000      -5.713466      -155.4713
  28   2.0000      -5.711725      -155.4239
  29   2.0000      -5.706023      -155.2688
  30   2.0000      -5.703150      -155.1906
  31   2.0000      -5.665629      -154.1696
  32   2.0000      -5.661680      -154.0621
  33   2.0000      -5.657477      -153.9478
  34   2.0000      -5.656959      -153.9337
  35   2.0000      -5.653345      -153.8354
  36   2.0000      -5.652988      -153.8256
  37   2.0000      -4.648317      -126.4871
  38   2.0000      -4.647734      -126.4713
  39   2.0000      -4.647670      -126.4695
  40   2.0000      -4.647304      -126.4596
  41   2.0000      -4.646468      -126.4368
  42   2.0000      -4.645874      -126.4207
  43   2.0000      -0.985945       -26.8289
  44   2.0000      -0.983661       -26.7668
  45   2.0000      -0.945281       -25.7224
  46   2.0000      -0.943240       -25.6669
  47   2.0000      -0.765144       -20.8206
  48   2.0000      -0.723618       -19.6907
  49   2.0000      -0.707607       -19.2550
  50   2.0000      -0.687675       -18.7126
  51   2.0000      -0.686206       -18.6726
  52   2.0000      -0.673086       -18.3156
  53   2.0000      -0.656899       -17.8751
  54   2.0000      -0.639860       -17.4115
  55   2.0000      -0.601976       -16.3806
  56   2.0000      -0.596470       -16.2308
  57   2.0000      -0.574242       -15.6259
  58   2.0000      -0.567125       -15.4323
  59   2.0000      -0.563020       -15.3205
  60   2.0000      -0.501975       -13.6594
  61   2.0000      -0.492312       -13.3965
  62   2.0000      -0.479192       -13.0395
  63   2.0000      -0.471709       -12.8359
  64   2.0000      -0.458516       -12.4769
  65   2.0000      -0.445410       -12.1202
  66   2.0000      -0.437179       -11.8962
  67   2.0000      -0.433712       -11.8019
  68   2.0000      -0.426770       -11.6130
  69   2.0000      -0.417129       -11.3507
  70   2.0000      -0.409459       -11.1420
  71   2.0000      -0.402099       -10.9417
  72   2.0000      -0.398838       -10.8529
  73   2.0000      -0.389198       -10.5906
  74   2.0000      -0.380628       -10.3574
  75   2.0000      -0.370585       -10.0841
  76   2.0000      -0.368757       -10.0344
  77   2.0000      -0.359039        -9.7699
  78   2.0000      -0.356039        -9.6883
  79   2.0000      -0.353935        -9.6311
  80   2.0000      -0.350737        -9.5440
  81   2.0000      -0.347018        -9.4428
  82   2.0000      -0.341148        -9.2831
  83   2.0000      -0.337182        -9.1752
  84   2.0000      -0.330841        -9.0026
  85   2.0000      -0.320851        -8.7308
  86   2.0000      -0.312339        -8.4992
  87   2.0000      -0.296571        -8.0701
  88   2.0000      -0.294197        -8.0055
  89   2.0000      -0.285022        -7.7559
  90   2.0000      -0.284115        -7.7312
  91   2.0000      -0.276057        -7.5119
  92   2.0000      -0.272093        -7.4040
  93   2.0000      -0.266093        -7.2407
  94   2.0000      -0.257822        -7.0157
  95   2.0000      -0.229303        -6.2396
  96   2.0000      -0.215332        -5.8595
  97   2.0000      -0.210921        -5.7394
  98   2.0000      -0.209832        -5.7098
  99   2.0000      -0.204370        -5.5612
 100   2.0000      -0.200059        -5.4439
 101   0.0000      -0.044428        -1.2090
 102   0.0000      -0.030778        -0.8375
 103   0.0000      -0.019480        -0.5301
 104   0.0000      -0.002020        -0.0550
 105   0.0000       0.012684         0.3451

MULLIKEN ATOMIC CHARGES
-----------------------
   0 C :   -0.287977
   1 C :   -0.016279
   2 O :   -0.383899
   3 P :    0.643861
   4 S :   -0.327728
   5 O :   -0.376109
   6 C :    0.000534
   7 C :   -0.324732
   8 S :   -0.070209
   9 C :   -0.328024
  10 S :   -0.094749
  11 P :    0.624432
  12 S :   -0.322361
  13 O :   -0.380804
  14 C :   -0.017811
  15 C :   -0.300373
  16 O :   -0.371951
  17 C :   -0.012083
  18 C :   -0.321064
  19 H :    0.112206
  20 H :    0.114762
  21 H :    0.114168
  22 H :    0.111465
  23 H :    0.107997
  24 H :    0.111730
  25 H :    0.104656
  26 H :    0.128056
  27 H :    0.113392
  28 H :    0.119111
  29 H :    0.189946
  30 H :    0.185684
  31 H :    0.116956
  32 H :    0.107457
  33 H :    0.114207
  34 H :    0.120358
  35 H :    0.109364
  36 H :    0.108117
  37 H :    0.114170
  38 H :    0.117132
  39 H :    0.115629
  40 H :    0.130766
Sum of atomic charges:    0.0000000

LOEWDIN ATOMIC CHARGES
----------------------
   0 C :   -0.351872
   1 C :   -0.126279
   2 O :   -0.241465
   3 P :    0.579941
   4 S :   -0.304881
   5 O :   -0.253663
   6 C :   -0.117253
   7 C :   -0.367681
   8 S :    0.112481
   9 C :   -0.467301
  10 S :    0.089937
  11 P :    0.564865
  12 S :   -0.319406
  13 O :   -0.245233
  14 C :   -0.128539
  15 C :   -0.362618
  16 O :   -0.241803
  17 C :   -0.122496
  18 C :   -0.365943
  19 H :    0.131567
  20 H :    0.122436
  21 H :    0.126403
  22 H :    0.105202
  23 H :    0.104073
  24 H :    0.111615
  25 H :    0.118773
  26 H :    0.120746
  27 H :    0.131125
  28 H :    0.125383
  29 H :    0.133976
  30 H :    0.136969
  31 H :    0.110706
  32 H :    0.106555
  33 H :    0.118305
  34 H :    0.128238
  35 H :    0.129842
  36 H :    0.119672
  37 H :    0.109742
  38 H :    0.120950
  39 H :    0.133096
  40 H :    0.123836

  Mayer bond orders larger than 0.100000
B(  0-C ,  1-C ) :   1.1619 B(  0-C , 19-H ) :   0.9413 B(  0-C , 20-H ) :   0.9467
B(  0-C , 21-H ) :   0.9478 B(  1-C ,  2-O ) :   0.8953 B(  1-C , 22-H ) :   0.9131
B(  1-C , 23-H ) :   0.9069 B(  2-O ,  3-P ) :   1.0991 B(  3-P ,  4-S ) :   1.6165
B(  3-P ,  5-O ) :   1.1029 B(  3-P ,  8-S ) :   0.9570 B(  5-O ,  6-C ) :   0.9180
B(  6-C ,  7-C ) :   1.1593 B(  6-C , 24-H ) :   0.9192 B(  6-C , 25-H ) :   0.9353
B(  7-C , 26-H ) :   0.9295 B(  7-C , 27-H ) :   0.9369 B(  7-C , 28-H ) :   0.9442
B(  8-S ,  9-C ) :   1.0294 B(  9-C , 10-S ) :   0.9505 B(  9-C , 29-H ) :   0.8996
B(  9-C , 30-H ) :   0.9047 B( 10-S , 11-P ) :   0.9939 B( 11-P , 12-S ) :   1.6306
B( 11-P , 13-O ) :   1.0805 B( 11-P , 16-O ) :   1.0753 B( 13-O , 14-C ) :   0.8947
B( 14-C , 15-C ) :   1.1710 B( 14-C , 31-H ) :   0.9083 B( 14-C , 32-H ) :   0.9153
B( 15-C , 33-H ) :   0.9387 B( 15-C , 34-H ) :   0.9446 B( 15-C , 35-H ) :   0.9390
B( 16-O , 17-C ) :   0.9109 B( 17-C , 18-C ) :   1.1643 B( 17-C , 36-H ) :   0.9327
B( 17-C , 37-H ) :   0.9084 B( 18-C , 38-H ) :   0.9407 B( 18-C , 39-H ) :   0.9382
B( 18-C , 40-H ) :   0.9366

Dispersion correction           -0.069476459
FINAL SINGLE POINT ENERGY     -2929.514950253465

DIPOLE MOMENT
-------------

Method             : SCF
Type of density    : Electron Density
Multiplicity       :   1
Irrep              :   0
Energy             : -2929.6336244834628815 Eh
Relativity type    :
Basis              : AO
                                X                 Y                 Z
Electronic contribution:     -6.497309388      -1.362782423       1.038987329
Nuclear contribution   :      6.932022466       0.443662402      -0.698399599
                        -----------------------------------------
Total Dipole Moment    :      0.434713078      -0.919120021       0.340587730
                        -----------------------------------------
Magnitude (a.u.)       :      1.072267259
Magnitude (Debye)      :      2.725486774

Rotational constants in cm-1:             0.012933             0.005503             0.005330
Rotational constants in MHz :           387.714677           164.976571           159.780157

                             ****ORCA TERMINATED NORMALLY****
TOTAL RUN TIME: 0 days 0 hours 0 minutes 22 seconds 435 msec
