                         Program Version 6.0.0  -   RELEASE  -
|  1> ! pbe def2-sv(p) def2/J RI DEFGRID1 loosescf d4 GCP(DFT/SV(P)) printgap
|  2> %output
|  3>     printlevel normal
|  4> end
|  5> * xyz 0 1
|  6> C 5.6475247056 -1.4807894794 -1.2940288792
|  7> C 4.8517031046 -0.2247152215 -1.0049339608
|  8> O 3.6308113069 -0.6147929081 -0.3364653229
|  9> P 2.3197818372 0.2667629431 -0.4128678899
| 10> S 1.8408857169 0.8802022553 -2.217835194
| 11> O 2.6835175133 1.4272517958 0.6141186637
| 12> C 1.8927258293 2.6106115676 0.8191652102
| 13> C 1.0523933413 2.4812587226 2.0739479301
| 14> S 1.0255297498 -1.0511668214 0.5835886115
| 15> C -0.0048224054 -1.5757208017 -0.8383340309
| 16> S -1.7050671497 -1.8854389433 -0.3377457217
| 17> P -2.1712750492 0.0737699749 0.3688362883
| 18> S -1.3760678623 1.5770960343 -0.6048289296
| 19> O -1.7634944634 0.1093645799 1.8905749771
| 20> C -1.8376170121 -0.9855895167 2.8369886817
| 21> C -3.2183044693 -1.598063689 2.9200548365
| 22> O -3.7582713281 0.0943575888 0.4328747997
| 23> C -4.5797921182 0.4823219177 -0.6807125252
| 24> C -4.4839587432 -0.4932556111 -1.836211783
| 25> H 5.8470157025 -2.0126673662 -0.3684073131
| 26> H 5.0889254052 -2.1314251122 -1.9609320423
| 27> H 6.5866716483 -1.2070493255 -1.7636363881
| 28> H 4.5901133954 0.3073240261 -1.9261599953
| 29> H 5.3938262792 0.4521714678 -0.3408333501
| 30> H 2.6199798043 3.4195127097 0.9122181851
| 31> H 1.265711928 2.7853102738 -0.0618045337
| 32> H 1.682280126 2.2105810926 2.9165697637
| 33> H 0.5650100825 3.4303565528 2.2725320205
| 34> H 0.2866311371 1.7187263047 1.9445548979
| 35> H 0.3760488925 -2.5136302276 -1.2343275371
| 36> H 0.0275954686 -0.7828484921 -1.5913979581
| 37> H -1.0887017354 -1.7293575832 2.5493003739
| 38> H -1.5461748588 -0.5173191954 3.7781737029
| 39> H -3.2282739916 -2.3381540332 3.7142127987
| 40> H -3.9577633497 -0.8306063395 3.1327406641
| 41> H -3.4738624739 -2.0831332544 1.9802243271
| 42> H -5.5865540903 0.5120862626 -0.2616891223
| 43> H -4.280415649 1.4859366882 -0.9994031336
| 44> H -4.6617905694 -1.5085667869 -1.491482245
| 45> H -5.2223182619 -0.2319949847 -2.5875413892
| 46> H -3.4936811229 -0.4427392556 -2.2864480358
| 47> *
| 48>
| 49>                          ****END OF INPUT****

CARTESIAN COORDINATES (ANGSTROEM)
---------------------------------
  C      5.647525   -1.480789   -1.294029
  C      4.851703   -0.224715   -1.004934
  O      3.630811   -0.614793   -0.336465
  P      2.319782    0.266763   -0.412868
  S      1.840886    0.880202   -2.217835
  O      2.683518    1.427252    0.614119
  C      1.892726    2.610612    0.819165
  C      1.052393    2.481259    2.073948
  S      1.025530   -1.051167    0.583589
  C     -0.004822   -1.575721   -0.838334
  S     -1.705067   -1.885439   -0.337746
  P     -2.171275    0.073770    0.368836
  S     -1.376068    1.577096   -0.604829
  O     -1.763494    0.109365    1.890575
  C     -1.837617   -0.985590    2.836989
  C     -3.218304   -1.598064    2.920055
  O     -3.758271    0.094358    0.432875
  C     -4.579792    0.482322   -0.680713
  C     -4.483959   -0.493256   -1.836212
  H      5.847016   -2.012667   -0.368407
  H      5.088925   -2.131425   -1.960932
  H      6.586672   -1.207049   -1.763636
  H      4.590113    0.307324   -1.926160
  H      5.393826    0.452171   -0.340833
  H      2.619980    3.419513    0.912218
  H      1.265712    2.785310   -0.061805
  H      1.682280    2.210581    2.916570
  H      0.565010    3.430357    2.272532
  H      0.286631    1.718726    1.944555
  H      0.376049   -2.513630   -1.234328
  H      0.027595   -0.782848   -1.591398
  H     -1.088702   -1.729358    2.549300
  H     -1.546175   -0.517319    3.778174
  H     -3.228274   -2.338154    3.714213
  H     -3.957763   -0.830606    3.132741
  H     -3.473862   -2.083133    1.980224
  H     -5.586554    0.512086   -0.261689
  H     -4.280416    1.485937   -0.999403
  H     -4.661791   -1.508567   -1.491482
  H     -5.222318   -0.231995   -2.587541
  H     -3.493681   -0.442739   -2.286448

 Total Charge           Charge          ....    0
 Multiplicity           Mult            ....    1
 Number of Electrons    NEL             ....  202
 Basis Dimension        Dim             ....  334

ORBITAL ENERGIES
----------------

  NO   OCC          E(Eh)            E(eV)
   0   2.0000     -88.049869     -2395.9588
   1   2.0000     -88.041228     -2395.7236
   2   2.0000     -87.982335     -2394.1211
   3   2.0000     -87.980894     -2394.0818
   4   2.0000     -76.428392     -2079.7223
   5   2.0000     -76.419781     -2079.4880
   6   2.0000     -18.795060      -511.4396
   7   2.0000     -18.793499      -511.3971
   8   2.0000     -18.784650      -511.1563
   9   2.0000     -18.782482      -511.0973
  10   2.0000      -9.957667      -270.9619
  11   2.0000      -9.954445      -270.8742
  12   2.0000      -9.953979      -270.8615
  13   2.0000      -9.946244      -270.6511
  14   2.0000      -9.939305      -270.4622
  15   2.0000      -9.889838      -269.1162
  16   2.0000      -9.885073      -268.9865
  17   2.0000      -9.883433      -268.9419
  18   2.0000      -9.868545      -268.5368
  19   2.0000      -7.694486      -209.3776
  20   2.0000      -7.686242      -209.1533
  21   2.0000      -7.627191      -207.5464
  22   2.0000      -7.625884      -207.5109
  23   2.0000      -6.425334      -174.8422
  24   2.0000      -6.417720      -174.6350
  25   2.0000      -5.722380      -155.7139
  26   2.0000      -5.718833      -155.6173
  27   2.0000      -5.714155      -155.4901
  28   2.0000      -5.711684      -155.4228
  29   2.0000      -5.710888      -155.4012
  30   2.0000      -5.703008      -155.1867
  31   2.0000      -5.656220      -153.9136
  32   2.0000      -5.654743      -153.8734
  33   2.0000      -5.647675      -153.6811
  34   2.0000      -5.647367      -153.6727
  35   2.0000      -5.646599      -153.6518
  36   2.0000      -5.645992      -153.6352
  37   2.0000      -4.648080      -126.4807
  38   2.0000      -4.647248      -126.4580
  39   2.0000      -4.645576      -126.4125
  40   2.0000      -4.640135      -126.2645
  41   2.0000      -4.639367      -126.2436
  42   2.0000      -4.638367      -126.2164
  43   2.0000      -0.989037       -26.9131
  44   2.0000      -0.979192       -26.6452
  45   2.0000      -0.947824       -25.7916
  46   2.0000      -0.936244       -25.4765
  47   2.0000      -0.764302       -20.7977
  48   2.0000      -0.721011       -19.6197
  49   2.0000      -0.710107       -19.3230
  50   2.0000      -0.692105       -18.8331
  51   2.0000      -0.678401       -18.4602
  52   2.0000      -0.674857       -18.3638
  53   2.0000      -0.649209       -17.6659
  54   2.0000      -0.630726       -17.1629
  55   2.0000      -0.599552       -16.3146
  56   2.0000      -0.588412       -16.0115
  57   2.0000      -0.577891       -15.7252
  58   2.0000      -0.562872       -15.3165
  59   2.0000      -0.558415       -15.1952
  60   2.0000      -0.499452       -13.5908
  61   2.0000      -0.493174       -13.4200
  62   2.0000      -0.473470       -12.8838
  63   2.0000      -0.470293       -12.7973
  64   2.0000      -0.450404       -12.2561
  65   2.0000      -0.444781       -12.1031
  66   2.0000      -0.442169       -12.0320
  67   2.0000      -0.434473       -11.8226
  68   2.0000      -0.432185       -11.7603
  69   2.0000      -0.413789       -11.2598
  70   2.0000      -0.412165       -11.2156
  71   2.0000      -0.400395       -10.8953
  72   2.0000      -0.386709       -10.5229
  73   2.0000      -0.381829       -10.3901
  74   2.0000      -0.378461       -10.2984
  75   2.0000      -0.371448       -10.1076
  76   2.0000      -0.365227        -9.9383
  77   2.0000      -0.357888        -9.7386
  78   2.0000      -0.354667        -9.6510
  79   2.0000      -0.352368        -9.5884
  80   2.0000      -0.348219        -9.4755
  81   2.0000      -0.342291        -9.3142
  82   2.0000      -0.337803        -9.1921
  83   2.0000      -0.332883        -9.0582
  84   2.0000      -0.326440        -8.8829
  85   2.0000      -0.314736        -8.5644
  86   2.0000      -0.307522        -8.3681
  87   2.0000      -0.296255        -8.0615
  88   2.0000      -0.293166        -7.9775
  89   2.0000      -0.287398        -7.8205
  90   2.0000      -0.281505        -7.6602
  91   2.0000      -0.276470        -7.5231
  92   2.0000      -0.266696        -7.2572
  93   2.0000      -0.264556        -7.1989
  94   2.0000      -0.257900        -7.0178
  95   2.0000      -0.234708        -6.3867
  96   2.0000      -0.223195        -6.0734
  97   2.0000      -0.210625        -5.7314
  98   2.0000      -0.199618        -5.4319
  99   2.0000      -0.195086        -5.3086
 100   2.0000      -0.187224        -5.0946
 101   0.0000      -0.047272        -1.2863
 102   0.0000      -0.034124        -0.9286
 103   0.0000      -0.010449        -0.2843
 104   0.0000       0.009650         0.2626
 105   0.0000       0.019274         0.5245

MULLIKEN ATOMIC CHARGES
-----------------------
   0 C :   -0.277707
   1 C :   -0.007667
   2 O :   -0.371969
   3 P :    0.629523
   4 S :   -0.319116
   5 O :   -0.380655
   6 C :   -0.009985
   7 C :   -0.311055
   8 S :   -0.109660
   9 C :   -0.341041
  10 S :   -0.118264
  11 P :    0.596772
  12 S :   -0.302116
  13 O :   -0.351512
  14 C :   -0.001745
  15 C :   -0.306736
  16 O :   -0.371603
  17 C :   -0.000218
  18 C :   -0.320100
  19 H :    0.115974
  20 H :    0.116385
  21 H :    0.109318
  22 H :    0.103289
  23 H :    0.102092
  24 H :    0.097599
  25 H :    0.119882
  26 H :    0.101802
  27 H :    0.105137
  28 H :    0.144611
  29 H :    0.182034
  30 H :    0.212982
  31 H :    0.112622
  32 H :    0.110792
  33 H :    0.114829
  34 H :    0.123546
  35 H :    0.119487
  36 H :    0.104768
  37 H :    0.114718
  38 H :    0.115546
  39 H :    0.115027
  40 H :    0.132414
Sum of atomic charges:   -0.0000000

LOEWDIN ATOMIC CHARGES
----------------------
   0 C :   -0.350754
   1 C :   -0.117937
   2 O :   -0.250154
   3 P :    0.567183
   4 S :   -0.304498
   5 O :   -0.246274
   6 C :   -0.117465
   7 C :   -0.367394
   8 S :    0.081704
   9 C :   -0.476957
  10 S :    0.080306
  11 P :    0.569080
  12 S :   -0.296068
  13 O :   -0.230142
  14 C :   -0.114644
  15 C :   -0.366439
  16 O :   -0.242416
  17 C :   -0.117417
  18 C :   -0.370820
  19 H :    0.126622
  20 H :    0.127393
  21 H :    0.129452
  22 H :    0.106584
  23 H :    0.112863
  24 H :    0.114396
  25 H :    0.108144
  26 H :    0.119542
  27 H :    0.129041
  28 H :    0.121997
  29 H :    0.135436
  30 H :    0.124184
  31 H :    0.104002
  32 H :    0.123205
  33 H :    0.132184
  34 H :    0.129477
  35 H :    0.116831
  36 H :    0.118662
  37 H :    0.113562
  38 H :    0.122314
  39 H :    0.132042
  40 H :    0.123175

  Mayer bond orders larger than 0.100000
B(  0-C ,  1-C ) :   1.1623 B(  0-C , 19-H ) :   0.9507 B(  0-C , 20-H ) :   0.9512
B(  0-C , 21-H ) :   0.9421 B(  1-C ,  2-O ) :   0.9029 B(  1-C , 22-H ) :   0.9071
B(  1-C , 23-H ) :   0.9318 B(  2-O ,  3-P ) :   1.1275 B(  3-P ,  4-S ) :   1.6277
B(  3-P ,  5-O ) :   1.1164 B(  3-P ,  8-S ) :   0.9579 B(  4-S ,  8-S ) :   0.1185
B(  5-O ,  6-C ) :   0.9004 B(  6-C ,  7-C ) :   1.1709 B(  6-C , 24-H ) :   0.9347
B(  6-C , 25-H ) :   0.9046 B(  7-C , 26-H ) :   0.9463 B(  7-C , 27-H ) :   0.9405
B(  7-C , 28-H ) :   0.9253 B(  8-S ,  9-C ) :   0.9921 B(  9-C , 10-S ) :   1.0078
B(  9-C , 29-H ) :   0.9084 B(  9-C , 30-H ) :   0.8467 B( 10-S , 11-P ) :   0.9290
B( 10-S , 12-S ) :   0.1075 B( 11-P , 12-S ) :   1.6374 B( 11-P , 13-O ) :   1.1282
B( 11-P , 16-O ) :   1.0957 B( 13-O , 14-C ) :   0.8967 B( 14-C , 15-C ) :   1.1712
B( 14-C , 31-H ) :   0.9145 B( 14-C , 32-H ) :   0.9333 B( 15-C , 33-H ) :   0.9361
B( 15-C , 34-H ) :   0.9426 B( 15-C , 35-H ) :   0.9376 B( 16-O , 17-C ) :   0.9050
B( 17-C , 18-C ) :   1.1652 B( 17-C , 36-H ) :   0.9341 B( 17-C , 37-H ) :   0.9162
B( 18-C , 38-H ) :   0.9445 B( 18-C , 39-H ) :   0.9374 B( 18-C , 40-H ) :   0.9350

Dispersion correction           -0.065934030
FINAL SINGLE POINT ENERGY     -2929.519671759970

DIPOLE MOMENT
-------------

Method             : SCF
Type of density    : Electron Density
Multiplicity       :   1
Irrep              :   0
Energy             : -2929.6385209606578428 Eh
Relativity type    :
Basis              : AO
                                X                 Y                 Z
Electronic contribution:      1.780612064       1.413085565      -5.288928185
Nuclear contribution   :     -2.187840958      -2.158710739       6.087767019
                        -----------------------------------------
Total Dipole Moment    :     -0.407228894      -0.745625174       0.798838834
                        -----------------------------------------
Magnitude (a.u.)       :      1.166162834
Magnitude (Debye)      :      2.964150359

Rotational constants in cm-1:             0.013307             0.004683             0.004644
Rotational constants in MHz :           398.923755           140.406146           139.223699

                             ****ORCA TERMINATED NORMALLY****
TOTAL RUN TIME: 0 days 0 hours 0 minutes 20 seconds 938 msec
