                         Program Version 6.0.1  -  RELEASE   -
|  1> ! pbe def2-sv(p) def2/J RI DEFGRID1 loosescf d4 GCP(DFT/SV(P)) printgap
|  2> %output
|  3>     printlevel normal
|  4> end
|  5> * xyz 0 1
|  6> C 1.5943365484 -3.533668551 -2.4482773819
|  7> C 2.9053626815 -2.9191586897 -1.9844121229
|  8> O 2.6840676692 -1.6006302493 -1.4499771535
|  9> C 2.3231676885 -1.4879005402 -0.1875440046
| 10> O 2.2445930395 -2.4071956158 0.595010294
| 11> C 2.018051629 -0.0447250145 0.1775435495
| 12> C 1.0661782967 0.5749380425 -0.846560377
| 13> H 1.5741671547 0.696489953 -1.8061764132
| 14> C 0.5343991185 1.9109875027 -0.3640643839
| 15> O -0.655371563 2.1094920166 -0.2062482507
| 16> O 1.4832355055 2.7748825867 -0.1522130444
| 17> C 1.1306629968 4.0611392495 0.4071469666
| 18> C 1.0938546644 3.9856301759 1.9243058707
| 19> S -0.3680476713 -0.496739064 -1.2009192527
| 20> P -1.5648466925 -0.1400986994 0.4983151979
| 21> S -0.9257006246 0.4241460062 2.2612236256
| 22> O -2.9033710839 0.6362171634 0.1046151021
| 23> C -3.5147668424 0.4832411477 -1.1870035872
| 24> O -2.0337276939 -1.6965169392 0.5177781273
| 25> C -2.9080663935 -2.1719601434 1.5413845934
| 26> H 1.1085296082 -2.8802404049 -3.1675872194
| 27> H 1.7893817304 -4.4976450312 -2.9059626088
| 28> H 0.9265925345 -3.6713312407 -1.6005206177
| 29> H 3.5904823919 -2.7636381854 -2.8175731515
| 30> H 3.3730496166 -3.5370539525 -1.2126698062
| 31> H 2.9469980313 0.5276698652 0.1920795393
| 32> H 1.5792649887 -0.0383973623 1.1781043851
| 33> H 1.9156828985 4.7308488781 0.0570972118
| 34> H 0.1583775595 4.3612585875 0.0086114251
| 35> H 2.0606500642 3.6773223566 2.311582381
| 36> H 0.8409550113 4.9607352708 2.326677177
| 37> H 0.3436170823 3.266146916 2.2494343375
| 38> H -4.5474446483 0.7980252827 -1.0580532673
| 39> H -3.4628908801 -0.555446155 -1.5166917745
| 40> H -3.0042827161 1.1274895034 -1.901937512
| 41> H -3.8584573483 -1.6363906789 1.5141717445
| 42> H -2.4443822876 -2.0367532167 2.5202571264
| 43> H -3.055193756 -3.2286624021 1.3336549718
| 44> *
| 45>
| 46>                          ****END OF INPUT****

CARTESIAN COORDINATES (ANGSTROEM)
---------------------------------
  C      1.594337   -3.533669   -2.448277
  C      2.905363   -2.919159   -1.984412
  O      2.684068   -1.600630   -1.449977
  C      2.323168   -1.487901   -0.187544
  O      2.244593   -2.407196    0.595010
  C      2.018052   -0.044725    0.177544
  C      1.066178    0.574938   -0.846560
  H      1.574167    0.696490   -1.806176
  C      0.534399    1.910988   -0.364064
  O     -0.655372    2.109492   -0.206248
  O      1.483236    2.774883   -0.152213
  C      1.130663    4.061139    0.407147
  C      1.093855    3.985630    1.924306
  S     -0.368048   -0.496739   -1.200919
  P     -1.564847   -0.140099    0.498315
  S     -0.925701    0.424146    2.261224
  O     -2.903371    0.636217    0.104615
  C     -3.514767    0.483241   -1.187004
  O     -2.033728   -1.696517    0.517778
  C     -2.908066   -2.171960    1.541385
  H      1.108530   -2.880240   -3.167587
  H      1.789382   -4.497645   -2.905963
  H      0.926593   -3.671331   -1.600521
  H      3.590482   -2.763638   -2.817573
  H      3.373050   -3.537054   -1.212670
  H      2.946998    0.527670    0.192080
  H      1.579265   -0.038397    1.178104
  H      1.915683    4.730849    0.057097
  H      0.158378    4.361259    0.008611
  H      2.060650    3.677322    2.311582
  H      0.840955    4.960735    2.326677
  H      0.343617    3.266147    2.249434
  H     -4.547445    0.798025   -1.058053
  H     -3.462891   -0.555446   -1.516692
  H     -3.004283    1.127490   -1.901938
  H     -3.858457   -1.636391    1.514172
  H     -2.444382   -2.036753    2.520257
  H     -3.055194   -3.228662    1.333655

 Total Charge           Charge          ....    0
 Multiplicity           Mult            ....    1
 Number of Electrons    NEL             ....  174
 Basis Dimension        Dim             ....  316

ORBITAL ENERGIES
----------------

  NO   OCC          E(Eh)            E(eV)
   0   2.0000     -88.039581     -2395.6788
   1   2.0000     -87.973582     -2393.8829
   2   2.0000     -76.418264     -2079.4467
   3   2.0000     -18.823923      -512.2250
   4   2.0000     -18.800377      -511.5843
   5   2.0000     -18.781425      -511.0685
   6   2.0000     -18.773607      -510.8558
   7   2.0000     -18.756505      -510.3905
   8   2.0000     -18.734182      -509.7830
   9   2.0000     -10.028342      -272.8851
  10   2.0000     -10.006315      -272.2857
  11   2.0000      -9.957566      -270.9591
  12   2.0000      -9.953522      -270.8491
  13   2.0000      -9.946249      -270.6512
  14   2.0000      -9.943110      -270.5658
  15   2.0000      -9.931086      -270.2386
  16   2.0000      -9.905690      -269.5475
  17   2.0000      -9.886505      -269.0255
  18   2.0000      -9.882120      -268.9062
  19   2.0000      -7.684384      -209.1027
  20   2.0000      -7.618826      -207.3188
  21   2.0000      -6.414686      -174.5525
  22   2.0000      -5.712521      -155.4456
  23   2.0000      -5.709044      -155.3510
  24   2.0000      -5.700885      -155.1290
  25   2.0000      -5.648167      -153.6944
  26   2.0000      -5.639655      -153.4628
  27   2.0000      -5.638233      -153.4241
  28   2.0000      -4.637579      -126.1949
  29   2.0000      -4.636642      -126.1694
  30   2.0000      -4.635052      -126.1262
  31   2.0000      -1.033008       -28.1096
  32   2.0000      -1.008317       -27.4377
  33   2.0000      -0.970246       -26.4017
  34   2.0000      -0.937133       -25.5007
  35   2.0000      -0.925723       -25.1902
  36   2.0000      -0.911054       -24.7910
  37   2.0000      -0.768891       -20.9226
  38   2.0000      -0.714437       -19.4408
  39   2.0000      -0.707360       -19.2482
  40   2.0000      -0.686020       -18.6675
  41   2.0000      -0.654809       -17.8183
  42   2.0000      -0.630951       -17.1691
  43   2.0000      -0.620178       -16.8759
  44   2.0000      -0.611284       -16.6339
  45   2.0000      -0.592489       -16.1225
  46   2.0000      -0.568357       -15.4658
  47   2.0000      -0.512176       -13.9370
  48   2.0000      -0.504358       -13.7243
  49   2.0000      -0.497000       -13.5241
  50   2.0000      -0.484662       -13.1883
  51   2.0000      -0.464800       -12.6478
  52   2.0000      -0.459817       -12.5123
  53   2.0000      -0.449505       -12.2317
  54   2.0000      -0.437324       -11.9002
  55   2.0000      -0.434427       -11.8213
  56   2.0000      -0.421725       -11.4757
  57   2.0000      -0.420980       -11.4555
  58   2.0000      -0.406460       -11.0603
  59   2.0000      -0.404946       -11.0191
  60   2.0000      -0.402619       -10.9558
  61   2.0000      -0.393308       -10.7024
  62   2.0000      -0.392226       -10.6730
  63   2.0000      -0.383240       -10.4285
  64   2.0000      -0.372871       -10.1463
  65   2.0000      -0.366686        -9.9780
  66   2.0000      -0.355284        -9.6678
  67   2.0000      -0.352671        -9.5967
  68   2.0000      -0.348446        -9.4817
  69   2.0000      -0.336070        -9.1449
  70   2.0000      -0.334215        -9.0945
  71   2.0000      -0.328456        -8.9377
  72   2.0000      -0.321643        -8.7523
  73   2.0000      -0.315047        -8.5729
  74   2.0000      -0.309159        -8.4127
  75   2.0000      -0.303178        -8.2499
  76   2.0000      -0.291921        -7.9436
  77   2.0000      -0.280078        -7.6213
  78   2.0000      -0.273154        -7.4329
  79   2.0000      -0.261436        -7.1140
  80   2.0000      -0.257772        -7.0143
  81   2.0000      -0.256147        -6.9701
  82   2.0000      -0.241882        -6.5819
  83   2.0000      -0.216966        -5.9039
  84   2.0000      -0.216167        -5.8822
  85   2.0000      -0.195205        -5.3118
  86   2.0000      -0.185429        -5.0458
  87   0.0000      -0.045508        -1.2383
  88   0.0000      -0.040403        -1.0994
  89   0.0000      -0.013761        -0.3745
  90   0.0000       0.002309         0.0628
  91   0.0000       0.033681         0.9165

MULLIKEN ATOMIC CHARGES
-----------------------
   0 C :   -0.304285
   1 C :   -0.012427
   2 O :   -0.242573
   3 C :    0.126126
   4 O :   -0.181007
   5 C :   -0.085125
   6 C :   -0.315121
   7 H :    0.151146
   8 C :    0.219863
   9 O :   -0.186858
  10 O :   -0.218410
  11 C :   -0.012237
  12 C :   -0.315750
  13 S :   -0.066910
  14 P :    0.625522
  15 S :   -0.324370
  16 O :   -0.373265
  17 C :   -0.104829
  18 O :   -0.399101
  19 C :   -0.102871
  20 H :    0.111019
  21 H :    0.109985
  22 H :    0.136558
  23 H :    0.099578
  24 H :    0.109608
  25 H :    0.121020
  26 H :    0.123904
  27 H :    0.107097
  28 H :    0.115873
  29 H :    0.114990
  30 H :    0.114284
  31 H :    0.149035
  32 H :    0.126898
  33 H :    0.113321
  34 H :    0.122842
  35 H :    0.103982
  36 H :    0.122573
  37 H :    0.119913
Sum of atomic charges:   -0.0000000

LOEWDIN ATOMIC CHARGES
----------------------
   0 C :   -0.357756
   1 C :   -0.110433
   2 O :   -0.066798
   3 C :    0.022675
   4 O :   -0.152366
   5 C :   -0.255872
   6 C :   -0.262492
   7 H :    0.150039
   8 C :    0.020187
   9 O :   -0.156423
  10 O :   -0.035783
  11 C :   -0.105395
  12 C :   -0.358991
  13 S :    0.131712
  14 P :    0.591490
  15 S :   -0.311127
  16 O :   -0.248992
  17 C :   -0.213304
  18 O :   -0.280867
  19 C :   -0.218594
  20 H :    0.121826
  21 H :    0.128705
  22 H :    0.133584
  23 H :    0.115960
  24 H :    0.120524
  25 H :    0.145074
  26 H :    0.136288
  27 H :    0.119833
  28 H :    0.123738
  29 H :    0.125894
  30 H :    0.132271
  31 H :    0.133875
  32 H :    0.123161
  33 H :    0.106849
  34 H :    0.114796
  35 H :    0.105623
  36 H :    0.112009
  37 H :    0.119079

  Mayer bond orders larger than 0.100000
B(  0-C ,  1-C ) :   1.1762 B(  0-C , 20-H ) :   0.9473 B(  0-C , 21-H ) :   0.9428
B(  0-C , 22-H ) :   0.9425 B(  1-C ,  2-O ) :   0.9165 B(  1-C , 23-H ) :   0.9377
B(  1-C , 24-H ) :   0.9141 B(  2-O ,  3-C ) :   1.1989 B(  3-C ,  4-O ) :   2.0857
B(  3-C ,  5-C ) :   1.0206 B(  5-C ,  6-C ) :   1.0426 B(  5-C , 25-H ) :   0.8712
B(  5-C , 26-H ) :   0.8799 B(  6-C ,  7-H ) :   0.8555 B(  6-C ,  8-C ) :   0.9129
B(  6-C , 13-S ) :   1.0406 B(  8-C ,  9-O ) :   1.9590 B(  8-C , 10-O ) :   1.2831
B(  9-O , 14-P ) :   0.1134 B( 10-O , 11-C ) :   0.8933 B( 11-C , 12-C ) :   1.1790
B( 11-C , 27-H ) :   0.9364 B( 11-C , 28-H ) :   0.9139 B( 12-C , 29-H ) :   0.9482
B( 12-C , 30-H ) :   0.9410 B( 12-C , 31-H ) :   0.9293 B( 13-S , 14-P ) :   0.9347
B( 13-S , 15-S ) :   0.1074 B( 14-P , 15-S ) :   1.5983 B( 14-P , 16-O ) :   1.0909
B( 14-P , 18-O ) :   1.0406 B( 16-O , 17-C ) :   0.9295 B( 17-C , 32-H ) :   0.9577
B( 17-C , 33-H ) :   0.9405 B( 17-C , 34-H ) :   0.9488 B( 18-O , 19-C ) :   0.9430
B( 19-C , 35-H ) :   0.9473 B( 19-C , 36-H ) :   0.9397 B( 19-C , 37-H ) :   0.9590

Dispersion correction           -0.052923510
FINAL SINGLE POINT ENERGY     -1979.012267041422

DIPOLE MOMENT
-------------

Method             : SCF
Type of density    : Electron Density
Multiplicity       :   1
Irrep              :   0
Energy             : -1979.1411951435284209 Eh
Relativity type    :
Basis              : AO
                                X                 Y                 Z
Electronic contribution:     -3.019207447       1.170538825       3.008809813
Nuclear contribution   :      3.169424153      -0.531759129      -4.514612554
                        -----------------------------------------
Total Dipole Moment    :      0.150216706       0.638779696      -1.505802742
                        -----------------------------------------
Magnitude (a.u.)       :      1.642573120
Magnitude (Debye)      :      4.175089072

Rotational constants in cm-1:             0.010932             0.008614             0.006187
Rotational constants in MHz :           327.733994           258.245277           185.491864

                             ****ORCA TERMINATED NORMALLY****
TOTAL RUN TIME: 0 days 0 hours 0 minutes 29 seconds 661 msec
