                         Program Version 6.0.1  -  RELEASE   -
|  1> ! pbe def2-sv(p) def2/J RI DEFGRID1 loosescf d4 GCP(DFT/SV(P)) printgap
|  2> %output
|  3>     printlevel normal
|  4> end
|  5> * xyz 0 1
|  6> C 5.0728468943 -0.1968871633 -0.7368123285
|  7> C 4.2181135022 -0.8372694481 0.3448361953
|  8> O 2.8202288585 -0.7773907207 -0.0073598194
|  9> C 2.3137952107 -1.7536087936 -0.7445904351
| 10> O 2.9366331054 -2.7224050075 -1.1129617291
| 11> C 0.8456351909 -1.5371885898 -1.0398665122
| 12> C 0.4908224674 -0.0720002921 -1.26406943
| 13> H 0.9537173501 0.3252867946 -2.1687305211
| 14> C 0.8353823527 0.8062909406 -0.0801244601
| 15> O 0.3249699393 0.6508217435 1.0110649542
| 16> O 1.6697978105 1.761664442 -0.3945911533
| 17> C 2.0455279724 2.7026074672 0.6348357437
| 18> C 0.9643682954 3.7514882863 0.8380781827
| 19> S -1.3063656076 0.1363460497 -1.5014037885
| 20> P -2.124682508 -0.1757224708 0.4515399257
| 21> S -1.5836845424 -1.699631016 1.5621625459
| 22> O -2.2195130613 1.2237496913 1.1879728791
| 23> C -2.9152804216 2.3446169721 0.6071318886
| 24> O -3.6594139259 -0.3144967885 -0.0059268949
| 25> C -4.1516945527 -1.5011030856 -0.633025858
| 26> H 5.006757069 -0.7759852093 -1.6548017839
| 27> H 4.7328722896 0.8167059291 -0.9314465772
| 28> H 6.1063203411 -0.1736684338 -0.4077464938
| 29> H 4.2867398407 -0.2925978545 1.2869417928
| 30> H 4.4935792963 -1.8850675909 0.4925398684
| 31> H 0.2962701594 -1.9191980485 -0.1697767077
| 32> H 0.5688466954 -2.1345905052 -1.9087146619
| 33> H 2.2264849873 2.1484525995 1.5596506652
| 34> H 2.9697812663 3.1462690598 0.2658326322
| 35> H 0.7379847957 4.2450888204 -0.1030472151
| 36> H 0.0613887008 3.2837223804 1.2246684275
| 37> H 1.3114291468 4.4879190126 1.5552040619
| 38> H -3.9838031243 2.140864086 0.5793202152
| 39> H -2.5478028825 2.5349906129 -0.4018795256
| 40> H -2.6994518227 3.1841416019 1.2634781139
| 41> H -3.8387964096 -1.524811414 -1.6763479417
| 42> H -5.2347460095 -1.4463325232 -0.5585462668
| 43> H -3.7785804626 -2.3836626539 -0.1103604353
| 44> *
| 45>
| 46>                          ****END OF INPUT****

CARTESIAN COORDINATES (ANGSTROEM)
---------------------------------
  C      5.072847   -0.196887   -0.736812
  C      4.218114   -0.837269    0.344836
  O      2.820229   -0.777391   -0.007360
  C      2.313795   -1.753609   -0.744590
  O      2.936633   -2.722405   -1.112962
  C      0.845635   -1.537189   -1.039867
  C      0.490822   -0.072000   -1.264069
  H      0.953717    0.325287   -2.168731
  C      0.835382    0.806291   -0.080124
  O      0.324970    0.650822    1.011065
  O      1.669798    1.761664   -0.394591
  C      2.045528    2.702607    0.634836
  C      0.964368    3.751488    0.838078
  S     -1.306366    0.136346   -1.501404
  P     -2.124683   -0.175722    0.451540
  S     -1.583685   -1.699631    1.562163
  O     -2.219513    1.223750    1.187973
  C     -2.915280    2.344617    0.607132
  O     -3.659414   -0.314497   -0.005927
  C     -4.151695   -1.501103   -0.633026
  H      5.006757   -0.775985   -1.654802
  H      4.732872    0.816706   -0.931447
  H      6.106320   -0.173668   -0.407746
  H      4.286740   -0.292598    1.286942
  H      4.493579   -1.885068    0.492540
  H      0.296270   -1.919198   -0.169777
  H      0.568847   -2.134591   -1.908715
  H      2.226485    2.148453    1.559651
  H      2.969781    3.146269    0.265833
  H      0.737985    4.245089   -0.103047
  H      0.061389    3.283722    1.224668
  H      1.311429    4.487919    1.555204
  H     -3.983803    2.140864    0.579320
  H     -2.547803    2.534991   -0.401880
  H     -2.699452    3.184142    1.263478
  H     -3.838796   -1.524811   -1.676348
  H     -5.234746   -1.446333   -0.558546
  H     -3.778580   -2.383663   -0.110360

 Total Charge           Charge          ....    0
 Multiplicity           Mult            ....    1
 Number of Electrons    NEL             ....  174
 Basis Dimension        Dim             ....  316

ORBITAL ENERGIES
----------------

  NO   OCC          E(Eh)            E(eV)
   0   2.0000     -88.043747     -2395.7922
   1   2.0000     -87.974219     -2393.9002
   2   2.0000     -76.424469     -2079.6155
   3   2.0000     -18.814931      -511.9803
   4   2.0000     -18.808249      -511.7985
   5   2.0000     -18.788620      -511.2643
   6   2.0000     -18.786317      -511.2017
   7   2.0000     -18.746017      -510.1051
   8   2.0000     -18.736481      -509.8456
   9   2.0000     -10.021858      -272.7086
  10   2.0000     -10.011089      -272.4156
  11   2.0000      -9.958521      -270.9851
  12   2.0000      -9.952329      -270.8166
  13   2.0000      -9.951302      -270.7887
  14   2.0000      -9.946987      -270.6713
  15   2.0000      -9.938763      -270.4475
  16   2.0000      -9.904803      -269.5234
  17   2.0000      -9.894373      -269.2396
  18   2.0000      -9.891725      -269.1675
  19   2.0000      -7.688228      -209.2073
  20   2.0000      -7.619393      -207.3342
  21   2.0000      -6.420349      -174.7066
  22   2.0000      -5.716078      -155.5424
  23   2.0000      -5.712593      -155.4476
  24   2.0000      -5.705466      -155.2536
  25   2.0000      -5.648748      -153.7102
  26   2.0000      -5.640026      -153.4729
  27   2.0000      -5.639033      -153.4459
  28   2.0000      -4.643437      -126.3543
  29   2.0000      -4.642356      -126.3249
  30   2.0000      -4.640465      -126.2735
  31   2.0000      -1.025261       -27.8988
  32   2.0000      -1.012399       -27.5488
  33   2.0000      -0.982484       -26.7347
  34   2.0000      -0.936870       -25.4935
  35   2.0000      -0.927032       -25.2258
  36   2.0000      -0.916094       -24.9282
  37   2.0000      -0.768177       -20.9032
  38   2.0000      -0.714362       -19.4388
  39   2.0000      -0.712000       -19.3745
  40   2.0000      -0.690001       -18.7759
  41   2.0000      -0.659833       -17.9550
  42   2.0000      -0.633134       -17.2284
  43   2.0000      -0.625745       -17.0274
  44   2.0000      -0.614496       -16.7213
  45   2.0000      -0.598859       -16.2958
  46   2.0000      -0.571027       -15.5384
  47   2.0000      -0.515833       -14.0365
  48   2.0000      -0.504514       -13.7285
  49   2.0000      -0.502918       -13.6851
  50   2.0000      -0.483007       -13.1433
  51   2.0000      -0.471743       -12.8368
  52   2.0000      -0.460588       -12.5332
  53   2.0000      -0.446429       -12.1479
  54   2.0000      -0.444740       -12.1020
  55   2.0000      -0.436638       -11.8815
  56   2.0000      -0.430222       -11.7069
  57   2.0000      -0.423840       -11.5333
  58   2.0000      -0.411308       -11.1923
  59   2.0000      -0.409751       -11.1499
  60   2.0000      -0.404349       -11.0029
  61   2.0000      -0.396293       -10.7837
  62   2.0000      -0.394100       -10.7240
  63   2.0000      -0.388197       -10.5634
  64   2.0000      -0.378556       -10.3010
  65   2.0000      -0.367548       -10.0015
  66   2.0000      -0.362492        -9.8639
  67   2.0000      -0.356395        -9.6980
  68   2.0000      -0.352964        -9.6046
  69   2.0000      -0.342840        -9.3292
  70   2.0000      -0.337046        -9.1715
  71   2.0000      -0.332457        -9.0466
  72   2.0000      -0.325328        -8.8526
  73   2.0000      -0.315311        -8.5800
  74   2.0000      -0.306963        -8.3529
  75   2.0000      -0.299179        -8.1411
  76   2.0000      -0.295468        -8.0401
  77   2.0000      -0.290160        -7.8957
  78   2.0000      -0.276176        -7.5151
  79   2.0000      -0.265191        -7.2162
  80   2.0000      -0.258561        -7.0358
  81   2.0000      -0.255073        -6.9409
  82   2.0000      -0.244846        -6.6626
  83   2.0000      -0.234253        -6.3743
  84   2.0000      -0.217226        -5.9110
  85   2.0000      -0.192427        -5.2362
  86   2.0000      -0.183739        -4.9998
  87   0.0000      -0.055436        -1.5085
  88   0.0000      -0.025753        -0.7008
  89   0.0000      -0.022099        -0.6014
  90   0.0000       0.014425         0.3925
  91   0.0000       0.022434         0.6105

MULLIKEN ATOMIC CHARGES
-----------------------
   0 C :   -0.308518
   1 C :   -0.009880
   2 O :   -0.248087
   3 C :    0.122821
   4 O :   -0.195344
   5 C :   -0.070487
   6 C :   -0.304094
   7 H :    0.127262
   8 C :    0.213585
   9 O :   -0.189813
  10 O :   -0.219825
  11 C :   -0.014224
  12 C :   -0.326312
  13 S :   -0.099524
  14 P :    0.620011
  15 S :   -0.291102
  16 O :   -0.362101
  17 C :   -0.107290
  18 O :   -0.399460
  19 C :   -0.100967
  20 H :    0.126766
  21 H :    0.114591
  22 H :    0.114753
  23 H :    0.106187
  24 H :    0.114487
  25 H :    0.151189
  26 H :    0.113909
  27 H :    0.115385
  28 H :    0.105060
  29 H :    0.114497
  30 H :    0.148050
  31 H :    0.115388
  32 H :    0.128890
  33 H :    0.111363
  34 H :    0.130715
  35 H :    0.112479
  36 H :    0.121489
  37 H :    0.118150
Sum of atomic charges:   -0.0000000

LOEWDIN ATOMIC CHARGES
----------------------
   0 C :   -0.356240
   1 C :   -0.108779
   2 O :   -0.055057
   3 C :    0.036814
   4 O :   -0.160912
   5 C :   -0.259313
   6 C :   -0.260472
   7 H :    0.138616
   8 C :    0.004527
   9 O :   -0.156095
  10 O :   -0.043833
  11 C :   -0.107005
  12 C :   -0.360053
  13 S :    0.098336
  14 P :    0.585378
  15 S :   -0.292914
  16 O :   -0.235329
  17 C :   -0.212327
  18 O :   -0.265956
  19 C :   -0.219721
  20 H :    0.131064
  21 H :    0.123205
  22 H :    0.131481
  23 H :    0.118408
  24 H :    0.123803
  25 H :    0.144588
  26 H :    0.142288
  27 H :    0.123296
  28 H :    0.117726
  29 H :    0.125229
  30 H :    0.134376
  31 H :    0.132584
  32 H :    0.117282
  33 H :    0.105555
  34 H :    0.121876
  35 H :    0.107348
  36 H :    0.120611
  37 H :    0.109616

  Mayer bond orders larger than 0.100000
B(  0-C ,  1-C ) :   1.1740 B(  0-C , 20-H ) :   0.9453 B(  0-C , 21-H ) :   0.9477
B(  0-C , 22-H ) :   0.9436 B(  1-C ,  2-O ) :   0.9086 B(  1-C , 23-H ) :   0.9357
B(  1-C , 24-H ) :   0.9135 B(  2-O ,  3-C ) :   1.1910 B(  3-C ,  4-O ) :   2.0681
B(  3-C ,  5-C ) :   1.0247 B(  5-C ,  6-C ) :   1.0097 B(  5-C , 25-H ) :   0.8333
B(  5-C , 26-H ) :   0.9033 B(  6-C ,  7-H ) :   0.8843 B(  6-C ,  8-C ) :   0.8981
B(  6-C , 13-S ) :   1.0070 B(  8-C ,  9-O ) :   1.9586 B(  8-C , 10-O ) :   1.2555
B( 10-O , 11-C ) :   0.9098 B( 11-C , 12-C ) :   1.1746 B( 11-C , 27-H ) :   0.9157
B( 11-C , 28-H ) :   0.9360 B( 12-C , 29-H ) :   0.9473 B( 12-C , 30-H ) :   0.9348
B( 12-C , 31-H ) :   0.9416 B( 13-S , 14-P ) :   0.9370 B( 13-S , 15-S ) :   0.1161
B( 14-P , 15-S ) :   1.6279 B( 14-P , 16-O ) :   1.1060 B( 14-P , 18-O ) :   1.0384
B( 15-S , 25-H ) :   0.1088 B( 16-O , 17-C ) :   0.9215 B( 17-C , 32-H ) :   0.9480
B( 17-C , 33-H ) :   0.9367 B( 17-C , 34-H ) :   0.9527 B( 18-O , 19-C ) :   0.9358
B( 19-C , 35-H ) :   0.9491 B( 19-C , 36-H ) :   0.9587 B( 19-C , 37-H ) :   0.9290

Dispersion correction           -0.052854940
FINAL SINGLE POINT ENERGY     -1979.011065298473

DIPOLE MOMENT
-------------

Method             : SCF
Type of density    : Electron Density
Multiplicity       :   1
Irrep              :   0
Energy             : -1979.1423363084700213 Eh
Relativity type    :
Basis              : AO
                                X                 Y                 Z
Electronic contribution:    -12.584103290     -11.191425176       1.437034395
Nuclear contribution   :     12.957328653      13.125307920      -2.143696946
                        -----------------------------------------
Total Dipole Moment    :      0.373225363       1.933882744      -0.706662550
                        -----------------------------------------
Magnitude (a.u.)       :      2.092503668
Magnitude (Debye)      :      5.318721638

Rotational constants in cm-1:             0.014805             0.007092             0.005671
Rotational constants in MHz :           443.844684           212.617258           170.008643

                             ****ORCA TERMINATED NORMALLY****
TOTAL RUN TIME: 0 days 0 hours 0 minutes 41 seconds 628 msec
