                         Program Version 6.0.0  -   RELEASE  -
|  1> ! pbe def2-sv(p) def2/J RI DEFGRID1 loosescf d4 GCP(DFT/SV(P)) printgap
|  2> %output
|  3>     printlevel normal
|  4> end
|  5> * xyz 0 1
|  6> C 3.9050362288 -2.0075552355 -2.1678444543
|  7> C 4.012926898 -0.4995192223 -2.0704956751
|  8> O 3.4569323735 0.0117717658 -0.8457148396
|  9> P 1.9049682735 -0.0485290636 -0.5189462213
| 10> S 0.7428212738 0.3005684633 -2.0533448402
| 11> O 1.7366954409 1.0325036467 0.6154515814
| 12> C 2.183350273 0.9387432364 1.9901498202
| 13> C 3.6634241143 0.6525614807 2.1121991962
| 14> S 1.608620482 -1.9324283419 0.4112631771
| 15> C -0.1946167873 -1.9351348255 0.3036141154
| 16> S -0.9922996547 -0.8535324739 1.5463158237
| 17> P -1.9114467147 0.6983424343 0.4538137713
| 18> S -1.0848077769 2.4432224715 0.1450256924
| 19> O -3.2246328079 0.973451747 1.3077399698
| 20> C -4.1605388736 -0.0602740713 1.6995876233
| 21> C -4.0596519743 -0.3240637364 3.1887714437
| 22> O -2.3676418234 -0.1394142747 -0.8287361141
| 23> C -2.794479454 0.5055901055 -2.0465938991
| 24> C -2.7008974101 -0.5080271061 -3.1674463779
| 25> H 4.4593085971 -2.3479307307 -3.0365922185
| 26> H 4.3104798022 -2.4757147712 -1.2746443003
| 27> H 2.8626259307 -2.3008362222 -2.2783780714
| 28> H 3.4981310588 -0.0215339937 -2.9099582538
| 29> H 5.0523508527 -0.1699615313 -2.0381593629
| 30> H 1.9201016789 1.9168582859 2.3969971901
| 31> H 1.5915934549 0.1655207088 2.4901822492
| 32> H 4.2356342188 1.3825787427 1.5455956835
| 33> H 3.9448941748 0.7080480269 3.159279609
| 34> H 3.8883435601 -0.343258102 1.7357380399
| 35> H -0.51702166 -2.9495226208 0.5210322152
| 36> H -0.5007092605 -1.6159332754 -0.6927535899
| 37> H -5.1424589085 0.3370077991 1.4359745136
| 38> H -3.962107573 -0.9649910491 1.1190185909
| 39> H -3.0792007454 -0.722802725 3.438944428
| 40> H -4.2116789403 0.600659483 3.7382424316
| 41> H -4.8218921819 -1.0419421557 3.4742864052
| 42> H -3.8191352011 0.8580257452 -1.9011121867
| 43> H -2.1444043423 1.3673166434 -2.231463726
| 44> H -1.6621315671 -0.7882177689 -3.3239058012
| 45> H -3.2811466018 -1.3923355624 -2.9207121364
| 46> H -3.0873201019 -0.0624390424 -4.0778698653
| 47> *
| 48>
| 49>                          ****END OF INPUT****

CARTESIAN COORDINATES (ANGSTROEM)
---------------------------------
  C      3.905036   -2.007555   -2.167844
  C      4.012927   -0.499519   -2.070496
  O      3.456932    0.011772   -0.845715
  P      1.904968   -0.048529   -0.518946
  S      0.742821    0.300568   -2.053345
  O      1.736695    1.032504    0.615452
  C      2.183350    0.938743    1.990150
  C      3.663424    0.652561    2.112199
  S      1.608620   -1.932428    0.411263
  C     -0.194617   -1.935135    0.303614
  S     -0.992300   -0.853532    1.546316
  P     -1.911447    0.698342    0.453814
  S     -1.084808    2.443222    0.145026
  O     -3.224633    0.973452    1.307740
  C     -4.160539   -0.060274    1.699588
  C     -4.059652   -0.324064    3.188771
  O     -2.367642   -0.139414   -0.828736
  C     -2.794479    0.505590   -2.046594
  C     -2.700897   -0.508027   -3.167446
  H      4.459309   -2.347931   -3.036592
  H      4.310480   -2.475715   -1.274644
  H      2.862626   -2.300836   -2.278378
  H      3.498131   -0.021534   -2.909958
  H      5.052351   -0.169962   -2.038159
  H      1.920102    1.916858    2.396997
  H      1.591593    0.165521    2.490182
  H      4.235634    1.382579    1.545596
  H      3.944894    0.708048    3.159280
  H      3.888344   -0.343258    1.735738
  H     -0.517022   -2.949523    0.521032
  H     -0.500709   -1.615933   -0.692754
  H     -5.142459    0.337008    1.435975
  H     -3.962108   -0.964991    1.119019
  H     -3.079201   -0.722803    3.438944
  H     -4.211679    0.600659    3.738242
  H     -4.821892   -1.041942    3.474286
  H     -3.819135    0.858026   -1.901112
  H     -2.144404    1.367317   -2.231464
  H     -1.662132   -0.788218   -3.323906
  H     -3.281147   -1.392336   -2.920712
  H     -3.087320   -0.062439   -4.077870

 Total Charge           Charge          ....    0
 Multiplicity           Mult            ....    1
 Number of Electrons    NEL             ....  202
 Basis Dimension        Dim             ....  334

ORBITAL ENERGIES
----------------

  NO   OCC          E(Eh)            E(eV)
   0   2.0000     -88.047155     -2395.8849
   1   2.0000     -88.043026     -2395.7725
   2   2.0000     -87.983324     -2394.1480
   3   2.0000     -87.966067     -2393.6784
   4   2.0000     -76.425695     -2079.6489
   5   2.0000     -76.414782     -2079.3519
   6   2.0000     -18.793304      -511.3918
   7   2.0000     -18.785185      -511.1709
   8   2.0000     -18.783626      -511.1284
   9   2.0000     -18.781266      -511.0642
  10   2.0000      -9.960596      -271.0416
  11   2.0000      -9.953658      -270.8528
  12   2.0000      -9.950632      -270.7705
  13   2.0000      -9.947502      -270.6853
  14   2.0000      -9.943521      -270.5770
  15   2.0000      -9.886245      -269.0184
  16   2.0000      -9.884342      -268.9666
  17   2.0000      -9.883485      -268.9433
  18   2.0000      -9.879680      -268.8398
  19   2.0000      -7.692185      -209.3150
  20   2.0000      -7.688027      -209.2019
  21   2.0000      -7.628241      -207.5750
  22   2.0000      -7.611442      -207.1179
  23   2.0000      -6.422955      -174.7775
  24   2.0000      -6.412618      -174.4962
  25   2.0000      -5.719906      -155.6466
  26   2.0000      -5.716613      -155.5570
  27   2.0000      -5.716197      -155.5456
  28   2.0000      -5.712092      -155.4339
  29   2.0000      -5.709386      -155.3603
  30   2.0000      -5.705080      -155.2431
  31   2.0000      -5.657060      -153.9364
  32   2.0000      -5.648889      -153.7141
  33   2.0000      -5.648403      -153.7009
  34   2.0000      -5.640772      -153.4932
  35   2.0000      -5.632022      -153.2551
  36   2.0000      -5.631176      -153.2321
  37   2.0000      -4.645692      -126.4157
  38   2.0000      -4.644844      -126.3926
  39   2.0000      -4.643201      -126.3479
  40   2.0000      -4.635612      -126.1414
  41   2.0000      -4.634430      -126.1093
  42   2.0000      -4.632602      -126.0595
  43   2.0000      -0.984618       -26.7928
  44   2.0000      -0.975810       -26.5531
  45   2.0000      -0.942032       -25.6340
  46   2.0000      -0.935422       -25.4541
  47   2.0000      -0.763878       -20.7862
  48   2.0000      -0.718337       -19.5469
  49   2.0000      -0.708327       -19.2746
  50   2.0000      -0.689171       -18.7533
  51   2.0000      -0.687550       -18.7092
  52   2.0000      -0.674205       -18.3461
  53   2.0000      -0.647843       -17.6287
  54   2.0000      -0.628546       -17.1036
  55   2.0000      -0.598633       -16.2896
  56   2.0000      -0.578688       -15.7469
  57   2.0000      -0.572475       -15.5778
  58   2.0000      -0.567268       -15.4362
  59   2.0000      -0.561831       -15.2882
  60   2.0000      -0.503159       -13.6917
  61   2.0000      -0.491021       -13.3614
  62   2.0000      -0.474731       -12.9181
  63   2.0000      -0.468776       -12.7560
  64   2.0000      -0.451822       -12.2947
  65   2.0000      -0.444347       -12.0913
  66   2.0000      -0.442384       -12.0379
  67   2.0000      -0.434099       -11.8124
  68   2.0000      -0.429846       -11.6967
  69   2.0000      -0.420364       -11.4387
  70   2.0000      -0.411679       -11.2024
  71   2.0000      -0.392855       -10.6901
  72   2.0000      -0.386986       -10.5304
  73   2.0000      -0.382157       -10.3990
  74   2.0000      -0.378900       -10.3104
  75   2.0000      -0.367737       -10.0066
  76   2.0000      -0.361472        -9.8362
  77   2.0000      -0.357388        -9.7250
  78   2.0000      -0.355584        -9.6759
  79   2.0000      -0.349514        -9.5108
  80   2.0000      -0.346811        -9.4372
  81   2.0000      -0.344977        -9.3873
  82   2.0000      -0.338594        -9.2136
  83   2.0000      -0.336130        -9.1466
  84   2.0000      -0.326201        -8.8764
  85   2.0000      -0.312972        -8.5164
  86   2.0000      -0.310190        -8.4407
  87   2.0000      -0.298268        -8.1163
  88   2.0000      -0.293035        -7.9739
  89   2.0000      -0.288367        -7.8469
  90   2.0000      -0.273571        -7.4443
  91   2.0000      -0.271714        -7.3937
  92   2.0000      -0.264772        -7.2048
  93   2.0000      -0.262368        -7.1394
  94   2.0000      -0.257433        -7.0051
  95   2.0000      -0.241275        -6.5654
  96   2.0000      -0.221008        -6.0139
  97   2.0000      -0.209496        -5.7007
  98   2.0000      -0.202102        -5.4995
  99   2.0000      -0.183833        -5.0023
 100   2.0000      -0.171046        -4.6544
 101   0.0000      -0.042977        -1.1695
 102   0.0000      -0.025742        -0.7005
 103   0.0000      -0.020074        -0.5462
 104   0.0000       0.003430         0.0933
 105   0.0000       0.022085         0.6010

MULLIKEN ATOMIC CHARGES
-----------------------
   0 C :   -0.317831
   1 C :   -0.001891
   2 O :   -0.371568
   3 P :    0.605335
   4 S :   -0.310865
   5 O :   -0.337135
   6 C :   -0.003226
   7 C :   -0.306031
   8 S :   -0.107480
   9 C :   -0.351277
  10 S :   -0.117108
  11 P :    0.609756
  12 S :   -0.288124
  13 O :   -0.368596
  14 C :   -0.018895
  15 C :   -0.288920
  16 O :   -0.395895
  17 C :   -0.009110
  18 C :   -0.291308
  19 H :    0.114386
  20 H :    0.115969
  21 H :    0.125587
  22 H :    0.115074
  23 H :    0.105855
  24 H :    0.114270
  25 H :    0.113744
  26 H :    0.122032
  27 H :    0.112153
  28 H :    0.112772
  29 H :    0.182200
  30 H :    0.214737
  31 H :    0.106589
  32 H :    0.099016
  33 H :    0.121470
  34 H :    0.120633
  35 H :    0.106772
  36 H :    0.097127
  37 H :    0.122011
  38 H :    0.132980
  39 H :    0.105738
  40 H :    0.109056
Sum of atomic charges:    0.0000000

LOEWDIN ATOMIC CHARGES
----------------------
   0 C :   -0.371455
   1 C :   -0.117703
   2 O :   -0.239330
   3 P :    0.573997
   4 S :   -0.294324
   5 O :   -0.220588
   6 C :   -0.115322
   7 C :   -0.366363
   8 S :    0.074135
   9 C :   -0.476166
  10 S :    0.080814
  11 P :    0.553816
  12 S :   -0.293649
  13 O :   -0.247390
  14 C :   -0.123067
  15 C :   -0.360137
  16 O :   -0.257018
  17 C :   -0.119750
  18 C :   -0.355842
  19 H :    0.131865
  20 H :    0.122879
  21 H :    0.120426
  22 H :    0.113265
  23 H :    0.119209
  24 H :    0.125196
  25 H :    0.102802
  26 H :    0.128471
  27 H :    0.130721
  28 H :    0.115782
  29 H :    0.137864
  30 H :    0.131077
  31 H :    0.118837
  32 H :    0.104227
  33 H :    0.118661
  34 H :    0.129178
  35 H :    0.128275
  36 H :    0.108728
  37 H :    0.112054
  38 H :    0.124345
  39 H :    0.121672
  40 H :    0.129808

  Mayer bond orders larger than 0.100000
B(  0-C ,  1-C ) :   1.1652 B(  0-C , 19-H ) :   0.9375 B(  0-C , 20-H ) :   0.9451
B(  0-C , 21-H ) :   0.9340 B(  1-C ,  2-O ) :   0.9044 B(  1-C , 22-H ) :   0.9156
B(  1-C , 23-H ) :   0.9337 B(  2-O ,  3-P ) :   1.0978 B(  3-P ,  4-S ) :   1.6142
B(  3-P ,  5-O ) :   1.1690 B(  3-P ,  8-S ) :   0.9298 B(  4-S ,  8-S ) :   0.1045
B(  5-O ,  6-C ) :   0.8968 B(  6-C ,  7-C ) :   1.1678 B(  6-C , 24-H ) :   0.9318
B(  6-C , 25-H ) :   0.9107 B(  7-C , 26-H ) :   0.9436 B(  7-C , 27-H ) :   0.9368
B(  7-C , 28-H ) :   0.9390 B(  8-S ,  9-C ) :   1.0106 B(  9-C , 10-S ) :   0.9864
B(  9-C , 29-H ) :   0.9108 B(  9-C , 30-H ) :   0.8562 B( 10-S , 11-P ) :   0.9463
B( 10-S , 12-S ) :   0.1034 B( 11-P , 12-S ) :   1.6979 B( 11-P , 13-O ) :   1.1014
B( 11-P , 16-O ) :   1.0649 B( 13-O , 14-C ) :   0.9045 B( 14-C , 15-C ) :   1.1655
B( 14-C , 31-H ) :   0.9324 B( 14-C , 32-H ) :   0.9140 B( 15-C , 33-H ) :   0.9403
B( 15-C , 34-H ) :   0.9462 B( 15-C , 35-H ) :   0.9404 B( 16-O , 17-C ) :   0.8910
B( 17-C , 18-C ) :   1.1629 B( 17-C , 36-H ) :   0.9334 B( 17-C , 37-H ) :   0.9064
B( 18-C , 38-H ) :   0.9416 B( 18-C , 39-H ) :   0.9494 B( 18-C , 40-H ) :   0.9416

Dispersion correction           -0.067949058
FINAL SINGLE POINT ENERGY     -2929.510307320994

DIPOLE MOMENT
-------------

Method             : SCF
Type of density    : Electron Density
Multiplicity       :   1
Irrep              :   0
Energy             : -2929.6282362457718591 Eh
Relativity type    :
Basis              : AO
                                X                 Y                 Z
Electronic contribution:      0.506334146       8.229224000       1.682535399
Nuclear contribution   :     -0.445004286      -9.803263992      -1.469008050
                        -----------------------------------------
Total Dipole Moment    :      0.061329861      -1.574039992       0.213527349
                        -----------------------------------------
Magnitude (a.u.)       :      1.589640581
Magnitude (Debye)      :      4.040545249

Rotational constants in cm-1:             0.012109             0.005647             0.005018
Rotational constants in MHz :           363.030962           169.300102           150.423028

                             ****ORCA TERMINATED NORMALLY****
TOTAL RUN TIME: 0 days 0 hours 0 minutes 21 seconds 484 msec
