                         Program Version 6.0.0  -   RELEASE  -
|  1> ! pbe def2-sv(p) def2/J RI DEFGRID1 loosescf d4 GCP(DFT/SV(P)) printgap
|  2> %output
|  3>     printlevel normal
|  4> end
|  5> * xyz 0 1
|  6> C 4.0028432115 -1.3682681232 -2.6471386676
|  7> C 4.2519079477 -1.8458913199 -1.2312360621
|  8> O 3.0412469782 -1.8836221712 -0.4561359016
|  9> P 2.2746537866 -0.5634628815 -0.0095790391
| 10> S 3.4582439498 0.9200929939 0.4986416561
| 11> O 1.3104255699 -1.1368506659 1.1078993466
| 12> C 1.7582923773 -1.3559383646 2.4676009238
| 13> C 1.3953302475 -0.1769185146 3.348619763
| 14> S 0.8638733034 -0.189737381 -1.5350620014
| 15> C 0.4095781926 1.468414771 -0.9591172217
| 16> S -0.5905366842 1.4368804863 0.5452408284
| 17> P -2.3182982781 0.5596759658 -0.3523582437
| 18> S -2.706958635 1.176368205 -2.1656055058
| 19> O -3.4404202094 0.8343274703 0.7385165214
| 20> C -3.9758027639 2.1595396332 0.9437648918
| 21> C -5.2477078298 2.0239504001 1.7556474176
| 22> O -2.1581227154 -1.0021271462 -0.2714068555
| 23> C -1.9998042778 -1.7235166354 0.9781397857
| 24> C -1.4177501213 -3.0824608813 0.6514019479
| 25> H 4.9167305873 -1.4605452128 -3.2251356982
| 26> H 3.2182486564 -1.9589971439 -3.1135081694
| 27> H 3.6942906998 -0.323389245 -2.6387100595
| 28> H 4.9668244181 -1.1895247849 -0.7245130467
| 29> H 4.6105400549 -2.8757419589 -1.20908377
| 30> H 1.2439471361 -2.2654874783 2.7819834676
| 31> H 2.8380771292 -1.5262595905 2.4676286857
| 32> H 0.3272822616 0.0175772984 3.3027113488
| 33> H 1.678192731 -0.3961887616 4.3730995182
| 34> H 1.9207170197 0.7165255945 3.0182755211
| 35> H -0.1642414328 1.9318166046 -1.761981487
| 36> H 1.311913621 2.0359978366 -0.7303112213
| 37> H -3.2237022155 2.7522817574 1.4711657291
| 38> H -4.1677466815 2.6115996733 -0.0346108891
| 39> H -5.9710884863 1.4183468656 1.2170286527
| 40> H -5.0317294226 1.5516506022 2.709407926
| 41> H -5.6650614321 3.0102903847 1.9290490685
| 42> H -1.3359490639 -1.148786415 1.6298894114
| 43> H -2.9848617485 -1.8040496366 1.4408777882
| 44> H -0.4261382654 -2.9712353989 0.2194327123
| 45> H -1.3511007439 -3.6705698999 1.5611419438
| 46> H -2.0540751304 -3.5953362327 -0.0641231134
| 47> *
| 48>
| 49>                          ****END OF INPUT****

CARTESIAN COORDINATES (ANGSTROEM)
---------------------------------
  C      4.002843   -1.368268   -2.647139
  C      4.251908   -1.845891   -1.231236
  O      3.041247   -1.883622   -0.456136
  P      2.274654   -0.563463   -0.009579
  S      3.458244    0.920093    0.498642
  O      1.310426   -1.136851    1.107899
  C      1.758292   -1.355938    2.467601
  C      1.395330   -0.176919    3.348620
  S      0.863873   -0.189737   -1.535062
  C      0.409578    1.468415   -0.959117
  S     -0.590537    1.436880    0.545241
  P     -2.318298    0.559676   -0.352358
  S     -2.706959    1.176368   -2.165606
  O     -3.440420    0.834327    0.738517
  C     -3.975803    2.159540    0.943765
  C     -5.247708    2.023950    1.755647
  O     -2.158123   -1.002127   -0.271407
  C     -1.999804   -1.723517    0.978140
  C     -1.417750   -3.082461    0.651402
  H      4.916731   -1.460545   -3.225136
  H      3.218249   -1.958997   -3.113508
  H      3.694291   -0.323389   -2.638710
  H      4.966824   -1.189525   -0.724513
  H      4.610540   -2.875742   -1.209084
  H      1.243947   -2.265487    2.781983
  H      2.838077   -1.526260    2.467629
  H      0.327282    0.017577    3.302711
  H      1.678193   -0.396189    4.373100
  H      1.920717    0.716526    3.018276
  H     -0.164241    1.931817   -1.761981
  H      1.311914    2.035998   -0.730311
  H     -3.223702    2.752282    1.471166
  H     -4.167747    2.611600   -0.034611
  H     -5.971088    1.418347    1.217029
  H     -5.031729    1.551651    2.709408
  H     -5.665061    3.010290    1.929049
  H     -1.335949   -1.148786    1.629889
  H     -2.984862   -1.804050    1.440878
  H     -0.426138   -2.971235    0.219433
  H     -1.351101   -3.670570    1.561142
  H     -2.054075   -3.595336   -0.064123

 Total Charge           Charge          ....    0
 Multiplicity           Mult            ....    1
 Number of Electrons    NEL             ....  202
 Basis Dimension        Dim             ....  334

ORBITAL ENERGIES
----------------

  NO   OCC          E(Eh)            E(eV)
   0   2.0000     -88.043789     -2395.7933
   1   2.0000     -88.039793     -2395.6846
   2   2.0000     -87.992376     -2394.3943
   3   2.0000     -87.983421     -2394.1506
   4   2.0000     -76.430112     -2079.7691
   5   2.0000     -76.424139     -2079.6065
   6   2.0000     -18.797396      -511.5031
   7   2.0000     -18.795531      -511.4524
   8   2.0000     -18.794963      -511.4369
   9   2.0000     -18.790704      -511.3210
  10   2.0000      -9.959057      -270.9997
  11   2.0000      -9.954840      -270.8850
  12   2.0000      -9.954534      -270.8766
  13   2.0000      -9.953073      -270.8369
  14   2.0000      -9.951668      -270.7986
  15   2.0000      -9.890460      -269.1331
  16   2.0000      -9.885279      -268.9921
  17   2.0000      -9.884283      -268.9650
  18   2.0000      -9.883580      -268.9459
  19   2.0000      -7.688934      -209.2265
  20   2.0000      -7.684794      -209.1139
  21   2.0000      -7.637270      -207.8207
  22   2.0000      -7.628777      -207.5896
  23   2.0000      -6.427806      -174.9095
  24   2.0000      -6.421806      -174.7462
  25   2.0000      -5.716744      -155.5605
  26   2.0000      -5.713686      -155.4773
  27   2.0000      -5.712480      -155.4445
  28   2.0000      -5.709345      -155.3592
  29   2.0000      -5.705701      -155.2600
  30   2.0000      -5.701931      -155.1574
  31   2.0000      -5.666038      -154.1807
  32   2.0000      -5.658033      -153.9629
  33   2.0000      -5.657741      -153.9550
  34   2.0000      -5.657447      -153.9470
  35   2.0000      -5.649332      -153.7261
  36   2.0000      -5.648913      -153.7147
  37   2.0000      -4.650396      -126.5437
  38   2.0000      -4.649468      -126.5185
  39   2.0000      -4.648305      -126.4868
  40   2.0000      -4.644694      -126.3886
  41   2.0000      -4.643575      -126.3581
  42   2.0000      -4.641953      -126.3140
  43   2.0000      -0.991488       -26.9798
  44   2.0000      -0.988838       -26.9076
  45   2.0000      -0.949529       -25.8380
  46   2.0000      -0.944852       -25.7107
  47   2.0000      -0.765415       -20.8280
  48   2.0000      -0.723711       -19.6932
  49   2.0000      -0.712220       -19.3805
  50   2.0000      -0.691899       -18.8275
  51   2.0000      -0.688929       -18.7467
  52   2.0000      -0.676242       -18.4015
  53   2.0000      -0.650224       -17.6935
  54   2.0000      -0.637831       -17.3563
  55   2.0000      -0.600579       -16.3426
  56   2.0000      -0.583820       -15.8865
  57   2.0000      -0.578147       -15.7322
  58   2.0000      -0.568857       -15.4794
  59   2.0000      -0.561194       -15.2709
  60   2.0000      -0.511966       -13.9313
  61   2.0000      -0.503965       -13.7136
  62   2.0000      -0.483303       -13.1513
  63   2.0000      -0.473302       -12.8792
  64   2.0000      -0.462746       -12.5920
  65   2.0000      -0.447620       -12.1804
  66   2.0000      -0.442076       -12.0295
  67   2.0000      -0.438337       -11.9278
  68   2.0000      -0.429704       -11.6928
  69   2.0000      -0.417858       -11.3705
  70   2.0000      -0.406889       -11.0720
  71   2.0000      -0.400166       -10.8891
  72   2.0000      -0.393133       -10.6977
  73   2.0000      -0.381425       -10.3791
  74   2.0000      -0.377305       -10.2670
  75   2.0000      -0.376484       -10.2446
  76   2.0000      -0.366764        -9.9801
  77   2.0000      -0.362013        -9.8509
  78   2.0000      -0.355541        -9.6748
  79   2.0000      -0.352628        -9.5955
  80   2.0000      -0.349650        -9.5145
  81   2.0000      -0.346513        -9.4291
  82   2.0000      -0.344562        -9.3760
  83   2.0000      -0.338559        -9.2126
  84   2.0000      -0.335572        -9.1314
  85   2.0000      -0.317913        -8.6508
  86   2.0000      -0.312378        -8.5002
  87   2.0000      -0.303069        -8.2469
  88   2.0000      -0.299014        -8.1366
  89   2.0000      -0.298866        -8.1326
  90   2.0000      -0.291276        -7.9260
  91   2.0000      -0.282026        -7.6743
  92   2.0000      -0.271131        -7.3779
  93   2.0000      -0.266602        -7.2546
  94   2.0000      -0.258263        -7.0277
  95   2.0000      -0.235411        -6.4059
  96   2.0000      -0.220110        -5.9895
  97   2.0000      -0.214060        -5.8249
  98   2.0000      -0.205105        -5.5812
  99   2.0000      -0.202826        -5.5192
 100   2.0000      -0.197961        -5.3868
 101   0.0000      -0.045190        -1.2297
 102   0.0000      -0.024379        -0.6634
 103   0.0000      -0.004555        -0.1239
 104   0.0000       0.002005         0.0546
 105   0.0000       0.011455         0.3117

MULLIKEN ATOMIC CHARGES
-----------------------
   0 C :   -0.316843
   1 C :   -0.006982
   2 O :   -0.375089
   3 P :    0.610868
   4 S :   -0.335561
   5 O :   -0.363905
   6 C :   -0.002530
   7 C :   -0.300301
   8 S :   -0.053279
   9 C :   -0.378603
  10 S :   -0.100448
  11 P :    0.604286
  12 S :   -0.314714
  13 O :   -0.390221
  14 C :   -0.011471
  15 C :   -0.279847
  16 O :   -0.352113
  17 C :   -0.023371
  18 C :   -0.285865
  19 H :    0.114583
  20 H :    0.120480
  21 H :    0.128030
  22 H :    0.112422
  23 H :    0.105868
  24 H :    0.104941
  25 H :    0.105810
  26 H :    0.123686
  27 H :    0.107491
  28 H :    0.128826
  29 H :    0.197213
  30 H :    0.191436
  31 H :    0.104346
  32 H :    0.107736
  33 H :    0.121905
  34 H :    0.113441
  35 H :    0.113652
  36 H :    0.118017
  37 H :    0.105442
  38 H :    0.128874
  39 H :    0.102514
  40 H :    0.119276
Sum of atomic charges:   -0.0000000

LOEWDIN ATOMIC CHARGES
----------------------
   0 C :   -0.368769
   1 C :   -0.120347
   2 O :   -0.245608
   3 P :    0.571865
   4 S :   -0.322945
   5 O :   -0.238409
   6 C :   -0.111897
   7 C :   -0.363163
   8 S :    0.106539
   9 C :   -0.487998
  10 S :    0.068134
  11 P :    0.566160
  12 S :   -0.311825
  13 O :   -0.253244
  14 C :   -0.119262
  15 C :   -0.350217
  16 O :   -0.230722
  17 C :   -0.113545
  18 C :   -0.352909
  19 H :    0.131936
  20 H :    0.125910
  21 H :    0.121871
  22 H :    0.110406
  23 H :    0.118992
  24 H :    0.116900
  25 H :    0.111422
  26 H :    0.121359
  27 H :    0.128259
  28 H :    0.125807
  29 H :    0.129818
  30 H :    0.128145
  31 H :    0.108825
  32 H :    0.111032
  33 H :    0.129635
  34 H :    0.125450
  35 H :    0.131726
  36 H :    0.105343
  37 H :    0.113275
  38 H :    0.127006
  39 H :    0.125958
  40 H :    0.129086

  Mayer bond orders larger than 0.100000
B(  0-C ,  1-C ) :   1.1647 B(  0-C , 19-H ) :   0.9381 B(  0-C , 20-H ) :   0.9452
B(  0-C , 21-H ) :   0.9350 B(  1-C ,  2-O ) :   0.9072 B(  1-C , 22-H ) :   0.9150
B(  1-C , 23-H ) :   0.9332 B(  2-O ,  3-P ) :   1.1087 B(  3-P ,  4-S ) :   1.5863
B(  3-P ,  5-O ) :   1.1137 B(  3-P ,  8-S ) :   0.9695 B(  4-S ,  8-S ) :   0.1103
B(  5-O ,  6-C ) :   0.8882 B(  6-C ,  7-C ) :   1.1715 B(  6-C , 24-H ) :   0.9320
B(  6-C , 25-H ) :   0.9162 B(  7-C , 26-H ) :   0.9446 B(  7-C , 27-H ) :   0.9387
B(  7-C , 28-H ) :   0.9317 B(  8-S ,  9-C ) :   1.0032 B(  9-C , 10-S ) :   1.0078
B(  9-C , 29-H ) :   0.8719 B(  9-C , 30-H ) :   0.8733 B( 10-S , 11-P ) :   0.9480
B( 10-S , 12-S ) :   0.1094 B( 11-P , 12-S ) :   1.6527 B( 11-P , 13-O ) :   1.0819
B( 11-P , 16-O ) :   1.1480 B( 13-O , 14-C ) :   0.9038 B( 14-C , 15-C ) :   1.1598
B( 14-C , 31-H ) :   0.9280 B( 14-C , 32-H ) :   0.9121 B( 15-C , 33-H ) :   0.9508
B( 15-C , 34-H ) :   0.9512 B( 15-C , 35-H ) :   0.9418 B( 16-O , 17-C ) :   0.8853
B( 17-C , 18-C ) :   1.1691 B( 17-C , 36-H ) :   0.9058 B( 17-C , 37-H ) :   0.9306
B( 18-C , 38-H ) :   0.9398 B( 18-C , 39-H ) :   0.9395 B( 18-C , 40-H ) :   0.9478

Dispersion correction           -0.065219674
FINAL SINGLE POINT ENERGY     -2929.525808340574

DIPOLE MOMENT
-------------

Method             : SCF
Type of density    : Electron Density
Multiplicity       :   1
Irrep              :   0
Energy             : -2929.6455925991708682 Eh
Relativity type    :
Basis              : AO
                                X                 Y                 Z
Electronic contribution:      1.670137867       7.937312140     -12.761692699
Nuclear contribution   :     -1.556109640      -8.715537262      14.132673896
                        -----------------------------------------
Total Dipole Moment    :      0.114028226      -0.778225122       1.370981197
                        -----------------------------------------
Magnitude (a.u.)       :      1.580577812
Magnitude (Debye)      :      4.017509520

Rotational constants in cm-1:             0.012859             0.004857             0.004557
Rotational constants in MHz :           385.498072           145.618940           136.613022

                             ****ORCA TERMINATED NORMALLY****
TOTAL RUN TIME: 0 days 0 hours 0 minutes 21 seconds 713 msec
