                         Program Version 6.0.0  -   RELEASE  -
|  1> ! pbe def2-sv(p) def2/J RI DEFGRID1 loosescf d4 GCP(DFT/SV(P)) printgap
|  2> %output
|  3>     printlevel normal
|  4> end
|  5> * xyz 0 1
|  6> C 4.0290512037 -0.9969384623 -2.6708295537
|  7> C 4.297927113 -1.5741306407 -1.2962033221
|  8> O 3.0883144986 -1.7389659588 -0.5361802638
|  9> P 2.2478886813 -0.5001157631 0.002723646
| 10> S 3.347261045 1.0017621143 0.6317982504
| 11> O 1.31224942 -1.208441629 1.0661859787
| 12> C 1.7694594588 -1.5134329301 2.4059790443
| 13> C 1.3534818384 -0.4254021527 3.3761261009
| 14> S 0.8254227255 -0.0899935551 -1.5004621483
| 15> C 0.2839859265 1.4986906595 -0.8114151142
| 16> S -0.7263128206 1.3157850484 0.6753912819
| 17> P -2.4057841766 0.4354718605 -0.306892691
| 18> S -2.7999337486 1.1128843061 -2.0966222922
| 19> O -3.5740870058 0.5586763208 0.7662346648
| 20> C -4.4367756299 1.7089478159 0.8485362853
| 21> C -3.6911274691 2.963519135 1.2537255425
| 22> O -2.1358418471 -1.1181267089 -0.3077106091
| 23> C -1.9765366966 -1.8936006919 0.9067516519
| 24> C -1.3548579764 -3.2203634134 0.5248514299
| 25> H 3.2777021198 -1.5875905248 -3.1891862048
| 26> H 3.6666569177 0.0265502783 -2.5803749835
| 27> H 4.9483744897 -0.994946936 -3.247558152
| 28> H 4.974682142 -0.9238669759 -0.7324225867
| 29> H 4.7113199356 -2.5818060213 -1.3544874515
| 30> H 1.2968763313 -2.467320977 2.6458144339
| 31> H 2.8558391835 -1.6345307018 2.3962674994
| 32> H 1.8370511407 0.5144435515 3.1188626355
| 33> H 0.2775300853 -0.2774676963 3.3428234917
| 34> H 1.6469464613 -0.7117932361 4.3808866671
| 35> H -0.3023653475 1.9892561366 -1.5884472665
| 36> H 1.1558733556 2.0908910575 -0.5325273453
| 37> H -4.9193447232 1.8459045116 -0.1237891842
| 38> H -5.1783262507 1.4213325503 1.5952043145
| 39> H -3.117072275 2.7889624852 2.1602687785
| 40> H -3.0106435538 3.2656014869 0.4591044198
| 41> H -4.4047019441 3.7627839446 1.4262449444
| 42> H -1.3361421375 -1.3339877053 1.5944635673
| 43> H -2.9642540631 -2.0213534886 1.3536665527
| 44> H -0.3632807588 -3.061918251 0.1079609551
| 45> H -1.2798132966 -3.8470684461 1.4077799128
| 46> H -1.970566384 -3.7172226763 -0.2194526837
| 47> *
| 48>
| 49>                          ****END OF INPUT****

CARTESIAN COORDINATES (ANGSTROEM)
---------------------------------
  C      4.029051   -0.996938   -2.670830
  C      4.297927   -1.574131   -1.296203
  O      3.088314   -1.738966   -0.536180
  P      2.247889   -0.500116    0.002724
  S      3.347261    1.001762    0.631798
  O      1.312249   -1.208442    1.066186
  C      1.769459   -1.513433    2.405979
  C      1.353482   -0.425402    3.376126
  S      0.825423   -0.089994   -1.500462
  C      0.283986    1.498691   -0.811415
  S     -0.726313    1.315785    0.675391
  P     -2.405784    0.435472   -0.306893
  S     -2.799934    1.112884   -2.096622
  O     -3.574087    0.558676    0.766235
  C     -4.436776    1.708948    0.848536
  C     -3.691127    2.963519    1.253726
  O     -2.135842   -1.118127   -0.307711
  C     -1.976537   -1.893601    0.906752
  C     -1.354858   -3.220363    0.524851
  H      3.277702   -1.587591   -3.189186
  H      3.666657    0.026550   -2.580375
  H      4.948374   -0.994947   -3.247558
  H      4.974682   -0.923867   -0.732423
  H      4.711320   -2.581806   -1.354487
  H      1.296876   -2.467321    2.645814
  H      2.855839   -1.634531    2.396267
  H      1.837051    0.514444    3.118863
  H      0.277530   -0.277468    3.342823
  H      1.646946   -0.711793    4.380887
  H     -0.302365    1.989256   -1.588447
  H      1.155873    2.090891   -0.532527
  H     -4.919345    1.845905   -0.123789
  H     -5.178326    1.421333    1.595204
  H     -3.117072    2.788962    2.160269
  H     -3.010644    3.265601    0.459104
  H     -4.404702    3.762784    1.426245
  H     -1.336142   -1.333988    1.594464
  H     -2.964254   -2.021353    1.353667
  H     -0.363281   -3.061918    0.107961
  H     -1.279813   -3.847068    1.407780
  H     -1.970566   -3.717223   -0.219453

 Total Charge           Charge          ....    0
 Multiplicity           Mult            ....    1
 Number of Electrons    NEL             ....  202
 Basis Dimension        Dim             ....  334

ORBITAL ENERGIES
----------------

  NO   OCC          E(Eh)            E(eV)
   0   2.0000     -88.043334     -2395.7809
   1   2.0000     -88.040566     -2395.7056
   2   2.0000     -87.992248     -2394.3908
   3   2.0000     -87.986413     -2394.2320
   4   2.0000     -76.429664     -2079.7569
   5   2.0000     -76.425333     -2079.6390
   6   2.0000     -18.796932      -511.4905
   7   2.0000     -18.795314      -511.4465
   8   2.0000     -18.794631      -511.4279
   9   2.0000     -18.788421      -511.2589
  10   2.0000      -9.958743      -270.9912
  11   2.0000      -9.954707      -270.8814
  12   2.0000      -9.954234      -270.8685
  13   2.0000      -9.952114      -270.8108
  14   2.0000      -9.951456      -270.7929
  15   2.0000      -9.885051      -268.9859
  16   2.0000      -9.884774      -268.9784
  17   2.0000      -9.884073      -268.9593
  18   2.0000      -9.882851      -268.9260
  19   2.0000      -7.688525      -209.2154
  20   2.0000      -7.685403      -209.1304
  21   2.0000      -7.637130      -207.8169
  22   2.0000      -7.631698      -207.6691
  23   2.0000      -6.427401      -174.8985
  24   2.0000      -6.422831      -174.7741
  25   2.0000      -5.716339      -155.5495
  26   2.0000      -5.713271      -155.4660
  27   2.0000      -5.713130      -155.4622
  28   2.0000      -5.710023      -155.3776
  29   2.0000      -5.705283      -155.2486
  30   2.0000      -5.702423      -155.1708
  31   2.0000      -5.665887      -154.1766
  32   2.0000      -5.660623      -154.0334
  33   2.0000      -5.657886      -153.9589
  34   2.0000      -5.657331      -153.9438
  35   2.0000      -5.652229      -153.8050
  36   2.0000      -5.651910      -153.7963
  37   2.0000      -4.650002      -126.5330
  38   2.0000      -4.649049      -126.5070
  39   2.0000      -4.647898      -126.4757
  40   2.0000      -4.645745      -126.4172
  41   2.0000      -4.644451      -126.3819
  42   2.0000      -4.643146      -126.3464
  43   2.0000      -0.991043       -26.9677
  44   2.0000      -0.987556       -26.8728
  45   2.0000      -0.949122       -25.8269
  46   2.0000      -0.943415       -25.6716
  47   2.0000      -0.765422       -20.8282
  48   2.0000      -0.722513       -19.6606
  49   2.0000      -0.710595       -19.3363
  50   2.0000      -0.689031       -18.7495
  51   2.0000      -0.688614       -18.7381
  52   2.0000      -0.676968       -18.4212
  53   2.0000      -0.651840       -17.7375
  54   2.0000      -0.639174       -17.3928
  55   2.0000      -0.601800       -16.3758
  56   2.0000      -0.591035       -16.0829
  57   2.0000      -0.577876       -15.7248
  58   2.0000      -0.569049       -15.4846
  59   2.0000      -0.557908       -15.1814
  60   2.0000      -0.507197       -13.8015
  61   2.0000      -0.501757       -13.6535
  62   2.0000      -0.474630       -12.9153
  63   2.0000      -0.472559       -12.8590
  64   2.0000      -0.462971       -12.5981
  65   2.0000      -0.447423       -12.1750
  66   2.0000      -0.440711       -11.9923
  67   2.0000      -0.437474       -11.9043
  68   2.0000      -0.428914       -11.6714
  69   2.0000      -0.421224       -11.4621
  70   2.0000      -0.409965       -11.1557
  71   2.0000      -0.400248       -10.8913
  72   2.0000      -0.390382       -10.6228
  73   2.0000      -0.382860       -10.4181
  74   2.0000      -0.379022       -10.3137
  75   2.0000      -0.375501       -10.2179
  76   2.0000      -0.364868        -9.9286
  77   2.0000      -0.362291        -9.8584
  78   2.0000      -0.355521        -9.6742
  79   2.0000      -0.353458        -9.6181
  80   2.0000      -0.350551        -9.5390
  81   2.0000      -0.344653        -9.3785
  82   2.0000      -0.342334        -9.3154
  83   2.0000      -0.337585        -9.1861
  84   2.0000      -0.336107        -9.1459
  85   2.0000      -0.317341        -8.6353
  86   2.0000      -0.311381        -8.4731
  87   2.0000      -0.300974        -8.1899
  88   2.0000      -0.298659        -8.1269
  89   2.0000      -0.295318        -8.0360
  90   2.0000      -0.290958        -7.9174
  91   2.0000      -0.281296        -7.6545
  92   2.0000      -0.268558        -7.3078
  93   2.0000      -0.265532        -7.2255
  94   2.0000      -0.259503        -7.0614
  95   2.0000      -0.234616        -6.3842
  96   2.0000      -0.218913        -5.9569
  97   2.0000      -0.214554        -5.8383
  98   2.0000      -0.205896        -5.6027
  99   2.0000      -0.203835        -5.5466
 100   2.0000      -0.200960        -5.4684
 101   0.0000      -0.045017        -1.2250
 102   0.0000      -0.025081        -0.6825
 103   0.0000      -0.004748        -0.1292
 104   0.0000      -0.001093        -0.0297
 105   0.0000       0.012024         0.3272

MULLIKEN ATOMIC CHARGES
-----------------------
   0 C :   -0.317352
   1 C :   -0.006317
   2 O :   -0.375412
   3 P :    0.611647
   4 S :   -0.337063
   5 O :   -0.363929
   6 C :   -0.002346
   7 C :   -0.301405
   8 S :   -0.051902
   9 C :   -0.379104
  10 S :   -0.090608
  11 P :    0.606297
  12 S :   -0.313600
  13 O :   -0.387709
  14 C :    0.000307
  15 C :   -0.317756
  16 O :   -0.353684
  17 C :   -0.024945
  18 C :   -0.285478
  19 H :    0.120518
  20 H :    0.127855
  21 H :    0.114481
  22 H :    0.112206
  23 H :    0.105900
  24 H :    0.105252
  25 H :    0.105561
  26 H :    0.128936
  27 H :    0.124284
  28 H :    0.107558
  29 H :    0.195259
  30 H :    0.192051
  31 H :    0.113594
  32 H :    0.104562
  33 H :    0.117104
  34 H :    0.129030
  35 H :    0.114129
  36 H :    0.117930
  37 H :    0.104426
  38 H :    0.128686
  39 H :    0.102265
  40 H :    0.118772
Sum of atomic charges:    0.0000000

LOEWDIN ATOMIC CHARGES
----------------------
   0 C :   -0.369021
   1 C :   -0.120370
   2 O :   -0.245890
   3 P :    0.572218
   4 S :   -0.323525
   5 O :   -0.238361
   6 C :   -0.111901
   7 C :   -0.363274
   8 S :    0.106824
   9 C :   -0.488908
  10 S :    0.081126
  11 P :    0.571798
  12 S :   -0.309938
  13 O :   -0.250483
  14 C :   -0.115424
  15 C :   -0.371005
  16 O :   -0.233940
  17 C :   -0.115361
  18 C :   -0.352864
  19 H :    0.125876
  20 H :    0.121746
  21 H :    0.131885
  22 H :    0.110325
  23 H :    0.118973
  24 H :    0.117098
  25 H :    0.111415
  26 H :    0.125717
  27 H :    0.121717
  28 H :    0.128380
  29 H :    0.129374
  30 H :    0.128473
  31 H :    0.113688
  32 H :    0.118487
  33 H :    0.123094
  34 H :    0.122002
  35 H :    0.131628
  36 H :    0.104386
  37 H :    0.112322
  38 H :    0.127178
  39 H :    0.125744
  40 H :    0.128790

  Mayer bond orders larger than 0.100000
B(  0-C ,  1-C ) :   1.1647 B(  0-C , 19-H ) :   0.9451 B(  0-C , 20-H ) :   0.9349
B(  0-C , 21-H ) :   0.9380 B(  1-C ,  2-O ) :   0.9075 B(  1-C , 22-H ) :   0.9150
B(  1-C , 23-H ) :   0.9333 B(  2-O ,  3-P ) :   1.1083 B(  3-P ,  4-S ) :   1.5851
B(  3-P ,  5-O ) :   1.1145 B(  3-P ,  8-S ) :   0.9716 B(  4-S ,  8-S ) :   0.1105
B(  5-O ,  6-C ) :   0.8883 B(  6-C ,  7-C ) :   1.1711 B(  6-C , 24-H ) :   0.9319
B(  6-C , 25-H ) :   0.9163 B(  7-C , 26-H ) :   0.9315 B(  7-C , 27-H ) :   0.9443
B(  7-C , 28-H ) :   0.9387 B(  8-S ,  9-C ) :   1.0030 B(  9-C , 10-S ) :   1.0069
B(  9-C , 29-H ) :   0.8738 B(  9-C , 30-H ) :   0.8729 B( 10-S , 11-P ) :   0.9471
B( 10-S , 12-S ) :   0.1086 B( 11-P , 12-S ) :   1.6353 B( 11-P , 13-O ) :   1.0848
B( 11-P , 16-O ) :   1.1412 B( 13-O , 14-C ) :   0.9069 B( 14-C , 15-C ) :   1.1660
B( 14-C , 31-H ) :   0.9196 B( 14-C , 32-H ) :   0.9346 B( 15-C , 33-H ) :   0.9437
B( 15-C , 34-H ) :   0.9346 B( 15-C , 35-H ) :   0.9367 B( 16-O , 17-C ) :   0.8900
B( 17-C , 18-C ) :   1.1685 B( 17-C , 36-H ) :   0.9050 B( 17-C , 37-H ) :   0.9295
B( 18-C , 38-H ) :   0.9399 B( 18-C , 39-H ) :   0.9397 B( 18-C , 40-H ) :   0.9481

Dispersion correction           -0.066501195
FINAL SINGLE POINT ENERGY     -2929.525362702330

DIPOLE MOMENT
-------------

Method             : SCF
Type of density    : Electron Density
Multiplicity       :   1
Irrep              :   0
Energy             : -2929.6444823440715481 Eh
Relativity type    :
Basis              : AO
                                X                 Y                 Z
Electronic contribution:     -1.682992828       6.297130305     -10.797728266
Nuclear contribution   :      1.793881843      -7.085083320      12.005831037
                        -----------------------------------------
Total Dipole Moment    :      0.110889015      -0.787953016       1.208102771
                        -----------------------------------------
Magnitude (a.u.)       :      1.446609357
Magnitude (Debye)      :      3.676988771

Rotational constants in cm-1:             0.012562             0.005021             0.004800
Rotational constants in MHz :           376.587497           150.511708           143.912894

                             ****ORCA TERMINATED NORMALLY****
TOTAL RUN TIME: 0 days 0 hours 0 minutes 21 seconds 752 msec
