                         Program Version 6.0.0  -   RELEASE  -
|  1> ! r2scan-3c def2/J RI DEFGRID2 scfconv6 printgap
|  2> %output
|  3>     printlevel normal
|  4> end
|  5> * xyz 0 1
|  6> C 0.817773008 -2.7493114523 1.5584648891
|  7> C 1.8798235401 -1.7168053197 1.8781284657
|  8> O 1.6164202793 -0.4745905086 1.1904189344
|  9> P 2.339120354 -0.0754671045 -0.1813491238
| 10> S 2.9633121901 -1.5424361478 -1.3045233304
| 11> O 3.5537666005 0.8581117562 0.2350115574
| 12> C 3.3779656449 2.0366012118 1.0598307752
| 13> C 4.7487550062 2.4788021654 1.5282020878
| 14> S 0.930948234 1.2867152399 -0.9746751697
| 15> C 0.0723393117 0.1191592616 -2.0640713511
| 16> S -0.7964377425 -1.1957201171 -1.1728990522
| 17> P -2.1104130368 0.0615616963 -0.0964032993
| 18> S -2.7960819456 1.6486261019 -1.0283280057
| 19> O -1.2430670751 0.3191340525 1.203309604
| 20> C -1.4138333731 1.4906557913 2.0232442686
| 21> C -2.7318637833 1.4645189391 2.7684661977
| 22> O -3.2197299681 -0.9263841057 0.4674294206
| 23> C -4.4286474907 -1.2248413767 -0.251727099
| 24> C -4.1655461571 -2.0543195907 -1.4920760523
| 25> H -0.1712280615 -2.3361720523 1.7424703005
| 26> H 0.8828864836 -3.0452285754 0.5135226438
| 27> H 0.968176417 -3.6221957553 2.1855066991
| 28> H 2.8725965749 -2.0805968179 1.5964378395
| 29> H 1.8701216283 -1.4521608993 2.9370620949
| 30> H 2.8942597259 2.8043979941 0.4500713609
| 31> H 2.7262726536 1.7822968939 1.8998671216
| 32> H 5.3820527804 2.6883018896 0.6711198573
| 33> H 4.6471732708 3.376521728 2.1293546901
| 34> H 5.2132031828 1.6965666006 2.1219020453
| 35> H 0.7954728121 -0.3738995671 -2.7128338465
| 36> H -0.6408742319 0.7116616834 -2.6363835691
| 37> H -0.56085481 1.4613832371 2.7027274643
| 38> H -1.3459455191 2.376060884 1.3824377118
| 39> H -2.823106445 0.5451232162 3.3407638093
| 40> H -2.784867163 2.3168718296 3.4385038284
| 41> H -3.5564228482 1.5205634316 2.0585647084
| 42> H -5.0379213867 -1.7662394165 0.4732407339
| 43> H -4.9147909292 -0.2804833302 -0.5172142964
| 44> H -3.5824129292 -2.9365850476 -1.2402436205
| 45> H -5.1115752345 -2.3586942477 -1.9282870503
| 46> H -3.612144928 -1.4673475856 -2.2238435698
| 47> *
| 48>
| 49>                          ****END OF INPUT****

CARTESIAN COORDINATES (ANGSTROEM)
---------------------------------
  C      0.817773   -2.749311    1.558465
  C      1.879824   -1.716805    1.878128
  O      1.616420   -0.474591    1.190419
  P      2.339120   -0.075467   -0.181349
  S      2.963312   -1.542436   -1.304523
  O      3.553767    0.858112    0.235012
  C      3.377966    2.036601    1.059831
  C      4.748755    2.478802    1.528202
  S      0.930948    1.286715   -0.974675
  C      0.072339    0.119159   -2.064071
  S     -0.796438   -1.195720   -1.172899
  P     -2.110413    0.061562   -0.096403
  S     -2.796082    1.648626   -1.028328
  O     -1.243067    0.319134    1.203310
  C     -1.413833    1.490656    2.023244
  C     -2.731864    1.464519    2.768466
  O     -3.219730   -0.926384    0.467429
  C     -4.428647   -1.224841   -0.251727
  C     -4.165546   -2.054320   -1.492076
  H     -0.171228   -2.336172    1.742470
  H      0.882886   -3.045229    0.513523
  H      0.968176   -3.622196    2.185507
  H      2.872597   -2.080597    1.596438
  H      1.870122   -1.452161    2.937062
  H      2.894260    2.804398    0.450071
  H      2.726273    1.782297    1.899867
  H      5.382053    2.688302    0.671120
  H      4.647173    3.376522    2.129355
  H      5.213203    1.696567    2.121902
  H      0.795473   -0.373900   -2.712834
  H     -0.640874    0.711662   -2.636384
  H     -0.560855    1.461383    2.702727
  H     -1.345946    2.376061    1.382438
  H     -2.823106    0.545123    3.340764
  H     -2.784867    2.316872    3.438504
  H     -3.556423    1.520563    2.058565
  H     -5.037921   -1.766239    0.473241
  H     -4.914791   -0.280483   -0.517214
  H     -3.582413   -2.936585   -1.240244
  H     -5.111575   -2.358694   -1.928287
  H     -3.612145   -1.467348   -2.223844

 Total Charge           Charge          ....    0
 Multiplicity           Mult            ....    1
 Number of Electrons    NEL             ....  202
 Basis Dimension        Dim             ....  539

ORBITAL ENERGIES
----------------

  NO   OCC          E(Eh)            E(eV)
   0   2.0000     -88.574314     -2410.2296
   1   2.0000     -88.574225     -2410.2272
   2   2.0000     -88.523099     -2408.8360
   3   2.0000     -88.518719     -2408.7168
   4   2.0000     -76.914451     -2092.9486
   5   2.0000     -76.911521     -2092.8689
   6   2.0000     -18.994717      -516.8725
   7   2.0000     -18.989582      -516.7328
   8   2.0000     -18.987401      -516.6735
   9   2.0000     -18.984318      -516.5895
  10   2.0000     -10.106401      -275.0091
  11   2.0000     -10.104946      -274.9696
  12   2.0000     -10.100412      -274.8462
  13   2.0000     -10.097392      -274.7640
  14   2.0000     -10.095315      -274.7075
  15   2.0000     -10.037032      -273.1215
  16   2.0000     -10.029849      -272.9261
  17   2.0000     -10.029491      -272.9163
  18   2.0000     -10.019658      -272.6488
  19   2.0000      -7.868785      -214.1205
  20   2.0000      -7.868725      -214.1189
  21   2.0000      -7.817839      -212.7342
  22   2.0000      -7.813590      -212.6186
  23   2.0000      -6.593058      -179.4062
  24   2.0000      -6.589877      -179.3197
  25   2.0000      -5.815670      -158.2524
  26   2.0000      -5.815620      -158.2511
  27   2.0000      -5.812707      -158.1718
  28   2.0000      -5.812649      -158.1702
  29   2.0000      -5.805786      -157.9835
  30   2.0000      -5.805708      -157.9814
  31   2.0000      -5.765427      -156.8852
  32   2.0000      -5.761388      -156.7753
  33   2.0000      -5.758122      -156.6865
  34   2.0000      -5.757904      -156.6805
  35   2.0000      -5.753998      -156.5742
  36   2.0000      -5.753294      -156.5551
  37   2.0000      -4.738407      -128.9386
  38   2.0000      -4.737927      -128.9255
  39   2.0000      -4.736973      -128.8996
  40   2.0000      -4.735704      -128.8651
  41   2.0000      -4.734495      -128.8321
  42   2.0000      -4.733650      -128.8092
  43   2.0000      -1.050797       -28.5936
  44   2.0000      -1.043821       -28.4038
  45   2.0000      -1.011572       -27.5263
  46   2.0000      -1.004322       -27.3290
  47   2.0000      -0.802828       -21.8461
  48   2.0000      -0.759967       -20.6797
  49   2.0000      -0.750383       -20.4189
  50   2.0000      -0.732599       -19.9350
  51   2.0000      -0.731172       -19.8962
  52   2.0000      -0.709432       -19.3046
  53   2.0000      -0.685970       -18.6662
  54   2.0000      -0.671045       -18.2601
  55   2.0000      -0.634442       -17.2640
  56   2.0000      -0.615659       -16.7529
  57   2.0000      -0.607719       -16.5369
  58   2.0000      -0.606024       -16.4908
  59   2.0000      -0.588772       -16.0213
  60   2.0000      -0.534209       -14.5366
  61   2.0000      -0.518779       -14.1167
  62   2.0000      -0.496426       -13.5084
  63   2.0000      -0.493628       -13.4323
  64   2.0000      -0.475627       -12.9425
  65   2.0000      -0.461118       -12.5477
  66   2.0000      -0.459665       -12.5081
  67   2.0000      -0.456941       -12.4340
  68   2.0000      -0.446480       -12.1493
  69   2.0000      -0.430446       -11.7130
  70   2.0000      -0.416686       -11.3386
  71   2.0000      -0.414694       -11.2844
  72   2.0000      -0.411851       -11.2070
  73   2.0000      -0.404980       -11.0201
  74   2.0000      -0.394277       -10.7288
  75   2.0000      -0.386778       -10.5248
  76   2.0000      -0.383244       -10.4286
  77   2.0000      -0.374767       -10.1979
  78   2.0000      -0.371015       -10.0958
  79   2.0000      -0.368305       -10.0221
  80   2.0000      -0.363298        -9.8858
  81   2.0000      -0.359572        -9.7844
  82   2.0000      -0.356701        -9.7063
  83   2.0000      -0.351155        -9.5554
  84   2.0000      -0.349444        -9.5089
  85   2.0000      -0.335073        -9.1178
  86   2.0000      -0.327183        -8.9031
  87   2.0000      -0.317122        -8.6293
  88   2.0000      -0.311103        -8.4656
  89   2.0000      -0.301255        -8.1976
  90   2.0000      -0.295735        -8.0474
  91   2.0000      -0.291340        -7.9278
  92   2.0000      -0.284031        -7.7289
  93   2.0000      -0.280150        -7.6233
  94   2.0000      -0.273920        -7.4537
  95   2.0000      -0.242381        -6.5955
  96   2.0000      -0.228955        -6.2302
  97   2.0000      -0.227562        -6.1923
  98   2.0000      -0.221136        -6.0174
  99   2.0000      -0.213491        -5.8094
 100   2.0000      -0.212283        -5.7765
 101   0.0000      -0.047631        -1.2961
 102   0.0000      -0.026063        -0.7092
 103   0.0000      -0.000508        -0.0138
 104   0.0000       0.006168         0.1678
 105   0.0000       0.009275         0.2524

MULLIKEN ATOMIC CHARGES
-----------------------
   0 C :   -0.468356
   1 C :   -0.130461
   2 O :   -0.268537
   3 P :    0.663575
   4 S :   -0.447197
   5 O :   -0.262509
   6 C :   -0.136458
   7 C :   -0.450367
   8 S :   -0.152596
   9 C :   -0.245261
  10 S :   -0.109435
  11 P :    0.687952
  12 S :   -0.486036
  13 O :   -0.255007
  14 C :   -0.165379
  15 C :   -0.443362
  16 O :   -0.303729
  17 C :   -0.153414
  18 C :   -0.449921
  19 H :    0.163320
  20 H :    0.180209
  21 H :    0.139529
  22 H :    0.160187
  23 H :    0.142799
  24 H :    0.151521
  25 H :    0.158358
  26 H :    0.160652
  27 H :    0.145437
  28 H :    0.155410
  29 H :    0.210702
  30 H :    0.210300
  31 H :    0.151857
  32 H :    0.174988
  33 H :    0.154756
  34 H :    0.146244
  35 H :    0.168788
  36 H :    0.148548
  37 H :    0.171937
  38 H :    0.156128
  39 H :    0.148457
  40 H :    0.176370
Sum of atomic charges:    0.0000000

LOEWDIN ATOMIC CHARGES
----------------------
   0 C :   -0.406640
   1 C :    0.023057
   2 O :   -0.686394
   3 P :    0.380748
   4 S :   -0.096196
   5 O :   -0.664020
   6 C :    0.018571
   7 C :   -0.383026
   8 S :    0.169506
   9 C :   -0.417867
  10 S :    0.178459
  11 P :    0.379198
  12 S :   -0.130509
  13 O :   -0.674542
  14 C :    0.016138
  15 C :   -0.399698
  16 O :   -0.660702
  17 C :    0.019799
  18 C :   -0.406560
  19 H :    0.163510
  20 H :    0.167264
  21 H :    0.155372
  22 H :    0.177384
  23 H :    0.174583
  24 H :    0.173684
  25 H :    0.173867
  26 H :    0.163854
  27 H :    0.159356
  28 H :    0.161211
  29 H :    0.191574
  30 H :    0.189564
  31 H :    0.179616
  32 H :    0.181137
  33 H :    0.160018
  34 H :    0.158962
  35 H :    0.165067
  36 H :    0.179551
  37 H :    0.179559
  38 H :    0.160665
  39 H :    0.159462
  40 H :    0.165417

  Mayer bond orders larger than 0.100000
B(  0-C ,  1-C ) :   0.9449 B(  0-C , 19-H ) :   0.9692 B(  0-C , 20-H ) :   0.9620
B(  0-C , 21-H ) :   0.9617 B(  1-C ,  2-O ) :   0.7780 B(  1-C , 22-H ) :   0.9632
B(  1-C , 23-H ) :   0.9627 B(  2-O ,  3-P ) :   1.0485 B(  3-P ,  4-S ) :   1.8367
B(  3-P ,  5-O ) :   1.1408 B(  3-P ,  8-S ) :   1.0528 B(  5-O ,  6-C ) :   0.7533
B(  6-C ,  7-C ) :   0.9633 B(  6-C , 24-H ) :   0.9375 B(  6-C , 25-H ) :   0.9524
B(  7-C , 26-H ) :   0.9714 B(  7-C , 27-H ) :   0.9632 B(  7-C , 28-H ) :   0.9725
B(  8-S ,  9-C ) :   0.8958 B(  9-C , 10-S ) :   0.9006 B(  9-C , 29-H ) :   0.9097
B(  9-C , 30-H ) :   0.9131 B( 10-S , 11-P ) :   1.0916 B( 11-P , 12-S ) :   1.7429
B( 11-P , 13-O ) :   1.1384 B( 11-P , 16-O ) :   1.0628 B( 13-O , 14-C ) :   0.7906
B( 14-C , 15-C ) :   0.9214 B( 14-C , 31-H ) :   0.9632 B( 14-C , 32-H ) :   0.9645
B( 15-C , 33-H ) :   0.9723 B( 15-C , 34-H ) :   0.9627 B( 15-C , 35-H ) :   0.9607
B( 16-O , 17-C ) :   0.8125 B( 17-C , 18-C ) :   0.9239 B( 17-C , 36-H ) :   0.9581
B( 17-C , 37-H ) :   0.9672 B( 18-C , 38-H ) :   0.9684 B( 18-C , 39-H ) :   0.9588
B( 18-C , 40-H ) :   0.9626

Dispersion correction           -0.021937368
FINAL SINGLE POINT ENERGY     -2932.461579081289

DIPOLE MOMENT
-------------

Method             : SCF
Type of density    : Electron Density
Multiplicity       :   1
Irrep              :   0
Energy             : -2932.4859685393275868 Eh
Relativity type    :
Basis              : AO
                                X                 Y                 Z
Electronic contribution:      5.164453848       0.624975237     -16.062631528
Nuclear contribution   :     -5.728374452      -0.409255381      17.671775218
                        -----------------------------------------
Total Dipole Moment    :     -0.563920603       0.215719856       1.609143690
                        -----------------------------------------
Magnitude (a.u.)       :      1.718686975
Magnitude (Debye)      :      4.368555116

Rotational constants in cm-1:             0.012170             0.005339             0.004903
Rotational constants in MHz :           364.843183           160.048007           146.978248

                             ****ORCA TERMINATED NORMALLY****
TOTAL RUN TIME: 0 days 0 hours 1 minutes 22 seconds 319 msec
