                         Program Version 6.0.0  -   RELEASE  -
|  1> ! r2scan-3c def2/J RI DEFGRID2 scfconv6 printgap
|  2> %output
|  3>     printlevel normal
|  4> end
|  5> %cpcm
|  6>     smd true
|  7>     smdsolvent "water"
|  8> end
|  9> * xyz 0 1
| 10> C 0.817773008 -2.7493114523 1.5584648891
| 11> C 1.8798235401 -1.7168053197 1.8781284657
| 12> O 1.6164202793 -0.4745905086 1.1904189344
| 13> P 2.339120354 -0.0754671045 -0.1813491238
| 14> S 2.9633121901 -1.5424361478 -1.3045233304
| 15> O 3.5537666005 0.8581117562 0.2350115574
| 16> C 3.3779656449 2.0366012118 1.0598307752
| 17> C 4.7487550062 2.4788021654 1.5282020878
| 18> S 0.930948234 1.2867152399 -0.9746751697
| 19> C 0.0723393117 0.1191592616 -2.0640713511
| 20> S -0.7964377425 -1.1957201171 -1.1728990522
| 21> P -2.1104130368 0.0615616963 -0.0964032993
| 22> S -2.7960819456 1.6486261019 -1.0283280057
| 23> O -1.2430670751 0.3191340525 1.203309604
| 24> C -1.4138333731 1.4906557913 2.0232442686
| 25> C -2.7318637833 1.4645189391 2.7684661977
| 26> O -3.2197299681 -0.9263841057 0.4674294206
| 27> C -4.4286474907 -1.2248413767 -0.251727099
| 28> C -4.1655461571 -2.0543195907 -1.4920760523
| 29> H -0.1712280615 -2.3361720523 1.7424703005
| 30> H 0.8828864836 -3.0452285754 0.5135226438
| 31> H 0.968176417 -3.6221957553 2.1855066991
| 32> H 2.8725965749 -2.0805968179 1.5964378395
| 33> H 1.8701216283 -1.4521608993 2.9370620949
| 34> H 2.8942597259 2.8043979941 0.4500713609
| 35> H 2.7262726536 1.7822968939 1.8998671216
| 36> H 5.3820527804 2.6883018896 0.6711198573
| 37> H 4.6471732708 3.376521728 2.1293546901
| 38> H 5.2132031828 1.6965666006 2.1219020453
| 39> H 0.7954728121 -0.3738995671 -2.7128338465
| 40> H -0.6408742319 0.7116616834 -2.6363835691
| 41> H -0.56085481 1.4613832371 2.7027274643
| 42> H -1.3459455191 2.376060884 1.3824377118
| 43> H -2.823106445 0.5451232162 3.3407638093
| 44> H -2.784867163 2.3168718296 3.4385038284
| 45> H -3.5564228482 1.5205634316 2.0585647084
| 46> H -5.0379213867 -1.7662394165 0.4732407339
| 47> H -4.9147909292 -0.2804833302 -0.5172142964
| 48> H -3.5824129292 -2.9365850476 -1.2402436205
| 49> H -5.1115752345 -2.3586942477 -1.9282870503
| 50> H -3.612144928 -1.4673475856 -2.2238435698
| 51> *
| 52>
| 53>                          ****END OF INPUT****

CARTESIAN COORDINATES (ANGSTROEM)
---------------------------------
  C      0.817773   -2.749311    1.558465
  C      1.879824   -1.716805    1.878128
  O      1.616420   -0.474591    1.190419
  P      2.339120   -0.075467   -0.181349
  S      2.963312   -1.542436   -1.304523
  O      3.553767    0.858112    0.235012
  C      3.377966    2.036601    1.059831
  C      4.748755    2.478802    1.528202
  S      0.930948    1.286715   -0.974675
  C      0.072339    0.119159   -2.064071
  S     -0.796438   -1.195720   -1.172899
  P     -2.110413    0.061562   -0.096403
  S     -2.796082    1.648626   -1.028328
  O     -1.243067    0.319134    1.203310
  C     -1.413833    1.490656    2.023244
  C     -2.731864    1.464519    2.768466
  O     -3.219730   -0.926384    0.467429
  C     -4.428647   -1.224841   -0.251727
  C     -4.165546   -2.054320   -1.492076
  H     -0.171228   -2.336172    1.742470
  H      0.882886   -3.045229    0.513523
  H      0.968176   -3.622196    2.185507
  H      2.872597   -2.080597    1.596438
  H      1.870122   -1.452161    2.937062
  H      2.894260    2.804398    0.450071
  H      2.726273    1.782297    1.899867
  H      5.382053    2.688302    0.671120
  H      4.647173    3.376522    2.129355
  H      5.213203    1.696567    2.121902
  H      0.795473   -0.373900   -2.712834
  H     -0.640874    0.711662   -2.636384
  H     -0.560855    1.461383    2.702727
  H     -1.345946    2.376061    1.382438
  H     -2.823106    0.545123    3.340764
  H     -2.784867    2.316872    3.438504
  H     -3.556423    1.520563    2.058565
  H     -5.037921   -1.766239    0.473241
  H     -4.914791   -0.280483   -0.517214
  H     -3.582413   -2.936585   -1.240244
  H     -5.111575   -2.358694   -1.928287
  H     -3.612145   -1.467348   -2.223844

 Total Charge           Charge          ....    0
 Multiplicity           Mult            ....    1
 Number of Electrons    NEL             ....  202
 Basis Dimension        Dim             ....  539

ORBITAL ENERGIES
----------------

  NO   OCC          E(Eh)            E(eV)
   0   2.0000     -88.579207     -2410.3628
   1   2.0000     -88.577182     -2410.3077
   2   2.0000     -88.529892     -2409.0208
   3   2.0000     -88.528585     -2408.9853
   4   2.0000     -76.918904     -2093.0698
   5   2.0000     -76.918346     -2093.0546
   6   2.0000     -18.995722      -516.8999
   7   2.0000     -18.993297      -516.8339
   8   2.0000     -18.990186      -516.7492
   9   2.0000     -18.987957      -516.6886
  10   2.0000     -10.105900      -274.9955
  11   2.0000     -10.092617      -274.6341
  12   2.0000     -10.089761      -274.5563
  13   2.0000     -10.088481      -274.5215
  14   2.0000     -10.087903      -274.5058
  15   2.0000     -10.020842      -272.6810
  16   2.0000     -10.018560      -272.6189
  17   2.0000     -10.018186      -272.6087
  18   2.0000     -10.014361      -272.5046
  19   2.0000      -7.873659      -214.2532
  20   2.0000      -7.871715      -214.2003
  21   2.0000      -7.825118      -212.9323
  22   2.0000      -7.823598      -212.8909
  23   2.0000      -6.597279      -179.5211
  24   2.0000      -6.596990      -179.5132
  25   2.0000      -5.820525      -158.3845
  26   2.0000      -5.818599      -158.3321
  27   2.0000      -5.817542      -158.3034
  28   2.0000      -5.815638      -158.2516
  29   2.0000      -5.810727      -158.1179
  30   2.0000      -5.808712      -158.0631
  31   2.0000      -5.772808      -157.0861
  32   2.0000      -5.771140      -157.0407
  33   2.0000      -5.765463      -156.8862
  34   2.0000      -5.764924      -156.8715
  35   2.0000      -5.763863      -156.8427
  36   2.0000      -5.763674      -156.8376
  37   2.0000      -4.743044      -129.0648
  38   2.0000      -4.742298      -129.0445
  39   2.0000      -4.741873      -129.0329
  40   2.0000      -4.741869      -129.0328
  41   2.0000      -4.741177      -129.0140
  42   2.0000      -4.740960      -129.0081
  43   2.0000      -1.052279       -28.6340
  44   2.0000      -1.046956       -28.4891
  45   2.0000      -1.012587       -27.5539
  46   2.0000      -1.006956       -27.4007
  47   2.0000      -0.805114       -21.9083
  48   2.0000      -0.756696       -20.5907
  49   2.0000      -0.743675       -20.2364
  50   2.0000      -0.725072       -19.7302
  51   2.0000      -0.722694       -19.6655
  52   2.0000      -0.708542       -19.2804
  53   2.0000      -0.689531       -18.7631
  54   2.0000      -0.676844       -18.4179
  55   2.0000      -0.632458       -17.2101
  56   2.0000      -0.614285       -16.7156
  57   2.0000      -0.599141       -16.3035
  58   2.0000      -0.598598       -16.2887
  59   2.0000      -0.586970       -15.9723
  60   2.0000      -0.531434       -14.4610
  61   2.0000      -0.514361       -13.9965
  62   2.0000      -0.493667       -13.4334
  63   2.0000      -0.489857       -13.3297
  64   2.0000      -0.475182       -12.9304
  65   2.0000      -0.455082       -12.3834
  66   2.0000      -0.454376       -12.3642
  67   2.0000      -0.452454       -12.3119
  68   2.0000      -0.442266       -12.0347
  69   2.0000      -0.426281       -11.5997
  70   2.0000      -0.416022       -11.3205
  71   2.0000      -0.412443       -11.2231
  72   2.0000      -0.406855       -11.0711
  73   2.0000      -0.403149       -10.9702
  74   2.0000      -0.391401       -10.6506
  75   2.0000      -0.385050       -10.4777
  76   2.0000      -0.381244       -10.3742
  77   2.0000      -0.370651       -10.0859
  78   2.0000      -0.364316        -9.9135
  79   2.0000      -0.358435        -9.7535
  80   2.0000      -0.353847        -9.6287
  81   2.0000      -0.352150        -9.5825
  82   2.0000      -0.348524        -9.4838
  83   2.0000      -0.347319        -9.4510
  84   2.0000      -0.343551        -9.3485
  85   2.0000      -0.333359        -9.0712
  86   2.0000      -0.323332        -8.7983
  87   2.0000      -0.313132        -8.5207
  88   2.0000      -0.304680        -8.2908
  89   2.0000      -0.300618        -8.1802
  90   2.0000      -0.296551        -8.0696
  91   2.0000      -0.290258        -7.8983
  92   2.0000      -0.282577        -7.6893
  93   2.0000      -0.279294        -7.6000
  94   2.0000      -0.275284        -7.4909
  95   2.0000      -0.245836        -6.6895
  96   2.0000      -0.237662        -6.4671
  97   2.0000      -0.234167        -6.3720
  98   2.0000      -0.229244        -6.2380
  99   2.0000      -0.223186        -6.0732
 100   2.0000      -0.219852        -5.9825
 101   0.0000      -0.052379        -1.4253
 102   0.0000      -0.032217        -0.8767
 103   0.0000      -0.003903        -0.1062
 104   0.0000       0.001284         0.0349
 105   0.0000       0.008662         0.2357

MULLIKEN ATOMIC CHARGES
-----------------------
   0 C :   -0.492655
   1 C :   -0.127451
   2 O :   -0.286106
   3 P :    0.674771
   4 S :   -0.501663
   5 O :   -0.299533
   6 C :   -0.121466
   7 C :   -0.498385
   8 S :   -0.163962
   9 C :   -0.257440
  10 S :   -0.118406
  11 P :    0.727510
  12 S :   -0.528834
  13 O :   -0.289457
  14 C :   -0.155667
  15 C :   -0.485613
  16 O :   -0.330927
  17 C :   -0.153890
  18 C :   -0.486197
  19 H :    0.164418
  20 H :    0.171655
  21 H :    0.165214
  22 H :    0.167997
  23 H :    0.173890
  24 H :    0.166677
  25 H :    0.181132
  26 H :    0.167478
  27 H :    0.170552
  28 H :    0.168259
  29 H :    0.231095
  30 H :    0.233550
  31 H :    0.178617
  32 H :    0.177416
  33 H :    0.169377
  34 H :    0.171859
  35 H :    0.168009
  36 H :    0.175471
  37 H :    0.178108
  38 H :    0.169325
  39 H :    0.172931
  40 H :    0.172343
Sum of atomic charges:    0.0000000

LOEWDIN ATOMIC CHARGES
----------------------
   0 C :   -0.409337
   1 C :    0.028929
   2 O :   -0.693915
   3 P :    0.382136
   4 S :   -0.136191
   5 O :   -0.685599
   6 C :    0.026745
   7 C :   -0.386955
   8 S :    0.165925
   9 C :   -0.412532
  10 S :    0.174037
  11 P :    0.384569
  12 S :   -0.156041
  13 O :   -0.691817
  14 C :    0.021056
  15 C :   -0.402834
  16 O :   -0.671772
  17 C :    0.025494
  18 C :   -0.409875
  19 H :    0.162806
  20 H :    0.162073
  21 H :    0.164531
  22 H :    0.180416
  23 H :    0.187789
  24 H :    0.180423
  25 H :    0.183894
  26 H :    0.164200
  27 H :    0.169820
  28 H :    0.164010
  29 H :    0.197525
  30 H :    0.196865
  31 H :    0.190584
  32 H :    0.182178
  33 H :    0.163842
  34 H :    0.168559
  35 H :    0.162440
  36 H :    0.190975
  37 H :    0.181593
  38 H :    0.163684
  39 H :    0.168363
  40 H :    0.161407

  Mayer bond orders larger than 0.100000
B(  0-C ,  1-C ) :   0.9329 B(  0-C , 19-H ) :   0.9670 B(  0-C , 20-H ) :   0.9646
B(  0-C , 21-H ) :   0.9580 B(  1-C ,  2-O ) :   0.7637 B(  1-C , 22-H ) :   0.9617
B(  1-C , 23-H ) :   0.9531 B(  2-O ,  3-P ) :   1.0594 B(  3-P ,  4-S ) :   1.8109
B(  3-P ,  5-O ) :   1.1487 B(  3-P ,  8-S ) :   1.0705 B(  5-O ,  6-C ) :   0.7467
B(  6-C ,  7-C ) :   0.9524 B(  6-C , 24-H ) :   0.9298 B(  6-C , 25-H ) :   0.9407
B(  7-C , 26-H ) :   0.9703 B(  7-C , 27-H ) :   0.9563 B(  7-C , 28-H ) :   0.9706
B(  8-S ,  9-C ) :   0.8832 B(  9-C , 10-S ) :   0.8923 B(  9-C , 29-H ) :   0.9045
B(  9-C , 30-H ) :   0.9066 B( 10-S , 11-P ) :   1.0999 B( 11-P , 12-S ) :   1.7046
B( 11-P , 13-O ) :   1.1429 B( 11-P , 16-O ) :   1.0710 B( 13-O , 14-C ) :   0.7788
B( 14-C , 15-C ) :   0.9120 B( 14-C , 31-H ) :   0.9519 B( 14-C , 32-H ) :   0.9595
B( 15-C , 33-H ) :   0.9708 B( 15-C , 34-H ) :   0.9566 B( 15-C , 35-H ) :   0.9604
B( 16-O , 17-C ) :   0.8007 B( 17-C , 18-C ) :   0.9107 B( 17-C , 36-H ) :   0.9484
B( 17-C , 37-H ) :   0.9658 B( 18-C , 38-H ) :   0.9658 B( 18-C , 39-H ) :   0.9535
B( 18-C , 40-H ) :   0.9637

Dispersion correction           -0.021937368
FINAL SINGLE POINT ENERGY     -2932.471629791406

DIPOLE MOMENT
-------------

Method             : SCF
Type of density    : Electron Density
Multiplicity       :   1
Irrep              :   0
Energy             : -2932.4960192494454532 Eh
Relativity type    :
Basis              : AO
                                X                 Y                 Z
Electronic contribution:      4.870135381       0.757196623     -15.487082362
Nuclear contribution   :     -5.728374452      -0.409255381      17.671775218
                        -----------------------------------------
Total Dipole Moment    :     -0.858239070       0.347941241       2.184692857
                        -----------------------------------------
Magnitude (a.u.)       :      2.372871738
Magnitude (Debye)      :      6.031360639

Rotational constants in cm-1:             0.012170             0.005339             0.004903
Rotational constants in MHz :           364.843183           160.048007           146.978248

                             ****ORCA TERMINATED NORMALLY****
TOTAL RUN TIME: 0 days 0 hours 1 minutes 58 seconds 877 msec
