                         Program Version 6.0.0  -   RELEASE  -
|  1> ! pbe def2-sv(p) def2/J RI DEFGRID1 loosescf d4 GCP(DFT/SV(P)) printgap
|  2> %output
|  3>     printlevel normal
|  4> end
|  5> * xyz 0 1
|  6> C 1.2328222231 0.5092422451 2.8576625606
|  7> C 2.7185789721 0.2976528093 2.6500286119
|  8> O 3.12345149 0.6051146081 1.3049908936
|  9> P 2.7250209964 -0.3087611071 0.0656769689
| 10> S 2.7554457632 -2.2403588922 0.4225874984
| 11> O 3.716651963 0.2115510364 -1.0525754123
| 12> C 5.03893626 -0.3398684998 -1.2282896307
| 13> C 5.9510877967 -0.0262406545 -0.0606911981
| 14> S 0.9454356389 0.519883084 -0.7394723067
| 15> C -0.0860272655 -0.9790750951 -0.7959929554
| 16> S -1.4025115623 -0.9731908904 0.4392016372
| 17> P -2.6680743083 0.385688104 -0.6132843851
| 18> S -2.8288817553 0.0785604702 -2.5371324919
| 19> O -2.0771017114 1.8138825982 -0.3084047298
| 20> C -1.8417800465 2.3326089416 1.0235067976
| 21> C -3.0108235989 3.1756098327 1.4895353791
| 22> O -4.02345311 0.3694239812 0.2155259548
| 23> C -5.0789732416 -0.5757262754 -0.0403180263
| 24> C -4.667029852 -1.9995825375 0.2715535963
| 25> H 0.6659034628 -0.2195823365 2.2781931446
| 26> H 0.9940418749 0.3793789419 3.9082423479
| 27> H 0.949822583 1.5108338191 2.5437492312
| 28> H 2.9934781586 -0.7397483796 2.866769748
| 29> H 3.3115947582 0.9763640331 3.2645196024
| 30> H 4.9454594778 -1.4218564326 -1.3665077964
| 31> H 5.3903276838 0.1220649157 -2.1519084625
| 32> H 5.6087600551 -0.5492581204 0.831014433
| 33> H 6.9591117144 -0.3535079983 -0.2959070851
| 34> H 5.9533603542 1.0424956322 0.1366347891
| 35> H 0.5390790866 -1.8522778665 -0.597288111
| 36> H -0.5408114485 -1.0323257715 -1.785748182
| 37> H -1.6631377626 1.4950777281 1.703716102
| 38> H -0.9331110067 2.9290244836 0.9197346831
| 39> H -3.9028650472 2.5624973587 1.5836867063
| 40> H -2.770964854 3.6113158596 2.4544006979
| 41> H -3.2049527314 3.970493773 0.7746583875
| 42> H -5.8897251578 -0.2403847346 0.6080199272
| 43> H -5.3774112085 -0.4822365616 -1.0888716823
| 44> H -5.5339301198 -2.6478048981 0.1932971667
| 45> H -3.9131125114 -2.3345923314 -0.4391649731
| 46> H -4.255781031 -2.0647530188 1.2757656715
| 47> *
| 48>
| 49>                          ****END OF INPUT****

CARTESIAN COORDINATES (ANGSTROEM)
---------------------------------
  C      1.232822    0.509242    2.857663
  C      2.718579    0.297653    2.650029
  O      3.123451    0.605115    1.304991
  P      2.725021   -0.308761    0.065677
  S      2.755446   -2.240359    0.422587
  O      3.716652    0.211551   -1.052575
  C      5.038936   -0.339868   -1.228290
  C      5.951088   -0.026241   -0.060691
  S      0.945436    0.519883   -0.739472
  C     -0.086027   -0.979075   -0.795993
  S     -1.402512   -0.973191    0.439202
  P     -2.668074    0.385688   -0.613284
  S     -2.828882    0.078560   -2.537132
  O     -2.077102    1.813883   -0.308405
  C     -1.841780    2.332609    1.023507
  C     -3.010824    3.175610    1.489535
  O     -4.023453    0.369424    0.215526
  C     -5.078973   -0.575726   -0.040318
  C     -4.667030   -1.999583    0.271554
  H      0.665903   -0.219582    2.278193
  H      0.994042    0.379379    3.908242
  H      0.949823    1.510834    2.543749
  H      2.993478   -0.739748    2.866770
  H      3.311595    0.976364    3.264520
  H      4.945459   -1.421856   -1.366508
  H      5.390328    0.122065   -2.151908
  H      5.608760   -0.549258    0.831014
  H      6.959112   -0.353508   -0.295907
  H      5.953360    1.042496    0.136635
  H      0.539079   -1.852278   -0.597288
  H     -0.540811   -1.032326   -1.785748
  H     -1.663138    1.495078    1.703716
  H     -0.933111    2.929024    0.919735
  H     -3.902865    2.562497    1.583687
  H     -2.770965    3.611316    2.454401
  H     -3.204953    3.970494    0.774658
  H     -5.889725   -0.240385    0.608020
  H     -5.377411   -0.482237   -1.088872
  H     -5.533930   -2.647805    0.193297
  H     -3.913113   -2.334592   -0.439165
  H     -4.255781   -2.064753    1.275766

 Total Charge           Charge          ....    0
 Multiplicity           Mult            ....    1
 Number of Electrons    NEL             ....  202
 Basis Dimension        Dim             ....  334

ORBITAL ENERGIES
----------------

  NO   OCC          E(Eh)            E(eV)
   0   2.0000     -88.044028     -2395.7998
   1   2.0000     -88.040849     -2395.7133
   2   2.0000     -87.996190     -2394.4981
   3   2.0000     -87.986408     -2394.2319
   4   2.0000     -76.428629     -2079.7287
   5   2.0000     -76.427431     -2079.6961
   6   2.0000     -18.798835      -511.5423
   7   2.0000     -18.794774      -511.4318
   8   2.0000     -18.793531      -511.3980
   9   2.0000     -18.791097      -511.3318
  10   2.0000      -9.957037      -270.9447
  11   2.0000      -9.955712      -270.9087
  12   2.0000      -9.955533      -270.9038
  13   2.0000      -9.953832      -270.8575
  14   2.0000      -9.949238      -270.7325
  15   2.0000      -9.887180      -269.0438
  16   2.0000      -9.886957      -269.0378
  17   2.0000      -9.886729      -269.0316
  18   2.0000      -9.886124      -269.0151
  19   2.0000      -7.688520      -209.2153
  20   2.0000      -7.685996      -209.1466
  21   2.0000      -7.640960      -207.9211
  22   2.0000      -7.631679      -207.6686
  23   2.0000      -6.426579      -174.8761
  24   2.0000      -6.425156      -174.8374
  25   2.0000      -5.716132      -155.5439
  26   2.0000      -5.713845      -155.4816
  27   2.0000      -5.713130      -155.4622
  28   2.0000      -5.710662      -155.3950
  29   2.0000      -5.705738      -155.2610
  30   2.0000      -5.702798      -155.1810
  31   2.0000      -5.669613      -154.2780
  32   2.0000      -5.661868      -154.0673
  33   2.0000      -5.661126      -154.0471
  34   2.0000      -5.660680      -154.0349
  35   2.0000      -5.652218      -153.8047
  36   2.0000      -5.651808      -153.7935
  37   2.0000      -4.648865      -126.5021
  38   2.0000      -4.648189      -126.4836
  39   2.0000      -4.648101      -126.4813
  40   2.0000      -4.647372      -126.4614
  41   2.0000      -4.646826      -126.4466
  42   2.0000      -4.645322      -126.4056
  43   2.0000      -0.991390       -26.9771
  44   2.0000      -0.988927       -26.9101
  45   2.0000      -0.949150       -25.8277
  46   2.0000      -0.947690       -25.7880
  47   2.0000      -0.762005       -20.7352
  48   2.0000      -0.723821       -19.6962
  49   2.0000      -0.711649       -19.3649
  50   2.0000      -0.693017       -18.8580
  51   2.0000      -0.690079       -18.7780
  52   2.0000      -0.677147       -18.4261
  53   2.0000      -0.653880       -17.7930
  54   2.0000      -0.639700       -17.4071
  55   2.0000      -0.606293       -16.4981
  56   2.0000      -0.595748       -16.2111
  57   2.0000      -0.577083       -15.7032
  58   2.0000      -0.574951       -15.6452
  59   2.0000      -0.557555       -15.1718
  60   2.0000      -0.503146       -13.6913
  61   2.0000      -0.494149       -13.4465
  62   2.0000      -0.477846       -13.0029
  63   2.0000      -0.475588       -12.9414
  64   2.0000      -0.458175       -12.4676
  65   2.0000      -0.450038       -12.2462
  66   2.0000      -0.442996       -12.0545
  67   2.0000      -0.439971       -11.9722
  68   2.0000      -0.431423       -11.7396
  69   2.0000      -0.422370       -11.4933
  70   2.0000      -0.409203       -11.1350
  71   2.0000      -0.396152       -10.7798
  72   2.0000      -0.394798       -10.7430
  73   2.0000      -0.392321       -10.6756
  74   2.0000      -0.384201       -10.4546
  75   2.0000      -0.376370       -10.2416
  76   2.0000      -0.367679       -10.0051
  77   2.0000      -0.360067        -9.7979
  78   2.0000      -0.357636        -9.7318
  79   2.0000      -0.354146        -9.6368
  80   2.0000      -0.350446        -9.5361
  81   2.0000      -0.348859        -9.4929
  82   2.0000      -0.343371        -9.3436
  83   2.0000      -0.341983        -9.3058
  84   2.0000      -0.337950        -9.1961
  85   2.0000      -0.320517        -8.7217
  86   2.0000      -0.313672        -8.5354
  87   2.0000      -0.300264        -8.1706
  88   2.0000      -0.297417        -8.0931
  89   2.0000      -0.294170        -8.0048
  90   2.0000      -0.287868        -7.8333
  91   2.0000      -0.276593        -7.5265
  92   2.0000      -0.272332        -7.4105
  93   2.0000      -0.267318        -7.2741
  94   2.0000      -0.262292        -7.1373
  95   2.0000      -0.232396        -6.3238
  96   2.0000      -0.221017        -6.0142
  97   2.0000      -0.217503        -5.9186
  98   2.0000      -0.209747        -5.7075
  99   2.0000      -0.206490        -5.6189
 100   2.0000      -0.199719        -5.4346
 101   0.0000      -0.042777        -1.1640
 102   0.0000      -0.032094        -0.8733
 103   0.0000      -0.011791        -0.3208
 104   0.0000       0.003281         0.0893
 105   0.0000       0.017930         0.4879

MULLIKEN ATOMIC CHARGES
-----------------------
   0 C :   -0.333275
   1 C :    0.000471
   2 O :   -0.371057
   3 P :    0.614123
   4 S :   -0.334053
   5 O :   -0.366141
   6 C :   -0.002104
   7 C :   -0.309243
   8 S :   -0.069216
   9 C :   -0.371548
  10 S :   -0.097983
  11 P :    0.598451
  12 S :   -0.307845
  13 O :   -0.350133
  14 C :   -0.029167
  15 C :   -0.285950
  16 O :   -0.381652
  17 C :   -0.000652
  18 C :   -0.321640
  19 H :    0.134427
  20 H :    0.111222
  21 H :    0.119362
  22 H :    0.111027
  23 H :    0.104669
  24 H :    0.113091
  25 H :    0.109181
  26 H :    0.122394
  27 H :    0.113060
  28 H :    0.119253
  29 H :    0.196385
  30 H :    0.196844
  31 H :    0.112894
  32 H :    0.117299
  33 H :    0.120596
  34 H :    0.108494
  35 H :    0.120601
  36 H :    0.105799
  37 H :    0.115212
  38 H :    0.116127
  39 H :    0.132700
  40 H :    0.117976
Sum of atomic charges:   -0.0000000

LOEWDIN ATOMIC CHARGES
----------------------
   0 C :   -0.371135
   1 C :   -0.118826
   2 O :   -0.243920
   3 P :    0.572127
   4 S :   -0.312241
   5 O :   -0.242601
   6 C :   -0.113927
   7 C :   -0.364961
   8 S :    0.094068
   9 C :   -0.489983
  10 S :    0.086082
  11 P :    0.569763
  12 S :   -0.306751
  13 O :   -0.232345
  14 C :   -0.118455
  15 C :   -0.359272
  16 O :   -0.246727
  17 C :   -0.115652
  18 C :   -0.371586
  19 H :    0.114066
  20 H :    0.130489
  21 H :    0.123447
  22 H :    0.109596
  23 H :    0.118542
  24 H :    0.112248
  25 H :    0.121126
  26 H :    0.122549
  27 H :    0.130880
  28 H :    0.127591
  29 H :    0.125715
  30 H :    0.127984
  31 H :    0.104773
  32 H :    0.120272
  33 H :    0.125733
  34 H :    0.129094
  35 H :    0.129198
  36 H :    0.118800
  37 H :    0.114608
  38 H :    0.132762
  39 H :    0.123443
  40 H :    0.123426

  Mayer bond orders larger than 0.100000
B(  0-C ,  1-C ) :   1.1626 B(  0-C , 19-H ) :   0.9275 B(  0-C , 20-H ) :   0.9375
B(  0-C , 21-H ) :   0.9406 B(  1-C ,  2-O ) :   0.9137 B(  1-C , 22-H ) :   0.9148
B(  1-C , 23-H ) :   0.9329 B(  2-O ,  3-P ) :   1.1008 B(  3-P ,  4-S ) :   1.5820
B(  3-P ,  5-O ) :   1.1401 B(  3-P ,  8-S ) :   0.9647 B(  4-S ,  8-S ) :   0.1167
B(  4-S , 29-H ) :   0.1087 B(  5-O ,  6-C ) :   0.9094 B(  6-C ,  7-C ) :   1.1628
B(  6-C , 24-H ) :   0.9200 B(  6-C , 25-H ) :   0.9353 B(  7-C , 26-H ) :   0.9386
B(  7-C , 27-H ) :   0.9380 B(  7-C , 28-H ) :   0.9457 B(  8-S ,  9-C ) :   1.0069
B(  9-C , 10-S ) :   1.0046 B(  9-C , 29-H ) :   0.8533 B(  9-C , 30-H ) :   0.8659
B( 10-S , 11-P ) :   0.9494 B( 10-S , 12-S ) :   0.1073 B( 11-P , 12-S ) :   1.6402
B( 11-P , 13-O ) :   1.1444 B( 11-P , 16-O ) :   1.0872 B( 13-O , 14-C ) :   0.8912
B( 14-C , 15-C ) :   1.1601 B( 14-C , 31-H ) :   0.9076 B( 14-C , 32-H ) :   0.9313
B( 15-C , 33-H ) :   0.9415 B( 15-C , 34-H ) :   0.9401 B( 15-C , 35-H ) :   0.9468
B( 16-O , 17-C ) :   0.9030 B( 17-C , 18-C ) :   1.1662 B( 17-C , 36-H ) :   0.9340
B( 17-C , 37-H ) :   0.9190 B( 18-C , 38-H ) :   0.9368 B( 18-C , 39-H ) :   0.9340
B( 18-C , 40-H ) :   0.9435

Dispersion correction           -0.063621557
FINAL SINGLE POINT ENERGY     -2929.522086556727

DIPOLE MOMENT
-------------

Method             : SCF
Type of density    : Electron Density
Multiplicity       :   1
Irrep              :   0
Energy             : -2929.6434420068326290 Eh
Relativity type    :
Basis              : AO
                                X                 Y                 Z
Electronic contribution:     -0.155691230      -3.978237320     -15.504820702
Nuclear contribution   :      0.280461261       4.424418948      17.089333730
                        -----------------------------------------
Total Dipole Moment    :      0.124770031       0.446181629       1.584513028
                        -----------------------------------------
Magnitude (a.u.)       :      1.650856488
Magnitude (Debye)      :      4.196143719

Rotational constants in cm-1:             0.014327             0.004022             0.003835
Rotational constants in MHz :           429.517512           120.565062           114.970985

                             ****ORCA TERMINATED NORMALLY****
TOTAL RUN TIME: 0 days 0 hours 0 minutes 20 seconds 505 msec
