                         Program Version 6.0.0  -   RELEASE  -
|  1> ! r2scan-3c def2/J RI DEFGRID2 scfconv6 printgap
|  2> %output
|  3>     printlevel normal
|  4> end
|  5> * xyz 0 1
|  6> C 4.0942590643 0.6730636751 -2.6503240605
|  7> C 4.8156094464 -0.2120556427 -1.6531858147
|  8> O 3.9211964266 -1.1280447207 -0.998874956
|  9> P 2.8474628209 -0.6387508458 0.0529090244
| 10> S 3.4283188832 0.8724544626 1.1706336309
| 11> O 2.6664562724 -2.0510360159 0.7444442756
| 12> C 1.538247426 -2.4343487193 1.5485577428
| 13> C 1.511080108 -1.7190677305 2.8849972415
| 14> S 1.058638343 -0.3173303845 -1.0734635157
| 15> C 0.380235598 1.0738395233 -0.1275042129
| 16> S -0.7988099511 0.5525953968 1.1545594669
| 17> P -2.5560880424 0.6465570504 -0.0121019207
| 18> S -2.4159093474 0.416962541 -1.9601025835
| 19> O -3.058288375 2.0742271602 0.459299539
| 20> C -4.0636903186 2.8183001845 -0.2583804747
| 21> C -5.4286475479 2.1705229743 -0.1558515578
| 22> O -3.5722801647 -0.3325242677 0.7185373198
| 23> C -3.710117687 -1.7136348316 0.3416757026
| 24> C -2.4314104101 -2.4953399256 0.5638129089
| 25> H 3.4264632995 1.3562363624 -2.1271099241
| 26> H 4.8217714597 1.2528636106 -3.2092268569
| 27> H 3.5088804394 0.0676281425 -3.3378285698
| 28> H 5.3155804244 0.3949256823 -0.8909984595
| 29> H 5.5420472978 -0.8611215209 -2.1439671601
| 30> H 0.619305246 -2.2399984801 0.9871169319
| 31> H 1.6683263395 -3.5104571352 1.675726725
| 32> H 2.4624856885 -1.8422584244 3.3959305051
| 33> H 1.3243607805 -0.655350774 2.7447482504
| 34> H 0.7172808503 -2.1334082317 3.4978290859
| 35> H -0.1240612647 1.7269782837 -0.8356091742
| 36> H 1.2011348661 1.5872468816 0.3786338047
| 37> H -4.0452226092 3.8017957913 0.2130793371
| 38> H -3.7528511539 2.8998381661 -1.3051348009
| 39> H -5.6818034341 1.9930953413 0.8860569651
| 40> H -6.1712483879 2.8237254663 -0.6033803156
| 41> H -5.4288865247 1.2190537143 -0.6856610712
| 42> H -4.522206527 -2.0778189259 0.9721386157
| 43> H -4.0051155667 -1.7564312865 -0.7115996362
| 44> H -2.0833068331 -2.3663178464 1.5859366786
| 45> H -2.6126920074 -3.5481009293 0.3725557726
| 46> H -1.6621771891 -2.1414879342 -0.1235062755
| 47> *
| 48>
| 49>                          ****END OF INPUT****

CARTESIAN COORDINATES (ANGSTROEM)
---------------------------------
  C      4.094259    0.673064   -2.650324
  C      4.815609   -0.212056   -1.653186
  O      3.921196   -1.128045   -0.998875
  P      2.847463   -0.638751    0.052909
  S      3.428319    0.872454    1.170634
  O      2.666456   -2.051036    0.744444
  C      1.538247   -2.434349    1.548558
  C      1.511080   -1.719068    2.884997
  S      1.058638   -0.317330   -1.073464
  C      0.380236    1.073840   -0.127504
  S     -0.798810    0.552595    1.154559
  P     -2.556088    0.646557   -0.012102
  S     -2.415909    0.416963   -1.960103
  O     -3.058288    2.074227    0.459300
  C     -4.063690    2.818300   -0.258380
  C     -5.428648    2.170523   -0.155852
  O     -3.572280   -0.332524    0.718537
  C     -3.710118   -1.713635    0.341676
  C     -2.431410   -2.495340    0.563813
  H      3.426463    1.356236   -2.127110
  H      4.821771    1.252864   -3.209227
  H      3.508880    0.067628   -3.337829
  H      5.315580    0.394926   -0.890998
  H      5.542047   -0.861122   -2.143967
  H      0.619305   -2.239998    0.987117
  H      1.668326   -3.510457    1.675727
  H      2.462486   -1.842258    3.395931
  H      1.324361   -0.655351    2.744748
  H      0.717281   -2.133408    3.497829
  H     -0.124061    1.726978   -0.835609
  H      1.201135    1.587247    0.378634
  H     -4.045223    3.801796    0.213079
  H     -3.752851    2.899838   -1.305135
  H     -5.681803    1.993095    0.886057
  H     -6.171248    2.823725   -0.603380
  H     -5.428887    1.219054   -0.685661
  H     -4.522207   -2.077819    0.972139
  H     -4.005116   -1.756431   -0.711600
  H     -2.083307   -2.366318    1.585937
  H     -2.612692   -3.548101    0.372556
  H     -1.662177   -2.141488   -0.123506

 Total Charge           Charge          ....    0
 Multiplicity           Mult            ....    1
 Number of Electrons    NEL             ....  202
 Basis Dimension        Dim             ....  539

ORBITAL ENERGIES
----------------

  NO   OCC          E(Eh)            E(eV)
   0   2.0000     -88.578003     -2410.3300
   1   2.0000     -88.576412     -2410.2867
   2   2.0000     -88.527940     -2408.9677
   3   2.0000     -88.522014     -2408.8065
   4   2.0000     -76.918976     -2093.0717
   5   2.0000     -76.913211     -2092.9149
   6   2.0000     -18.999060      -516.9907
   7   2.0000     -18.992495      -516.8121
   8   2.0000     -18.990167      -516.7487
   9   2.0000     -18.989343      -516.7263
  10   2.0000     -10.105163      -274.9755
  11   2.0000     -10.104660      -274.9618
  12   2.0000     -10.099944      -274.8335
  13   2.0000     -10.098483      -274.7937
  14   2.0000     -10.095748      -274.7193
  15   2.0000     -10.034618      -273.0559
  16   2.0000     -10.031891      -272.9816
  17   2.0000     -10.025895      -272.8185
  18   2.0000     -10.025315      -272.8027
  19   2.0000      -7.872458      -214.2205
  20   2.0000      -7.870174      -214.1583
  21   2.0000      -7.822517      -212.8615
  22   2.0000      -7.816833      -212.7068
  23   2.0000      -6.597551      -179.5285
  24   2.0000      -6.591835      -179.3730
  25   2.0000      -5.819303      -158.3513
  26   2.0000      -5.817058      -158.2902
  27   2.0000      -5.816435      -158.2732
  28   2.0000      -5.813980      -158.2064
  29   2.0000      -5.809454      -158.0833
  30   2.0000      -5.807442      -158.0285
  31   2.0000      -5.770171      -157.0143
  32   2.0000      -5.764427      -156.8580
  33   2.0000      -5.762849      -156.8151
  34   2.0000      -5.762503      -156.8057
  35   2.0000      -5.757102      -156.6587
  36   2.0000      -5.756899      -156.6532
  37   2.0000      -4.742866      -129.0599
  38   2.0000      -4.742497      -129.0499
  39   2.0000      -4.741431      -129.0209
  40   2.0000      -4.737145      -128.9043
  41   2.0000      -4.737036      -128.9013
  42   2.0000      -4.735459      -128.8584
  43   2.0000      -1.054637       -28.6981
  44   2.0000      -1.051820       -28.6215
  45   2.0000      -1.016051       -27.6482
  46   2.0000      -1.009237       -27.4627
  47   2.0000      -0.800439       -21.7811
  48   2.0000      -0.760003       -20.6807
  49   2.0000      -0.751477       -20.4487
  50   2.0000      -0.736498       -20.0411
  51   2.0000      -0.725992       -19.7552
  52   2.0000      -0.714733       -19.4489
  53   2.0000      -0.689584       -18.7645
  54   2.0000      -0.671908       -18.2835
  55   2.0000      -0.637625       -17.3507
  56   2.0000      -0.628646       -17.1063
  57   2.0000      -0.610828       -16.6215
  58   2.0000      -0.602479       -16.3943
  59   2.0000      -0.591034       -16.0828
  60   2.0000      -0.525045       -14.2872
  61   2.0000      -0.518302       -14.1037
  62   2.0000      -0.496968       -13.5232
  63   2.0000      -0.487832       -13.2746
  64   2.0000      -0.476799       -12.9744
  65   2.0000      -0.465468       -12.6660
  66   2.0000      -0.463417       -12.6102
  67   2.0000      -0.452869       -12.3232
  68   2.0000      -0.440809       -11.9950
  69   2.0000      -0.438291       -11.9265
  70   2.0000      -0.430754       -11.7214
  71   2.0000      -0.426741       -11.6122
  72   2.0000      -0.414553       -11.2806
  73   2.0000      -0.407605       -11.0915
  74   2.0000      -0.400549       -10.8995
  75   2.0000      -0.390196       -10.6178
  76   2.0000      -0.385854       -10.4996
  77   2.0000      -0.375282       -10.2120
  78   2.0000      -0.371600       -10.1117
  79   2.0000      -0.367180        -9.9915
  80   2.0000      -0.362336        -9.8597
  81   2.0000      -0.361051        -9.8247
  82   2.0000      -0.356414        -9.6985
  83   2.0000      -0.353232        -9.6119
  84   2.0000      -0.349968        -9.5231
  85   2.0000      -0.331852        -9.0302
  86   2.0000      -0.324434        -8.8283
  87   2.0000      -0.315480        -8.5846
  88   2.0000      -0.312989        -8.5169
  89   2.0000      -0.303980        -8.2717
  90   2.0000      -0.302351        -8.2274
  91   2.0000      -0.291961        -7.9447
  92   2.0000      -0.285941        -7.7809
  93   2.0000      -0.283823        -7.7232
  94   2.0000      -0.274686        -7.4746
  95   2.0000      -0.249547        -6.7905
  96   2.0000      -0.232967        -6.3394
  97   2.0000      -0.229161        -6.2358
  98   2.0000      -0.223283        -6.0758
  99   2.0000      -0.219129        -5.9628
 100   2.0000      -0.214971        -5.8497
 101   0.0000      -0.048435        -1.3180
 102   0.0000      -0.037031        -1.0077
 103   0.0000      -0.010092        -0.2746
 104   0.0000      -0.000113        -0.0031
 105   0.0000       0.013153         0.3579

MULLIKEN ATOMIC CHARGES
-----------------------
   0 C :   -0.436763
   1 C :   -0.149433
   2 O :   -0.311842
   3 P :    0.676987
   4 S :   -0.469522
   5 O :   -0.272984
   6 C :   -0.170892
   7 C :   -0.402039
   8 S :   -0.112023
   9 C :   -0.259743
  10 S :   -0.097179
  11 P :    0.640561
  12 S :   -0.460905
  13 O :   -0.287671
  14 C :   -0.152782
  15 C :   -0.435337
  16 O :   -0.289932
  17 C :   -0.141373
  18 C :   -0.473810
  19 H :    0.168513
  20 H :    0.146922
  21 H :    0.156462
  22 H :    0.172289
  23 H :    0.149485
  24 H :    0.165932
  25 H :    0.152108
  26 H :    0.157213
  27 H :    0.159850
  28 H :    0.145983
  29 H :    0.200725
  30 H :    0.225249
  31 H :    0.150505
  32 H :    0.170355
  33 H :    0.157152
  34 H :    0.147748
  35 H :    0.163698
  36 H :    0.150146
  37 H :    0.169978
  38 H :    0.160929
  39 H :    0.150513
  40 H :    0.184924
Sum of atomic charges:   -0.0000000

LOEWDIN ATOMIC CHARGES
----------------------
   0 C :   -0.405308
   1 C :    0.021568
   2 O :   -0.650172
   3 P :    0.391061
   4 S :   -0.135551
   5 O :   -0.646617
   6 C :    0.019106
   7 C :   -0.407514
   8 S :    0.143208
   9 C :   -0.422853
  10 S :    0.169374
  11 P :    0.377429
  12 S :   -0.120295
  13 O :   -0.668393
  14 C :    0.021967
  15 C :   -0.398555
  16 O :   -0.663072
  17 C :    0.022031
  18 C :   -0.414087
  19 H :    0.162992
  20 H :    0.158731
  21 H :    0.161437
  22 H :    0.179863
  23 H :    0.180208
  24 H :    0.177476
  25 H :    0.181343
  26 H :    0.163354
  27 H :    0.163506
  28 H :    0.158903
  29 H :    0.188947
  30 H :    0.196822
  31 H :    0.180685
  32 H :    0.179122
  33 H :    0.161914
  34 H :    0.159623
  35 H :    0.163424
  36 H :    0.180619
  37 H :    0.179568
  38 H :    0.160215
  39 H :    0.160483
  40 H :    0.167434

  Mayer bond orders larger than 0.100000
B(  0-C ,  1-C ) :   0.9224 B(  0-C , 19-H ) :   0.9648 B(  0-C , 20-H ) :   0.9608
B(  0-C , 21-H ) :   0.9673 B(  1-C ,  2-O ) :   0.8167 B(  1-C , 22-H ) :   0.9675
B(  1-C , 23-H ) :   0.9595 B(  2-O ,  3-P ) :   1.1303 B(  3-P ,  4-S ) :   1.7410
B(  3-P ,  5-O ) :   1.1356 B(  3-P ,  8-S ) :   1.0444 B(  5-O ,  6-C ) :   0.8046
B(  6-C ,  7-C ) :   0.9305 B(  6-C , 24-H ) :   0.9592 B(  6-C , 25-H ) :   0.9625
B(  7-C , 26-H ) :   0.9670 B(  7-C , 27-H ) :   0.9492 B(  7-C , 28-H ) :   0.9672
B(  8-S ,  9-C ) :   0.9163 B(  9-C , 10-S ) :   0.8937 B(  9-C , 29-H ) :   0.9162
B(  9-C , 30-H ) :   0.8878 B( 10-S , 11-P ) :   1.0947 B( 11-P , 12-S ) :   1.7495
B( 11-P , 13-O ) :   1.1775 B( 11-P , 16-O ) :   1.0640 B( 13-O , 14-C ) :   0.8131
B( 14-C , 15-C ) :   0.9285 B( 14-C , 31-H ) :   0.9599 B( 14-C , 32-H ) :   0.9659
B( 15-C , 33-H ) :   0.9707 B( 15-C , 34-H ) :   0.9614 B( 15-C , 35-H ) :   0.9607
B( 16-O , 17-C ) :   0.8125 B( 17-C , 18-C ) :   0.9187 B( 17-C , 36-H ) :   0.9582
B( 17-C , 37-H ) :   0.9658 B( 18-C , 38-H ) :   0.9668 B( 18-C , 39-H ) :   0.9560
B( 18-C , 40-H ) :   0.9574

Dispersion correction           -0.021300855
FINAL SINGLE POINT ENERGY     -2932.462325573357

DIPOLE MOMENT
-------------

Method             : SCF
Type of density    : Electron Density
Multiplicity       :   1
Irrep              :   0
Energy             : -2932.4877059012324025 Eh
Relativity type    :
Basis              : AO
                                X                 Y                 Z
Electronic contribution:      8.143780071       3.453187773      -0.712769840
Nuclear contribution   :     -9.193492138      -3.833870419       0.687961429
                        -----------------------------------------
Total Dipole Moment    :     -1.049712067      -0.380682646      -0.024808412
                        -----------------------------------------
Magnitude (a.u.)       :      1.116884129
Magnitude (Debye)      :      2.838893845

Rotational constants in cm-1:             0.013687             0.004254             0.003924
Rotational constants in MHz :           410.325250           127.545997           117.626275

                             ****ORCA TERMINATED NORMALLY****
TOTAL RUN TIME: 0 days 0 hours 1 minutes 16 seconds 848 msec
