                         Program Version 6.0.0  -   RELEASE  -
|  1> ! r2scan-3c def2/J RI DEFGRID2 scfconv6 printgap
|  2> %output
|  3>     printlevel normal
|  4> end
|  5> %cpcm
|  6>     smd true
|  7>     smdsolvent "water"
|  8> end
|  9> * xyz 0 1
| 10> C 4.0942590643 0.6730636751 -2.6503240605
| 11> C 4.8156094464 -0.2120556427 -1.6531858147
| 12> O 3.9211964266 -1.1280447207 -0.998874956
| 13> P 2.8474628209 -0.6387508458 0.0529090244
| 14> S 3.4283188832 0.8724544626 1.1706336309
| 15> O 2.6664562724 -2.0510360159 0.7444442756
| 16> C 1.538247426 -2.4343487193 1.5485577428
| 17> C 1.511080108 -1.7190677305 2.8849972415
| 18> S 1.058638343 -0.3173303845 -1.0734635157
| 19> C 0.380235598 1.0738395233 -0.1275042129
| 20> S -0.7988099511 0.5525953968 1.1545594669
| 21> P -2.5560880424 0.6465570504 -0.0121019207
| 22> S -2.4159093474 0.416962541 -1.9601025835
| 23> O -3.058288375 2.0742271602 0.459299539
| 24> C -4.0636903186 2.8183001845 -0.2583804747
| 25> C -5.4286475479 2.1705229743 -0.1558515578
| 26> O -3.5722801647 -0.3325242677 0.7185373198
| 27> C -3.710117687 -1.7136348316 0.3416757026
| 28> C -2.4314104101 -2.4953399256 0.5638129089
| 29> H 3.4264632995 1.3562363624 -2.1271099241
| 30> H 4.8217714597 1.2528636106 -3.2092268569
| 31> H 3.5088804394 0.0676281425 -3.3378285698
| 32> H 5.3155804244 0.3949256823 -0.8909984595
| 33> H 5.5420472978 -0.8611215209 -2.1439671601
| 34> H 0.619305246 -2.2399984801 0.9871169319
| 35> H 1.6683263395 -3.5104571352 1.675726725
| 36> H 2.4624856885 -1.8422584244 3.3959305051
| 37> H 1.3243607805 -0.655350774 2.7447482504
| 38> H 0.7172808503 -2.1334082317 3.4978290859
| 39> H -0.1240612647 1.7269782837 -0.8356091742
| 40> H 1.2011348661 1.5872468816 0.3786338047
| 41> H -4.0452226092 3.8017957913 0.2130793371
| 42> H -3.7528511539 2.8998381661 -1.3051348009
| 43> H -5.6818034341 1.9930953413 0.8860569651
| 44> H -6.1712483879 2.8237254663 -0.6033803156
| 45> H -5.4288865247 1.2190537143 -0.6856610712
| 46> H -4.522206527 -2.0778189259 0.9721386157
| 47> H -4.0051155667 -1.7564312865 -0.7115996362
| 48> H -2.0833068331 -2.3663178464 1.5859366786
| 49> H -2.6126920074 -3.5481009293 0.3725557726
| 50> H -1.6621771891 -2.1414879342 -0.1235062755
| 51> *
| 52>
| 53>                          ****END OF INPUT****

CARTESIAN COORDINATES (ANGSTROEM)
---------------------------------
  C      4.094259    0.673064   -2.650324
  C      4.815609   -0.212056   -1.653186
  O      3.921196   -1.128045   -0.998875
  P      2.847463   -0.638751    0.052909
  S      3.428319    0.872454    1.170634
  O      2.666456   -2.051036    0.744444
  C      1.538247   -2.434349    1.548558
  C      1.511080   -1.719068    2.884997
  S      1.058638   -0.317330   -1.073464
  C      0.380236    1.073840   -0.127504
  S     -0.798810    0.552595    1.154559
  P     -2.556088    0.646557   -0.012102
  S     -2.415909    0.416963   -1.960103
  O     -3.058288    2.074227    0.459300
  C     -4.063690    2.818300   -0.258380
  C     -5.428648    2.170523   -0.155852
  O     -3.572280   -0.332524    0.718537
  C     -3.710118   -1.713635    0.341676
  C     -2.431410   -2.495340    0.563813
  H      3.426463    1.356236   -2.127110
  H      4.821771    1.252864   -3.209227
  H      3.508880    0.067628   -3.337829
  H      5.315580    0.394926   -0.890998
  H      5.542047   -0.861122   -2.143967
  H      0.619305   -2.239998    0.987117
  H      1.668326   -3.510457    1.675727
  H      2.462486   -1.842258    3.395931
  H      1.324361   -0.655351    2.744748
  H      0.717281   -2.133408    3.497829
  H     -0.124061    1.726978   -0.835609
  H      1.201135    1.587247    0.378634
  H     -4.045223    3.801796    0.213079
  H     -3.752851    2.899838   -1.305135
  H     -5.681803    1.993095    0.886057
  H     -6.171248    2.823725   -0.603380
  H     -5.428887    1.219054   -0.685661
  H     -4.522207   -2.077819    0.972139
  H     -4.005116   -1.756431   -0.711600
  H     -2.083307   -2.366318    1.585937
  H     -2.612692   -3.548101    0.372556
  H     -1.662177   -2.141488   -0.123506

 Total Charge           Charge          ....    0
 Multiplicity           Mult            ....    1
 Number of Electrons    NEL             ....  202
 Basis Dimension        Dim             ....  539

ORBITAL ENERGIES
----------------

  NO   OCC          E(Eh)            E(eV)
   0   2.0000     -88.580961     -2410.4105
   1   2.0000     -88.579844     -2410.3801
   2   2.0000     -88.531461     -2409.0635
   3   2.0000     -88.531096     -2409.0536
   4   2.0000     -76.920770     -2093.1206
   5   2.0000     -76.920343     -2093.1089
   6   2.0000     -18.997360      -516.9444
   7   2.0000     -18.996438      -516.9193
   8   2.0000     -18.995620      -516.8971
   9   2.0000     -18.993266      -516.8330
  10   2.0000     -10.104842      -274.9667
  11   2.0000     -10.091556      -274.6052
  12   2.0000     -10.090864      -274.5864
  13   2.0000     -10.089894      -274.5600
  14   2.0000     -10.088960      -274.5346
  15   2.0000     -10.019229      -272.6371
  16   2.0000     -10.018790      -272.6251
  17   2.0000     -10.018721      -272.6233
  18   2.0000     -10.018234      -272.6100
  19   2.0000      -7.874755      -214.2830
  20   2.0000      -7.874348      -214.2719
  21   2.0000      -7.826294      -212.9643
  22   2.0000      -7.826165      -212.9608
  23   2.0000      -6.599399      -179.5788
  24   2.0000      -6.599083      -179.5702
  25   2.0000      -5.821669      -158.4157
  26   2.0000      -5.821178      -158.4023
  27   2.0000      -5.818571      -158.3314
  28   2.0000      -5.818305      -158.3241
  29   2.0000      -5.811991      -158.1523
  30   2.0000      -5.811371      -158.1354
  31   2.0000      -5.773904      -157.1159
  32   2.0000      -5.773705      -157.1105
  33   2.0000      -5.766638      -156.9182
  34   2.0000      -5.766449      -156.9131
  35   2.0000      -5.766266      -156.9081
  36   2.0000      -5.766224      -156.9069
  37   2.0000      -4.744662      -129.1088
  38   2.0000      -4.744391      -129.1014
  39   2.0000      -4.744345      -129.1002
  40   2.0000      -4.744258      -129.0978
  41   2.0000      -4.743354      -129.0732
  42   2.0000      -4.742741      -129.0566
  43   2.0000      -1.057952       -28.7883
  44   2.0000      -1.053648       -28.6712
  45   2.0000      -1.014637       -27.6097
  46   2.0000      -1.014379       -27.6027
  47   2.0000      -0.802124       -21.8269
  48   2.0000      -0.757048       -20.6003
  49   2.0000      -0.745925       -20.2976
  50   2.0000      -0.724647       -19.7186
  51   2.0000      -0.720388       -19.6028
  52   2.0000      -0.713181       -19.4066
  53   2.0000      -0.691996       -18.8302
  54   2.0000      -0.676921       -18.4200
  55   2.0000      -0.634831       -17.2746
  56   2.0000      -0.626502       -17.0480
  57   2.0000      -0.600800       -16.3486
  58   2.0000      -0.599153       -16.3038
  59   2.0000      -0.589650       -16.0452
  60   2.0000      -0.520831       -14.1725
  61   2.0000      -0.513883       -13.9835
  62   2.0000      -0.490657       -13.3515
  63   2.0000      -0.487467       -13.2646
  64   2.0000      -0.476616       -12.9694
  65   2.0000      -0.463992       -12.6259
  66   2.0000      -0.455316       -12.3898
  67   2.0000      -0.450925       -12.2703
  68   2.0000      -0.436493       -11.8776
  69   2.0000      -0.435459       -11.8494
  70   2.0000      -0.427833       -11.6419
  71   2.0000      -0.424851       -11.5608
  72   2.0000      -0.406974       -11.0743
  73   2.0000      -0.404267       -11.0007
  74   2.0000      -0.397765       -10.8237
  75   2.0000      -0.388661       -10.5760
  76   2.0000      -0.385366       -10.4863
  77   2.0000      -0.370875       -10.0920
  78   2.0000      -0.364863        -9.9284
  79   2.0000      -0.356321        -9.6960
  80   2.0000      -0.354845        -9.6558
  81   2.0000      -0.353006        -9.6058
  82   2.0000      -0.350517        -9.5380
  83   2.0000      -0.349223        -9.5028
  84   2.0000      -0.345430        -9.3996
  85   2.0000      -0.328651        -8.9430
  86   2.0000      -0.323637        -8.8066
  87   2.0000      -0.310409        -8.4467
  88   2.0000      -0.306949        -8.3525
  89   2.0000      -0.302716        -8.2373
  90   2.0000      -0.299632        -8.1534
  91   2.0000      -0.288211        -7.8426
  92   2.0000      -0.286793        -7.8040
  93   2.0000      -0.281509        -7.6603
  94   2.0000      -0.279460        -7.6045
  95   2.0000      -0.251416        -6.8414
  96   2.0000      -0.238718        -6.4959
  97   2.0000      -0.234501        -6.3811
  98   2.0000      -0.229364        -6.2413
  99   2.0000      -0.226321        -6.1585
 100   2.0000      -0.221426        -6.0253
 101   0.0000      -0.051916        -1.4127
 102   0.0000      -0.043385        -1.1806
 103   0.0000      -0.012160        -0.3309
 104   0.0000      -0.005185        -0.1411
 105   0.0000       0.010812         0.2942

MULLIKEN ATOMIC CHARGES
-----------------------
   0 C :   -0.474681
   1 C :   -0.147957
   2 O :   -0.341857
   3 P :    0.703445
   4 S :   -0.508575
   5 O :   -0.307605
   6 C :   -0.165707
   7 C :   -0.447329
   8 S :   -0.121724
   9 C :   -0.265141
  10 S :   -0.112264
  11 P :    0.685444
  12 S :   -0.507481
  13 O :   -0.321082
  14 C :   -0.151556
  15 C :   -0.475767
  16 O :   -0.312462
  17 C :   -0.146945
  18 C :   -0.493580
  19 H :    0.169604
  20 H :    0.171953
  21 H :    0.167353
  22 H :    0.176980
  23 H :    0.175676
  24 H :    0.176906
  25 H :    0.179437
  26 H :    0.167928
  27 H :    0.154276
  28 H :    0.175492
  29 H :    0.227780
  30 H :    0.232073
  31 H :    0.175021
  32 H :    0.176173
  33 H :    0.168940
  34 H :    0.172038
  35 H :    0.167918
  36 H :    0.176629
  37 H :    0.177551
  38 H :    0.175317
  39 H :    0.174616
  40 H :    0.173165
Sum of atomic charges:    0.0000000

LOEWDIN ATOMIC CHARGES
----------------------
   0 C :   -0.408289
   1 C :    0.025993
   2 O :   -0.667586
   3 P :    0.393221
   4 S :   -0.162415
   5 O :   -0.665770
   6 C :    0.024992
   7 C :   -0.411349
   8 S :    0.139290
   9 C :   -0.416470
  10 S :    0.163353
  11 P :    0.384854
  12 S :   -0.147603
  13 O :   -0.685311
  14 C :    0.026494
  15 C :   -0.402233
  16 O :   -0.673093
  17 C :    0.027090
  18 C :   -0.413639
  19 H :    0.160944
  20 H :    0.168007
  21 H :    0.163786
  22 H :    0.181646
  23 H :    0.191165
  24 H :    0.182021
  25 H :    0.193061
  26 H :    0.164271
  27 H :    0.158780
  28 H :    0.169911
  29 H :    0.197812
  30 H :    0.199444
  31 H :    0.190752
  32 H :    0.181360
  33 H :    0.164344
  34 H :    0.168717
  35 H :    0.162619
  36 H :    0.191901
  37 H :    0.182008
  38 H :    0.164714
  39 H :    0.169286
  40 H :    0.161923

  Mayer bond orders larger than 0.100000
B(  0-C ,  1-C ) :   0.9126 B(  0-C , 19-H ) :   0.9644 B(  0-C , 20-H ) :   0.9551
B(  0-C , 21-H ) :   0.9657 B(  1-C ,  2-O ) :   0.8061 B(  1-C , 22-H ) :   0.9636
B(  1-C , 23-H ) :   0.9497 B(  2-O ,  3-P ) :   1.1314 B(  3-P ,  4-S ) :   1.7197
B(  3-P ,  5-O ) :   1.1379 B(  3-P ,  8-S ) :   1.0556 B(  5-O ,  6-C ) :   0.7943
B(  6-C ,  7-C ) :   0.9132 B(  6-C , 24-H ) :   0.9552 B(  6-C , 25-H ) :   0.9523
B(  7-C , 26-H ) :   0.9683 B(  7-C , 27-H ) :   0.9514 B(  7-C , 28-H ) :   0.9607
B(  8-S ,  9-C ) :   0.9092 B(  9-C , 10-S ) :   0.8910 B(  9-C , 29-H ) :   0.9079
B(  9-C , 30-H ) :   0.8874 B( 10-S , 11-P ) :   1.1002 B( 11-P , 12-S ) :   1.7070
B( 11-P , 13-O ) :   1.1797 B( 11-P , 16-O ) :   1.0776 B( 13-O , 14-C ) :   0.8019
B( 14-C , 15-C ) :   0.9160 B( 14-C , 31-H ) :   0.9509 B( 14-C , 32-H ) :   0.9622
B( 15-C , 33-H ) :   0.9699 B( 15-C , 34-H ) :   0.9555 B( 15-C , 35-H ) :   0.9590
B( 16-O , 17-C ) :   0.7977 B( 17-C , 18-C ) :   0.9073 B( 17-C , 36-H ) :   0.9482
B( 17-C , 37-H ) :   0.9635 B( 18-C , 38-H ) :   0.9634 B( 18-C , 39-H ) :   0.9516
B( 18-C , 40-H ) :   0.9593

Dispersion correction           -0.021300855
FINAL SINGLE POINT ENERGY     -2932.469648534606

DIPOLE MOMENT
-------------

Method             : SCF
Type of density    : Electron Density
Multiplicity       :   1
Irrep              :   0
Energy             : -2932.4950288624813766 Eh
Relativity type    :
Basis              : AO
                                X                 Y                 Z
Electronic contribution:      7.770056792       3.335882038      -0.742154091
Nuclear contribution   :     -9.193492138      -3.833870419       0.687961429
                        -----------------------------------------
Total Dipole Moment    :     -1.423435346      -0.497988381      -0.054192662
                        -----------------------------------------
Magnitude (a.u.)       :      1.509005453
Magnitude (Debye)      :      3.835587042

Rotational constants in cm-1:             0.013687             0.004254             0.003924
Rotational constants in MHz :           410.325250           127.545997           117.626275

                             ****ORCA TERMINATED NORMALLY****
TOTAL RUN TIME: 0 days 0 hours 1 minutes 45 seconds 962 msec
