                         Program Version 6.0.0  -   RELEASE  -
|  1> ! pbe def2-sv(p) def2/J RI DEFGRID1 loosescf d4 GCP(DFT/SV(P)) printgap
|  2> %output
|  3>     printlevel normal
|  4> end
|  5> * xyz 0 1
|  6> C 4.6103281219 -1.6932785969 -0.6460090748
|  7> C 4.6425308272 -0.2101055887 -0.3395161078
|  8> O 3.5009883253 0.2069908699 0.4286899359
|  9> P 2.0363980774 0.2803942545 -0.189760516
| 10> S 2.0020547847 0.8361332111 -2.0753243937
| 11> O 1.2924150439 1.124974657 0.9243017428
| 12> C 1.7366868494 2.3936256564 1.4470492998
| 13> C 1.9149769561 3.4386646093 0.3659391838
| 14> S 1.1965462814 -1.6106790784 0.1985565174
| 15> C -0.0295517173 -1.7232148329 -1.149589495
| 16> S -1.7233019099 -1.8823073944 -0.5458840608
| 17> P -1.9786964633 0.0777913734 0.2395191267
| 18> S -1.3162744629 1.5567384374 -0.8590876738
| 19> O -1.3350824461 0.0773039434 1.6786711878
| 20> C -1.359512126 -1.0040313076 2.644703108
| 21> C -2.7588910714 -1.478419093 2.9688102018
| 22> O -3.5351827888 0.1575359226 0.5525805152
| 23> C -4.5025062266 0.5914104245 -0.4176235854
| 24> C -4.6491884212 -0.3877338629 -1.5646390791
| 25> H 4.4622046964 -2.2650942882 0.266449809
| 26> H 3.7959196712 -1.9118535282 -1.3349775999
| 27> H 5.5485565326 -1.9836422352 -1.1075314215
| 28> H 4.6668748469 0.3726636911 -1.2660479463
| 29> H 5.492666102 0.0543371758 0.2907672289
| 30> H 0.9393436539 2.6716183218 2.1391132725
| 31> H 2.6686026019 2.2273040738 1.9927894537
| 32> H 1.0024844619 3.5272598736 -0.2218441602
| 33> H 2.1439453326 4.3970694905 0.8209398587
| 34> H 2.727760496 3.1564560459 -0.3025550471
| 35> H 0.1726626036 -2.6290514467 -1.7150319417
| 36> H 0.0668615195 -0.834282307 -1.779876271
| 37> H -0.7476320561 -1.823697976 2.2565479463
| 38> H -0.869332596 -0.5646012753 3.5147970024
| 39> H -3.2102085212 -1.9484859709 2.0977342251
| 40> H -2.7043316234 -2.2045152179 3.7741550375
| 41> H -3.3792686864 -0.6415884685 3.278607056
| 42> H -5.4250077505 0.678055505 0.1581918954
| 43> H -4.2021415757 1.57623504 -0.789643872
| 44> H -4.8247813465 -1.3916667186 -1.186916324
| 45> H -5.4842676638 -0.0848648165 -2.1881312303
| 46> H -3.743734185 -0.3923643657 -2.1693860532
| 47> *
| 48>
| 49>                          ****END OF INPUT****

CARTESIAN COORDINATES (ANGSTROEM)
---------------------------------
  C      4.610328   -1.693279   -0.646009
  C      4.642531   -0.210106   -0.339516
  O      3.500988    0.206991    0.428690
  P      2.036398    0.280394   -0.189761
  S      2.002055    0.836133   -2.075324
  O      1.292415    1.124975    0.924302
  C      1.736687    2.393626    1.447049
  C      1.914977    3.438665    0.365939
  S      1.196546   -1.610679    0.198557
  C     -0.029552   -1.723215   -1.149589
  S     -1.723302   -1.882307   -0.545884
  P     -1.978696    0.077791    0.239519
  S     -1.316274    1.556738   -0.859088
  O     -1.335082    0.077304    1.678671
  C     -1.359512   -1.004031    2.644703
  C     -2.758891   -1.478419    2.968810
  O     -3.535183    0.157536    0.552581
  C     -4.502506    0.591410   -0.417624
  C     -4.649188   -0.387734   -1.564639
  H      4.462205   -2.265094    0.266450
  H      3.795920   -1.911854   -1.334978
  H      5.548557   -1.983642   -1.107531
  H      4.666875    0.372664   -1.266048
  H      5.492666    0.054337    0.290767
  H      0.939344    2.671618    2.139113
  H      2.668603    2.227304    1.992789
  H      1.002484    3.527260   -0.221844
  H      2.143945    4.397069    0.820940
  H      2.727760    3.156456   -0.302555
  H      0.172663   -2.629051   -1.715032
  H      0.066862   -0.834282   -1.779876
  H     -0.747632   -1.823698    2.256548
  H     -0.869333   -0.564601    3.514797
  H     -3.210209   -1.948486    2.097734
  H     -2.704332   -2.204515    3.774155
  H     -3.379269   -0.641588    3.278607
  H     -5.425008    0.678056    0.158192
  H     -4.202142    1.576235   -0.789644
  H     -4.824781   -1.391667   -1.186916
  H     -5.484268   -0.084865   -2.188131
  H     -3.743734   -0.392364   -2.169386

 Total Charge           Charge          ....    0
 Multiplicity           Mult            ....    1
 Number of Electrons    NEL             ....  202
 Basis Dimension        Dim             ....  334

ORBITAL ENERGIES
----------------

  NO   OCC          E(Eh)            E(eV)
   0   2.0000     -88.043691     -2395.7906
   1   2.0000     -88.040812     -2395.7123
   2   2.0000     -87.981095     -2394.0873
   3   2.0000     -87.976561     -2393.9639
   4   2.0000     -76.422158     -2079.5527
   5   2.0000     -76.421898     -2079.5456
   6   2.0000     -18.791839      -511.3519
   7   2.0000     -18.790177      -511.3067
   8   2.0000     -18.785558      -511.1810
   9   2.0000     -18.778495      -510.9888
  10   2.0000      -9.954105      -270.8650
  11   2.0000      -9.950193      -270.7585
  12   2.0000      -9.949729      -270.7459
  13   2.0000      -9.949538      -270.7407
  14   2.0000      -9.945301      -270.6254
  15   2.0000      -9.884215      -268.9632
  16   2.0000      -9.882072      -268.9048
  17   2.0000      -9.881911      -268.9005
  18   2.0000      -9.872152      -268.6349
  19   2.0000      -7.688558      -209.2163
  20   2.0000      -7.685835      -209.1422
  21   2.0000      -7.626012      -207.5143
  22   2.0000      -7.621579      -207.3937
  23   2.0000      -6.419337      -174.6790
  24   2.0000      -6.419089      -174.6723
  25   2.0000      -5.716400      -155.5512
  26   2.0000      -5.713678      -155.4771
  27   2.0000      -5.712881      -155.4554
  28   2.0000      -5.710356      -155.3867
  29   2.0000      -5.705780      -155.2622
  30   2.0000      -5.702760      -155.1800
  31   2.0000      -5.654906      -153.8778
  32   2.0000      -5.650527      -153.7587
  33   2.0000      -5.646812      -153.6576
  34   2.0000      -5.646028      -153.6362
  35   2.0000      -5.642161      -153.5310
  36   2.0000      -5.641697      -153.5184
  37   2.0000      -4.642114      -126.3183
  38   2.0000      -4.641874      -126.3118
  39   2.0000      -4.640993      -126.2878
  40   2.0000      -4.640839      -126.2837
  41   2.0000      -4.639917      -126.2586
  42   2.0000      -4.639272      -126.2410
  43   2.0000      -0.982942       -26.7472
  44   2.0000      -0.981861       -26.7178
  45   2.0000      -0.940964       -25.6049
  46   2.0000      -0.936820       -25.4922
  47   2.0000      -0.761299       -20.7160
  48   2.0000      -0.717117       -19.5138
  49   2.0000      -0.706096       -19.2139
  50   2.0000      -0.687452       -18.7065
  51   2.0000      -0.683878       -18.6093
  52   2.0000      -0.672343       -18.2954
  53   2.0000      -0.648632       -17.6502
  54   2.0000      -0.630279       -17.1508
  55   2.0000      -0.596937       -16.2435
  56   2.0000      -0.589326       -16.0364
  57   2.0000      -0.573457       -15.6045
  58   2.0000      -0.571058       -15.5393
  59   2.0000      -0.558910       -15.2087
  60   2.0000      -0.491850       -13.3839
  61   2.0000      -0.488566       -13.2946
  62   2.0000      -0.467898       -12.7321
  63   2.0000      -0.464422       -12.6376
  64   2.0000      -0.449407       -12.2290
  65   2.0000      -0.446048       -12.1376
  66   2.0000      -0.439398       -11.9566
  67   2.0000      -0.431101       -11.7308
  68   2.0000      -0.425727       -11.5846
  69   2.0000      -0.412943       -11.2367
  70   2.0000      -0.411066       -11.1857
  71   2.0000      -0.404341       -11.0027
  72   2.0000      -0.392856       -10.6902
  73   2.0000      -0.384900       -10.4737
  74   2.0000      -0.378168       -10.2905
  75   2.0000      -0.367173        -9.9913
  76   2.0000      -0.362596        -9.8667
  77   2.0000      -0.356661        -9.7053
  78   2.0000      -0.350357        -9.5337
  79   2.0000      -0.349258        -9.5038
  80   2.0000      -0.343892        -9.3578
  81   2.0000      -0.339530        -9.2391
  82   2.0000      -0.336061        -9.1447
  83   2.0000      -0.332506        -9.0479
  84   2.0000      -0.327385        -8.9086
  85   2.0000      -0.313470        -8.5300
  86   2.0000      -0.309258        -8.4153
  87   2.0000      -0.292784        -7.9670
  88   2.0000      -0.291323        -7.9273
  89   2.0000      -0.288051        -7.8383
  90   2.0000      -0.276116        -7.5135
  91   2.0000      -0.271736        -7.3943
  92   2.0000      -0.267396        -7.2762
  93   2.0000      -0.257674        -7.0117
  94   2.0000      -0.255741        -6.9591
  95   2.0000      -0.236708        -6.4411
  96   2.0000      -0.219737        -5.9794
  97   2.0000      -0.211620        -5.7585
  98   2.0000      -0.196959        -5.3595
  99   2.0000      -0.189759        -5.1636
 100   2.0000      -0.182097        -4.9551
 101   0.0000      -0.039699        -1.0803
 102   0.0000      -0.030367        -0.8263
 103   0.0000      -0.009302        -0.2531
 104   0.0000       0.013970         0.3801
 105   0.0000       0.018006         0.4900

MULLIKEN ATOMIC CHARGES
-----------------------
   0 C :   -0.308564
   1 C :   -0.004398
   2 O :   -0.382150
   3 P :    0.626814
   4 S :   -0.311944
   5 O :   -0.352940
   6 C :    0.010056
   7 C :   -0.323987
   8 S :   -0.100376
   9 C :   -0.347586
  10 S :   -0.114294
  11 P :    0.595308
  12 S :   -0.296935
  13 O :   -0.349693
  14 C :   -0.002199
  15 C :   -0.303692
  16 O :   -0.375412
  17 C :   -0.000696
  18 C :   -0.318897
  19 H :    0.114913
  20 H :    0.121334
  21 H :    0.111467
  22 H :    0.110397
  23 H :    0.101574
  24 H :    0.105537
  25 H :    0.101165
  26 H :    0.138978
  27 H :    0.105024
  28 H :    0.121344
  29 H :    0.181365
  30 H :    0.209153
  31 H :    0.113475
  32 H :    0.105122
  33 H :    0.117084
  34 H :    0.110768
  35 H :    0.119648
  36 H :    0.102596
  37 H :    0.112288
  38 H :    0.114791
  39 H :    0.113199
  40 H :    0.130364
Sum of atomic charges:   -0.0000000

LOEWDIN ATOMIC CHARGES
----------------------
   0 C :   -0.368342
   1 C :   -0.121825
   2 O :   -0.247684
   3 P :    0.572474
   4 S :   -0.301883
   5 O :   -0.231757
   6 C :   -0.108059
   7 C :   -0.370107
   8 S :    0.087842
   9 C :   -0.479208
  10 S :    0.073991
  11 P :    0.566726
  12 S :   -0.297643
  13 O :   -0.229339
  14 C :   -0.115983
  15 C :   -0.366708
  16 O :   -0.244074
  17 C :   -0.119198
  18 C :   -0.371439
  19 H :    0.123540
  20 H :    0.120035
  21 H :    0.130123
  22 H :    0.109137
  23 H :    0.116592
  24 H :    0.120834
  25 H :    0.109189
  26 H :    0.131212
  27 H :    0.126698
  28 H :    0.118788
  29 H :    0.136952
  30 H :    0.126784
  31 H :    0.101352
  32 H :    0.120917
  33 H :    0.117366
  34 H :    0.130067
  35 H :    0.127435
  36 H :    0.117530
  37 H :    0.111806
  38 H :    0.122011
  39 H :    0.131244
  40 H :    0.122604

  Mayer bond orders larger than 0.100000
B(  0-C ,  1-C ) :   1.1675 B(  0-C , 19-H ) :   0.9453 B(  0-C , 20-H ) :   0.9364
B(  0-C , 21-H ) :   0.9386 B(  1-C ,  2-O ) :   0.9111 B(  1-C , 22-H ) :   0.9115
B(  1-C , 23-H ) :   0.9331 B(  2-O ,  3-P ) :   1.0832 B(  3-P ,  4-S ) :   1.6010
B(  3-P ,  5-O ) :   1.1433 B(  3-P ,  8-S ) :   0.9551 B(  4-S ,  8-S ) :   0.1181
B(  5-O ,  6-C ) :   0.9071 B(  6-C ,  7-C ) :   1.1665 B(  6-C , 24-H ) :   0.9322
B(  6-C , 25-H ) :   0.9323 B(  7-C , 26-H ) :   0.9394 B(  7-C , 27-H ) :   0.9359
B(  7-C , 28-H ) :   0.9362 B(  8-S ,  9-C ) :   0.9964 B(  9-C , 10-S ) :   1.0037
B(  9-C , 29-H ) :   0.9111 B(  9-C , 30-H ) :   0.8462 B( 10-S , 11-P ) :   0.9313
B( 10-S , 12-S ) :   0.1054 B( 11-P , 12-S ) :   1.6432 B( 11-P , 13-O ) :   1.1477
B( 11-P , 16-O ) :   1.0853 B( 13-O , 14-C ) :   0.9005 B( 14-C , 15-C ) :   1.1692
B( 14-C , 31-H ) :   0.9084 B( 14-C , 32-H ) :   0.9351 B( 15-C , 33-H ) :   0.9383
B( 15-C , 34-H ) :   0.9361 B( 15-C , 35-H ) :   0.9434 B( 16-O , 17-C ) :   0.9078
B( 17-C , 18-C ) :   1.1662 B( 17-C , 36-H ) :   0.9338 B( 17-C , 37-H ) :   0.9138
B( 18-C , 38-H ) :   0.9448 B( 18-C , 39-H ) :   0.9377 B( 18-C , 40-H ) :   0.9342

Dispersion correction           -0.068933850
FINAL SINGLE POINT ENERGY     -2929.515551695271

DIPOLE MOMENT
-------------

Method             : SCF
Type of density    : Electron Density
Multiplicity       :   1
Irrep              :   0
Energy             : -2929.6328544861585215 Eh
Relativity type    :
Basis              : AO
                                X                 Y                 Z
Electronic contribution:      0.889190795      -0.407937490      -5.184861182
Nuclear contribution   :     -0.904301888      -0.278790692       6.228148204
                        -----------------------------------------
Total Dipole Moment    :     -0.015111092      -0.686728182       1.043287022
                        -----------------------------------------
Magnitude (a.u.)       :      1.249108382
Magnitude (Debye)      :      3.174981188

Rotational constants in cm-1:             0.012955             0.005393             0.005139
Rotational constants in MHz :           388.378160           161.677845           154.054045

                             ****ORCA TERMINATED NORMALLY****
TOTAL RUN TIME: 0 days 0 hours 0 minutes 23 seconds 155 msec
