                         Program Version 6.0.0  -   RELEASE  -
|  1> ! pbe def2-sv(p) def2/J RI DEFGRID1 loosescf d4 GCP(DFT/SV(P)) printgap
|  2> %output
|  3>     printlevel normal
|  4> end
|  5> * xyz 0 1
|  6> C 5.4271639416 -1.2340161349 -1.3469576445
|  7> C 4.0674124123 -0.7370298016 -1.7929566721
|  8> O 3.5600087072 0.2703832713 -0.882868634
|  9> P 2.5953272406 -0.0414758212 0.3290344118
| 10> S 2.2803618652 1.5658814432 1.3959337894
| 11> O 3.3074855157 -1.2529725877 1.0677509417
| 12> C 2.9943660723 -1.6189172443 2.4257469036
| 13> C 1.5365574393 -1.9902413379 2.5989867448
| 14> S 0.9060132221 -0.95481568 -0.6083016408
| 15> C 0.175582335 0.5882621721 -1.2140170241
| 16> S -0.943442131 1.3569296587 -0.0192333455
| 17> P -2.7742094813 0.4318209982 -0.6449578847
| 18> S -2.7281420305 -0.325780407 -2.4508327557
| 19> O -3.8986979008 1.5303643101 -0.5693532134
| 20> C -4.4882705094 2.0656575578 0.6403467387
| 21> C -3.4972602913 2.8581544754 1.4661460045
| 22> O -3.1942600881 -0.5221676272 0.5599333338
| 23> C -2.3691902908 -1.5544315595 1.1244945312
| 24> C -2.2107990118 -2.7422184473 0.1975404425
| 25> H 5.814270142 -1.9211232327 -2.0929597421
| 26> H 6.1121779845 -0.3972758203 -1.2401101304
| 27> H 5.3479797143 -1.7472043041 -0.3927342863
| 28> H 3.3457413891 -1.5565228207 -1.853498079
| 29> H 4.1285915728 -0.2260437155 -2.7557651873
| 30> H 3.6539053218 -2.464513691 2.6255063457
| 31> H 3.2557716386 -0.7782170346 3.0748739635
| 32> H 0.916305888 -1.1062773136 2.4538374242
| 33> H 1.2492199196 -2.7489995648 1.8750246728
| 34> H 1.3779454862 -2.3680686145 3.6037496217
| 35> H -0.3896083287 0.3472107504 -2.117491647
| 36> H 0.9687731263 1.3053867618 -1.4169672661
| 37> H -5.292295745 2.6996745494 0.2633877748
| 38> H -4.9054616935 1.2366129392 1.2144224146
| 39> H -3.0364799932 3.6365538079 0.8630645946
| 40> H -4.016778408 3.3154163608 2.3025392639
| 41> H -2.7121288385 2.2093339588 1.8512077613
| 42> H -1.394089697 -1.1264757709 1.3764768449
| 43> H -2.8944435493 -1.8323976816 2.0400614169
| 44> H -3.1856201455 -3.1035846373 -0.1192860944
| 45> H -1.6398560356 -2.4631947395 -0.6862827482
| 46> H -1.6845655071 -3.5347542058 0.7192195473
| 47> *
| 48>
| 49>                          ****END OF INPUT****

CARTESIAN COORDINATES (ANGSTROEM)
---------------------------------
  C      5.427164   -1.234016   -1.346958
  C      4.067412   -0.737030   -1.792957
  O      3.560009    0.270383   -0.882869
  P      2.595327   -0.041476    0.329034
  S      2.280362    1.565881    1.395934
  O      3.307486   -1.252973    1.067751
  C      2.994366   -1.618917    2.425747
  C      1.536557   -1.990241    2.598987
  S      0.906013   -0.954816   -0.608302
  C      0.175582    0.588262   -1.214017
  S     -0.943442    1.356930   -0.019233
  P     -2.774209    0.431821   -0.644958
  S     -2.728142   -0.325780   -2.450833
  O     -3.898698    1.530364   -0.569353
  C     -4.488271    2.065658    0.640347
  C     -3.497260    2.858154    1.466146
  O     -3.194260   -0.522168    0.559933
  C     -2.369190   -1.554432    1.124495
  C     -2.210799   -2.742218    0.197540
  H      5.814270   -1.921123   -2.092960
  H      6.112178   -0.397276   -1.240110
  H      5.347980   -1.747204   -0.392734
  H      3.345741   -1.556523   -1.853498
  H      4.128592   -0.226044   -2.755765
  H      3.653905   -2.464514    2.625506
  H      3.255772   -0.778217    3.074874
  H      0.916306   -1.106277    2.453837
  H      1.249220   -2.749000    1.875025
  H      1.377945   -2.368069    3.603750
  H     -0.389608    0.347211   -2.117492
  H      0.968773    1.305387   -1.416967
  H     -5.292296    2.699675    0.263388
  H     -4.905462    1.236613    1.214422
  H     -3.036480    3.636554    0.863065
  H     -4.016778    3.315416    2.302539
  H     -2.712129    2.209334    1.851208
  H     -1.394090   -1.126476    1.376477
  H     -2.894444   -1.832398    2.040061
  H     -3.185620   -3.103585   -0.119286
  H     -1.639856   -2.463195   -0.686283
  H     -1.684566   -3.534754    0.719220

 Total Charge           Charge          ....    0
 Multiplicity           Mult            ....    1
 Number of Electrons    NEL             ....  202
 Basis Dimension        Dim             ....  334

ORBITAL ENERGIES
----------------

  NO   OCC          E(Eh)            E(eV)
   0   2.0000     -88.045518     -2395.8403
   1   2.0000     -88.040575     -2395.7058
   2   2.0000     -87.989748     -2394.3228
   3   2.0000     -87.982129     -2394.1154
   4   2.0000     -76.431146     -2079.7972
   5   2.0000     -76.423898     -2079.6000
   6   2.0000     -18.802278      -511.6360
   7   2.0000     -18.795820      -511.4603
   8   2.0000     -18.792327      -511.3652
   9   2.0000     -18.789519      -511.2888
  10   2.0000      -9.962254      -271.0867
  11   2.0000      -9.958486      -270.9842
  12   2.0000      -9.956418      -270.9279
  13   2.0000      -9.953906      -270.8596
  14   2.0000      -9.951563      -270.7958
  15   2.0000      -9.892901      -269.1995
  16   2.0000      -9.889872      -269.1171
  17   2.0000      -9.888770      -269.0871
  18   2.0000      -9.880154      -268.8527
  19   2.0000      -7.690018      -209.2560
  20   2.0000      -7.684637      -209.1096
  21   2.0000      -7.634886      -207.7558
  22   2.0000      -7.627353      -207.5508
  23   2.0000      -6.428576      -174.9305
  24   2.0000      -6.421315      -174.7329
  25   2.0000      -5.717651      -155.5852
  26   2.0000      -5.714617      -155.5026
  27   2.0000      -5.712539      -155.4461
  28   2.0000      -5.709159      -155.3541
  29   2.0000      -5.707211      -155.3011
  30   2.0000      -5.701791      -155.1536
  31   2.0000      -5.663969      -154.1244
  32   2.0000      -5.656366      -153.9175
  33   2.0000      -5.655408      -153.8915
  34   2.0000      -5.655002      -153.8804
  35   2.0000      -5.647812      -153.6848
  36   2.0000      -5.647522      -153.6769
  37   2.0000      -4.651595      -126.5763
  38   2.0000      -4.650286      -126.5407
  39   2.0000      -4.648683      -126.4971
  40   2.0000      -4.644230      -126.3759
  41   2.0000      -4.643014      -126.3428
  42   2.0000      -4.641533      -126.3025
  43   2.0000      -0.994393       -27.0588
  44   2.0000      -0.987188       -26.8628
  45   2.0000      -0.952029       -25.9060
  46   2.0000      -0.942697       -25.6521
  47   2.0000      -0.762423       -20.7466
  48   2.0000      -0.723394       -19.6846
  49   2.0000      -0.713879       -19.4256
  50   2.0000      -0.697348       -18.9758
  51   2.0000      -0.690378       -18.7861
  52   2.0000      -0.677441       -18.4341
  53   2.0000      -0.652774       -17.7629
  54   2.0000      -0.638698       -17.3799
  55   2.0000      -0.601109       -16.3570
  56   2.0000      -0.590727       -16.0745
  57   2.0000      -0.580480       -15.7957
  58   2.0000      -0.579725       -15.7751
  59   2.0000      -0.559725       -15.2309
  60   2.0000      -0.507024       -13.7968
  61   2.0000      -0.497178       -13.5289
  62   2.0000      -0.480557       -13.0766
  63   2.0000      -0.473041       -12.8721
  64   2.0000      -0.458394       -12.4735
  65   2.0000      -0.453016       -12.3272
  66   2.0000      -0.445424       -12.1206
  67   2.0000      -0.434263       -11.8169
  68   2.0000      -0.433570       -11.7980
  69   2.0000      -0.426981       -11.6188
  70   2.0000      -0.416314       -11.3285
  71   2.0000      -0.403275       -10.9737
  72   2.0000      -0.398775       -10.8512
  73   2.0000      -0.388465       -10.5707
  74   2.0000      -0.380204       -10.3459
  75   2.0000      -0.372775       -10.1437
  76   2.0000      -0.365143        -9.9360
  77   2.0000      -0.358462        -9.7542
  78   2.0000      -0.357601        -9.7308
  79   2.0000      -0.354799        -9.6546
  80   2.0000      -0.352898        -9.6028
  81   2.0000      -0.351072        -9.5532
  82   2.0000      -0.345746        -9.4082
  83   2.0000      -0.341410        -9.2902
  84   2.0000      -0.335803        -9.1377
  85   2.0000      -0.321828        -8.7574
  86   2.0000      -0.312037        -8.4910
  87   2.0000      -0.303583        -8.2609
  88   2.0000      -0.298118        -8.1122
  89   2.0000      -0.296773        -8.0756
  90   2.0000      -0.290238        -7.8978
  91   2.0000      -0.275673        -7.5014
  92   2.0000      -0.275239        -7.4896
  93   2.0000      -0.266762        -7.2590
  94   2.0000      -0.259451        -7.0600
  95   2.0000      -0.240950        -6.5566
  96   2.0000      -0.216332        -5.8867
  97   2.0000      -0.212426        -5.7804
  98   2.0000      -0.203705        -5.5431
  99   2.0000      -0.198366        -5.3978
 100   2.0000      -0.196024        -5.3341
 101   0.0000      -0.043376        -1.1803
 102   0.0000      -0.032445        -0.8829
 103   0.0000      -0.008571        -0.2332
 104   0.0000       0.005898         0.1605
 105   0.0000       0.010280         0.2797

MULLIKEN ATOMIC CHARGES
-----------------------
   0 C :   -0.291729
   1 C :   -0.011587
   2 O :   -0.357442
   3 P :    0.585615
   4 S :   -0.305597
   5 O :   -0.382356
   6 C :    0.011008
   7 C :   -0.359634
   8 S :   -0.097600
   9 C :   -0.345779
  10 S :   -0.092793
  11 P :    0.610259
  12 S :   -0.314361
  13 O :   -0.359170
  14 C :    0.002334
  15 C :   -0.332263
  16 O :   -0.381421
  17 C :   -0.037156
  18 C :   -0.303722
  19 H :    0.111020
  20 H :    0.120817
  21 H :    0.121872
  22 H :    0.102126
  23 H :    0.110541
  24 H :    0.107187
  25 H :    0.115571
  26 H :    0.153992
  27 H :    0.123867
  28 H :    0.117042
  29 H :    0.194531
  30 H :    0.190508
  31 H :    0.111830
  32 H :    0.111243
  33 H :    0.131272
  34 H :    0.117297
  35 H :    0.133127
  36 H :    0.133375
  37 H :    0.101968
  38 H :    0.118787
  39 H :    0.129228
  40 H :    0.106194
Sum of atomic charges:   -0.0000000

LOEWDIN ATOMIC CHARGES
----------------------
   0 C :   -0.359608
   1 C :   -0.116499
   2 O :   -0.239437
   3 P :    0.570831
   4 S :   -0.310810
   5 O :   -0.246334
   6 C :   -0.112986
   7 C :   -0.377196
   8 S :    0.081103
   9 C :   -0.488328
  10 S :    0.087998
  11 P :    0.566096
  12 S :   -0.303778
  13 O :   -0.234925
  14 C :   -0.109787
  15 C :   -0.370273
  16 O :   -0.246433
  17 C :   -0.121898
  18 C :   -0.367226
  19 H :    0.130235
  20 H :    0.129172
  21 H :    0.125774
  22 H :    0.103500
  23 H :    0.121582
  24 H :    0.119648
  25 H :    0.116176
  26 H :    0.123542
  27 H :    0.123018
  28 H :    0.133234
  29 H :    0.126003
  30 H :    0.134196
  31 H :    0.123388
  32 H :    0.114660
  33 H :    0.131116
  34 H :    0.133627
  35 H :    0.118435
  36 H :    0.103861
  37 H :    0.117601
  38 H :    0.128423
  39 H :    0.115053
  40 H :    0.127246

  Mayer bond orders larger than 0.100000
B(  0-C ,  1-C ) :   1.1645 B(  0-C , 19-H ) :   0.9396 B(  0-C , 20-H ) :   0.9470
B(  0-C , 21-H ) :   0.9425 B(  1-C ,  2-O ) :   0.8939 B(  1-C , 22-H ) :   0.9100
B(  1-C , 23-H ) :   0.9359 B(  2-O ,  3-P ) :   1.1269 B(  3-P ,  4-S ) :   1.6370
B(  3-P ,  5-O ) :   1.0848 B(  3-P ,  8-S ) :   0.9565 B(  4-S ,  8-S ) :   0.1105
B(  5-O ,  6-C ) :   0.9019 B(  6-C ,  7-C ) :   1.1647 B(  6-C , 24-H ) :   0.9336
B(  6-C , 25-H ) :   0.9212 B(  7-C , 26-H ) :   0.9193 B(  7-C , 27-H ) :   0.9408
B(  7-C , 28-H ) :   0.9345 B(  8-S ,  9-C ) :   0.9852 B(  9-C , 10-S ) :   1.0175
B(  9-C , 29-H ) :   0.8470 B(  9-C , 30-H ) :   0.8889 B( 10-S , 11-P ) :   0.9370
B( 10-S , 12-S ) :   0.1155 B( 11-P , 12-S ) :   1.6379 B( 11-P , 13-O ) :   1.1445
B( 11-P , 16-O ) :   1.0688 B( 12-S , 29-H ) :   0.1211 B( 13-O , 14-C ) :   0.9011
B( 14-C , 15-C ) :   1.1682 B( 14-C , 31-H ) :   0.9335 B( 14-C , 32-H ) :   0.9262
B( 15-C , 33-H ) :   0.9435 B( 15-C , 34-H ) :   0.9357 B( 15-C , 35-H ) :   0.9320
B( 16-O , 17-C ) :   0.9151 B( 17-C , 18-C ) :   1.1662 B( 17-C , 36-H ) :   0.9019
B( 17-C , 37-H ) :   0.9340 B( 18-C , 38-H ) :   0.9439 B( 18-C , 39-H ) :   0.9278
B( 18-C , 40-H ) :   0.9366

Dispersion correction           -0.064383220
FINAL SINGLE POINT ENERGY     -2929.516886444958

DIPOLE MOMENT
-------------

Method             : SCF
Type of density    : Electron Density
Multiplicity       :   1
Irrep              :   0
Energy             : -2929.6379527756798780 Eh
Relativity type    :
Basis              : AO
                                X                 Y                 Z
Electronic contribution:     -4.368225288      11.213030057     -10.047639602
Nuclear contribution   :      4.879555103     -12.239849988      11.205374042
                        -----------------------------------------
Total Dipole Moment    :      0.511329815      -1.026819931       1.157734440
                        -----------------------------------------
Magnitude (a.u.)       :      1.629774949
Magnitude (Debye)      :      4.142558706

Rotational constants in cm-1:             0.012934             0.004351             0.004250
Rotational constants in MHz :           387.762019           130.440559           127.424449

                             ****ORCA TERMINATED NORMALLY****
TOTAL RUN TIME: 0 days 0 hours 0 minutes 20 seconds 678 msec
