                         Program Version 6.0.0  -   RELEASE  -
|  1> ! r2scan-3c def2/J RI DEFGRID2 scfconv6 printgap
|  2> %output
|  3>     printlevel normal
|  4> end
|  5> * xyz 0 1
|  6> C 4.0237043395 0.0788748769 -2.6341018289
|  7> C 4.3027156148 0.7693284003 -1.3146547695
|  8> O 3.7598150199 0.0401741855 -0.2017218545
|  9> P 2.1978880622 -0.1118000646 0.0425120938
| 10> S 1.1830355626 1.5283858438 -0.3500879398
| 11> O 2.129554012 -0.6462038693 1.5295757631
| 12> C 2.0784307101 0.2215008675 2.6792999115
| 13> C 3.3358872955 1.0510414949 2.8223346152
| 14> S 1.7505429213 -1.9064192894 -0.9630239493
| 15> C 0.0136393284 -2.1379174315 -0.5018906163
| 16> S -1.1637802313 -1.1949204503 -1.5354515218
| 17> P -2.0308881328 0.0828135244 -0.0938143007
| 18> S -1.3553500814 -0.0658274755 1.7461565666
| 19> O -3.5870428791 -0.2406384012 -0.2078918931
| 20> C -4.1466191671 -1.4503744646 0.3349928433
| 21> C -5.6558863467 -1.3167910161 0.3120106391
| 22> O -1.9797181273 1.4743924587 -0.8285864657
| 23> C -2.0693604107 2.7354558387 -0.135117587
| 24> C -3.4147918682 2.9184587641 0.5332849112
| 25> H 4.3546916287 -0.9559041945 -2.5960068431
| 26> H 2.9542431618 0.0952988107 -2.8432278097
| 27> H 4.5458195776 0.5982256909 -3.4313017144
| 28> H 3.875068737 1.7774837021 -1.3104387479
| 29> H 5.3712503738 0.8168210515 -1.1009754179
| 30> H 1.1935914036 0.8602284305 2.5929265856
| 31> H 1.9440793806 -0.4672349802 3.5144567343
| 32> H 3.2960389904 1.603511178 3.7558766536
| 33> H 4.2116078871 0.4073623526 2.8162099659
| 34> H 3.4098338348 1.7568617985 1.9956758131
| 35> H -0.1293493074 -1.8560340914 0.5447840408
| 36> H -0.1905156811 -3.1929279067 -0.6615117481
| 37> H -3.8118264829 -2.290523756 -0.2809290955
| 38> H -3.7696848238 -1.5817078691 1.3552092276
| 39> H -6.1001874958 -2.2303342953 0.6930550713
| 40> H -5.9673365395 -0.4803488428 0.9310302693
| 41> H -5.995120582 -1.1468887297 -0.7055956364
| 42> H -1.2531254379 2.7877914258 0.5927078057
| 43> H -1.8959877687 3.4715592274 -0.9211387369
| 44> H -4.2127469538 2.7962201961 -0.1943725551
| 45> H -3.5395722197 2.1769324287 1.3219673795
| 46> H -3.4670171472 3.9110805887 0.9693966929
| 47> *
| 48>
| 49>                          ****END OF INPUT****

CARTESIAN COORDINATES (ANGSTROEM)
---------------------------------
  C      4.023704    0.078875   -2.634102
  C      4.302716    0.769328   -1.314655
  O      3.759815    0.040174   -0.201722
  P      2.197888   -0.111800    0.042512
  S      1.183036    1.528386   -0.350088
  O      2.129554   -0.646204    1.529576
  C      2.078431    0.221501    2.679300
  C      3.335887    1.051041    2.822335
  S      1.750543   -1.906419   -0.963024
  C      0.013639   -2.137917   -0.501891
  S     -1.163780   -1.194920   -1.535452
  P     -2.030888    0.082814   -0.093814
  S     -1.355350   -0.065827    1.746157
  O     -3.587043   -0.240638   -0.207892
  C     -4.146619   -1.450374    0.334993
  C     -5.655886   -1.316791    0.312011
  O     -1.979718    1.474392   -0.828586
  C     -2.069360    2.735456   -0.135118
  C     -3.414792    2.918459    0.533285
  H      4.354692   -0.955904   -2.596007
  H      2.954243    0.095299   -2.843228
  H      4.545820    0.598226   -3.431302
  H      3.875069    1.777484   -1.310439
  H      5.371250    0.816821   -1.100975
  H      1.193591    0.860228    2.592927
  H      1.944079   -0.467235    3.514457
  H      3.296039    1.603511    3.755877
  H      4.211608    0.407362    2.816210
  H      3.409834    1.756862    1.995676
  H     -0.129349   -1.856034    0.544784
  H     -0.190516   -3.192928   -0.661512
  H     -3.811826   -2.290524   -0.280929
  H     -3.769685   -1.581708    1.355209
  H     -6.100187   -2.230334    0.693055
  H     -5.967337   -0.480349    0.931030
  H     -5.995121   -1.146889   -0.705596
  H     -1.253125    2.787791    0.592708
  H     -1.895988    3.471559   -0.921139
  H     -4.212747    2.796220   -0.194373
  H     -3.539572    2.176932    1.321967
  H     -3.467017    3.911081    0.969397

 Total Charge           Charge          ....    0
 Multiplicity           Mult            ....    1
 Number of Electrons    NEL             ....  202
 Basis Dimension        Dim             ....  539

ORBITAL ENERGIES
----------------

  NO   OCC          E(Eh)            E(eV)
   0   2.0000     -88.572341     -2410.1759
   1   2.0000     -88.571891     -2410.1637
   2   2.0000     -88.517816     -2408.6922
   3   2.0000     -88.511812     -2408.5288
   4   2.0000     -76.910443     -2092.8396
   5   2.0000     -76.909677     -2092.8187
   6   2.0000     -18.988809      -516.7118
   7   2.0000     -18.985792      -516.6297
   8   2.0000     -18.984161      -516.5853
   9   2.0000     -18.983528      -516.5680
  10   2.0000     -10.105402      -274.9820
  11   2.0000     -10.095294      -274.7069
  12   2.0000     -10.093602      -274.6609
  13   2.0000     -10.093589      -274.6605
  14   2.0000     -10.088731      -274.5283
  15   2.0000     -10.030462      -272.9428
  16   2.0000     -10.026260      -272.8284
  17   2.0000     -10.024528      -272.7813
  18   2.0000     -10.022851      -272.7357
  19   2.0000      -7.866975      -214.0713
  20   2.0000      -7.866014      -214.0451
  21   2.0000      -7.812870      -212.5990
  22   2.0000      -7.806621      -212.4289
  23   2.0000      -6.588989      -179.2955
  24   2.0000      -6.587961      -179.2675
  25   2.0000      -5.813940      -158.2053
  26   2.0000      -5.812902      -158.1771
  27   2.0000      -5.810742      -158.1183
  28   2.0000      -5.809891      -158.0952
  29   2.0000      -5.803999      -157.9348
  30   2.0000      -5.803106      -157.9105
  31   2.0000      -5.760469      -156.7503
  32   2.0000      -5.754294      -156.5823
  33   2.0000      -5.753582      -156.5629
  34   2.0000      -5.752428      -156.5315
  35   2.0000      -5.746928      -156.3819
  36   2.0000      -5.746586      -156.3726
  37   2.0000      -4.734175      -128.8235
  38   2.0000      -4.733849      -128.8146
  39   2.0000      -4.733432      -128.8032
  40   2.0000      -4.733084      -128.7938
  41   2.0000      -4.733016      -128.7919
  42   2.0000      -4.731627      -128.7541
  43   2.0000      -1.045587       -28.4519
  44   2.0000      -1.045402       -28.4468
  45   2.0000      -1.007160       -27.4062
  46   2.0000      -1.004799       -27.3420
  47   2.0000      -0.795517       -21.6471
  48   2.0000      -0.755809       -20.5666
  49   2.0000      -0.744878       -20.2692
  50   2.0000      -0.729198       -19.8425
  51   2.0000      -0.727445       -19.7948
  52   2.0000      -0.706665       -19.2293
  53   2.0000      -0.684412       -18.6238
  54   2.0000      -0.662863       -18.0374
  55   2.0000      -0.631875       -17.1942
  56   2.0000      -0.621914       -16.9232
  57   2.0000      -0.602080       -16.3834
  58   2.0000      -0.595633       -16.2080
  59   2.0000      -0.588814       -16.0224
  60   2.0000      -0.524361       -14.2686
  61   2.0000      -0.512589       -13.9483
  62   2.0000      -0.491271       -13.3682
  63   2.0000      -0.487995       -13.2790
  64   2.0000      -0.468033       -12.7358
  65   2.0000      -0.462443       -12.5837
  66   2.0000      -0.453818       -12.3490
  67   2.0000      -0.448605       -12.2072
  68   2.0000      -0.442495       -12.0409
  69   2.0000      -0.431729       -11.7479
  70   2.0000      -0.425475       -11.5778
  71   2.0000      -0.412272       -11.2185
  72   2.0000      -0.407043       -11.0762
  73   2.0000      -0.399661       -10.8753
  74   2.0000      -0.394782       -10.7426
  75   2.0000      -0.386268       -10.5109
  76   2.0000      -0.385209       -10.4821
  77   2.0000      -0.369564       -10.0563
  78   2.0000      -0.367388        -9.9971
  79   2.0000      -0.359806        -9.7908
  80   2.0000      -0.357796        -9.7361
  81   2.0000      -0.355617        -9.6768
  82   2.0000      -0.354279        -9.6404
  83   2.0000      -0.348219        -9.4755
  84   2.0000      -0.343099        -9.3362
  85   2.0000      -0.323465        -8.8019
  86   2.0000      -0.321538        -8.7495
  87   2.0000      -0.311682        -8.4813
  88   2.0000      -0.305904        -8.3241
  89   2.0000      -0.298708        -8.1283
  90   2.0000      -0.292831        -7.9683
  91   2.0000      -0.285908        -7.7799
  92   2.0000      -0.282493        -7.6870
  93   2.0000      -0.275041        -7.4842
  94   2.0000      -0.269189        -7.3250
  95   2.0000      -0.247160        -6.7256
  96   2.0000      -0.234885        -6.3916
  97   2.0000      -0.222122        -6.0442
  98   2.0000      -0.216564        -5.8930
  99   2.0000      -0.206436        -5.6174
 100   2.0000      -0.196987        -5.3603
 101   0.0000      -0.039596        -1.0775
 102   0.0000      -0.028604        -0.7784
 103   0.0000      -0.010796        -0.2938
 104   0.0000       0.005341         0.1453
 105   0.0000       0.022122         0.6020

MULLIKEN ATOMIC CHARGES
-----------------------
   0 C :   -0.472003
   1 C :   -0.149213
   2 O :   -0.296683
   3 P :    0.672719
   4 S :   -0.448084
   5 O :   -0.295089
   6 C :   -0.144460
   7 C :   -0.456793
   8 S :   -0.092426
   9 C :   -0.244715
  10 S :   -0.114159
  11 P :    0.706050
  12 S :   -0.498393
  13 O :   -0.247864
  14 C :   -0.157107
  15 C :   -0.443511
  16 O :   -0.313469
  17 C :   -0.147012
  18 C :   -0.457795
  19 H :    0.157275
  20 H :    0.184756
  21 H :    0.148306
  22 H :    0.173211
  23 H :    0.147374
  24 H :    0.183043
  25 H :    0.149677
  26 H :    0.145839
  27 H :    0.156629
  28 H :    0.169056
  29 H :    0.211006
  30 H :    0.194334
  31 H :    0.149845
  32 H :    0.168073
  33 H :    0.144961
  34 H :    0.154150
  35 H :    0.154473
  36 H :    0.177973
  37 H :    0.153505
  38 H :    0.157754
  39 H :    0.172096
  40 H :    0.146675
Sum of atomic charges:    0.0000000

LOEWDIN ATOMIC CHARGES
----------------------
   0 C :   -0.407515
   1 C :    0.017555
   2 O :   -0.664840
   3 P :    0.378422
   4 S :   -0.088844
   5 O :   -0.671986
   6 C :    0.012620
   7 C :   -0.400945
   8 S :    0.169448
   9 C :   -0.413927
  10 S :    0.163105
  11 P :    0.377813
  12 S :   -0.130386
  13 O :   -0.674562
  14 C :    0.013396
  15 C :   -0.386131
  16 O :   -0.664501
  17 C :    0.016723
  18 C :   -0.401167
  19 H :    0.159856
  20 H :    0.167740
  21 H :    0.159686
  22 H :    0.179932
  23 H :    0.179034
  24 H :    0.184339
  25 H :    0.180790
  26 H :    0.158850
  27 H :    0.160945
  28 H :    0.165122
  29 H :    0.199285
  30 H :    0.180207
  31 H :    0.170976
  32 H :    0.178106
  33 H :    0.158804
  34 H :    0.159650
  35 H :    0.160167
  36 H :    0.182581
  37 H :    0.182657
  38 H :    0.161435
  39 H :    0.166273
  40 H :    0.159289

  Mayer bond orders larger than 0.100000
B(  0-C ,  1-C ) :   0.9138 B(  0-C , 19-H ) :   0.9694 B(  0-C , 20-H ) :   0.9620
B(  0-C , 21-H ) :   0.9580 B(  1-C ,  2-O ) :   0.8184 B(  1-C , 22-H ) :   0.9646
B(  1-C , 23-H ) :   0.9583 B(  2-O ,  3-P ) :   1.0619 B(  3-P ,  4-S ) :   1.7425
B(  3-P ,  5-O ) :   1.1754 B(  3-P ,  8-S ) :   1.1156 B(  5-O ,  6-C ) :   0.8097
B(  6-C ,  7-C ) :   0.9171 B(  6-C , 24-H ) :   0.9610 B(  6-C , 25-H ) :   0.9607
B(  7-C , 26-H ) :   0.9604 B(  7-C , 27-H ) :   0.9719 B(  7-C , 28-H ) :   0.9617
B(  8-S ,  9-C ) :   0.9067 B(  9-C , 10-S ) :   0.9098 B(  9-C , 29-H ) :   0.9039
B(  9-C , 30-H ) :   0.9149 B( 10-S , 11-P ) :   1.1096 B( 11-P , 12-S ) :   1.6769
B( 11-P , 13-O ) :   1.0664 B( 11-P , 16-O ) :   1.2121 B( 13-O , 14-C ) :   0.7905
B( 14-C , 15-C ) :   0.9557 B( 14-C , 31-H ) :   0.9459 B( 14-C , 32-H ) :   0.9474
B( 15-C , 33-H ) :   0.9652 B( 15-C , 34-H ) :   0.9726 B( 15-C , 35-H ) :   0.9722
B( 16-O , 17-C ) :   0.8030 B( 17-C , 18-C ) :   0.9189 B( 17-C , 36-H ) :   0.9625
B( 17-C , 37-H ) :   0.9592 B( 18-C , 38-H ) :   0.9710 B( 18-C , 39-H ) :   0.9611
B( 18-C , 40-H ) :   0.9603

Dispersion correction           -0.021735024
FINAL SINGLE POINT ENERGY     -2932.459093054166

DIPOLE MOMENT
-------------

Method             : SCF
Type of density    : Electron Density
Multiplicity       :   1
Irrep              :   0
Energy             : -2932.4840387402277884 Eh
Relativity type    :
Basis              : AO
                                X                 Y                 Z
Electronic contribution:      4.886542997      -8.444074220      -6.500298488
Nuclear contribution   :     -5.012641998       8.392465266       6.684729251
                        -----------------------------------------
Total Dipole Moment    :     -0.126099002      -0.051608954       0.184430762
                        -----------------------------------------
Magnitude (a.u.)       :      0.229301436
Magnitude (Debye)      :      0.582837931

Rotational constants in cm-1:             0.012822             0.005047             0.004706
Rotational constants in MHz :           384.401416           151.290656           141.084332

                             ****ORCA TERMINATED NORMALLY****
TOTAL RUN TIME: 0 days 0 hours 1 minutes 22 seconds 430 msec
