                         Program Version 6.0.0  -   RELEASE  -
|  1> ! r2scan-3c def2/J RI DEFGRID2 scfconv6 printgap
|  2> %output
|  3>     printlevel normal
|  4> end
|  5> %cpcm
|  6>     smd true
|  7>     smdsolvent "water"
|  8> end
|  9> * xyz 0 1
| 10> C 4.0237043395 0.0788748769 -2.6341018289
| 11> C 4.3027156148 0.7693284003 -1.3146547695
| 12> O 3.7598150199 0.0401741855 -0.2017218545
| 13> P 2.1978880622 -0.1118000646 0.0425120938
| 14> S 1.1830355626 1.5283858438 -0.3500879398
| 15> O 2.129554012 -0.6462038693 1.5295757631
| 16> C 2.0784307101 0.2215008675 2.6792999115
| 17> C 3.3358872955 1.0510414949 2.8223346152
| 18> S 1.7505429213 -1.9064192894 -0.9630239493
| 19> C 0.0136393284 -2.1379174315 -0.5018906163
| 20> S -1.1637802313 -1.1949204503 -1.5354515218
| 21> P -2.0308881328 0.0828135244 -0.0938143007
| 22> S -1.3553500814 -0.0658274755 1.7461565666
| 23> O -3.5870428791 -0.2406384012 -0.2078918931
| 24> C -4.1466191671 -1.4503744646 0.3349928433
| 25> C -5.6558863467 -1.3167910161 0.3120106391
| 26> O -1.9797181273 1.4743924587 -0.8285864657
| 27> C -2.0693604107 2.7354558387 -0.135117587
| 28> C -3.4147918682 2.9184587641 0.5332849112
| 29> H 4.3546916287 -0.9559041945 -2.5960068431
| 30> H 2.9542431618 0.0952988107 -2.8432278097
| 31> H 4.5458195776 0.5982256909 -3.4313017144
| 32> H 3.875068737 1.7774837021 -1.3104387479
| 33> H 5.3712503738 0.8168210515 -1.1009754179
| 34> H 1.1935914036 0.8602284305 2.5929265856
| 35> H 1.9440793806 -0.4672349802 3.5144567343
| 36> H 3.2960389904 1.603511178 3.7558766536
| 37> H 4.2116078871 0.4073623526 2.8162099659
| 38> H 3.4098338348 1.7568617985 1.9956758131
| 39> H -0.1293493074 -1.8560340914 0.5447840408
| 40> H -0.1905156811 -3.1929279067 -0.6615117481
| 41> H -3.8118264829 -2.290523756 -0.2809290955
| 42> H -3.7696848238 -1.5817078691 1.3552092276
| 43> H -6.1001874958 -2.2303342953 0.6930550713
| 44> H -5.9673365395 -0.4803488428 0.9310302693
| 45> H -5.995120582 -1.1468887297 -0.7055956364
| 46> H -1.2531254379 2.7877914258 0.5927078057
| 47> H -1.8959877687 3.4715592274 -0.9211387369
| 48> H -4.2127469538 2.7962201961 -0.1943725551
| 49> H -3.5395722197 2.1769324287 1.3219673795
| 50> H -3.4670171472 3.9110805887 0.9693966929
| 51> *
| 52>
| 53>                          ****END OF INPUT****

CARTESIAN COORDINATES (ANGSTROEM)
---------------------------------
  C      4.023704    0.078875   -2.634102
  C      4.302716    0.769328   -1.314655
  O      3.759815    0.040174   -0.201722
  P      2.197888   -0.111800    0.042512
  S      1.183036    1.528386   -0.350088
  O      2.129554   -0.646204    1.529576
  C      2.078431    0.221501    2.679300
  C      3.335887    1.051041    2.822335
  S      1.750543   -1.906419   -0.963024
  C      0.013639   -2.137917   -0.501891
  S     -1.163780   -1.194920   -1.535452
  P     -2.030888    0.082814   -0.093814
  S     -1.355350   -0.065827    1.746157
  O     -3.587043   -0.240638   -0.207892
  C     -4.146619   -1.450374    0.334993
  C     -5.655886   -1.316791    0.312011
  O     -1.979718    1.474392   -0.828586
  C     -2.069360    2.735456   -0.135118
  C     -3.414792    2.918459    0.533285
  H      4.354692   -0.955904   -2.596007
  H      2.954243    0.095299   -2.843228
  H      4.545820    0.598226   -3.431302
  H      3.875069    1.777484   -1.310439
  H      5.371250    0.816821   -1.100975
  H      1.193591    0.860228    2.592927
  H      1.944079   -0.467235    3.514457
  H      3.296039    1.603511    3.755877
  H      4.211608    0.407362    2.816210
  H      3.409834    1.756862    1.995676
  H     -0.129349   -1.856034    0.544784
  H     -0.190516   -3.192928   -0.661512
  H     -3.811826   -2.290524   -0.280929
  H     -3.769685   -1.581708    1.355209
  H     -6.100187   -2.230334    0.693055
  H     -5.967337   -0.480349    0.931030
  H     -5.995121   -1.146889   -0.705596
  H     -1.253125    2.787791    0.592708
  H     -1.895988    3.471559   -0.921139
  H     -4.212747    2.796220   -0.194373
  H     -3.539572    2.176932    1.321967
  H     -3.467017    3.911081    0.969397

 Total Charge           Charge          ....    0
 Multiplicity           Mult            ....    1
 Number of Electrons    NEL             ....  202
 Basis Dimension        Dim             ....  539

ORBITAL ENERGIES
----------------

  NO   OCC          E(Eh)            E(eV)
   0   2.0000     -88.579058     -2410.3587
   1   2.0000     -88.578338     -2410.3391
   2   2.0000     -88.525493     -2408.9011
   3   2.0000     -88.521210     -2408.7846
   4   2.0000     -76.917453     -2093.0303
   5   2.0000     -76.917292     -2093.0259
   6   2.0000     -18.994012      -516.8534
   7   2.0000     -18.993057      -516.8273
   8   2.0000     -18.992072      -516.8006
   9   2.0000     -18.988880      -516.7137
  10   2.0000     -10.105848      -274.9941
  11   2.0000     -10.090419      -274.5743
  12   2.0000     -10.089081      -274.5379
  13   2.0000     -10.087135      -274.4849
  14   2.0000     -10.086722      -274.4737
  15   2.0000     -10.019180      -272.6357
  16   2.0000     -10.018830      -272.6262
  17   2.0000     -10.018675      -272.6220
  18   2.0000     -10.017760      -272.5971
  19   2.0000      -7.873643      -214.2527
  20   2.0000      -7.872527      -214.2224
  21   2.0000      -7.820693      -212.8119
  22   2.0000      -7.816218      -212.6901
  23   2.0000      -6.596089      -179.4887
  24   2.0000      -6.595696      -179.4780
  25   2.0000      -5.820565      -158.3856
  26   2.0000      -5.819386      -158.3535
  27   2.0000      -5.817356      -158.2983
  28   2.0000      -5.816391      -158.2720
  29   2.0000      -5.810785      -158.1195
  30   2.0000      -5.809671      -158.0892
  31   2.0000      -5.768278      -156.9628
  32   2.0000      -5.763845      -156.8422
  33   2.0000      -5.761383      -156.7752
  34   2.0000      -5.760257      -156.7446
  35   2.0000      -5.756559      -156.6439
  36   2.0000      -5.756154      -156.6329
  37   2.0000      -4.741258      -129.0162
  38   2.0000      -4.741138      -129.0129
  39   2.0000      -4.740958      -129.0080
  40   2.0000      -4.740748      -129.0023
  41   2.0000      -4.740191      -128.9872
  42   2.0000      -4.739396      -128.9655
  43   2.0000      -1.051847       -28.6222
  44   2.0000      -1.051690       -28.6179
  45   2.0000      -1.012997       -27.5650
  46   2.0000      -1.010204       -27.4891
  47   2.0000      -0.799471       -21.7547
  48   2.0000      -0.756388       -20.5824
  49   2.0000      -0.742807       -20.2128
  50   2.0000      -0.723855       -19.6971
  51   2.0000      -0.723580       -19.6896
  52   2.0000      -0.708502       -19.2793
  53   2.0000      -0.689538       -18.7633
  54   2.0000      -0.670287       -18.2394
  55   2.0000      -0.633612       -17.2415
  56   2.0000      -0.621983       -16.9250
  57   2.0000      -0.600248       -16.3336
  58   2.0000      -0.591827       -16.1044
  59   2.0000      -0.588906       -16.0249
  60   2.0000      -0.524358       -14.2685
  61   2.0000      -0.512804       -13.9541
  62   2.0000      -0.492483       -13.4011
  63   2.0000      -0.488861       -13.3026
  64   2.0000      -0.470687       -12.8080
  65   2.0000      -0.464321       -12.6348
  66   2.0000      -0.453199       -12.3322
  67   2.0000      -0.445316       -12.1177
  68   2.0000      -0.442986       -12.0542
  69   2.0000      -0.432835       -11.7780
  70   2.0000      -0.424813       -11.5598
  71   2.0000      -0.412017       -11.2116
  72   2.0000      -0.406886       -11.0719
  73   2.0000      -0.401358       -10.9215
  74   2.0000      -0.395596       -10.7647
  75   2.0000      -0.386884       -10.5276
  76   2.0000      -0.384648       -10.4668
  77   2.0000      -0.365027        -9.9329
  78   2.0000      -0.361057        -9.8249
  79   2.0000      -0.355671        -9.6783
  80   2.0000      -0.354135        -9.6365
  81   2.0000      -0.351164        -9.5557
  82   2.0000      -0.350698        -9.5430
  83   2.0000      -0.347437        -9.4542
  84   2.0000      -0.343288        -9.3413
  85   2.0000      -0.324332        -8.8255
  86   2.0000      -0.320975        -8.7342
  87   2.0000      -0.311655        -8.4806
  88   2.0000      -0.304126        -8.2757
  89   2.0000      -0.301070        -8.1925
  90   2.0000      -0.296387        -8.0651
  91   2.0000      -0.289645        -7.8816
  92   2.0000      -0.285995        -7.7823
  93   2.0000      -0.278235        -7.5712
  94   2.0000      -0.272513        -7.4155
  95   2.0000      -0.254384        -6.9221
  96   2.0000      -0.243283        -6.6201
  97   2.0000      -0.230038        -6.2596
  98   2.0000      -0.224109        -6.0983
  99   2.0000      -0.216526        -5.8920
 100   2.0000      -0.206074        -5.6076
 101   0.0000      -0.046354        -1.2614
 102   0.0000      -0.035886        -0.9765
 103   0.0000      -0.015670        -0.4264
 104   0.0000      -0.000335        -0.0091
 105   0.0000       0.015007         0.4084

MULLIKEN ATOMIC CHARGES
-----------------------
   0 C :   -0.503407
   1 C :   -0.147010
   2 O :   -0.321508
   3 P :    0.695803
   4 S :   -0.492000
   5 O :   -0.323272
   6 C :   -0.138455
   7 C :   -0.495704
   8 S :   -0.108954
   9 C :   -0.234295
  10 S :   -0.140592
  11 P :    0.729598
  12 S :   -0.525181
  13 O :   -0.283404
  14 C :   -0.145027
  15 C :   -0.483709
  16 O :   -0.343931
  17 C :   -0.139328
  18 C :   -0.497908
  19 H :    0.171487
  20 H :    0.175349
  21 H :    0.174354
  22 H :    0.177708
  23 H :    0.175029
  24 H :    0.180460
  25 H :    0.175736
  26 H :    0.171622
  27 H :    0.169366
  28 H :    0.169675
  29 H :    0.211019
  30 H :    0.237332
  31 H :    0.167872
  32 H :    0.170585
  33 H :    0.168569
  34 H :    0.165293
  35 H :    0.164956
  36 H :    0.178305
  37 H :    0.178766
  38 H :    0.170986
  39 H :    0.170762
  40 H :    0.173050
Sum of atomic charges:    0.0000000

LOEWDIN ATOMIC CHARGES
----------------------
   0 C :   -0.410022
   1 C :    0.022985
   2 O :   -0.678484
   3 P :    0.380328
   4 S :   -0.112576
   5 O :   -0.688454
   6 C :    0.015772
   7 C :   -0.403390
   8 S :    0.163753
   9 C :   -0.403640
  10 S :    0.151392
  11 P :    0.378808
  12 S :   -0.144680
  13 O :   -0.691679
  14 C :    0.018916
  15 C :   -0.389949
  16 O :   -0.684320
  17 C :    0.019889
  18 C :   -0.403429
  19 H :    0.163650
  20 H :    0.161924
  21 H :    0.169210
  22 H :    0.181448
  23 H :    0.190710
  24 H :    0.183462
  25 H :    0.190714
  26 H :    0.168590
  27 H :    0.164096
  28 H :    0.163231
  29 H :    0.199609
  30 H :    0.198011
  31 H :    0.178426
  32 H :    0.180015
  33 H :    0.168150
  34 H :    0.162169
  35 H :    0.162778
  36 H :    0.182857
  37 H :    0.192287
  38 H :    0.164553
  39 H :    0.163488
  40 H :    0.169401

  Mayer bond orders larger than 0.100000
B(  0-C ,  1-C ) :   0.9013 B(  0-C , 19-H ) :   0.9659 B(  0-C , 20-H ) :   0.9644
B(  0-C , 21-H ) :   0.9524 B(  1-C ,  2-O ) :   0.8068 B(  1-C , 22-H ) :   0.9628
B(  1-C , 23-H ) :   0.9487 B(  2-O ,  3-P ) :   1.0654 B(  3-P ,  4-S ) :   1.7117
B(  3-P ,  5-O ) :   1.1730 B(  3-P ,  8-S ) :   1.1331 B(  5-O ,  6-C ) :   0.7978
B(  6-C ,  7-C ) :   0.9100 B(  6-C , 24-H ) :   0.9586 B(  6-C , 25-H ) :   0.9500
B(  7-C , 26-H ) :   0.9540 B(  7-C , 27-H ) :   0.9703 B(  7-C , 28-H ) :   0.9606
B(  8-S ,  9-C ) :   0.8988 B(  9-C , 10-S ) :   0.9039 B(  9-C , 29-H ) :   0.9051
B(  9-C , 30-H ) :   0.8983 B( 10-S , 11-P ) :   1.1197 B( 11-P , 12-S ) :   1.6595
B( 11-P , 13-O ) :   1.0673 B( 11-P , 16-O ) :   1.2078 B( 13-O , 14-C ) :   0.7861
B( 14-C , 15-C ) :   0.9494 B( 14-C , 31-H ) :   0.9384 B( 14-C , 32-H ) :   0.9440
B( 15-C , 33-H ) :   0.9590 B( 15-C , 34-H ) :   0.9699 B( 15-C , 35-H ) :   0.9695
B( 16-O , 17-C ) :   0.7911 B( 17-C , 18-C ) :   0.9102 B( 17-C , 36-H ) :   0.9578
B( 17-C , 37-H ) :   0.9483 B( 18-C , 38-H ) :   0.9698 B( 18-C , 39-H ) :   0.9611
B( 18-C , 40-H ) :   0.9536

Dispersion correction           -0.021735024
FINAL SINGLE POINT ENERGY     -2932.466693947035

DIPOLE MOMENT
-------------

Method             : SCF
Type of density    : Electron Density
Multiplicity       :   1
Irrep              :   0
Energy             : -2932.4916396330968382 Eh
Relativity type    :
Basis              : AO
                                X                 Y                 Z
Electronic contribution:      4.910672257      -8.604051678      -6.339690728
Nuclear contribution   :     -5.012641998       8.392465266       6.684729251
                        -----------------------------------------
Total Dipole Moment    :     -0.101969741      -0.211586412       0.345038522
                        -----------------------------------------
Magnitude (a.u.)       :      0.417394561
Magnitude (Debye)      :      1.060932662

Rotational constants in cm-1:             0.012822             0.005047             0.004706
Rotational constants in MHz :           384.401416           151.290656           141.084332

                             ****ORCA TERMINATED NORMALLY****
TOTAL RUN TIME: 0 days 0 hours 1 minutes 53 seconds 461 msec
