                         Program Version 6.0.0  -   RELEASE  -
|  1> ! r2scan-3c def2/J RI DEFGRID2 scfconv6 printgap
|  2> %output
|  3>     printlevel normal
|  4> end
|  5> * xyz 0 1
|  6> C 5.6000336093 0.7111665843 -0.23841175
|  7> C 4.3361821813 1.2532857829 -0.8776988104
|  8> O 3.3386454125 0.218965918 -1.0127652655
|  9> P 2.2351400512 -0.0552211164 0.0941514231
| 10> S 2.8613069652 -0.4054574313 1.921530126
| 11> O 1.4016235271 -1.213532791 -0.5835043037
| 12> C 1.5872096424 -2.6014273528 -0.2469315194
| 13> C 2.9225973347 -3.1139832773 -0.7409317879
| 14> S 0.9365621257 1.5955772441 -0.1230491024
| 15> C 0.0463081354 1.3627052462 1.4394036481
| 16> S -0.8699721696 -0.2043967073 1.5235606222
| 17> P -2.0724986056 -0.0344452655 -0.219097254
| 18> S -1.4093422257 -0.4982751619 -1.9959075767
| 19> O -2.5472377259 1.4796260414 -0.0232480408
| 20> C -2.9870740433 2.2805567676 -1.1377120842
| 21> C -4.3729160854 1.8704152667 -1.5915791737
| 22> O -3.2921824647 -0.9809422467 0.1400131434
| 23> C -4.0987947754 -0.814317139 1.3341082445
| 24> C -5.5093526924 -1.2638989028 1.0119411027
| 25> H 5.9819819643 -0.1254963482 -0.8168272083
| 26> H 6.3481495904 1.4965772446 -0.2062433647
| 27> H 5.3963105086 0.3740838376 0.7755669544
| 28> H 4.5191283253 1.5880414796 -1.9004733335
| 29> H 3.9220882323 2.0795950186 -0.2925646169
| 30> H 1.5029418284 -2.7092069573 0.8400840364
| 31> H 0.7484670201 -3.1013286831 -0.7347956775
| 32> H 3.0177528739 -2.9370950763 -1.8091072762
| 33> H 3.7274928412 -2.5927224461 -0.2232728246
| 34> H 2.9991439188 -4.1775839579 -0.5385728106
| 35> H -0.6412381954 2.1977700273 1.5403538338
| 36> H 0.7592495975 1.3283776663 2.2641004585
| 37> H -2.9665727866 3.302675684 -0.7573662157
| 38> H -2.2646301391 2.171482315 -1.9525272948
| 39> H -4.689621499 2.511930306 -2.4077640644
| 40> H -4.3511309358 0.8382923104 -1.9411029899
| 41> H -5.0814750763 1.9552606399 -0.771557097
| 42> H -3.6517490142 -1.4295811188 2.1180688674
| 43> H -4.0706293741 0.2349719644 1.6379468306
| 44> H -5.9365364021 -0.6412813892 0.2306485963
| 45> H -5.4993678334 -2.2942899601 0.6684482877
| 46> H -6.11939918 -1.1886485598 1.9063240926
| 47> *
| 48>
| 49>                          ****END OF INPUT****

CARTESIAN COORDINATES (ANGSTROEM)
---------------------------------
  C      5.600034    0.711167   -0.238412
  C      4.336182    1.253286   -0.877699
  O      3.338645    0.218966   -1.012765
  P      2.235140   -0.055221    0.094151
  S      2.861307   -0.405457    1.921530
  O      1.401624   -1.213533   -0.583504
  C      1.587210   -2.601427   -0.246932
  C      2.922597   -3.113983   -0.740932
  S      0.936562    1.595577   -0.123049
  C      0.046308    1.362705    1.439404
  S     -0.869972   -0.204397    1.523561
  P     -2.072499   -0.034445   -0.219097
  S     -1.409342   -0.498275   -1.995908
  O     -2.547238    1.479626   -0.023248
  C     -2.987074    2.280557   -1.137712
  C     -4.372916    1.870415   -1.591579
  O     -3.292182   -0.980942    0.140013
  C     -4.098795   -0.814317    1.334108
  C     -5.509353   -1.263899    1.011941
  H      5.981982   -0.125496   -0.816827
  H      6.348150    1.496577   -0.206243
  H      5.396311    0.374084    0.775567
  H      4.519128    1.588041   -1.900473
  H      3.922088    2.079595   -0.292565
  H      1.502942   -2.709207    0.840084
  H      0.748467   -3.101329   -0.734796
  H      3.017753   -2.937095   -1.809107
  H      3.727493   -2.592722   -0.223273
  H      2.999144   -4.177584   -0.538573
  H     -0.641238    2.197770    1.540354
  H      0.759250    1.328378    2.264100
  H     -2.966573    3.302676   -0.757366
  H     -2.264630    2.171482   -1.952527
  H     -4.689621    2.511930   -2.407764
  H     -4.351131    0.838292   -1.941103
  H     -5.081475    1.955261   -0.771557
  H     -3.651749   -1.429581    2.118069
  H     -4.070629    0.234972    1.637947
  H     -5.936536   -0.641281    0.230649
  H     -5.499368   -2.294290    0.668448
  H     -6.119399   -1.188649    1.906324

 Total Charge           Charge          ....    0
 Multiplicity           Mult            ....    1
 Number of Electrons    NEL             ....  202
 Basis Dimension        Dim             ....  539

ORBITAL ENERGIES
----------------

  NO   OCC          E(Eh)            E(eV)
   0   2.0000     -88.573173     -2410.1986
   1   2.0000     -88.571626     -2410.1565
   2   2.0000     -88.517083     -2408.6723
   3   2.0000     -88.510056     -2408.4811
   4   2.0000     -76.910394     -2092.8382
   5   2.0000     -76.909462     -2092.8129
   6   2.0000     -18.992516      -516.8126
   7   2.0000     -18.990069      -516.7460
   8   2.0000     -18.989882      -516.7410
   9   2.0000     -18.979534      -516.4594
  10   2.0000     -10.106801      -275.0200
  11   2.0000     -10.101554      -274.8773
  12   2.0000     -10.099367      -274.8178
  13   2.0000     -10.098146      -274.7845
  14   2.0000     -10.086670      -274.4722
  15   2.0000     -10.035555      -273.0813
  16   2.0000     -10.031617      -272.9742
  17   2.0000     -10.024283      -272.7746
  18   2.0000     -10.020204      -272.6636
  19   2.0000      -7.867599      -214.0882
  20   2.0000      -7.865938      -214.0431
  21   2.0000      -7.812052      -212.5767
  22   2.0000      -7.804829      -212.3802
  23   2.0000      -6.588803      -179.2905
  24   2.0000      -6.587714      -179.2608
  25   2.0000      -5.814472      -158.2198
  26   2.0000      -5.813077      -158.1819
  27   2.0000      -5.811446      -158.1375
  28   2.0000      -5.809590      -158.0870
  29   2.0000      -5.804700      -157.9539
  30   2.0000      -5.802992      -157.9074
  31   2.0000      -5.759603      -156.7268
  32   2.0000      -5.752719      -156.5394
  33   2.0000      -5.752364      -156.5298
  34   2.0000      -5.752087      -156.5223
  35   2.0000      -5.745048      -156.3307
  36   2.0000      -5.744665      -156.3203
  37   2.0000      -4.734189      -128.8238
  38   2.0000      -4.733792      -128.8130
  39   2.0000      -4.733742      -128.8117
  40   2.0000      -4.732667      -128.7824
  41   2.0000      -4.732583      -128.7801
  42   2.0000      -4.730976      -128.7364
  43   2.0000      -1.046913       -28.4879
  44   2.0000      -1.044755       -28.4292
  45   2.0000      -1.010070       -27.4854
  46   2.0000      -1.004834       -27.3429
  47   2.0000      -0.799847       -21.7649
  48   2.0000      -0.757874       -20.6228
  49   2.0000      -0.746456       -20.3121
  50   2.0000      -0.736292       -20.0355
  51   2.0000      -0.724890       -19.7253
  52   2.0000      -0.704704       -19.1760
  53   2.0000      -0.682767       -18.5790
  54   2.0000      -0.668139       -18.1810
  55   2.0000      -0.625173       -17.0118
  56   2.0000      -0.618950       -16.8425
  57   2.0000      -0.605649       -16.4805
  58   2.0000      -0.600135       -16.3305
  59   2.0000      -0.591626       -16.0990
  60   2.0000      -0.529707       -14.4140
  61   2.0000      -0.518623       -14.1124
  62   2.0000      -0.500802       -13.6275
  63   2.0000      -0.488433       -13.2909
  64   2.0000      -0.473932       -12.8963
  65   2.0000      -0.460473       -12.5301
  66   2.0000      -0.455297       -12.3892
  67   2.0000      -0.453158       -12.3311
  68   2.0000      -0.440072       -11.9750
  69   2.0000      -0.420962       -11.4550
  70   2.0000      -0.418290       -11.3823
  71   2.0000      -0.414021       -11.2661
  72   2.0000      -0.408849       -11.1253
  73   2.0000      -0.407258       -11.0821
  74   2.0000      -0.399554       -10.8724
  75   2.0000      -0.386961       -10.5297
  76   2.0000      -0.379981       -10.3398
  77   2.0000      -0.373518       -10.1639
  78   2.0000      -0.366943        -9.9850
  79   2.0000      -0.363297        -9.8858
  80   2.0000      -0.361466        -9.8360
  81   2.0000      -0.358496        -9.7552
  82   2.0000      -0.356665        -9.7054
  83   2.0000      -0.346730        -9.4350
  84   2.0000      -0.344512        -9.3746
  85   2.0000      -0.333620        -9.0783
  86   2.0000      -0.324457        -8.8289
  87   2.0000      -0.320937        -8.7331
  88   2.0000      -0.309227        -8.4145
  89   2.0000      -0.295987        -8.0542
  90   2.0000      -0.294309        -8.0086
  91   2.0000      -0.283403        -7.7118
  92   2.0000      -0.282813        -7.6957
  93   2.0000      -0.280827        -7.6417
  94   2.0000      -0.275964        -7.5094
  95   2.0000      -0.246954        -6.7200
  96   2.0000      -0.228670        -6.2224
  97   2.0000      -0.218604        -5.9485
  98   2.0000      -0.214379        -5.8335
  99   2.0000      -0.205496        -5.5918
 100   2.0000      -0.200047        -5.4435
 101   0.0000      -0.048181        -1.3111
 102   0.0000      -0.020636        -0.5615
 103   0.0000      -0.007629        -0.2076
 104   0.0000       0.006804         0.1851
 105   0.0000       0.021570         0.5869

MULLIKEN ATOMIC CHARGES
-----------------------
   0 C :   -0.455740
   1 C :   -0.134268
   2 O :   -0.295875
   3 P :    0.703975
   4 S :   -0.489955
   5 O :   -0.250228
   6 C :   -0.153764
   7 C :   -0.449738
   8 S :   -0.148375
   9 C :   -0.209117
  10 S :   -0.159725
  11 P :    0.693016
  12 S :   -0.422879
  13 O :   -0.332100
  14 C :   -0.145213
  15 C :   -0.464524
  16 O :   -0.282854
  17 C :   -0.120935
  18 C :   -0.455705
  19 H :    0.152642
  20 H :    0.144396
  21 H :    0.182757
  22 H :    0.151751
  23 H :    0.152091
  24 H :    0.170023
  25 H :    0.164654
  26 H :    0.158922
  27 H :    0.165052
  28 H :    0.145566
  29 H :    0.187396
  30 H :    0.209636
  31 H :    0.146580
  32 H :    0.181079
  33 H :    0.149257
  34 H :    0.185275
  35 H :    0.147782
  36 H :    0.154352
  37 H :    0.162925
  38 H :    0.154106
  39 H :    0.160069
  40 H :    0.147691
Sum of atomic charges:   -0.0000000

LOEWDIN ATOMIC CHARGES
----------------------
   0 C :   -0.402540
   1 C :    0.022479
   2 O :   -0.655137
   3 P :    0.377319
   4 S :   -0.134998
   5 O :   -0.673319
   6 C :    0.018028
   7 C :   -0.399906
   8 S :    0.165259
   9 C :   -0.412528
  10 S :    0.171472
  11 P :    0.378997
  12 S :   -0.067634
  13 O :   -0.706464
  14 C :    0.016553
  15 C :   -0.400697
  16 O :   -0.667620
  17 C :    0.014917
  18 C :   -0.386442
  19 H :    0.158495
  20 H :    0.157700
  21 H :    0.169174
  22 H :    0.179463
  23 H :    0.175102
  24 H :    0.179828
  25 H :    0.185416
  26 H :    0.161234
  27 H :    0.163600
  28 H :    0.158723
  29 H :    0.182990
  30 H :    0.191537
  31 H :    0.176650
  32 H :    0.183696
  33 H :    0.161027
  34 H :    0.169387
  35 H :    0.154862
  36 H :    0.174554
  37 H :    0.177115
  38 H :    0.159262
  39 H :    0.163070
  40 H :    0.159381

  Mayer bond orders larger than 0.100000
B(  0-C ,  1-C ) :   0.9534 B(  0-C , 19-H ) :   0.9742 B(  0-C , 20-H ) :   0.9646
B(  0-C , 21-H ) :   0.9566 B(  1-C ,  2-O ) :   0.7797 B(  1-C , 22-H ) :   0.9636
B(  1-C , 23-H ) :   0.9648 B(  2-O ,  3-P ) :   1.0717 B(  3-P ,  4-S ) :   1.7299
B(  3-P ,  5-O ) :   1.1731 B(  3-P ,  8-S ) :   1.0842 B(  5-O ,  6-C ) :   0.7814
B(  6-C ,  7-C ) :   0.9210 B(  6-C , 24-H ) :   0.9648 B(  6-C , 25-H ) :   0.9588
B(  7-C , 26-H ) :   0.9727 B(  7-C , 27-H ) :   0.9605 B(  7-C , 28-H ) :   0.9635
B(  8-S ,  9-C ) :   0.9134 B(  9-C , 10-S ) :   0.9006 B(  9-C , 29-H ) :   0.9160
B(  9-C , 30-H ) :   0.9102 B( 10-S , 11-P ) :   1.0328 B( 11-P , 12-S ) :   1.8686
B( 11-P , 13-O ) :   1.0440 B( 11-P , 16-O ) :   1.1133 B( 13-O , 14-C ) :   0.8033
B( 14-C , 15-C ) :   0.9208 B( 14-C , 31-H ) :   0.9620 B( 14-C , 32-H ) :   0.9590
B( 15-C , 33-H ) :   0.9606 B( 15-C , 34-H ) :   0.9606 B( 15-C , 35-H ) :   0.9727
B( 16-O , 17-C ) :   0.7411 B( 17-C , 18-C ) :   0.9572 B( 17-C , 36-H ) :   0.9414
B( 17-C , 37-H ) :   0.9636 B( 18-C , 38-H ) :   0.9708 B( 18-C , 39-H ) :   0.9716
B( 18-C , 40-H ) :   0.9661

Dispersion correction           -0.021526423
FINAL SINGLE POINT ENERGY     -2932.457267614951

DIPOLE MOMENT
-------------

Method             : SCF
Type of density    : Electron Density
Multiplicity       :   1
Irrep              :   0
Energy             : -2932.4819915202965603 Eh
Relativity type    :
Basis              : AO
                                X                 Y                 Z
Electronic contribution:      5.396103645       1.816776046       2.441863637
Nuclear contribution   :     -6.162614213      -0.990378195      -2.172720782
                        -----------------------------------------
Total Dipole Moment    :     -0.766510568       0.826397851       0.269142854
                        -----------------------------------------
Magnitude (a.u.)       :      1.158839823
Magnitude (Debye)      :      2.945536744

Rotational constants in cm-1:             0.014607             0.004588             0.004365
Rotational constants in MHz :           437.892855           137.545661           130.846084

                             ****ORCA TERMINATED NORMALLY****
TOTAL RUN TIME: 0 days 0 hours 1 minutes 19 seconds 313 msec
