                         Program Version 6.0.0  -   RELEASE  -
|  1> ! r2scan-3c def2/J RI DEFGRID2 scfconv6 printgap
|  2> %output
|  3>     printlevel normal
|  4> end
|  5> %cpcm
|  6>     smd true
|  7>     smdsolvent "water"
|  8> end
|  9> * xyz 0 1
| 10> C 5.6000336093 0.7111665843 -0.23841175
| 11> C 4.3361821813 1.2532857829 -0.8776988104
| 12> O 3.3386454125 0.218965918 -1.0127652655
| 13> P 2.2351400512 -0.0552211164 0.0941514231
| 14> S 2.8613069652 -0.4054574313 1.921530126
| 15> O 1.4016235271 -1.213532791 -0.5835043037
| 16> C 1.5872096424 -2.6014273528 -0.2469315194
| 17> C 2.9225973347 -3.1139832773 -0.7409317879
| 18> S 0.9365621257 1.5955772441 -0.1230491024
| 19> C 0.0463081354 1.3627052462 1.4394036481
| 20> S -0.8699721696 -0.2043967073 1.5235606222
| 21> P -2.0724986056 -0.0344452655 -0.219097254
| 22> S -1.4093422257 -0.4982751619 -1.9959075767
| 23> O -2.5472377259 1.4796260414 -0.0232480408
| 24> C -2.9870740433 2.2805567676 -1.1377120842
| 25> C -4.3729160854 1.8704152667 -1.5915791737
| 26> O -3.2921824647 -0.9809422467 0.1400131434
| 27> C -4.0987947754 -0.814317139 1.3341082445
| 28> C -5.5093526924 -1.2638989028 1.0119411027
| 29> H 5.9819819643 -0.1254963482 -0.8168272083
| 30> H 6.3481495904 1.4965772446 -0.2062433647
| 31> H 5.3963105086 0.3740838376 0.7755669544
| 32> H 4.5191283253 1.5880414796 -1.9004733335
| 33> H 3.9220882323 2.0795950186 -0.2925646169
| 34> H 1.5029418284 -2.7092069573 0.8400840364
| 35> H 0.7484670201 -3.1013286831 -0.7347956775
| 36> H 3.0177528739 -2.9370950763 -1.8091072762
| 37> H 3.7274928412 -2.5927224461 -0.2232728246
| 38> H 2.9991439188 -4.1775839579 -0.5385728106
| 39> H -0.6412381954 2.1977700273 1.5403538338
| 40> H 0.7592495975 1.3283776663 2.2641004585
| 41> H -2.9665727866 3.302675684 -0.7573662157
| 42> H -2.2646301391 2.171482315 -1.9525272948
| 43> H -4.689621499 2.511930306 -2.4077640644
| 44> H -4.3511309358 0.8382923104 -1.9411029899
| 45> H -5.0814750763 1.9552606399 -0.771557097
| 46> H -3.6517490142 -1.4295811188 2.1180688674
| 47> H -4.0706293741 0.2349719644 1.6379468306
| 48> H -5.9365364021 -0.6412813892 0.2306485963
| 49> H -5.4993678334 -2.2942899601 0.6684482877
| 50> H -6.11939918 -1.1886485598 1.9063240926
| 51> *
| 52>
| 53>                          ****END OF INPUT****

CARTESIAN COORDINATES (ANGSTROEM)
---------------------------------
  C      5.600034    0.711167   -0.238412
  C      4.336182    1.253286   -0.877699
  O      3.338645    0.218966   -1.012765
  P      2.235140   -0.055221    0.094151
  S      2.861307   -0.405457    1.921530
  O      1.401624   -1.213533   -0.583504
  C      1.587210   -2.601427   -0.246932
  C      2.922597   -3.113983   -0.740932
  S      0.936562    1.595577   -0.123049
  C      0.046308    1.362705    1.439404
  S     -0.869972   -0.204397    1.523561
  P     -2.072499   -0.034445   -0.219097
  S     -1.409342   -0.498275   -1.995908
  O     -2.547238    1.479626   -0.023248
  C     -2.987074    2.280557   -1.137712
  C     -4.372916    1.870415   -1.591579
  O     -3.292182   -0.980942    0.140013
  C     -4.098795   -0.814317    1.334108
  C     -5.509353   -1.263899    1.011941
  H      5.981982   -0.125496   -0.816827
  H      6.348150    1.496577   -0.206243
  H      5.396311    0.374084    0.775567
  H      4.519128    1.588041   -1.900473
  H      3.922088    2.079595   -0.292565
  H      1.502942   -2.709207    0.840084
  H      0.748467   -3.101329   -0.734796
  H      3.017753   -2.937095   -1.809107
  H      3.727493   -2.592722   -0.223273
  H      2.999144   -4.177584   -0.538573
  H     -0.641238    2.197770    1.540354
  H      0.759250    1.328378    2.264100
  H     -2.966573    3.302676   -0.757366
  H     -2.264630    2.171482   -1.952527
  H     -4.689621    2.511930   -2.407764
  H     -4.351131    0.838292   -1.941103
  H     -5.081475    1.955261   -0.771557
  H     -3.651749   -1.429581    2.118069
  H     -4.070629    0.234972    1.637947
  H     -5.936536   -0.641281    0.230649
  H     -5.499368   -2.294290    0.668448
  H     -6.119399   -1.188649    1.906324

 Total Charge           Charge          ....    0
 Multiplicity           Mult            ....    1
 Number of Electrons    NEL             ....  202
 Basis Dimension        Dim             ....  539

ORBITAL ENERGIES
----------------

  NO   OCC          E(Eh)            E(eV)
   0   2.0000     -88.578200     -2410.3354
   1   2.0000     -88.575717     -2410.2678
   2   2.0000     -88.526059     -2408.9165
   3   2.0000     -88.521548     -2408.7938
   4   2.0000     -76.917881     -2093.0419
   5   2.0000     -76.916168     -2092.9953
   6   2.0000     -18.995414      -516.8915
   7   2.0000     -18.992958      -516.8247
   8   2.0000     -18.992185      -516.8036
   9   2.0000     -18.987791      -516.6841
  10   2.0000     -10.105007      -274.9712
  11   2.0000     -10.091705      -274.6093
  12   2.0000     -10.090131      -274.5664
  13   2.0000     -10.087438      -274.4931
  14   2.0000     -10.087288      -274.4890
  15   2.0000     -10.019682      -272.6494
  16   2.0000     -10.018109      -272.6066
  17   2.0000     -10.017820      -272.5987
  18   2.0000     -10.016607      -272.5657
  19   2.0000      -7.872607      -214.2245
  20   2.0000      -7.870047      -214.1549
  21   2.0000      -7.821274      -212.8277
  22   2.0000      -7.816742      -212.7044
  23   2.0000      -6.596377      -179.4965
  24   2.0000      -6.594409      -179.4430
  25   2.0000      -5.819452      -158.3553
  26   2.0000      -5.817190      -158.2938
  27   2.0000      -5.816447      -158.2736
  28   2.0000      -5.813678      -158.1982
  29   2.0000      -5.809759      -158.0916
  30   2.0000      -5.807125      -158.0199
  31   2.0000      -5.768783      -156.9766
  32   2.0000      -5.764503      -156.8601
  33   2.0000      -5.761573      -156.7804
  34   2.0000      -5.761319      -156.7734
  35   2.0000      -5.756927      -156.6539
  36   2.0000      -5.756659      -156.6467
  37   2.0000      -4.741741      -129.0293
  38   2.0000      -4.741329      -129.0181
  39   2.0000      -4.740397      -128.9928
  40   2.0000      -4.740261      -128.9891
  41   2.0000      -4.739248      -128.9615
  42   2.0000      -4.737852      -128.9235
  43   2.0000      -1.051238       -28.6056
  44   2.0000      -1.047761       -28.5110
  45   2.0000      -1.011146       -27.5147
  46   2.0000      -1.010382       -27.4939
  47   2.0000      -0.801896       -21.8207
  48   2.0000      -0.754744       -20.5376
  49   2.0000      -0.743004       -20.2182
  50   2.0000      -0.725746       -19.7486
  51   2.0000      -0.722113       -19.6497
  52   2.0000      -0.705476       -19.1970
  53   2.0000      -0.686995       -18.6941
  54   2.0000      -0.675133       -18.3713
  55   2.0000      -0.626841       -17.0572
  56   2.0000      -0.614948       -16.7336
  57   2.0000      -0.598629       -16.2895
  58   2.0000      -0.596372       -16.2281
  59   2.0000      -0.591291       -16.0898
  60   2.0000      -0.527146       -14.3444
  61   2.0000      -0.517129       -14.0718
  62   2.0000      -0.495782       -13.4909
  63   2.0000      -0.490617       -13.3504
  64   2.0000      -0.472379       -12.8541
  65   2.0000      -0.454641       -12.3714
  66   2.0000      -0.452616       -12.3163
  67   2.0000      -0.451684       -12.2909
  68   2.0000      -0.437665       -11.9095
  69   2.0000      -0.418812       -11.3965
  70   2.0000      -0.417071       -11.3491
  71   2.0000      -0.410101       -11.1594
  72   2.0000      -0.408851       -11.1254
  73   2.0000      -0.403985       -10.9930
  74   2.0000      -0.400452       -10.8968
  75   2.0000      -0.385599       -10.4927
  76   2.0000      -0.375835       -10.2270
  77   2.0000      -0.366345        -9.9687
  78   2.0000      -0.361592        -9.8394
  79   2.0000      -0.360572        -9.8117
  80   2.0000      -0.352542        -9.5932
  81   2.0000      -0.350428        -9.5356
  82   2.0000      -0.348277        -9.4771
  83   2.0000      -0.345385        -9.3984
  84   2.0000      -0.344525        -9.3750
  85   2.0000      -0.333006        -9.0616
  86   2.0000      -0.321493        -8.7483
  87   2.0000      -0.315659        -8.5895
  88   2.0000      -0.306453        -8.3390
  89   2.0000      -0.298278        -8.1166
  90   2.0000      -0.294662        -8.0182
  91   2.0000      -0.287591        -7.8258
  92   2.0000      -0.282949        -7.6994
  93   2.0000      -0.279250        -7.5988
  94   2.0000      -0.278425        -7.5763
  95   2.0000      -0.252926        -6.8825
  96   2.0000      -0.235133        -6.3983
  97   2.0000      -0.228840        -6.2271
  98   2.0000      -0.223770        -6.0891
  99   2.0000      -0.215596        -5.8667
 100   2.0000      -0.211907        -5.7663
 101   0.0000      -0.053518        -1.4563
 102   0.0000      -0.027817        -0.7569
 103   0.0000      -0.012454        -0.3389
 104   0.0000       0.001461         0.0398
 105   0.0000       0.017401         0.4735

MULLIKEN ATOMIC CHARGES
-----------------------
   0 C :   -0.492376
   1 C :   -0.128963
   2 O :   -0.324633
   3 P :    0.723523
   4 S :   -0.531617
   5 O :   -0.273184
   6 C :   -0.153475
   7 C :   -0.486517
   8 S :   -0.156823
   9 C :   -0.215901
  10 S :   -0.173953
  11 P :    0.718007
  12 S :   -0.495943
  13 O :   -0.340079
  14 C :   -0.136315
  15 C :   -0.491876
  16 O :   -0.313956
  17 C :   -0.108933
  18 C :   -0.505538
  19 H :    0.167446
  20 H :    0.169818
  21 H :    0.172204
  22 H :    0.177101
  23 H :    0.164879
  24 H :    0.175179
  25 H :    0.177990
  26 H :    0.170086
  27 H :    0.166746
  28 H :    0.171820
  29 H :    0.224588
  30 H :    0.226748
  31 H :    0.175462
  32 H :    0.176262
  33 H :    0.171328
  34 H :    0.172545
  35 H :    0.169236
  36 H :    0.172594
  37 H :    0.178906
  38 H :    0.168704
  39 H :    0.167806
  40 H :    0.171104
Sum of atomic charges:   -0.0000000

LOEWDIN ATOMIC CHARGES
----------------------
   0 C :   -0.406214
   1 C :    0.028242
   2 O :   -0.671559
   3 P :    0.379584
   4 S :   -0.160620
   5 O :   -0.690979
   6 C :    0.019576
   7 C :   -0.403087
   8 S :    0.162614
   9 C :   -0.402571
  10 S :    0.167176
  11 P :    0.384042
  12 S :   -0.119651
  13 O :   -0.703766
  14 C :    0.022924
  15 C :   -0.402545
  16 O :   -0.686624
  17 C :    0.022216
  18 C :   -0.390129
  19 H :    0.162411
  20 H :    0.167361
  21 H :    0.163098
  22 H :    0.190403
  23 H :    0.180299
  24 H :    0.181571
  25 H :    0.190213
  26 H :    0.163796
  27 H :    0.162308
  28 H :    0.168356
  29 H :    0.197091
  30 H :    0.197400
  31 H :    0.188982
  32 H :    0.181762
  33 H :    0.168516
  34 H :    0.163234
  35 H :    0.163015
  36 H :    0.181681
  37 H :    0.184097
  38 H :    0.162722
  39 H :    0.163847
  40 H :    0.169207

  Mayer bond orders larger than 0.100000
B(  0-C ,  1-C ) :   0.9436 B(  0-C , 19-H ) :   0.9716 B(  0-C , 20-H ) :   0.9592
B(  0-C , 21-H ) :   0.9609 B(  1-C ,  2-O ) :   0.7676 B(  1-C , 22-H ) :   0.9536
B(  1-C , 23-H ) :   0.9570 B(  2-O ,  3-P ) :   1.0753 B(  3-P ,  4-S ) :   1.6966
B(  3-P ,  5-O ) :   1.1748 B(  3-P ,  8-S ) :   1.1019 B(  5-O ,  6-C ) :   0.7727
B(  6-C ,  7-C ) :   0.9127 B(  6-C , 24-H ) :   0.9598 B(  6-C , 25-H ) :   0.9531
B(  7-C , 26-H ) :   0.9713 B(  7-C , 27-H ) :   0.9595 B(  7-C , 28-H ) :   0.9575
B(  8-S ,  9-C ) :   0.9102 B(  9-C , 10-S ) :   0.8927 B(  9-C , 29-H ) :   0.9050
B(  9-C , 30-H ) :   0.9061 B( 10-S , 11-P ) :   1.0463 B( 11-P , 12-S ) :   1.8214
B( 11-P , 13-O ) :   1.0669 B( 11-P , 16-O ) :   1.1234 B( 13-O , 14-C ) :   0.7878
B( 14-C , 15-C ) :   0.9164 B( 14-C , 31-H ) :   0.9520 B( 14-C , 32-H ) :   0.9583
B( 15-C , 33-H ) :   0.9564 B( 15-C , 34-H ) :   0.9627 B( 15-C , 35-H ) :   0.9673
B( 16-O , 17-C ) :   0.7329 B( 17-C , 18-C ) :   0.9493 B( 17-C , 36-H ) :   0.9342
B( 17-C , 37-H ) :   0.9517 B( 18-C , 38-H ) :   0.9689 B( 18-C , 39-H ) :   0.9707
B( 18-C , 40-H ) :   0.9590

Dispersion correction           -0.021526423
FINAL SINGLE POINT ENERGY     -2932.467567092303

DIPOLE MOMENT
-------------

Method             : SCF
Type of density    : Electron Density
Multiplicity       :   1
Irrep              :   0
Energy             : -2932.4922909976494338 Eh
Relativity type    :
Basis              : AO
                                X                 Y                 Z
Electronic contribution:      5.113993822       2.400900407       2.820257132
Nuclear contribution   :     -6.162614213      -0.990378195      -2.172720782
                        -----------------------------------------
Total Dipole Moment    :     -1.048620391       1.410522212       0.647536350
                        -----------------------------------------
Magnitude (a.u.)       :      1.873093954
Magnitude (Debye)      :      4.761026465

Rotational constants in cm-1:             0.014607             0.004588             0.004365
Rotational constants in MHz :           437.892855           137.545661           130.846084

                             ****ORCA TERMINATED NORMALLY****
TOTAL RUN TIME: 0 days 0 hours 1 minutes 46 seconds 777 msec
