                         Program Version 6.0.0  -   RELEASE  -
|  1> ! pbe def2-sv(p) def2/J RI DEFGRID1 loosescf d4 GCP(DFT/SV(P)) printgap
|  2> %output
|  3>     printlevel normal
|  4> end
|  5> * xyz 0 1
|  6> C 3.7710855232 -1.3314581814 -2.3912131493
|  7> C 4.1884443968 -0.109394269 -1.5974854949
|  8> O 3.6334005983 -0.1024890289 -0.2741234441
|  9> P 2.0751077321 0.0773568201 0.0203651708
| 10> S 1.2185730277 1.3782073204 -1.175078748
| 11> O 2.1195040619 0.3647702623 1.5713720496
| 12> C 2.1951469478 1.6909303057 2.1290782318
| 13> C 3.4764993446 2.4022114003 1.7493483835
| 14> S 1.3099362469 -1.8911781696 0.0646840216
| 15> C 0.0245356162 -1.7862409021 -1.2312203786
| 16> S -1.6628866864 -2.0454207408 -0.6206987305
| 17> P -2.1124462019 -0.0986996405 0.0651383646
| 18> S -1.0676326486 0.5787504476 1.5910516423
| 19> O -3.6758721297 -0.1225816631 0.3415125765
| 20> C -4.223148216 -0.4832677203 1.6206034991
| 21> C -4.0489457597 -1.9602336279 1.9073975147
| 22> O -2.0316406854 0.6635333377 -1.3186145729
| 23> C -2.7062079167 1.9024308823 -1.6270311651
| 24> C -2.2382512387 3.0476994718 -0.7546239567
| 25> H 3.9716947445 -2.2364502562 -1.8233560549
| 26> H 2.7059406122 -1.283809342 -2.6144994432
| 27> H 4.3248164444 -1.3593049718 -3.3241839014
| 28> H 3.873951652 0.8063383196 -2.1092097184
| 29> H 5.2659847276 -0.0886840084 -1.4288816993
| 30> H 1.3161474023 2.2531093679 1.7970102242
| 31> H 2.124411207 1.519497375 3.2041031214
| 32> H 3.4952063632 2.5873773954 0.6756700183
| 33> H 3.52634316 3.3521233262 2.2722811516
| 34> H 4.3358025224 1.7927568531 2.0169585224
| 35> H 0.2039853662 -2.5964407954 -1.9324719307
| 36> H 0.0854513997 -0.8093794329 -1.7171852129
| 37> H -3.7313334191 0.1200746002 2.3909193443
| 38> H -5.2753059849 -0.2060492652 1.544383794
| 39> H -2.9907088596 -2.1926860234 2.0233158255
| 40> H -4.5679138448 -2.2137120042 2.8261299871
| 41> H -4.4472363349 -2.553673215 1.0885347425
| 42> H -2.4503627418 2.0717696135 -2.6742574231
| 43> H -3.7809911885 1.7393904549 -1.5220751564
| 44> H -2.4965578668 2.8593752195 0.2867367639
| 45> H -1.1576156888 3.1538217542 -0.8297042254
| 46> H -2.7125233107 3.9680455309 -1.0797497055
| 47> *
| 48>
| 49>                          ****END OF INPUT****

CARTESIAN COORDINATES (ANGSTROEM)
---------------------------------
  C      3.771086   -1.331458   -2.391213
  C      4.188444   -0.109394   -1.597485
  O      3.633401   -0.102489   -0.274123
  P      2.075108    0.077357    0.020365
  S      1.218573    1.378207   -1.175079
  O      2.119504    0.364770    1.571372
  C      2.195147    1.690930    2.129078
  C      3.476499    2.402211    1.749348
  S      1.309936   -1.891178    0.064684
  C      0.024536   -1.786241   -1.231220
  S     -1.662887   -2.045421   -0.620699
  P     -2.112446   -0.098700    0.065138
  S     -1.067633    0.578750    1.591052
  O     -3.675872   -0.122582    0.341513
  C     -4.223148   -0.483268    1.620603
  C     -4.048946   -1.960234    1.907398
  O     -2.031641    0.663533   -1.318615
  C     -2.706208    1.902431   -1.627031
  C     -2.238251    3.047699   -0.754624
  H      3.971695   -2.236450   -1.823356
  H      2.705941   -1.283809   -2.614499
  H      4.324816   -1.359305   -3.324184
  H      3.873952    0.806338   -2.109210
  H      5.265985   -0.088684   -1.428882
  H      1.316147    2.253109    1.797010
  H      2.124411    1.519497    3.204103
  H      3.495206    2.587377    0.675670
  H      3.526343    3.352123    2.272281
  H      4.335803    1.792757    2.016959
  H      0.203985   -2.596441   -1.932472
  H      0.085451   -0.809379   -1.717185
  H     -3.731333    0.120075    2.390919
  H     -5.275306   -0.206049    1.544384
  H     -2.990709   -2.192686    2.023316
  H     -4.567914   -2.213712    2.826130
  H     -4.447236   -2.553673    1.088535
  H     -2.450363    2.071770   -2.674257
  H     -3.780991    1.739390   -1.522075
  H     -2.496558    2.859375    0.286737
  H     -1.157616    3.153822   -0.829704
  H     -2.712523    3.968046   -1.079750

 Total Charge           Charge          ....    0
 Multiplicity           Mult            ....    1
 Number of Electrons    NEL             ....  202
 Basis Dimension        Dim             ....  334

ORBITAL ENERGIES
----------------

  NO   OCC          E(Eh)            E(eV)
   0   2.0000     -88.036775     -2395.6024
   1   2.0000     -88.035283     -2395.5618
   2   2.0000     -87.986311     -2394.2292
   3   2.0000     -87.978629     -2394.0202
   4   2.0000     -76.422687     -2079.5670
   5   2.0000     -76.421473     -2079.5340
   6   2.0000     -18.793238      -511.3900
   7   2.0000     -18.783731      -511.1313
   8   2.0000     -18.782055      -511.0857
   9   2.0000     -18.781931      -511.0823
  10   2.0000      -9.954029      -270.8629
  11   2.0000      -9.951190      -270.7856
  12   2.0000      -9.950221      -270.7593
  13   2.0000      -9.947652      -270.6894
  14   2.0000      -9.944583      -270.6059
  15   2.0000      -9.883432      -268.9419
  16   2.0000      -9.883039      -268.9312
  17   2.0000      -9.878070      -268.7960
  18   2.0000      -9.874641      -268.7027
  19   2.0000      -7.682452      -209.0502
  20   2.0000      -7.680710      -209.0027
  21   2.0000      -7.631074      -207.6521
  22   2.0000      -7.623280      -207.4400
  23   2.0000      -6.420029      -174.6979
  24   2.0000      -6.418807      -174.6646
  25   2.0000      -5.710360      -155.3868
  26   2.0000      -5.708622      -155.3395
  27   2.0000      -5.707067      -155.2972
  28   2.0000      -5.705400      -155.2518
  29   2.0000      -5.699175      -155.0824
  30   2.0000      -5.697382      -155.0336
  31   2.0000      -5.659715      -154.0087
  32   2.0000      -5.652282      -153.8064
  33   2.0000      -5.652078      -153.8009
  34   2.0000      -5.650886      -153.7684
  35   2.0000      -5.643953      -153.5798
  36   2.0000      -5.643559      -153.5690
  37   2.0000      -4.643090      -126.3449
  38   2.0000      -4.641702      -126.3071
  39   2.0000      -4.641004      -126.2881
  40   2.0000      -4.640480      -126.2739
  41   2.0000      -4.640140      -126.2646
  42   2.0000      -4.639735      -126.2536
  43   2.0000      -0.985419       -26.8146
  44   2.0000      -0.979243       -26.6466
  45   2.0000      -0.941776       -25.6270
  46   2.0000      -0.936820       -25.4922
  47   2.0000      -0.757112       -20.6021
  48   2.0000      -0.717258       -19.5176
  49   2.0000      -0.703940       -19.1552
  50   2.0000      -0.685878       -18.6637
  51   2.0000      -0.682110       -18.5612
  52   2.0000      -0.669485       -18.2176
  53   2.0000      -0.650771       -17.7084
  54   2.0000      -0.631786       -17.1918
  55   2.0000      -0.599672       -16.3179
  56   2.0000      -0.588342       -16.0096
  57   2.0000      -0.574092       -15.6218
  58   2.0000      -0.567583       -15.4447
  59   2.0000      -0.556125       -15.1329
  60   2.0000      -0.494034       -13.4433
  61   2.0000      -0.486666       -13.2429
  62   2.0000      -0.468533       -12.7494
  63   2.0000      -0.465414       -12.6646
  64   2.0000      -0.453955       -12.3527
  65   2.0000      -0.442788       -12.0489
  66   2.0000      -0.434771       -11.8307
  67   2.0000      -0.429681       -11.6922
  68   2.0000      -0.422421       -11.4947
  69   2.0000      -0.412709       -11.2304
  70   2.0000      -0.408642       -11.1197
  71   2.0000      -0.404195       -10.9987
  72   2.0000      -0.389278       -10.5928
  73   2.0000      -0.383880       -10.4459
  74   2.0000      -0.378878       -10.3098
  75   2.0000      -0.375840       -10.2271
  76   2.0000      -0.364186        -9.9100
  77   2.0000      -0.352003        -9.5785
  78   2.0000      -0.349368        -9.5068
  79   2.0000      -0.344176        -9.3655
  80   2.0000      -0.341944        -9.3048
  81   2.0000      -0.338692        -9.2163
  82   2.0000      -0.337559        -9.1854
  83   2.0000      -0.330373        -8.9899
  84   2.0000      -0.330203        -8.9853
  85   2.0000      -0.313742        -8.5374
  86   2.0000      -0.307592        -8.3700
  87   2.0000      -0.293867        -7.9965
  88   2.0000      -0.290007        -7.8915
  89   2.0000      -0.286573        -7.7981
  90   2.0000      -0.278155        -7.5690
  91   2.0000      -0.273205        -7.4343
  92   2.0000      -0.266712        -7.2576
  93   2.0000      -0.258731        -7.0404
  94   2.0000      -0.255562        -6.9542
  95   2.0000      -0.231640        -6.3032
  96   2.0000      -0.217797        -5.9266
  97   2.0000      -0.208542        -5.6747
  98   2.0000      -0.200034        -5.4432
  99   2.0000      -0.189420        -5.1544
 100   2.0000      -0.184227        -5.0131
 101   0.0000      -0.036659        -0.9975
 102   0.0000      -0.030319        -0.8250
 103   0.0000      -0.013403        -0.3647
 104   0.0000       0.002989         0.0813
 105   0.0000       0.025132         0.6839

MULLIKEN ATOMIC CHARGES
-----------------------
   0 C :   -0.316735
   1 C :    0.001026
   2 O :   -0.372084
   3 P :    0.620443
   4 S :   -0.328556
   5 O :   -0.362656
   6 C :   -0.001954
   7 C :   -0.305918
   8 S :   -0.068465
   9 C :   -0.377019
  10 S :   -0.084486
  11 P :    0.629777
  12 S :   -0.320045
  13 O :   -0.379431
  14 C :   -0.004007
  15 C :   -0.324570
  16 O :   -0.371090
  17 C :    0.004874
  18 C :   -0.321221
  19 H :    0.120725
  20 H :    0.119326
  21 H :    0.110708
  22 H :    0.105652
  23 H :    0.102897
  24 H :    0.119780
  25 H :    0.105622
  26 H :    0.121961
  27 H :    0.109333
  28 H :    0.116270
  29 H :    0.184008
  30 H :    0.208224
  31 H :    0.111511
  32 H :    0.103004
  33 H :    0.134531
  34 H :    0.115098
  35 H :    0.119067
  36 H :    0.105485
  37 H :    0.105671
  38 H :    0.121601
  39 H :    0.137323
  40 H :    0.104318
Sum of atomic charges:    0.0000000

LOEWDIN ATOMIC CHARGES
----------------------
   0 C :   -0.368707
   1 C :   -0.120437
   2 O :   -0.249027
   3 P :    0.574793
   4 S :   -0.305969
   5 O :   -0.232659
   6 C :   -0.114318
   7 C :   -0.366624
   8 S :    0.089209
   9 C :   -0.481078
  10 S :    0.082722
  11 P :    0.572402
  12 S :   -0.306483
  13 O :   -0.243784
  14 C :   -0.122056
  15 C :   -0.370657
  16 O :   -0.242103
  17 C :   -0.106474
  18 C :   -0.370563
  19 H :    0.125658
  20 H :    0.118314
  21 H :    0.129466
  22 H :    0.106826
  23 H :    0.117805
  24 H :    0.110626
  25 H :    0.120336
  26 H :    0.121284
  27 H :    0.129351
  28 H :    0.126071
  29 H :    0.136432
  30 H :    0.125173
  31 H :    0.109660
  32 H :    0.117443
  33 H :    0.124411
  34 H :    0.132464
  35 H :    0.124927
  36 H :    0.120452
  37 H :    0.111323
  38 H :    0.119681
  39 H :    0.127713
  40 H :    0.126399

  Mayer bond orders larger than 0.100000
B(  0-C ,  1-C ) :   1.1642 B(  0-C , 19-H ) :   0.9425 B(  0-C , 20-H ) :   0.9391
B(  0-C , 21-H ) :   0.9379 B(  1-C ,  2-O ) :   0.9247 B(  1-C , 22-H ) :   0.9140
B(  1-C , 23-H ) :   0.9341 B(  2-O ,  3-P ) :   1.0869 B(  3-P ,  4-S ) :   1.5732
B(  3-P ,  5-O ) :   1.1478 B(  3-P ,  8-S ) :   0.9615 B(  4-S ,  8-S ) :   0.1161
B(  5-O ,  6-C ) :   0.9024 B(  6-C ,  7-C ) :   1.1633 B(  6-C , 24-H ) :   0.9165
B(  6-C , 25-H ) :   0.9361 B(  7-C , 26-H ) :   0.9356 B(  7-C , 27-H ) :   0.9382
B(  7-C , 28-H ) :   0.9447 B(  8-S ,  9-C ) :   1.0011 B(  9-C , 10-S ) :   1.0012
B(  9-C , 29-H ) :   0.9100 B(  9-C , 30-H ) :   0.8498 B( 10-S , 11-P ) :   0.9575
B( 10-S , 12-S ) :   0.1169 B( 11-P , 12-S ) :   1.6305 B( 11-P , 13-O ) :   1.0859
B( 11-P , 16-O ) :   1.1153 B( 13-O , 14-C ) :   0.9073 B( 14-C , 15-C ) :   1.1653
B( 14-C , 31-H ) :   0.9106 B( 14-C , 32-H ) :   0.9322 B( 15-C , 33-H ) :   0.9327
B( 15-C , 34-H ) :   0.9383 B( 15-C , 35-H ) :   0.9449 B( 16-O , 17-C ) :   0.9049
B( 17-C , 18-C ) :   1.1677 B( 17-C , 36-H ) :   0.9352 B( 17-C , 37-H ) :   0.9308
B( 18-C , 38-H ) :   0.9346 B( 18-C , 39-H ) :   0.9372 B( 18-C , 40-H ) :   0.9355

Dispersion correction           -0.068176831
FINAL SINGLE POINT ENERGY     -2929.515689974808

DIPOLE MOMENT
-------------

Method             : SCF
Type of density    : Electron Density
Multiplicity       :   1
Irrep              :   0
Energy             : -2929.6327888245882605 Eh
Relativity type    :
Basis              : AO
                                X                 Y                 Z
Electronic contribution:     -1.796003165      -9.895178977       0.554175732
Nuclear contribution   :      1.558956917      10.111220638      -0.939662270
                        -----------------------------------------
Total Dipole Moment    :     -0.237046248       0.216041661      -0.385486538
                        -----------------------------------------
Magnitude (a.u.)       :      0.501462655
Magnitude (Debye)      :      1.274616773

Rotational constants in cm-1:             0.012129             0.005479             0.005073
Rotational constants in MHz :           363.613244           164.252039           152.083479

                             ****ORCA TERMINATED NORMALLY****
TOTAL RUN TIME: 0 days 0 hours 0 minutes 21 seconds 34 msec
