                         Program Version 6.0.0  -   RELEASE  -
|  1> ! pbe def2-sv(p) def2/J RI DEFGRID1 loosescf d4 GCP(DFT/SV(P)) printgap
|  2> %output
|  3>     printlevel normal
|  4> end
|  5> * xyz 0 1
|  6> C 4.8652835195 -1.4254689858 -1.5796739418
|  7> C 4.8219288232 -0.1022415664 -0.8441374809
|  8> O 3.7569447985 -0.0630509481 0.1216624873
|  9> P 2.2330405275 0.0363129422 -0.3076143283
| 10> S 1.8954764094 1.152005292 -1.8924631236
| 11> O 1.5278505276 0.3965226632 1.0655680155
| 12> C 1.9978588034 1.4087916292 1.983558681
| 13> C 2.1351263774 2.7667645637 1.3298911107
| 14> S 1.5770960514 -1.9610881363 -0.5176299169
| 15> C -0.1363476651 -1.6166252626 -0.9901232549
| 16> S -1.2519801885 -1.6313093398 0.4504910134
| 17> P -2.2660736263 0.2110441133 0.1010974244
| 18> S -1.2164751759 1.8390120553 -0.1504165993
| 19> O -3.3151030098 0.2583690503 1.294109306
| 20> C -2.9962976411 0.8664566501 2.5592275562
| 21> C -1.9269681037 0.0976787098 3.3076046861
| 22> O -3.1535593504 -0.0803221419 -1.1715410892
| 23> C -4.1191932064 -1.1584861936 -1.2610454939
| 24> C -5.4999330699 -0.6871075273 -0.8535600818
| 25> H 4.8902501045 -2.2502357777 -0.8723196331
| 26> H 3.9812153739 -1.5295176902 -2.2070699699
| 27> H 5.749688058 -1.4589808493 -2.2076170982
| 28> H 4.682063741 0.7248970774 -1.5478739145
| 29> H 5.7216997758 0.0605811104 -0.2493354598
| 30> H 1.2348262269 1.4210469962 2.7638107751
| 31> H 2.9510956895 1.0710850749 2.3958055377
| 32> H 1.1933672566 3.0562939148 0.8663216726
| 33> H 2.4104621105 3.5035739716 2.0775534115
| 34> H 2.9023066815 2.7364908449 0.5567271066
| 35> H -0.4400783508 -2.4091125543 -1.6686913918
| 36> H -0.1840469931 -0.636811559 -1.4736283455
| 37> H -2.673369398 1.8956951036 2.3732416104
| 38> H -3.9452750889 0.8650625748 3.0971013204
| 39> H -0.9839504112 0.1521596412 2.7644395431
| 40> H -1.7939616069 0.532794166 4.292927501
| 41> H -2.2100301433 -0.9472598343 3.4073693507
| 42> H -4.0946275011 -1.4525060211 -2.3119881472
| 43> H -3.7825417086 -1.9873782806 -0.6320906037
| 44> H -6.2102347914 -1.4913512221 -1.0182288534
| 45> H -5.5099786236 -0.4083800011 0.1963979336
| 46> H -5.7895875082 0.1749173152 -1.448434236
| 47> *
| 48>
| 49>                          ****END OF INPUT****

CARTESIAN COORDINATES (ANGSTROEM)
---------------------------------
  C      4.865284   -1.425469   -1.579674
  C      4.821929   -0.102242   -0.844137
  O      3.756945   -0.063051    0.121662
  P      2.233041    0.036313   -0.307614
  S      1.895476    1.152005   -1.892463
  O      1.527851    0.396523    1.065568
  C      1.997859    1.408792    1.983559
  C      2.135126    2.766765    1.329891
  S      1.577096   -1.961088   -0.517630
  C     -0.136348   -1.616625   -0.990123
  S     -1.251980   -1.631309    0.450491
  P     -2.266074    0.211044    0.101097
  S     -1.216475    1.839012   -0.150417
  O     -3.315103    0.258369    1.294109
  C     -2.996298    0.866457    2.559228
  C     -1.926968    0.097679    3.307605
  O     -3.153559   -0.080322   -1.171541
  C     -4.119193   -1.158486   -1.261045
  C     -5.499933   -0.687108   -0.853560
  H      4.890250   -2.250236   -0.872320
  H      3.981215   -1.529518   -2.207070
  H      5.749688   -1.458981   -2.207617
  H      4.682064    0.724897   -1.547874
  H      5.721700    0.060581   -0.249335
  H      1.234826    1.421047    2.763811
  H      2.951096    1.071085    2.395806
  H      1.193367    3.056294    0.866322
  H      2.410462    3.503574    2.077553
  H      2.902307    2.736491    0.556727
  H     -0.440078   -2.409113   -1.668691
  H     -0.184047   -0.636812   -1.473628
  H     -2.673369    1.895695    2.373242
  H     -3.945275    0.865063    3.097101
  H     -0.983950    0.152160    2.764440
  H     -1.793962    0.532794    4.292928
  H     -2.210030   -0.947260    3.407369
  H     -4.094628   -1.452506   -2.311988
  H     -3.782542   -1.987378   -0.632091
  H     -6.210235   -1.491351   -1.018229
  H     -5.509979   -0.408380    0.196398
  H     -5.789588    0.174917   -1.448434

 Total Charge           Charge          ....    0
 Multiplicity           Mult            ....    1
 Number of Electrons    NEL             ....  202
 Basis Dimension        Dim             ....  334

ORBITAL ENERGIES
----------------

  NO   OCC          E(Eh)            E(eV)
   0   2.0000     -88.038544     -2395.6506
   1   2.0000     -88.037835     -2395.6313
   2   2.0000     -87.979083     -2394.0326
   3   2.0000     -87.978059     -2394.0047
   4   2.0000     -76.422973     -2079.5748
   5   2.0000     -76.421919     -2079.5461
   6   2.0000     -18.796175      -511.4699
   7   2.0000     -18.794376      -511.4210
   8   2.0000     -18.789452      -511.2870
   9   2.0000     -18.782820      -511.1065
  10   2.0000      -9.954435      -270.8740
  11   2.0000      -9.954085      -270.8644
  12   2.0000      -9.953627      -270.8520
  13   2.0000      -9.952692      -270.8265
  14   2.0000      -9.949311      -270.7345
  15   2.0000      -9.885892      -269.0088
  16   2.0000      -9.884576      -268.9730
  17   2.0000      -9.884491      -268.9707
  18   2.0000      -9.874597      -268.7014
  19   2.0000      -7.684181      -209.0972
  20   2.0000      -7.682796      -209.0595
  21   2.0000      -7.623960      -207.4585
  22   2.0000      -7.623190      -207.4375
  23   2.0000      -6.420344      -174.7064
  24   2.0000      -6.419483      -174.6830
  25   2.0000      -5.712091      -155.4339
  26   2.0000      -5.710633      -155.3942
  27   2.0000      -5.708816      -155.3448
  28   2.0000      -5.707310      -155.3038
  29   2.0000      -5.700878      -155.1288
  30   2.0000      -5.699835      -155.1004
  31   2.0000      -5.652887      -153.8229
  32   2.0000      -5.652237      -153.8052
  33   2.0000      -5.644727      -153.6008
  34   2.0000      -5.644026      -153.5817
  35   2.0000      -5.643821      -153.5762
  36   2.0000      -5.643159      -153.5582
  37   2.0000      -4.643388      -126.3530
  38   2.0000      -4.642560      -126.3305
  39   2.0000      -4.641902      -126.3126
  40   2.0000      -4.641175      -126.2928
  41   2.0000      -4.640562      -126.2761
  42   2.0000      -4.639529      -126.2480
  43   2.0000      -0.986744       -26.8507
  44   2.0000      -0.986445       -26.8425
  45   2.0000      -0.945134       -25.7184
  46   2.0000      -0.941426       -25.6175
  47   2.0000      -0.759489       -20.6668
  48   2.0000      -0.718827       -19.5603
  49   2.0000      -0.706994       -19.2383
  50   2.0000      -0.690739       -18.7960
  51   2.0000      -0.686662       -18.6850
  52   2.0000      -0.672380       -18.2964
  53   2.0000      -0.649095       -17.6628
  54   2.0000      -0.630539       -17.1578
  55   2.0000      -0.596425       -16.2295
  56   2.0000      -0.589770       -16.0485
  57   2.0000      -0.574688       -15.6381
  58   2.0000      -0.573495       -15.6056
  59   2.0000      -0.555927       -15.1275
  60   2.0000      -0.499374       -13.5887
  61   2.0000      -0.493368       -13.4252
  62   2.0000      -0.474794       -12.9198
  63   2.0000      -0.468569       -12.7504
  64   2.0000      -0.454506       -12.3677
  65   2.0000      -0.448623       -12.2076
  66   2.0000      -0.440265       -11.9802
  67   2.0000      -0.429485       -11.6869
  68   2.0000      -0.428617       -11.6633
  69   2.0000      -0.417138       -11.3509
  70   2.0000      -0.413014       -11.2387
  71   2.0000      -0.405228       -11.0268
  72   2.0000      -0.394642       -10.7387
  73   2.0000      -0.384359       -10.4589
  74   2.0000      -0.378321       -10.2946
  75   2.0000      -0.367791       -10.0081
  76   2.0000      -0.363445        -9.8899
  77   2.0000      -0.356515        -9.7013
  78   2.0000      -0.353524        -9.6199
  79   2.0000      -0.351779        -9.5724
  80   2.0000      -0.346738        -9.4352
  81   2.0000      -0.340328        -9.2608
  82   2.0000      -0.339713        -9.2441
  83   2.0000      -0.334618        -9.1054
  84   2.0000      -0.329581        -8.9683
  85   2.0000      -0.318249        -8.6600
  86   2.0000      -0.310250        -8.4423
  87   2.0000      -0.295876        -8.0512
  88   2.0000      -0.294700        -8.0192
  89   2.0000      -0.290376        -7.9015
  90   2.0000      -0.285231        -7.7615
  91   2.0000      -0.273994        -7.4558
  92   2.0000      -0.268524        -7.3069
  93   2.0000      -0.259660        -7.0657
  94   2.0000      -0.256342        -6.9754
  95   2.0000      -0.233732        -6.3602
  96   2.0000      -0.218165        -5.9366
  97   2.0000      -0.211281        -5.7492
  98   2.0000      -0.193682        -5.2704
  99   2.0000      -0.191513        -5.2113
 100   2.0000      -0.181228        -4.9315
 101   0.0000      -0.036537        -0.9942
 102   0.0000      -0.030081        -0.8186
 103   0.0000      -0.017783        -0.4839
 104   0.0000       0.013239         0.3602
 105   0.0000       0.025636         0.6976

MULLIKEN ATOMIC CHARGES
-----------------------
   0 C :   -0.318893
   1 C :   -0.006259
   2 O :   -0.379136
   3 P :    0.620015
   4 S :   -0.306008
   5 O :   -0.364656
   6 C :    0.002423
   7 C :   -0.324817
   8 S :   -0.084166
   9 C :   -0.353062
  10 S :   -0.094460
  11 P :    0.581166
  12 S :   -0.288659
  13 O :   -0.382049
  14 C :    0.001346
  15 C :   -0.352127
  16 O :   -0.359295
  17 C :   -0.011802
  18 C :   -0.292604
  19 H :    0.117855
  20 H :    0.130221
  21 H :    0.114990
  22 H :    0.112678
  23 H :    0.103765
  24 H :    0.105877
  25 H :    0.106026
  26 H :    0.144449
  27 H :    0.105007
  28 H :    0.121548
  29 H :    0.182249
  30 H :    0.200922
  31 H :    0.110005
  32 H :    0.104575
  33 H :    0.161645
  34 H :    0.113755
  35 H :    0.119483
  36 H :    0.107307
  37 H :    0.099152
  38 H :    0.108071
  39 H :    0.123025
  40 H :    0.120439
Sum of atomic charges:   -0.0000000

LOEWDIN ATOMIC CHARGES
----------------------
   0 C :   -0.369919
   1 C :   -0.121394
   2 O :   -0.242277
   3 P :    0.578401
   4 S :   -0.306818
   5 O :   -0.241586
   6 C :   -0.107984
   7 C :   -0.370514
   8 S :    0.082519
   9 C :   -0.476033
  10 S :    0.067506
  11 P :    0.562715
  12 S :   -0.287944
  13 O :   -0.247647
  14 C :   -0.117392
  15 C :   -0.375266
  16 O :   -0.240060
  17 C :   -0.117924
  18 C :   -0.360163
  19 H :    0.124828
  20 H :    0.122918
  21 H :    0.132403
  22 H :    0.110676
  23 H :    0.117662
  24 H :    0.116567
  25 H :    0.111321
  26 H :    0.129216
  27 H :    0.127063
  28 H :    0.119672
  29 H :    0.135009
  30 H :    0.127834
  31 H :    0.111218
  32 H :    0.117930
  33 H :    0.126284
  34 H :    0.131066
  35 H :    0.124974
  36 H :    0.119776
  37 H :    0.101529
  38 H :    0.128790
  39 H :    0.126098
  40 H :    0.128947

  Mayer bond orders larger than 0.100000
B(  0-C ,  1-C ) :   1.1675 B(  0-C , 19-H ) :   0.9454 B(  0-C , 20-H ) :   0.9332
B(  0-C , 21-H ) :   0.9383 B(  1-C ,  2-O ) :   0.9042 B(  1-C , 22-H ) :   0.9109
B(  1-C , 23-H ) :   0.9323 B(  2-O ,  3-P ) :   1.0887 B(  3-P ,  4-S ) :   1.6273
B(  3-P ,  5-O ) :   1.1253 B(  3-P ,  8-S ) :   0.9482 B(  4-S ,  8-S ) :   0.1153
B(  5-O ,  6-C ) :   0.9067 B(  6-C ,  7-C ) :   1.1691 B(  6-C , 24-H ) :   0.9258
B(  6-C , 25-H ) :   0.9331 B(  7-C , 26-H ) :   0.9358 B(  7-C , 27-H ) :   0.9348
B(  7-C , 28-H ) :   0.9347 B(  8-S ,  9-C ) :   1.0173 B(  9-C , 10-S ) :   0.9712
B(  9-C , 29-H ) :   0.9122 B(  9-C , 30-H ) :   0.8514 B( 10-S , 11-P ) :   0.9588
B( 10-S , 12-S ) :   0.1119 B( 11-P , 12-S ) :   1.6632 B( 11-P , 13-O ) :   1.0738
B( 11-P , 16-O ) :   1.1202 B( 13-O , 14-C ) :   0.9063 B( 14-C , 15-C ) :   1.1643
B( 14-C , 31-H ) :   0.9154 B( 14-C , 32-H ) :   0.9332 B( 15-C , 33-H ) :   0.9201
B( 15-C , 34-H ) :   0.9377 B( 15-C , 35-H ) :   0.9413 B( 16-O , 17-C ) :   0.9007
B( 17-C , 18-C ) :   1.1654 B( 17-C , 36-H ) :   0.9361 B( 17-C , 37-H ) :   0.9066
B( 18-C , 38-H ) :   0.9395 B( 18-C , 39-H ) :   0.9415 B( 18-C , 40-H ) :   0.9473

Dispersion correction           -0.066034143
FINAL SINGLE POINT ENERGY     -2929.512160381158

DIPOLE MOMENT
-------------

Method             : SCF
Type of density    : Electron Density
Multiplicity       :   1
Irrep              :   0
Energy             : -2929.6316871102767436 Eh
Relativity type    :
Basis              : AO
                                X                 Y                 Z
Electronic contribution:      1.701139972      -2.137780169      -7.842802085
Nuclear contribution   :     -1.800274196       1.326682038       8.853418532
                        -----------------------------------------
Total Dipole Moment    :     -0.099134224      -0.811098131       1.010616447
                        -----------------------------------------
Magnitude (a.u.)       :      1.299635863
Magnitude (Debye)      :      3.303411836

Rotational constants in cm-1:             0.013489             0.004956             0.004498
Rotational constants in MHz :           404.395028           148.590730           134.852561

                             ****ORCA TERMINATED NORMALLY****
TOTAL RUN TIME: 0 days 0 hours 0 minutes 21 seconds 177 msec
