                         Program Version 6.0.1  -  RELEASE   -
|  1> ! pbe def2-sv(p) def2/J RI DEFGRID1 loosescf d4 GCP(DFT/SV(P)) printgap
|  2> %output
|  3>     printlevel normal
|  4> end
|  5> * xyz 0 1
|  6> C 2.8775422304 -4.2391866403 0.2018963219
|  7> C 2.7179117355 -3.4884011232 -1.1101756652
|  8> O 2.7688207444 -2.0623487594 -0.8981155172
|  9> C 1.6743834441 -1.441266044 -0.5310912465
| 10> O 0.5939360667 -1.9798533956 -0.3874555624
| 11> C 1.9146315249 0.02901309 -0.2823194609
| 12> C 0.9522250745 0.9509767063 -1.0552388514
| 13> H 1.4199183653 1.3057650518 -1.974604799
| 14> C 0.5939925161 2.1306594797 -0.1625934058
| 15> O -0.4806343287 2.2420438052 0.3846927571
| 16> O 1.6027245688 2.9528692211 -0.0339426766
| 17> C 1.4421360176 4.1097335672 0.8175767813
| 18> C 0.7890895409 5.2530996373 0.0591465192
| 19> S -0.6124055883 0.1938592745 -1.6234736783
| 20> P -1.5047610855 -0.3164656075 0.2123173745
| 21> S -0.6478237525 -0.367196891 1.9845919854
| 22> O -2.7382513978 0.69301394 0.0863630058
| 23> C -3.6912716329 0.8412624636 1.141082447
| 24> O -2.3112515965 -1.6684978594 -0.0980059333
| 25> C -1.945006709 -2.9841780587 0.3087724003
| 26> H 2.8813325747 -5.3064201481 0.0070891689
| 27> H 3.8102220522 -3.9587312927 0.6832467178
| 28> H 2.0518687206 -4.0058315949 0.8709418215
| 29> H 1.7659396784 -3.7359590865 -1.5875532979
| 30> H 3.5474177931 -3.6882971586 -1.787998389
| 31> H 2.9453819568 0.2735295876 -0.532055704
| 32> H 1.7599240447 0.1677389421 0.7934831983
| 33> H 0.8413115212 3.8224900506 1.6849107885
| 34> H 2.4584112927 4.3592760553 1.1214706581
| 35> H -0.2205712269 4.9775777942 -0.2375547036
| 36> H 0.7405427409 6.1261791845 0.7013722789
| 37> H 1.3671515416 5.4919731644 -0.8289979743
| 38> H -4.2663585083 1.7294720593 0.8926230219
| 39> H -3.1761003553 0.9764634496 2.0943672169
| 40> H -4.3360421546 -0.0366826638 1.1899676977
| 41> H -1.3630606943 -3.4586858596 -0.4779824467
| 42> H -2.8783100575 -3.5166458946 0.4784131147
| 43> H -1.3551001251 -2.9415338053 1.2259634577
| 44> *
| 45>
| 46>                          ****END OF INPUT****

CARTESIAN COORDINATES (ANGSTROEM)
---------------------------------
  C      2.877542   -4.239187    0.201896
  C      2.717912   -3.488401   -1.110176
  O      2.768821   -2.062349   -0.898116
  C      1.674383   -1.441266   -0.531091
  O      0.593936   -1.979853   -0.387456
  C      1.914632    0.029013   -0.282319
  C      0.952225    0.950977   -1.055239
  H      1.419918    1.305765   -1.974605
  C      0.593993    2.130659   -0.162593
  O     -0.480634    2.242044    0.384693
  O      1.602725    2.952869   -0.033943
  C      1.442136    4.109734    0.817577
  C      0.789090    5.253100    0.059147
  S     -0.612406    0.193859   -1.623474
  P     -1.504761   -0.316466    0.212317
  S     -0.647824   -0.367197    1.984592
  O     -2.738251    0.693014    0.086363
  C     -3.691272    0.841262    1.141082
  O     -2.311252   -1.668498   -0.098006
  C     -1.945007   -2.984178    0.308772
  H      2.881333   -5.306420    0.007089
  H      3.810222   -3.958731    0.683247
  H      2.051869   -4.005832    0.870942
  H      1.765940   -3.735959   -1.587553
  H      3.547418   -3.688297   -1.787998
  H      2.945382    0.273530   -0.532056
  H      1.759924    0.167739    0.793483
  H      0.841312    3.822490    1.684911
  H      2.458411    4.359276    1.121471
  H     -0.220571    4.977578   -0.237555
  H      0.740543    6.126179    0.701372
  H      1.367152    5.491973   -0.828998
  H     -4.266359    1.729472    0.892623
  H     -3.176100    0.976463    2.094367
  H     -4.336042   -0.036683    1.189968
  H     -1.363061   -3.458686   -0.477982
  H     -2.878310   -3.516646    0.478413
  H     -1.355100   -2.941534    1.225963

 Total Charge           Charge          ....    0
 Multiplicity           Mult            ....    1
 Number of Electrons    NEL             ....  174
 Basis Dimension        Dim             ....  316

ORBITAL ENERGIES
----------------

  NO   OCC          E(Eh)            E(eV)
   0   2.0000     -88.024485     -2395.2680
   1   2.0000     -87.962579     -2393.5835
   2   2.0000     -76.408943     -2079.1930
   3   2.0000     -18.811910      -511.8981
   4   2.0000     -18.810839      -511.8690
   5   2.0000     -18.767983      -510.7028
   6   2.0000     -18.760047      -510.4868
   7   2.0000     -18.747361      -510.1416
   8   2.0000     -18.743880      -510.0469
   9   2.0000     -10.016089      -272.5516
  10   2.0000     -10.014274      -272.5023
  11   2.0000      -9.954385      -270.8726
  12   2.0000      -9.953467      -270.8476
  13   2.0000      -9.949359      -270.7358
  14   2.0000      -9.921765      -269.9849
  15   2.0000      -9.920013      -269.9373
  16   2.0000      -9.911045      -269.6932
  17   2.0000      -9.891271      -269.1552
  18   2.0000      -9.890490      -269.1339
  19   2.0000      -7.669809      -208.7061
  20   2.0000      -7.607880      -207.0209
  21   2.0000      -6.404376      -174.2719
  22   2.0000      -5.698187      -155.0556
  23   2.0000      -5.694817      -154.9639
  24   2.0000      -5.685614      -154.7134
  25   2.0000      -5.637056      -153.3921
  26   2.0000      -5.628693      -153.1645
  27   2.0000      -5.627476      -153.1314
  28   2.0000      -4.626785      -125.9012
  29   2.0000      -4.626470      -125.8927
  30   2.0000      -4.625128      -125.8561
  31   2.0000      -1.020640       -27.7730
  32   2.0000      -1.019654       -27.7462
  33   2.0000      -0.958119       -26.0717
  34   2.0000      -0.924157       -25.1476
  35   2.0000      -0.923814       -25.1382
  36   2.0000      -0.912974       -24.8433
  37   2.0000      -0.760517       -20.6947
  38   2.0000      -0.716218       -19.4893
  39   2.0000      -0.707722       -19.2581
  40   2.0000      -0.681487       -18.5442
  41   2.0000      -0.650286       -17.6952
  42   2.0000      -0.620722       -16.8907
  43   2.0000      -0.610853       -16.6222
  44   2.0000      -0.607226       -16.5235
  45   2.0000      -0.598905       -16.2970
  46   2.0000      -0.563667       -15.3382
  47   2.0000      -0.508368       -13.8334
  48   2.0000      -0.503943       -13.7130
  49   2.0000      -0.490062       -13.3353
  50   2.0000      -0.477769       -13.0008
  51   2.0000      -0.458827       -12.4853
  52   2.0000      -0.452785       -12.3209
  53   2.0000      -0.445962       -12.1352
  54   2.0000      -0.439058       -11.9474
  55   2.0000      -0.430267       -11.7082
  56   2.0000      -0.419743       -11.4218
  57   2.0000      -0.412894       -11.2354
  58   2.0000      -0.406048       -11.0491
  59   2.0000      -0.399150       -10.8614
  60   2.0000      -0.392589       -10.6829
  61   2.0000      -0.389080       -10.5874
  62   2.0000      -0.384897       -10.4736
  63   2.0000      -0.378875       -10.3097
  64   2.0000      -0.377231       -10.2650
  65   2.0000      -0.365254        -9.9391
  66   2.0000      -0.360656        -9.8139
  67   2.0000      -0.355374        -9.6702
  68   2.0000      -0.345530        -9.4024
  69   2.0000      -0.340739        -9.2720
  70   2.0000      -0.333956        -9.0874
  71   2.0000      -0.331198        -9.0124
  72   2.0000      -0.324813        -8.8386
  73   2.0000      -0.303691        -8.2638
  74   2.0000      -0.301085        -8.1929
  75   2.0000      -0.294138        -8.0039
  76   2.0000      -0.280488        -7.6325
  77   2.0000      -0.272432        -7.4133
  78   2.0000      -0.267527        -7.2798
  79   2.0000      -0.263174        -7.1613
  80   2.0000      -0.252711        -6.8766
  81   2.0000      -0.248027        -6.7492
  82   2.0000      -0.235044        -6.3959
  83   2.0000      -0.224461        -6.1079
  84   2.0000      -0.191757        -5.2180
  85   2.0000      -0.184330        -5.0159
  86   2.0000      -0.174984        -4.7616
  87   0.0000      -0.034471        -0.9380
  88   0.0000      -0.033872        -0.9217
  89   0.0000      -0.021578        -0.5872
  90   0.0000       0.012965         0.3528
  91   0.0000       0.037077         1.0089

MULLIKEN ATOMIC CHARGES
-----------------------
   0 C :   -0.310015
   1 C :   -0.015514
   2 O :   -0.218429
   3 C :    0.127501
   4 O :   -0.198504
   5 C :   -0.078719
   6 C :   -0.306668
   7 H :    0.140088
   8 C :    0.200895
   9 O :   -0.167860
  10 O :   -0.231353
  11 C :   -0.008796
  12 C :   -0.309161
  13 S :   -0.060824
  14 P :    0.666192
  15 S :   -0.369262
  16 O :   -0.371982
  17 C :   -0.089402
  18 O :   -0.396005
  19 C :   -0.087809
  20 H :    0.114928
  21 H :    0.116433
  22 H :    0.134734
  23 H :    0.112558
  24 H :    0.105657
  25 H :    0.108473
  26 H :    0.143880
  27 H :    0.118387
  28 H :    0.104688
  29 H :    0.134535
  30 H :    0.116248
  31 H :    0.114284
  32 H :    0.115933
  33 H :    0.113783
  34 H :    0.102940
  35 H :    0.110339
  36 H :    0.107017
  37 H :    0.110809
Sum of atomic charges:    0.0000000

LOEWDIN ATOMIC CHARGES
----------------------
   0 C :   -0.356484
   1 C :   -0.109982
   2 O :   -0.048388
   3 C :    0.036237
   4 O :   -0.160526
   5 C :   -0.256393
   6 C :   -0.261206
   7 H :    0.144620
   8 C :    0.013239
   9 O :   -0.145070
  10 O :   -0.052439
  11 C :   -0.107191
  12 C :   -0.356038
  13 S :    0.126883
  14 P :    0.604645
  15 S :   -0.339356
  16 O :   -0.252850
  17 C :   -0.213097
  18 O :   -0.259368
  19 C :   -0.216417
  20 H :    0.131756
  21 H :    0.126316
  22 H :    0.133064
  23 H :    0.120417
  24 H :    0.119560
  25 H :    0.138381
  26 H :    0.148157
  27 H :    0.125265
  28 H :    0.119148
  29 H :    0.133674
  30 H :    0.132555
  31 H :    0.125160
  32 H :    0.117823
  33 H :    0.108366
  34 H :    0.106803
  35 H :    0.107771
  36 H :    0.110860
  37 H :    0.104106

  Mayer bond orders larger than 0.100000
B(  0-C ,  1-C ) :   1.1733 B(  0-C , 20-H ) :   0.9435 B(  0-C , 21-H ) :   0.9481
B(  0-C , 22-H ) :   0.9439 B(  1-C ,  2-O ) :   0.9094 B(  1-C , 23-H ) :   0.9153
B(  1-C , 24-H ) :   0.9367 B(  2-O ,  3-C ) :   1.2639 B(  3-C ,  4-O ) :   1.9214
B(  3-C ,  5-C ) :   1.0380 B(  5-C ,  6-C ) :   1.0096 B(  5-C , 25-H ) :   0.8913
B(  5-C , 26-H ) :   0.8596 B(  6-C ,  7-H ) :   0.8783 B(  6-C ,  8-C ) :   0.8861
B(  6-C , 13-S ) :   1.0855 B(  8-C ,  9-O ) :   2.0319 B(  8-C , 10-O ) :   1.2427
B( 10-O , 11-C ) :   0.9039 B( 11-C , 12-C ) :   1.1752 B( 11-C , 27-H ) :   0.9144
B( 11-C , 28-H ) :   0.9368 B( 12-C , 29-H ) :   0.9451 B( 12-C , 30-H ) :   0.9435
B( 12-C , 31-H ) :   0.9482 B( 13-S , 14-P ) :   0.9233 B( 13-S , 15-S ) :   0.1132
B( 14-P , 15-S ) :   1.5413 B( 14-P , 16-O ) :   1.1009 B( 14-P , 18-O ) :   1.0900
B( 16-O , 17-C ) :   0.9427 B( 17-C , 32-H ) :   0.9606 B( 17-C , 33-H ) :   0.9346
B( 17-C , 34-H ) :   0.9506 B( 18-O , 19-C ) :   0.9371 B( 19-C , 35-H ) :   0.9501
B( 19-C , 36-H ) :   0.9547 B( 19-C , 37-H ) :   0.9300

Dispersion correction           -0.053328483
FINAL SINGLE POINT ENERGY     -1979.000254305677

DIPOLE MOMENT
-------------

Method             : SCF
Type of density    : Electron Density
Multiplicity       :   1
Irrep              :   0
Energy             : -1979.1302366600061760 Eh
Relativity type    :
Basis              : AO
                                X                 Y                 Z
Electronic contribution:     -7.535019751       1.072003532      -4.201534391
Nuclear contribution   :      8.872261435      -1.040222448       3.836002981
                        -----------------------------------------
Total Dipole Moment    :      1.337241685       0.031781083      -0.365531410
                        -----------------------------------------
Magnitude (a.u.)       :      1.386664549
Magnitude (Debye)      :      3.524621178

Rotational constants in cm-1:             0.012076             0.008122             0.005738
Rotational constants in MHz :           362.040999           243.483250           172.033305

                             ****ORCA TERMINATED NORMALLY****
TOTAL RUN TIME: 0 days 0 hours 0 minutes 38 seconds 601 msec
