                         Program Version 6.0.0  -   RELEASE  -
|  1> ! wb97x-v def2-tzvp def2/J RIJCOSX DEFGRID2 scfconv7 GCP(DFT/TZ) printgap
|  2> %output
|  3>     printlevel normal
|  4> end
|  5> * xyz 0 1
|  6> C -1.1112876282488931e-05 -4.551506767106896e-05 0.4981125353757122
|  7> Cl -1.611594354331878 0.5360458642274541 -0.06621259699278169
|  8> Cl 0.342057310501635 -1.6636005798273477 -0.06633771399262353
|  9> Cl 1.2698258188395835 1.1277110858608268 -0.06657501023537477
| 10> H -0.0003049619899234762 -0.00011627359688259942 1.5878528480562633
| 11> *
| 12>
| 13>                          ****END OF INPUT****

CARTESIAN COORDINATES (ANGSTROEM)
---------------------------------
  C     -0.000011   -0.000046    0.498113
  Cl    -1.611594    0.536046   -0.066213
  Cl     0.342057   -1.663601   -0.066338
  Cl     1.269826    1.127711   -0.066575
  H     -0.000305   -0.000116    1.587853

 Total Charge           Charge          ....    0
 Multiplicity           Mult            ....    1
 Number of Electrons    NEL             ....   58
 Basis Dimension        Dim             ....  148

ORBITAL ENERGIES
----------------

  NO   OCC          E(Eh)            E(eV)
   0   2.0000    -107.168587     -2916.2055
   1   2.0000    -107.168581     -2916.2053
   2   2.0000    -107.168578     -2916.2053
   3   2.0000     -12.244439      -333.1881
   4   2.0000     -11.322108      -308.0902
   5   2.0000     -11.322102      -308.0901
   6   2.0000     -11.321806      -308.0820
   7   2.0000      -9.114296      -248.0126
   8   2.0000      -9.114294      -248.0125
   9   2.0000      -9.112447      -247.9623
  10   2.0000      -9.111324      -247.9317
  11   2.0000      -9.110567      -247.9111
  12   2.0000      -9.110560      -247.9109
  13   2.0000      -9.109821      -247.8908
  14   2.0000      -9.109817      -247.8907
  15   2.0000      -9.109735      -247.8885
  16   2.0000      -1.484496       -40.3952
  17   2.0000      -1.407627       -38.3035
  18   2.0000      -1.407599       -38.3027
  19   2.0000      -1.174247       -31.9529
  20   2.0000      -0.965577       -26.2747
  21   2.0000      -0.953708       -25.9517
  22   2.0000      -0.953667       -25.9506
  23   2.0000      -0.826682       -22.4952
  24   2.0000      -0.826658       -22.4945
  25   2.0000      -0.808095       -21.9894
  26   2.0000      -0.808076       -21.9889
  27   2.0000      -0.801278       -21.8039
  28   2.0000      -0.797231       -21.6937
  29   0.0000      -0.361609        -9.8399
  30   0.0000      -0.282554        -7.6887
  31   0.0000      -0.282500        -7.6872
  32   0.0000      -0.040840        -1.1113
  33   0.0000       0.082828         2.2539

MULLIKEN ATOMIC CHARGES
-----------------------
   0 C :   -0.008625
   1 Cl:   -0.051881
   2 Cl:   -0.051818
   3 Cl:   -0.051836
   4 H :    0.164159
Sum of atomic charges:    0.0000000

LOEWDIN ATOMIC CHARGES
----------------------
   0 C :   -1.025580
   1 Cl:    0.305687
   2 Cl:    0.305715
   3 Cl:    0.305661
   4 H :    0.108515

  Mayer bond orders larger than 0.100000
B(  0-C ,  1-Cl) :   1.1419 B(  0-C ,  2-Cl) :   1.1420 B(  0-C ,  3-Cl) :   1.1420
B(  0-C ,  4-H ) :   0.9523

FINAL SINGLE POINT ENERGY     -1419.131294132709

DIPOLE MOMENT
-------------

Method             : SCF
Type of density    : Electron Density
Multiplicity       :   1
Irrep              :   0
Energy             : -1419.1341256691086983 Eh
Relativity type    :
Basis              : AO
                                X                 Y                 Z
Electronic contribution:      0.000360866       0.000117271      -1.311707293
Nuclear contribution   :     -0.000420243      -0.000192718       1.770504770
                        -----------------------------------------
Total Dipole Moment    :     -0.000059377      -0.000075446       0.458797477
                        -----------------------------------------
Magnitude (a.u.)       :      0.458797487
Magnitude (Debye)      :      1.166170534

Rotational constants in cm-1:             0.105791             0.105747             0.054949
Rotational constants in MHz :          3171.545332          3170.220812          1647.330600

                             ****ORCA TERMINATED NORMALLY****
TOTAL RUN TIME: 0 days 0 hours 0 minutes 29 seconds 217 msec
