                         Program Version 6.0.0  -   RELEASE  -
|  1> ! wb97x-v def2-tzvp def2/J RIJCOSX DEFGRID2 scfconv7 GCP(DFT/TZ) printgap
|  2> %output
|  3>     printlevel normal
|  4> end
|  5> %cpcm
|  6>     smd true
|  7>     smdsolvent "water"
|  8> end
|  9> * xyz 0 1
| 10> C -1.1112876282488931e-05 -4.551506767106896e-05 0.4981125353757122
| 11> Cl -1.611594354331878 0.5360458642274541 -0.06621259699278169
| 12> Cl 0.342057310501635 -1.6636005798273477 -0.06633771399262353
| 13> Cl 1.2698258188395835 1.1277110858608268 -0.06657501023537477
| 14> H -0.0003049619899234762 -0.00011627359688259942 1.5878528480562633
| 15> *
| 16>
| 17>                          ****END OF INPUT****

CARTESIAN COORDINATES (ANGSTROEM)
---------------------------------
  C     -0.000011   -0.000046    0.498113
  Cl    -1.611594    0.536046   -0.066213
  Cl     0.342057   -1.663601   -0.066338
  Cl     1.269826    1.127711   -0.066575
  H     -0.000305   -0.000116    1.587853

 Total Charge           Charge          ....    0
 Multiplicity           Mult            ....    1
 Number of Electrons    NEL             ....   58
 Basis Dimension        Dim             ....  148

ORBITAL ENERGIES
----------------

  NO   OCC          E(Eh)            E(eV)
   0   2.0000    -107.165753     -2916.1284
   1   2.0000    -107.165741     -2916.1281
   2   2.0000    -107.165741     -2916.1281
   3   2.0000     -12.235613      -332.9480
   4   2.0000     -11.319291      -308.0136
   5   2.0000     -11.319283      -308.0133
   6   2.0000     -11.318989      -308.0054
   7   2.0000      -9.111471      -247.9357
   8   2.0000      -9.111462      -247.9355
   9   2.0000      -9.109603      -247.8849
  10   2.0000      -9.108549      -247.8562
  11   2.0000      -9.107778      -247.8352
  12   2.0000      -9.107770      -247.8350
  13   2.0000      -9.107057      -247.8156
  14   2.0000      -9.107049      -247.8154
  15   2.0000      -9.106944      -247.8126
  16   2.0000      -1.480385       -40.2833
  17   2.0000      -1.404702       -38.2239
  18   2.0000      -1.404688       -38.2235
  19   2.0000      -1.167044       -31.7569
  20   2.0000      -0.956845       -26.0371
  21   2.0000      -0.949557       -25.8388
  22   2.0000      -0.949521       -25.8378
  23   2.0000      -0.824253       -22.4291
  24   2.0000      -0.824233       -22.4285
  25   2.0000      -0.805752       -21.9256
  26   2.0000      -0.805739       -21.9253
  27   2.0000      -0.799080       -21.7441
  28   2.0000      -0.792603       -21.5678
  29   0.0000      -0.357646        -9.7320
  30   0.0000      -0.276318        -7.5190
  31   0.0000      -0.276271        -7.5177
  32   0.0000      -0.020235        -0.5506
  33   0.0000       0.088798         2.4163

MULLIKEN ATOMIC CHARGES
-----------------------
   0 C :   -0.017452
   1 Cl:   -0.069506
   2 Cl:   -0.069502
   3 Cl:   -0.069432
   4 H :    0.225892
Sum of atomic charges:    0.0000000

LOEWDIN ATOMIC CHARGES
----------------------
   0 C :   -1.012948
   1 Cl:    0.295132
   2 Cl:    0.295171
   3 Cl:    0.295076
   4 H :    0.127570

  Mayer bond orders larger than 0.100000
B(  0-C ,  1-Cl) :   1.1266 B(  0-C ,  2-Cl) :   1.1265 B(  0-C ,  3-Cl) :   1.1267
B(  0-C ,  4-H ) :   0.9351

FINAL SINGLE POINT ENERGY     -1419.133471051427

DIPOLE MOMENT
-------------

Method             : SCF
Type of density    : Electron Density
Multiplicity       :   1
Irrep              :   0
Energy             : -1419.1363025878274584 Eh
Relativity type    :
Basis              : AO
                                X                 Y                 Z
Electronic contribution:      0.000077842      -0.000651445      -1.110062877
Nuclear contribution   :     -0.000420243      -0.000192718       1.770504770
                        -----------------------------------------
Total Dipole Moment    :     -0.000342400      -0.000844162       0.660441893
                        -----------------------------------------
Magnitude (a.u.)       :      0.660442521
Magnitude (Debye)      :      1.678711479

Rotational constants in cm-1:             0.105791             0.105747             0.054949
Rotational constants in MHz :          3171.545332          3170.220812          1647.330600

                             ****ORCA TERMINATED NORMALLY****
TOTAL RUN TIME: 0 days 0 hours 0 minutes 36 seconds 121 msec
