                         Program Version 6.0.0  -   RELEASE  -
|  1> ! pbe def2-sv(p) def2/J RI DEFGRID1 loosescf d4 GCP(DFT/SV(P)) printgap
|  2> %output
|  3>     printlevel normal
|  4> end
|  5> * xyz 0 1
|  6> C 5.4899051941 -0.3493712881 -1.9181898456
|  7> C 3.9867708683 -0.5224663611 -1.8322255432
|  8> O 3.5849987244 -0.2387137513 -0.4798664884
|  9> P 2.0524971871 -0.0416036163 -0.0873461455
| 10> S 1.1412623923 1.2762646276 -1.2226054426
| 11> O 2.1983791051 0.2314289522 1.4566250067
| 12> C 2.2576487732 1.5593974236 2.0158569793
| 13> C 3.5116623345 2.2929978392 1.5918268941
| 14> S 1.2995986083 -2.0188407129 -0.1064731122
| 15> C -0.04678388 -1.8662027746 -1.3311152805
| 16> S -1.7099309686 -2.1309389063 -0.6553209387
| 17> P -2.1076040739 -0.2062602439 0.1195833044
| 18> S -0.9737544709 0.3734362801 1.621677244
| 19> O -3.6493840196 -0.2645645831 0.4845371797
| 20> C -4.1469475853 -0.6882093354 1.7686752492
| 21> C -5.3776933935 0.1337565437 2.0970575991
| 22> O -2.1064224311 0.6223929695 -1.2239123031
| 23> C -2.8005617659 1.8742724989 -1.4224057121
| 24> C -2.2956085144 2.9632526021 -0.5006192281
| 25> H 5.7627360178 0.6755501713 -1.6838853357
| 26> H 5.9781981651 -1.0137692856 -1.2112889555
| 27> H 5.81886082 -0.5875755895 -2.9242337064
| 28> H 3.689758401 -1.5483480149 -2.0705045272
| 29> H 3.4634245265 0.1673826622 -2.5034935858
| 30> H 1.3570276813 2.1028065917 1.7122795533
| 31> H 2.2251623638 1.3850780551 3.0920868234
| 32> H 3.5554508486 3.2518727141 2.0986799318
| 33> H 4.3908209848 1.7056557039 1.8433642394
| 34> H 3.4950820212 2.4600430689 0.5151210463
| 35> H 0.094930956 -2.6555446019 -2.0638184049
| 36> H 0.0014727079 -0.8763490794 -1.7917967175
| 37> H -4.3841448902 -1.7516946436 1.6937546367
| 38> H -3.3593423025 -0.54364646 2.5162483333
| 39> H -6.1239489744 0.0126032466 1.3172094526
| 40> H -5.7877369801 -0.2049829429 3.042793493
| 41> H -5.1171389561 1.1857571266 2.1779064906
| 42> H -2.5946177621 2.1106836668 -2.4675189474
| 43> H -3.8681687345 1.6962749635 -1.2778290763
| 44> H -2.4959100483 2.7008153311 0.537573613
| 45> H -1.2212573968 3.0856151702 -0.6249879472
| 46> H -2.7935210476 3.8982605508 -0.7361864648
| 47> *
| 48>
| 49>                          ****END OF INPUT****

CARTESIAN COORDINATES (ANGSTROEM)
---------------------------------
  C      5.489905   -0.349371   -1.918190
  C      3.986771   -0.522466   -1.832226
  O      3.584999   -0.238714   -0.479866
  P      2.052497   -0.041604   -0.087346
  S      1.141262    1.276265   -1.222605
  O      2.198379    0.231429    1.456625
  C      2.257649    1.559397    2.015857
  C      3.511662    2.292998    1.591827
  S      1.299599   -2.018841   -0.106473
  C     -0.046784   -1.866203   -1.331115
  S     -1.709931   -2.130939   -0.655321
  P     -2.107604   -0.206260    0.119583
  S     -0.973754    0.373436    1.621677
  O     -3.649384   -0.264565    0.484537
  C     -4.146948   -0.688209    1.768675
  C     -5.377693    0.133757    2.097058
  O     -2.106422    0.622393   -1.223912
  C     -2.800562    1.874272   -1.422406
  C     -2.295609    2.963253   -0.500619
  H      5.762736    0.675550   -1.683885
  H      5.978198   -1.013769   -1.211289
  H      5.818861   -0.587576   -2.924234
  H      3.689758   -1.548348   -2.070505
  H      3.463425    0.167383   -2.503494
  H      1.357028    2.102807    1.712280
  H      2.225162    1.385078    3.092087
  H      3.555451    3.251873    2.098680
  H      4.390821    1.705656    1.843364
  H      3.495082    2.460043    0.515121
  H      0.094931   -2.655545   -2.063818
  H      0.001473   -0.876349   -1.791797
  H     -4.384145   -1.751695    1.693755
  H     -3.359342   -0.543646    2.516248
  H     -6.123949    0.012603    1.317209
  H     -5.787737   -0.204983    3.042793
  H     -5.117139    1.185757    2.177906
  H     -2.594618    2.110684   -2.467519
  H     -3.868169    1.696275   -1.277829
  H     -2.495910    2.700815    0.537574
  H     -1.221257    3.085615   -0.624988
  H     -2.793521    3.898261   -0.736186

 Total Charge           Charge          ....    0
 Multiplicity           Mult            ....    1
 Number of Electrons    NEL             ....  202
 Basis Dimension        Dim             ....  334

ORBITAL ENERGIES
----------------

  NO   OCC          E(Eh)            E(eV)
   0   2.0000     -88.035110     -2395.5571
   1   2.0000     -88.034055     -2395.5284
   2   2.0000     -87.984072     -2394.1683
   3   2.0000     -87.977788     -2393.9973
   4   2.0000     -76.422537     -2079.5629
   5   2.0000     -76.420632     -2079.5111
   6   2.0000     -18.793387      -511.3941
   7   2.0000     -18.785237      -511.1723
   8   2.0000     -18.783807      -511.1334
   9   2.0000     -18.781515      -511.0710
  10   2.0000      -9.952367      -270.8177
  11   2.0000      -9.951745      -270.8008
  12   2.0000      -9.951418      -270.7919
  13   2.0000      -9.946231      -270.6507
  14   2.0000      -9.945009      -270.6175
  15   2.0000      -9.888739      -269.0863
  16   2.0000      -9.884410      -268.9685
  17   2.0000      -9.877888      -268.7910
  18   2.0000      -9.875980      -268.7391
  19   2.0000      -7.680527      -208.9978
  20   2.0000      -7.679989      -208.9831
  21   2.0000      -7.628917      -207.5934
  22   2.0000      -7.622513      -207.4191
  23   2.0000      -6.419925      -174.6950
  24   2.0000      -6.418033      -174.6436
  25   2.0000      -5.708413      -155.3338
  26   2.0000      -5.707864      -155.3189
  27   2.0000      -5.705105      -155.2438
  28   2.0000      -5.704624      -155.2307
  29   2.0000      -5.697366      -155.0332
  30   2.0000      -5.696704      -155.0152
  31   2.0000      -5.657561      -153.9501
  32   2.0000      -5.651289      -153.7794
  33   2.0000      -5.650117      -153.7475
  34   2.0000      -5.648713      -153.7093
  35   2.0000      -5.643267      -153.5611
  36   2.0000      -5.642698      -153.5456
  37   2.0000      -4.643025      -126.3431
  38   2.0000      -4.641573      -126.3036
  39   2.0000      -4.640242      -126.2674
  40   2.0000      -4.640008      -126.2610
  41   2.0000      -4.639725      -126.2533
  42   2.0000      -4.638899      -126.2309
  43   2.0000      -0.985799       -26.8250
  44   2.0000      -0.980062       -26.6688
  45   2.0000      -0.942412       -25.6443
  46   2.0000      -0.937254       -25.5040
  47   2.0000      -0.755590       -20.5606
  48   2.0000      -0.719173       -19.5697
  49   2.0000      -0.706212       -19.2170
  50   2.0000      -0.687753       -18.7147
  51   2.0000      -0.682847       -18.5812
  52   2.0000      -0.667625       -18.1670
  53   2.0000      -0.648263       -17.6401
  54   2.0000      -0.630317       -17.1518
  55   2.0000      -0.595873       -16.2145
  56   2.0000      -0.587049       -15.9744
  57   2.0000      -0.571412       -15.5489
  58   2.0000      -0.560826       -15.2608
  59   2.0000      -0.556612       -15.1462
  60   2.0000      -0.503475       -13.7003
  61   2.0000      -0.496448       -13.5090
  62   2.0000      -0.471808       -12.8386
  63   2.0000      -0.469888       -12.7863
  64   2.0000      -0.450825       -12.2676
  65   2.0000      -0.443269       -12.0620
  66   2.0000      -0.437701       -11.9104
  67   2.0000      -0.429476       -11.6866
  68   2.0000      -0.424252       -11.5445
  69   2.0000      -0.411801       -11.2057
  70   2.0000      -0.403430       -10.9779
  71   2.0000      -0.398641       -10.8476
  72   2.0000      -0.390840       -10.6353
  73   2.0000      -0.379624       -10.3301
  74   2.0000      -0.378880       -10.3099
  75   2.0000      -0.369656       -10.0588
  76   2.0000      -0.365546        -9.9470
  77   2.0000      -0.353509        -9.6195
  78   2.0000      -0.352110        -9.5814
  79   2.0000      -0.343068        -9.3354
  80   2.0000      -0.340447        -9.2640
  81   2.0000      -0.338420        -9.2089
  82   2.0000      -0.337478        -9.1832
  83   2.0000      -0.334784        -9.1099
  84   2.0000      -0.329126        -8.9560
  85   2.0000      -0.316004        -8.5989
  86   2.0000      -0.306669        -8.3449
  87   2.0000      -0.297623        -8.0987
  88   2.0000      -0.294544        -8.0149
  89   2.0000      -0.287566        -7.8251
  90   2.0000      -0.279300        -7.6001
  91   2.0000      -0.273736        -7.4487
  92   2.0000      -0.268118        -7.2959
  93   2.0000      -0.257061        -6.9950
  94   2.0000      -0.252786        -6.8787
  95   2.0000      -0.232006        -6.3132
  96   2.0000      -0.219615        -5.9760
  97   2.0000      -0.206548        -5.6205
  98   2.0000      -0.200048        -5.4436
  99   2.0000      -0.188277        -5.1233
 100   2.0000      -0.182346        -4.9619
 101   0.0000      -0.034496        -0.9387
 102   0.0000      -0.028593        -0.7781
 103   0.0000      -0.008761        -0.2384
 104   0.0000       0.005096         0.1387
 105   0.0000       0.027323         0.7435

MULLIKEN ATOMIC CHARGES
-----------------------
   0 C :   -0.279482
   1 C :   -0.005882
   2 O :   -0.374274
   3 P :    0.620497
   4 S :   -0.329055
   5 O :   -0.360365
   6 C :   -0.005261
   7 C :   -0.303811
   8 S :   -0.074946
   9 C :   -0.364869
  10 S :   -0.095531
  11 P :    0.635374
  12 S :   -0.322571
  13 O :   -0.385999
  14 C :   -0.009363
  15 C :   -0.288102
  16 O :   -0.367974
  17 C :    0.003950
  18 C :   -0.323580
  19 H :    0.117553
  20 H :    0.116812
  21 H :    0.108986
  22 H :    0.091308
  23 H :    0.098192
  24 H :    0.121585
  25 H :    0.106057
  26 H :    0.109268
  27 H :    0.115760
  28 H :    0.122879
  29 H :    0.181063
  30 H :    0.203261
  31 H :    0.104183
  32 H :    0.109515
  33 H :    0.116105
  34 H :    0.113272
  35 H :    0.117840
  36 H :    0.106867
  37 H :    0.105717
  38 H :    0.122110
  39 H :    0.138018
  40 H :    0.104895
Sum of atomic charges:    0.0000000

LOEWDIN ATOMIC CHARGES
----------------------
   0 C :   -0.350144
   1 C :   -0.124814
   2 O :   -0.251732
   3 P :    0.573954
   4 S :   -0.307974
   5 O :   -0.230087
   6 C :   -0.114766
   7 C :   -0.366200
   8 S :    0.083567
   9 C :   -0.479757
  10 S :    0.069529
  11 P :    0.569716
  12 S :   -0.305658
  13 O :   -0.247538
  14 C :   -0.120817
  15 C :   -0.352305
  16 O :   -0.239283
  17 C :   -0.106202
  18 C :   -0.370971
  19 H :    0.127067
  20 H :    0.127054
  21 H :    0.129171
  22 H :    0.103762
  23 H :    0.104026
  24 H :    0.110625
  25 H :    0.120397
  26 H :    0.129429
  27 H :    0.125909
  28 H :    0.121414
  29 H :    0.136544
  30 H :    0.124525
  31 H :    0.113998
  32 H :    0.107163
  33 H :    0.125866
  34 H :    0.131553
  35 H :    0.126690
  36 H :    0.121179
  37 H :    0.111046
  38 H :    0.118570
  39 H :    0.128862
  40 H :    0.126632

  Mayer bond orders larger than 0.100000
B(  0-C ,  1-C ) :   1.1610 B(  0-C , 19-H ) :   0.9523 B(  0-C , 20-H ) :   0.9506
B(  0-C , 21-H ) :   0.9426 B(  1-C ,  2-O ) :   0.9163 B(  1-C , 22-H ) :   0.9221
B(  1-C , 23-H ) :   0.9100 B(  2-O ,  3-P ) :   1.0874 B(  3-P ,  4-S ) :   1.5810
B(  3-P ,  5-O ) :   1.1565 B(  3-P ,  8-S ) :   0.9576 B(  4-S ,  8-S ) :   0.1179
B(  5-O ,  6-C ) :   0.8962 B(  6-C ,  7-C ) :   1.1640 B(  6-C , 24-H ) :   0.9145
B(  6-C , 25-H ) :   0.9357 B(  7-C , 26-H ) :   0.9383 B(  7-C , 27-H ) :   0.9449
B(  7-C , 28-H ) :   0.9343 B(  8-S ,  9-C ) :   1.0013 B(  9-C , 10-S ) :   0.9994
B(  9-C , 29-H ) :   0.9128 B(  9-C , 30-H ) :   0.8529 B( 10-S , 11-P ) :   0.9661
B( 10-S , 12-S ) :   0.1159 B( 11-P , 12-S ) :   1.6320 B( 11-P , 13-O ) :   1.0877
B( 11-P , 16-O ) :   1.1217 B( 13-O , 14-C ) :   0.9038 B( 14-C , 15-C ) :   1.1603
B( 14-C , 31-H ) :   0.9331 B( 14-C , 32-H ) :   0.8990 B( 15-C , 33-H ) :   0.9507
B( 15-C , 34-H ) :   0.9416 B( 15-C , 35-H ) :   0.9506 B( 16-O , 17-C ) :   0.9027
B( 17-C , 18-C ) :   1.1677 B( 17-C , 36-H ) :   0.9350 B( 17-C , 37-H ) :   0.9307
B( 18-C , 38-H ) :   0.9330 B( 18-C , 39-H ) :   0.9370 B( 18-C , 40-H ) :   0.9352

Dispersion correction           -0.065601682
FINAL SINGLE POINT ENERGY     -2929.516596358811

DIPOLE MOMENT
-------------

Method             : SCF
Type of density    : Electron Density
Multiplicity       :   1
Irrep              :   0
Energy             : -2929.6348867638789670 Eh
Relativity type    :
Basis              : AO
                                X                 Y                 Z
Electronic contribution:     -2.355589462     -16.159780576      -1.405993815
Nuclear contribution   :      2.014770022      16.488580415       1.103018767
                        -----------------------------------------
Total Dipole Moment    :     -0.340819439       0.328799839      -0.302975048
                        -----------------------------------------
Magnitude (a.u.)       :      0.562193120
Magnitude (Debye)      :      1.428981347

Rotational constants in cm-1:             0.013331             0.004918             0.004557
Rotational constants in MHz :           399.663644           147.452441           136.613657

                             ****ORCA TERMINATED NORMALLY****
TOTAL RUN TIME: 0 days 0 hours 0 minutes 19 seconds 602 msec
