                         Program Version 6.0.0  -   RELEASE  -
|  1> ! pbe def2-sv(p) def2/J RI DEFGRID1 loosescf d4 GCP(DFT/SV(P)) printgap
|  2> %output
|  3>     printlevel normal
|  4> end
|  5> * xyz 0 1
|  6> C 4.0061694188 -0.3415180327 -2.6057293629
|  7> C 3.1129156551 0.6641998897 -1.9062635842
|  8> O 2.0461362349 0.0023482858 -1.1993475541
|  9> P 2.1726562233 -0.375462431 0.3439433807
| 10> S 3.733382172 -1.431371381 0.8717239482
| 11> O 0.7580208825 -1.0535466042 0.6116512185
| 12> C 0.6383740411 -2.4913238877 0.5566625381
| 13> C 0.7543800447 -2.9991658431 -0.8646200047
| 14> S 1.9854737186 1.4605869545 1.3529544573
| 15> C 0.4220327375 2.0701494809 0.6457836932
| 16> S -1.0426880745 1.4954053309 1.5506936942
| 17> P -1.990608719 0.3239378302 0.0610305187
| 18> S -1.1601075919 0.3082727294 -1.7210668719
| 19> O -3.5035560015 0.8307784719 0.0364706501
| 20> C -3.9482508498 1.8802565606 -0.83640426
| 21> C -3.3747934737 3.2284166189 -0.4500335717
| 22> O -2.1577102253 -1.037489751 0.8549519936
| 23> C -3.2818434908 -1.9322912196 0.6954199223
| 24> C -3.3271426255 -2.5535408069 -0.6856039371
| 25> H 4.7622994977 0.1887958823 -3.1754719773
| 26> H 4.4963101168 -0.9819884099 -1.8756005635
| 27> H 3.4159335436 -0.9587637647 -3.2773748593
| 28> H 2.6051394497 1.3100750219 -2.6257816301
| 29> H 3.6868165283 1.2752434973 -1.2016132186
| 30> H 1.4195200247 -2.9262471089 1.1887064649
| 31> H -0.3422281637 -2.6888048987 0.9893045921
| 32> H 1.768253722 -2.837411619 -1.2285698962
| 33> H 0.5321238443 -4.0613335385 -0.8917432002
| 34> H 0.0659799548 -2.4612849362 -1.5132841422
| 35> H 0.3413188015 1.7477797179 -0.3967047602
| 36> H 0.4685467721 3.1520115617 0.7328095159
| 37> H -3.6631582715 1.6220106628 -1.8615628445
| 38> H -5.0343682771 1.8617569336 -0.7368904022
| 39> H -3.5520217525 3.4269068148 0.6038731289
| 40> H -2.3016978342 3.242326091 -0.6356273325
| 41> H -3.8446836397 4.0026634949 -1.0479518913
| 42> H -3.1229003531 -2.6847821271 1.4699645479
| 43> H -4.1979207615 -1.3765857381 0.9047463531
| 44> H -2.4093707762 -3.099553412 -0.8895894887
| 45> H -4.1701487222 -3.2347478778 -0.7462683132
| 46> H -3.443510305 -1.7765547821 -1.4405017272
| 47> *
| 48>
| 49>                          ****END OF INPUT****

CARTESIAN COORDINATES (ANGSTROEM)
---------------------------------
  C      4.006169   -0.341518   -2.605729
  C      3.112916    0.664200   -1.906264
  O      2.046136    0.002348   -1.199348
  P      2.172656   -0.375462    0.343943
  S      3.733382   -1.431371    0.871724
  O      0.758021   -1.053547    0.611651
  C      0.638374   -2.491324    0.556663
  C      0.754380   -2.999166   -0.864620
  S      1.985474    1.460587    1.352954
  C      0.422033    2.070149    0.645784
  S     -1.042688    1.495405    1.550694
  P     -1.990609    0.323938    0.061031
  S     -1.160108    0.308273   -1.721067
  O     -3.503556    0.830778    0.036471
  C     -3.948251    1.880257   -0.836404
  C     -3.374793    3.228417   -0.450034
  O     -2.157710   -1.037490    0.854952
  C     -3.281843   -1.932291    0.695420
  C     -3.327143   -2.553541   -0.685604
  H      4.762299    0.188796   -3.175472
  H      4.496310   -0.981988   -1.875601
  H      3.415934   -0.958764   -3.277375
  H      2.605139    1.310075   -2.625782
  H      3.686817    1.275243   -1.201613
  H      1.419520   -2.926247    1.188706
  H     -0.342228   -2.688805    0.989305
  H      1.768254   -2.837412   -1.228570
  H      0.532124   -4.061334   -0.891743
  H      0.065980   -2.461285   -1.513284
  H      0.341319    1.747780   -0.396705
  H      0.468547    3.152012    0.732810
  H     -3.663158    1.622011   -1.861563
  H     -5.034368    1.861757   -0.736890
  H     -3.552022    3.426907    0.603873
  H     -2.301698    3.242326   -0.635627
  H     -3.844684    4.002663   -1.047952
  H     -3.122900   -2.684782    1.469965
  H     -4.197921   -1.376586    0.904746
  H     -2.409371   -3.099553   -0.889589
  H     -4.170149   -3.234748   -0.746268
  H     -3.443510   -1.776555   -1.440502

 Total Charge           Charge          ....    0
 Multiplicity           Mult            ....    1
 Number of Electrons    NEL             ....  202
 Basis Dimension        Dim             ....  334

ORBITAL ENERGIES
----------------

  NO   OCC          E(Eh)            E(eV)
   0   2.0000     -88.042890     -2395.7688
   1   2.0000     -88.039547     -2395.6779
   2   2.0000     -87.993470     -2394.4240
   3   2.0000     -87.982037     -2394.1129
   4   2.0000     -76.431716     -2079.8127
   5   2.0000     -76.420318     -2079.5026
   6   2.0000     -18.797593      -511.5085
   7   2.0000     -18.795931      -511.4633
   8   2.0000     -18.786286      -511.2008
   9   2.0000     -18.782648      -511.1018
  10   2.0000      -9.960826      -271.0479
  11   2.0000      -9.956793      -270.9381
  12   2.0000      -9.955712      -270.9087
  13   2.0000      -9.949893      -270.7504
  14   2.0000      -9.940405      -270.4922
  15   2.0000      -9.890870      -269.1442
  16   2.0000      -9.889002      -269.0934
  17   2.0000      -9.876641      -268.7571
  18   2.0000      -9.872508      -268.6446
  19   2.0000      -7.688222      -209.2072
  20   2.0000      -7.685083      -209.1218
  21   2.0000      -7.638169      -207.8451
  22   2.0000      -7.627262      -207.5484
  23   2.0000      -6.428774      -174.9358
  24   2.0000      -6.418252      -174.6495
  25   2.0000      -5.716161      -155.5446
  26   2.0000      -5.713261      -155.4657
  27   2.0000      -5.712771      -155.4524
  28   2.0000      -5.709204      -155.3553
  29   2.0000      -5.705041      -155.2421
  30   2.0000      -5.702072      -155.1613
  31   2.0000      -5.666904      -154.2043
  32   2.0000      -5.659203      -153.9948
  33   2.0000      -5.658082      -153.9642
  34   2.0000      -5.656167      -153.9121
  35   2.0000      -5.647942      -153.6883
  36   2.0000      -5.647344      -153.6720
  37   2.0000      -4.651673      -126.5784
  38   2.0000      -4.650222      -126.5390
  39   2.0000      -4.649294      -126.5137
  40   2.0000      -4.640560      -126.2761
  41   2.0000      -4.640326      -126.2697
  42   2.0000      -4.638640      -126.2238
  43   2.0000      -0.993363       -27.0308
  44   2.0000      -0.979417       -26.6513
  45   2.0000      -0.948393       -25.8071
  46   2.0000      -0.938456       -25.5367
  47   2.0000      -0.761263       -20.7150
  48   2.0000      -0.722782       -19.6679
  49   2.0000      -0.705253       -19.1909
  50   2.0000      -0.693901       -18.8820
  51   2.0000      -0.679889       -18.5007
  52   2.0000      -0.674092       -18.3430
  53   2.0000      -0.654438       -17.8082
  54   2.0000      -0.638472       -17.3737
  55   2.0000      -0.601377       -16.3643
  56   2.0000      -0.587830       -15.9957
  57   2.0000      -0.584139       -15.8952
  58   2.0000      -0.565432       -15.3862
  59   2.0000      -0.556838       -15.1523
  60   2.0000      -0.502572       -13.6757
  61   2.0000      -0.494336       -13.4516
  62   2.0000      -0.476369       -12.9627
  63   2.0000      -0.467428       -12.7194
  64   2.0000      -0.461758       -12.5651
  65   2.0000      -0.444701       -12.1009
  66   2.0000      -0.436252       -11.8710
  67   2.0000      -0.432262       -11.7625
  68   2.0000      -0.430513       -11.7148
  69   2.0000      -0.415823       -11.3151
  70   2.0000      -0.412343       -11.2204
  71   2.0000      -0.407720       -11.0946
  72   2.0000      -0.393951       -10.7199
  73   2.0000      -0.387323       -10.5396
  74   2.0000      -0.380294       -10.3483
  75   2.0000      -0.375556       -10.2194
  76   2.0000      -0.360509        -9.8100
  77   2.0000      -0.357100        -9.7172
  78   2.0000      -0.353451        -9.6179
  79   2.0000      -0.351444        -9.5633
  80   2.0000      -0.348627        -9.4866
  81   2.0000      -0.342393        -9.3170
  82   2.0000      -0.339728        -9.2445
  83   2.0000      -0.333999        -9.0886
  84   2.0000      -0.323254        -8.7962
  85   2.0000      -0.320451        -8.7199
  86   2.0000      -0.312599        -8.5062
  87   2.0000      -0.300469        -8.1762
  88   2.0000      -0.295607        -8.0439
  89   2.0000      -0.289805        -7.8860
  90   2.0000      -0.283866        -7.7244
  91   2.0000      -0.280655        -7.6370
  92   2.0000      -0.267496        -7.2789
  93   2.0000      -0.264058        -7.1854
  94   2.0000      -0.257624        -7.0103
  95   2.0000      -0.232350        -6.3226
  96   2.0000      -0.218191        -5.9373
  97   2.0000      -0.212050        -5.7702
  98   2.0000      -0.205943        -5.6040
  99   2.0000      -0.200147        -5.4463
 100   2.0000      -0.196047        -5.3347
 101   0.0000      -0.039950        -1.0871
 102   0.0000      -0.026300        -0.7157
 103   0.0000      -0.015848        -0.4312
 104   0.0000       0.003257         0.0886
 105   0.0000       0.011934         0.3247

MULLIKEN ATOMIC CHARGES
-----------------------
   0 C :   -0.291614
   1 C :   -0.013571
   2 O :   -0.363843
   3 P :    0.611025
   4 S :   -0.324702
   5 O :   -0.375685
   6 C :   -0.019061
   7 C :   -0.322516
   8 S :   -0.066197
   9 C :   -0.382608
  10 S :   -0.066452
  11 P :    0.641574
  12 S :   -0.313031
  13 O :   -0.385501
  14 C :   -0.002115
  15 C :   -0.311487
  16 O :   -0.376870
  17 C :   -0.006887
  18 C :   -0.321963
  19 H :    0.105634
  20 H :    0.129820
  21 H :    0.115665
  22 H :    0.105062
  23 H :    0.098264
  24 H :    0.114000
  25 H :    0.110593
  26 H :    0.120657
  27 H :    0.103448
  28 H :    0.136703
  29 H :    0.207132
  30 H :    0.182684
  31 H :    0.109559
  32 H :    0.103362
  33 H :    0.120733
  34 H :    0.118176
  35 H :    0.113594
  36 H :    0.111733
  37 H :    0.115463
  38 H :    0.128328
  39 H :    0.112689
  40 H :    0.128205
Sum of atomic charges:    0.0000000

LOEWDIN ATOMIC CHARGES
----------------------
   0 C :   -0.364084
   1 C :   -0.117760
   2 O :   -0.239843
   3 P :    0.569572
   4 S :   -0.317968
   5 O :   -0.242122
   6 C :   -0.123057
   7 C :   -0.372379
   8 S :    0.087317
   9 C :   -0.486721
  10 S :    0.095390
  11 P :    0.579417
  12 S :   -0.289852
  13 O :   -0.249906
  14 C :   -0.121295
  15 C :   -0.367985
  16 O :   -0.234980
  17 C :   -0.112833
  18 C :   -0.365389
  19 H :    0.127806
  20 H :    0.124305
  21 H :    0.125735
  22 H :    0.117109
  23 H :    0.105561
  24 H :    0.108933
  25 H :    0.113696
  26 H :    0.121486
  27 H :    0.125735
  28 H :    0.123683
  29 H :    0.123288
  30 H :    0.136442
  31 H :    0.108186
  32 H :    0.117636
  33 H :    0.126037
  34 H :    0.118598
  35 H :    0.131018
  36 H :    0.119951
  37 H :    0.115245
  38 H :    0.129101
  39 H :    0.131073
  40 H :    0.123854

  Mayer bond orders larger than 0.100000
B(  0-C ,  1-C ) :   1.1705 B(  0-C , 19-H ) :   0.9397 B(  0-C , 20-H ) :   0.9309
B(  0-C , 21-H ) :   0.9458 B(  1-C ,  2-O ) :   0.9089 B(  1-C , 22-H ) :   0.9332
B(  1-C , 23-H ) :   0.9127 B(  2-O ,  3-P ) :   1.0841 B(  3-P ,  4-S ) :   1.6393
B(  3-P ,  5-O ) :   1.1112 B(  3-P ,  8-S ) :   0.9866 B(  5-O ,  6-C ) :   0.8963
B(  6-C ,  7-C ) :   1.1693 B(  6-C , 24-H ) :   0.9135 B(  6-C , 25-H ) :   0.9205
B(  7-C , 26-H ) :   0.9305 B(  7-C , 27-H ) :   0.9374 B(  7-C , 28-H ) :   0.9277
B(  8-S ,  9-C ) :   0.9828 B(  9-C , 10-S ) :   1.0010 B(  9-C , 29-H ) :   0.8449
B(  9-C , 30-H ) :   0.9093 B( 10-S , 11-P ) :   0.9691 B( 10-S , 12-S ) :   0.1264
B( 11-P , 12-S ) :   1.5980 B( 11-P , 13-O ) :   1.0658 B( 11-P , 16-O ) :   1.1147
B( 12-S , 29-H ) :   0.1012 B( 13-O , 14-C ) :   0.9154 B( 14-C , 15-C ) :   1.1665
B( 14-C , 31-H ) :   0.9127 B( 14-C , 32-H ) :   0.9329 B( 15-C , 33-H ) :   0.9432
B( 15-C , 34-H ) :   0.9391 B( 15-C , 35-H ) :   0.9378 B( 16-O , 17-C ) :   0.8997
B( 17-C , 18-C ) :   1.1694 B( 17-C , 36-H ) :   0.9310 B( 17-C , 37-H ) :   0.9254
B( 18-C , 38-H ) :   0.9426 B( 18-C , 39-H ) :   0.9362 B( 18-C , 40-H ) :   0.9337

Dispersion correction           -0.068448138
FINAL SINGLE POINT ENERGY     -2929.519107450021

DIPOLE MOMENT
-------------

Method             : SCF
Type of density    : Electron Density
Multiplicity       :   1
Irrep              :   0
Energy             : -2929.6395795311791517 Eh
Relativity type    :
Basis              : AO
                                X                 Y                 Z
Electronic contribution:     10.265488828       7.213417179      16.233388279
Nuclear contribution   :    -12.052446883      -6.835358877     -16.980361049
                        -----------------------------------------
Total Dipole Moment    :     -1.786958056       0.378058302      -0.746972770
                        -----------------------------------------
Magnitude (a.u.)       :      1.973351335
Magnitude (Debye)      :      5.015860476

Rotational constants in cm-1:             0.012067             0.005690             0.005055
Rotational constants in MHz :           361.760189           170.579854           151.531474

                             ****ORCA TERMINATED NORMALLY****
TOTAL RUN TIME: 0 days 0 hours 0 minutes 22 seconds 134 msec
