                         Program Version 6.0.0  -   RELEASE  -
|  1> ! r2scan-3c def2/J RI DEFGRID2 scfconv6 printgap
|  2> %output
|  3>     printlevel normal
|  4> end
|  5> * xyz 0 1
|  6> C 2.8070212778 -0.9008251501 3.1548787776
|  7> C 2.0668934064 0.3404361334 2.704572705
|  8> O 1.411386034 0.1566939352 1.4263873556
|  9> P 2.1681455394 -0.2088354456 0.0871569774
| 10> S 2.6670143515 -2.0847849725 -0.2249173631
| 11> O 3.3816509577 0.8138333438 0.106978546
| 12> C 4.4760169041 0.727112165 -0.8274087414
| 13> C 5.7128838411 1.293522878 -0.1589858001
| 14> S 0.8358002195 0.5832960572 -1.3623366885
| 15> C -0.1508140596 -0.921118226 -1.5673971769
| 16> S -1.1701998671 -1.2857482881 -0.120892566
| 17> P -2.5617537533 0.3070760315 -0.433373934
| 18> S -3.030624647 0.6771638408 -2.2929998377
| 19> O -1.9368660426 1.5675152079 0.2770651095
| 20> C -1.626749276 1.611430065 1.6928547166
| 21> C -0.7248918745 2.8062583731 1.921983975
| 22> O -3.7669272654 -0.0510290309 0.5408287634
| 23> C -4.8767828842 -0.874700354 0.1357914893
| 24> C -4.459991857 -2.2992216065 -0.1658016847
| 25> H 2.1354483286 -1.7561523045 3.174996924
| 26> H 3.6228495272 -1.1227030079 2.4681068556
| 27> H 3.2135553163 -0.7384188066 4.148210761
| 28> H 2.7436900242 1.192996341 2.6213272471
| 29> H 1.2437770206 0.58123953 3.3791592779
| 30> H 4.6166857373 -0.3229366075 -1.1057886992
| 31> H 4.2030094977 1.3010097337 -1.7160992586
| 32> H 6.5380468585 1.2696360591 -0.8631141863
| 33> H 5.5326552845 2.3196808934 0.1479989141
| 34> H 5.973034128 0.702534461 0.7148405064
| 35> H 0.514034494 -1.7735180743 -1.7102418954
| 36> H -0.7929474041 -0.7615154193 -2.4340292516
| 37> H -2.5675831838 1.701297566 2.23914976
| 38> H -1.1352256394 0.6735586856 1.9689772242
| 39> H -0.5129634115 2.8987620388 2.9822930759
| 40> H 0.2061184508 2.6806988891 1.3750441042
| 41> H -1.214366578 3.7102873246 1.5712271379
| 42> H -5.5577976507 -0.825059143 0.9866154707
| 43> H -5.3413681107 -0.4163044676 -0.7423181561
| 44> H -3.8966788974 -2.7150254005 0.6659355636
| 45> H -5.3457379968 -2.9017404689 -0.3394926057
| 46> H -3.8371359232 -2.3239797529 -1.0587476236
| 47> *
| 48>
| 49>                          ****END OF INPUT****

CARTESIAN COORDINATES (ANGSTROEM)
---------------------------------
  C      2.807021   -0.900825    3.154879
  C      2.066893    0.340436    2.704573
  O      1.411386    0.156694    1.426387
  P      2.168146   -0.208835    0.087157
  S      2.667014   -2.084785   -0.224917
  O      3.381651    0.813833    0.106979
  C      4.476017    0.727112   -0.827409
  C      5.712884    1.293523   -0.158986
  S      0.835800    0.583296   -1.362337
  C     -0.150814   -0.921118   -1.567397
  S     -1.170200   -1.285748   -0.120893
  P     -2.561754    0.307076   -0.433374
  S     -3.030625    0.677164   -2.293000
  O     -1.936866    1.567515    0.277065
  C     -1.626749    1.611430    1.692855
  C     -0.724892    2.806258    1.921984
  O     -3.766927   -0.051029    0.540829
  C     -4.876783   -0.874700    0.135791
  C     -4.459992   -2.299222   -0.165802
  H      2.135448   -1.756152    3.174997
  H      3.622850   -1.122703    2.468107
  H      3.213555   -0.738419    4.148211
  H      2.743690    1.192996    2.621327
  H      1.243777    0.581240    3.379159
  H      4.616686   -0.322937   -1.105789
  H      4.203009    1.301010   -1.716099
  H      6.538047    1.269636   -0.863114
  H      5.532655    2.319681    0.147999
  H      5.973034    0.702534    0.714841
  H      0.514034   -1.773518   -1.710242
  H     -0.792947   -0.761515   -2.434029
  H     -2.567583    1.701298    2.239150
  H     -1.135226    0.673559    1.968977
  H     -0.512963    2.898762    2.982293
  H      0.206118    2.680699    1.375044
  H     -1.214367    3.710287    1.571227
  H     -5.557798   -0.825059    0.986615
  H     -5.341368   -0.416304   -0.742318
  H     -3.896679   -2.715025    0.665936
  H     -5.345738   -2.901740   -0.339493
  H     -3.837136   -2.323980   -1.058748

 Total Charge           Charge          ....    0
 Multiplicity           Mult            ....    1
 Number of Electrons    NEL             ....  202
 Basis Dimension        Dim             ....  539

ORBITAL ENERGIES
----------------

  NO   OCC          E(Eh)            E(eV)
   0   2.0000     -88.571921     -2410.1645
   1   2.0000     -88.569700     -2410.1041
   2   2.0000     -88.520815     -2408.7738
   3   2.0000     -88.517425     -2408.6816
   4   2.0000     -76.917036     -2093.0190
   5   2.0000     -76.910301     -2092.8357
   6   2.0000     -19.000007      -517.0165
   7   2.0000     -18.994736      -516.8730
   8   2.0000     -18.992461      -516.8111
   9   2.0000     -18.985889      -516.6323
  10   2.0000     -10.108343      -275.0620
  11   2.0000     -10.102953      -274.9153
  12   2.0000     -10.098903      -274.8051
  13   2.0000     -10.098209      -274.7862
  14   2.0000     -10.097495      -274.7668
  15   2.0000     -10.038121      -273.1512
  16   2.0000     -10.033200      -273.0172
  17   2.0000     -10.030459      -272.9427
  18   2.0000     -10.027260      -272.8556
  19   2.0000      -7.866072      -214.0467
  20   2.0000      -7.863998      -213.9903
  21   2.0000      -7.815630      -212.6741
  22   2.0000      -7.812257      -212.5823
  23   2.0000      -6.595403      -179.4700
  24   2.0000      -6.588840      -179.2914
  25   2.0000      -5.812997      -158.1797
  26   2.0000      -5.810801      -158.1199
  27   2.0000      -5.809988      -158.0978
  28   2.0000      -5.807881      -158.0405
  29   2.0000      -5.803124      -157.9110
  30   2.0000      -5.801167      -157.8578
  31   2.0000      -5.763247      -156.8259
  32   2.0000      -5.759943      -156.7360
  33   2.0000      -5.755992      -156.6285
  34   2.0000      -5.755583      -156.6174
  35   2.0000      -5.752471      -156.5327
  36   2.0000      -5.752276      -156.5274
  37   2.0000      -4.741417      -129.0205
  38   2.0000      -4.740134      -128.9856
  39   2.0000      -4.738839      -128.9504
  40   2.0000      -4.734738      -128.8388
  41   2.0000      -4.733649      -128.8091
  42   2.0000      -4.732334      -128.7734
  43   2.0000      -1.056700       -28.7543
  44   2.0000      -1.048677       -28.5359
  45   2.0000      -1.015431       -27.6313
  46   2.0000      -1.007082       -27.4041
  47   2.0000      -0.799212       -21.7477
  48   2.0000      -0.761372       -20.7180
  49   2.0000      -0.751500       -20.4493
  50   2.0000      -0.740105       -20.1393
  51   2.0000      -0.732265       -19.9259
  52   2.0000      -0.709977       -19.3195
  53   2.0000      -0.684487       -18.6258
  54   2.0000      -0.666503       -18.1365
  55   2.0000      -0.629858       -17.1393
  56   2.0000      -0.621884       -16.9223
  57   2.0000      -0.612024       -16.6540
  58   2.0000      -0.602869       -16.4049
  59   2.0000      -0.588939       -16.0258
  60   2.0000      -0.535718       -14.5776
  61   2.0000      -0.525865       -14.3095
  62   2.0000      -0.498779       -13.5725
  63   2.0000      -0.492393       -13.3987
  64   2.0000      -0.478900       -13.0315
  65   2.0000      -0.465617       -12.6701
  66   2.0000      -0.462260       -12.5787
  67   2.0000      -0.454271       -12.3613
  68   2.0000      -0.446437       -12.1482
  69   2.0000      -0.436527       -11.8785
  70   2.0000      -0.430546       -11.7158
  71   2.0000      -0.418917       -11.3993
  72   2.0000      -0.406886       -11.0719
  73   2.0000      -0.397169       -10.8075
  74   2.0000      -0.390265       -10.6197
  75   2.0000      -0.390058       -10.6140
  76   2.0000      -0.379061       -10.3148
  77   2.0000      -0.376857       -10.2548
  78   2.0000      -0.373096       -10.1525
  79   2.0000      -0.368995       -10.0409
  80   2.0000      -0.365592        -9.9483
  81   2.0000      -0.360368        -9.8061
  82   2.0000      -0.357837        -9.7372
  83   2.0000      -0.352853        -9.6016
  84   2.0000      -0.351790        -9.5727
  85   2.0000      -0.337002        -9.1703
  86   2.0000      -0.324614        -8.8332
  87   2.0000      -0.320361        -8.7175
  88   2.0000      -0.315605        -8.5880
  89   2.0000      -0.309142        -8.4122
  90   2.0000      -0.308125        -8.3845
  91   2.0000      -0.295195        -8.0327
  92   2.0000      -0.282021        -7.6742
  93   2.0000      -0.277490        -7.5509
  94   2.0000      -0.271485        -7.3875
  95   2.0000      -0.246374        -6.7042
  96   2.0000      -0.228447        -6.2164
  97   2.0000      -0.225494        -6.1360
  98   2.0000      -0.215946        -5.8762
  99   2.0000      -0.211539        -5.7563
 100   2.0000      -0.209396        -5.6980
 101   0.0000      -0.046335        -1.2608
 102   0.0000      -0.023454        -0.6382
 103   0.0000      -0.001590        -0.0433
 104   0.0000       0.001525         0.0415
 105   0.0000       0.015722         0.4278

MULLIKEN ATOMIC CHARGES
-----------------------
   0 C :   -0.443011
   1 C :   -0.140919
   2 O :   -0.261110
   3 P :    0.671586
   4 S :   -0.471157
   5 O :   -0.307088
   6 C :   -0.141452
   7 C :   -0.450364
   8 S :   -0.123956
   9 C :   -0.236971
  10 S :   -0.162212
  11 P :    0.649873
  12 S :   -0.448951
  13 O :   -0.250231
  14 C :   -0.108610
  15 C :   -0.472954
  16 O :   -0.295658
  17 C :   -0.163181
  18 C :   -0.446724
  19 H :    0.166092
  20 H :    0.168387
  21 H :    0.146691
  22 H :    0.162302
  23 H :    0.148058
  24 H :    0.173986
  25 H :    0.153318
  26 H :    0.149584
  27 H :    0.154309
  28 H :    0.155102
  29 H :    0.215978
  30 H :    0.215330
  31 H :    0.154473
  32 H :    0.166306
  33 H :    0.141457
  34 H :    0.172225
  35 H :    0.156102
  36 H :    0.147131
  37 H :    0.173657
  38 H :    0.154369
  39 H :    0.147374
  40 H :    0.180860
Sum of atomic charges:    0.0000000

LOEWDIN ATOMIC CHARGES
----------------------
   0 C :   -0.401585
   1 C :    0.027732
   2 O :   -0.676333
   3 P :    0.380230
   4 S :   -0.135353
   5 O :   -0.672719
   6 C :    0.022622
   7 C :   -0.387109
   8 S :    0.172893
   9 C :   -0.427833
  10 S :    0.143147
  11 P :    0.380323
  12 S :   -0.106007
  13 O :   -0.654132
  14 C :    0.022361
  15 C :   -0.389263
  16 O :   -0.667506
  17 C :    0.022546
  18 C :   -0.408960
  19 H :    0.166336
  20 H :    0.165823
  21 H :    0.158161
  22 H :    0.176099
  23 H :    0.179718
  24 H :    0.183204
  25 H :    0.173770
  26 H :    0.161510
  27 H :    0.159288
  28 H :    0.159339
  29 H :    0.192161
  30 H :    0.192567
  31 H :    0.172802
  32 H :    0.180874
  33 H :    0.157645
  34 H :    0.167121
  35 H :    0.162711
  36 H :    0.179117
  37 H :    0.180174
  38 H :    0.160144
  39 H :    0.159291
  40 H :    0.167092

  Mayer bond orders larger than 0.100000
B(  0-C ,  1-C ) :   0.9348 B(  0-C , 19-H ) :   0.9685 B(  0-C , 20-H ) :   0.9545
B(  0-C , 21-H ) :   0.9629 B(  1-C ,  2-O ) :   0.7656 B(  1-C , 22-H ) :   0.9656
B(  1-C , 23-H ) :   0.9587 B(  2-O ,  3-P ) :   1.1295 B(  3-P ,  4-S ) :   1.7611
B(  3-P ,  5-O ) :   1.0755 B(  3-P ,  8-S ) :   1.0714 B(  5-O ,  6-C ) :   0.7722
B(  6-C ,  7-C ) :   0.9535 B(  6-C , 24-H ) :   0.9506 B(  6-C , 25-H ) :   0.9455
B(  7-C , 26-H ) :   0.9636 B(  7-C , 27-H ) :   0.9724 B(  7-C , 28-H ) :   0.9721
B(  8-S ,  9-C ) :   0.9213 B(  9-C , 10-S ) :   0.9101 B(  9-C , 29-H ) :   0.9031
B(  9-C , 30-H ) :   0.9030 B( 10-S , 11-P ) :   1.0029 B( 11-P , 12-S ) :   1.8344
B( 11-P , 13-O ) :   1.1662 B( 11-P , 16-O ) :   1.0364 B( 13-O , 14-C ) :   0.7381
B( 14-C , 15-C ) :   0.9196 B( 14-C , 31-H ) :   0.9446 B( 14-C , 32-H ) :   0.9532
B( 15-C , 33-H ) :   0.9685 B( 15-C , 34-H ) :   0.9718 B( 15-C , 35-H ) :   0.9667
B( 16-O , 17-C ) :   0.8195 B( 17-C , 18-C ) :   0.9182 B( 17-C , 36-H ) :   0.9617
B( 17-C , 37-H ) :   0.9688 B( 18-C , 38-H ) :   0.9676 B( 18-C , 39-H ) :   0.9563
B( 18-C , 40-H ) :   0.9626

Dispersion correction           -0.021348887
FINAL SINGLE POINT ENERGY     -2932.461610531322

DIPOLE MOMENT
-------------

Method             : SCF
Type of density    : Electron Density
Multiplicity       :   1
Irrep              :   0
Energy             : -2932.4866429131488985 Eh
Relativity type    :
Basis              : AO
                                X                 Y                 Z
Electronic contribution:     -9.405542295      -2.797801986     -16.080344898
Nuclear contribution   :     10.060136217       3.175853659      17.791825273
                        -----------------------------------------
Total Dipole Moment    :      0.654593922       0.378051672       1.711480374
                        -----------------------------------------
Magnitude (a.u.)       :      1.870984057
Magnitude (Debye)      :      4.755663534

Rotational constants in cm-1:             0.013522             0.004555             0.004415
Rotational constants in MHz :           405.392393           136.567851           132.365933

                             ****ORCA TERMINATED NORMALLY****
TOTAL RUN TIME: 0 days 0 hours 1 minutes 19 seconds 148 msec
