                         Program Version 6.0.0  -   RELEASE  -
|  1> ! r2scan-3c def2/J RI DEFGRID2 scfconv6 printgap
|  2> %output
|  3>     printlevel normal
|  4> end
|  5> %cpcm
|  6>     smd true
|  7>     smdsolvent "water"
|  8> end
|  9> * xyz 0 1
| 10> C 2.8070212778 -0.9008251501 3.1548787776
| 11> C 2.0668934064 0.3404361334 2.704572705
| 12> O 1.411386034 0.1566939352 1.4263873556
| 13> P 2.1681455394 -0.2088354456 0.0871569774
| 14> S 2.6670143515 -2.0847849725 -0.2249173631
| 15> O 3.3816509577 0.8138333438 0.106978546
| 16> C 4.4760169041 0.727112165 -0.8274087414
| 17> C 5.7128838411 1.293522878 -0.1589858001
| 18> S 0.8358002195 0.5832960572 -1.3623366885
| 19> C -0.1508140596 -0.921118226 -1.5673971769
| 20> S -1.1701998671 -1.2857482881 -0.120892566
| 21> P -2.5617537533 0.3070760315 -0.433373934
| 22> S -3.030624647 0.6771638408 -2.2929998377
| 23> O -1.9368660426 1.5675152079 0.2770651095
| 24> C -1.626749276 1.611430065 1.6928547166
| 25> C -0.7248918745 2.8062583731 1.921983975
| 26> O -3.7669272654 -0.0510290309 0.5408287634
| 27> C -4.8767828842 -0.874700354 0.1357914893
| 28> C -4.459991857 -2.2992216065 -0.1658016847
| 29> H 2.1354483286 -1.7561523045 3.174996924
| 30> H 3.6228495272 -1.1227030079 2.4681068556
| 31> H 3.2135553163 -0.7384188066 4.148210761
| 32> H 2.7436900242 1.192996341 2.6213272471
| 33> H 1.2437770206 0.58123953 3.3791592779
| 34> H 4.6166857373 -0.3229366075 -1.1057886992
| 35> H 4.2030094977 1.3010097337 -1.7160992586
| 36> H 6.5380468585 1.2696360591 -0.8631141863
| 37> H 5.5326552845 2.3196808934 0.1479989141
| 38> H 5.973034128 0.702534461 0.7148405064
| 39> H 0.514034494 -1.7735180743 -1.7102418954
| 40> H -0.7929474041 -0.7615154193 -2.4340292516
| 41> H -2.5675831838 1.701297566 2.23914976
| 42> H -1.1352256394 0.6735586856 1.9689772242
| 43> H -0.5129634115 2.8987620388 2.9822930759
| 44> H 0.2061184508 2.6806988891 1.3750441042
| 45> H -1.214366578 3.7102873246 1.5712271379
| 46> H -5.5577976507 -0.825059143 0.9866154707
| 47> H -5.3413681107 -0.4163044676 -0.7423181561
| 48> H -3.8966788974 -2.7150254005 0.6659355636
| 49> H -5.3457379968 -2.9017404689 -0.3394926057
| 50> H -3.8371359232 -2.3239797529 -1.0587476236
| 51> *
| 52>
| 53>                          ****END OF INPUT****

CARTESIAN COORDINATES (ANGSTROEM)
---------------------------------
  C      2.807021   -0.900825    3.154879
  C      2.066893    0.340436    2.704573
  O      1.411386    0.156694    1.426387
  P      2.168146   -0.208835    0.087157
  S      2.667014   -2.084785   -0.224917
  O      3.381651    0.813833    0.106979
  C      4.476017    0.727112   -0.827409
  C      5.712884    1.293523   -0.158986
  S      0.835800    0.583296   -1.362337
  C     -0.150814   -0.921118   -1.567397
  S     -1.170200   -1.285748   -0.120893
  P     -2.561754    0.307076   -0.433374
  S     -3.030625    0.677164   -2.293000
  O     -1.936866    1.567515    0.277065
  C     -1.626749    1.611430    1.692855
  C     -0.724892    2.806258    1.921984
  O     -3.766927   -0.051029    0.540829
  C     -4.876783   -0.874700    0.135791
  C     -4.459992   -2.299222   -0.165802
  H      2.135448   -1.756152    3.174997
  H      3.622850   -1.122703    2.468107
  H      3.213555   -0.738419    4.148211
  H      2.743690    1.192996    2.621327
  H      1.243777    0.581240    3.379159
  H      4.616686   -0.322937   -1.105789
  H      4.203009    1.301010   -1.716099
  H      6.538047    1.269636   -0.863114
  H      5.532655    2.319681    0.147999
  H      5.973034    0.702534    0.714841
  H      0.514034   -1.773518   -1.710242
  H     -0.792947   -0.761515   -2.434029
  H     -2.567583    1.701298    2.239150
  H     -1.135226    0.673559    1.968977
  H     -0.512963    2.898762    2.982293
  H      0.206118    2.680699    1.375044
  H     -1.214367    3.710287    1.571227
  H     -5.557798   -0.825059    0.986615
  H     -5.341368   -0.416304   -0.742318
  H     -3.896679   -2.715025    0.665936
  H     -5.345738   -2.901740   -0.339493
  H     -3.837136   -2.323980   -1.058748

 Total Charge           Charge          ....    0
 Multiplicity           Mult            ....    1
 Number of Electrons    NEL             ....  202
 Basis Dimension        Dim             ....  539

ORBITAL ENERGIES
----------------

  NO   OCC          E(Eh)            E(eV)
   0   2.0000     -88.577754     -2410.3232
   1   2.0000     -88.576604     -2410.2919
   2   2.0000     -88.530803     -2409.0456
   3   2.0000     -88.527217     -2408.9480
   4   2.0000     -76.920191     -2093.1048
   5   2.0000     -76.919726     -2093.0922
   6   2.0000     -18.997690      -516.9534
   7   2.0000     -18.996571      -516.9230
   8   2.0000     -18.993248      -516.8325
   9   2.0000     -18.992206      -516.8042
  10   2.0000     -10.101813      -274.8843
  11   2.0000     -10.091414      -274.6013
  12   2.0000     -10.090959      -274.5890
  13   2.0000     -10.090748      -274.5832
  14   2.0000     -10.090163      -274.5673
  15   2.0000     -10.019607      -272.6474
  16   2.0000     -10.019542      -272.6456
  17   2.0000     -10.018667      -272.6218
  18   2.0000     -10.018404      -272.6146
  19   2.0000      -7.872034      -214.2089
  20   2.0000      -7.870897      -214.1780
  21   2.0000      -7.825983      -212.9558
  22   2.0000      -7.822351      -212.8570
  23   2.0000      -6.598529      -179.5551
  24   2.0000      -6.598307      -179.5491
  25   2.0000      -5.818895      -158.3402
  26   2.0000      -5.817710      -158.3079
  27   2.0000      -5.815934      -158.2596
  28   2.0000      -5.814800      -158.2287
  29   2.0000      -5.809160      -158.0753
  30   2.0000      -5.808046      -158.0450
  31   2.0000      -5.773560      -157.1066
  32   2.0000      -5.769892      -157.0068
  33   2.0000      -5.766159      -156.9052
  34   2.0000      -5.766078      -156.9030
  35   2.0000      -5.762674      -156.8103
  36   2.0000      -5.762358      -156.8017
  37   2.0000      -4.744449      -129.1030
  38   2.0000      -4.744138      -129.0946
  39   2.0000      -4.743280      -129.0712
  40   2.0000      -4.743091      -129.0661
  41   2.0000      -4.742097      -129.0390
  42   2.0000      -4.741929      -129.0344
  43   2.0000      -1.054124       -28.6842
  44   2.0000      -1.053712       -28.6730
  45   2.0000      -1.012076       -27.5400
  46   2.0000      -1.011638       -27.5281
  47   2.0000      -0.804026       -21.8787
  48   2.0000      -0.756950       -20.5977
  49   2.0000      -0.745610       -20.2891
  50   2.0000      -0.725919       -19.7533
  51   2.0000      -0.725477       -19.7412
  52   2.0000      -0.709806       -19.3148
  53   2.0000      -0.688736       -18.7415
  54   2.0000      -0.674252       -18.3473
  55   2.0000      -0.626858       -17.0577
  56   2.0000      -0.617895       -16.8138
  57   2.0000      -0.599729       -16.3195
  58   2.0000      -0.598678       -16.2909
  59   2.0000      -0.589201       -16.0330
  60   2.0000      -0.530202       -14.4275
  61   2.0000      -0.523171       -14.2362
  62   2.0000      -0.491229       -13.3670
  63   2.0000      -0.490335       -13.3427
  64   2.0000      -0.477376       -12.9901
  65   2.0000      -0.461142       -12.5483
  66   2.0000      -0.452456       -12.3120
  67   2.0000      -0.450501       -12.2588
  68   2.0000      -0.441577       -12.0159
  69   2.0000      -0.433774       -11.8036
  70   2.0000      -0.425571       -11.5804
  71   2.0000      -0.413257       -11.2453
  72   2.0000      -0.407244       -11.0817
  73   2.0000      -0.392955       -10.6928
  74   2.0000      -0.390017       -10.6129
  75   2.0000      -0.384457       -10.4616
  76   2.0000      -0.379264       -10.3203
  77   2.0000      -0.374161       -10.1814
  78   2.0000      -0.360808        -9.8181
  79   2.0000      -0.359056        -9.7704
  80   2.0000      -0.353917        -9.6306
  81   2.0000      -0.350756        -9.5446
  82   2.0000      -0.349459        -9.5093
  83   2.0000      -0.348613        -9.4863
  84   2.0000      -0.345006        -9.3881
  85   2.0000      -0.333623        -9.0784
  86   2.0000      -0.321800        -8.7566
  87   2.0000      -0.315790        -8.5931
  88   2.0000      -0.312956        -8.5160
  89   2.0000      -0.306562        -8.3420
  90   2.0000      -0.300664        -8.1815
  91   2.0000      -0.288113        -7.8399
  92   2.0000      -0.282092        -7.6761
  93   2.0000      -0.278919        -7.5898
  94   2.0000      -0.274628        -7.4730
  95   2.0000      -0.252853        -6.8805
  96   2.0000      -0.238226        -6.4825
  97   2.0000      -0.235966        -6.4210
  98   2.0000      -0.226121        -6.1531
  99   2.0000      -0.222964        -6.0672
 100   2.0000      -0.216814        -5.8998
 101   0.0000      -0.053333        -1.4513
 102   0.0000      -0.032167        -0.8753
 103   0.0000      -0.008256        -0.2247
 104   0.0000      -0.003549        -0.0966
 105   0.0000       0.014784         0.4023

MULLIKEN ATOMIC CHARGES
-----------------------
   0 C :   -0.492489
   1 C :   -0.131283
   2 O :   -0.287379
   3 P :    0.711116
   4 S :   -0.522327
   5 O :   -0.323479
   6 C :   -0.133875
   7 C :   -0.489448
   8 S :   -0.150109
   9 C :   -0.242705
  10 S :   -0.169239
  11 P :    0.664689
  12 S :   -0.501051
  13 O :   -0.282078
  14 C :   -0.107588
  15 C :   -0.505519
  16 O :   -0.314792
  17 C :   -0.156226
  18 C :   -0.483253
  19 H :    0.171480
  20 H :    0.169609
  21 H :    0.172368
  22 H :    0.178695
  23 H :    0.179048
  24 H :    0.171915
  25 H :    0.172814
  26 H :    0.169909
  27 H :    0.166603
  28 H :    0.166809
  29 H :    0.234222
  30 H :    0.230125
  31 H :    0.174971
  32 H :    0.177529
  33 H :    0.173379
  34 H :    0.170471
  35 H :    0.165975
  36 H :    0.175804
  37 H :    0.179213
  38 H :    0.168933
  39 H :    0.172780
  40 H :    0.174383
Sum of atomic charges:    0.0000000

LOEWDIN ATOMIC CHARGES
----------------------
   0 C :   -0.405709
   1 C :    0.036002
   2 O :   -0.684526
   3 P :    0.386617
   4 S :   -0.168412
   5 O :   -0.675729
   6 C :    0.027122
   7 C :   -0.390387
   8 S :    0.156451
   9 C :   -0.424614
  10 S :    0.142249
  11 P :    0.382690
  12 S :   -0.145497
  13 O :   -0.677130
  14 C :    0.029006
  15 C :   -0.391590
  16 O :   -0.672752
  17 C :    0.028642
  18 C :   -0.411378
  19 H :    0.164007
  20 H :    0.163084
  21 H :    0.168264
  22 H :    0.183475
  23 H :    0.192333
  24 H :    0.182633
  25 H :    0.181157
  26 H :    0.169128
  27 H :    0.163175
  28 H :    0.162456
  29 H :    0.197085
  30 H :    0.196490
  31 H :    0.182290
  32 H :    0.185480
  33 H :    0.171061
  34 H :    0.164965
  35 H :    0.164277
  36 H :    0.191529
  37 H :    0.181669
  38 H :    0.163752
  39 H :    0.168651
  40 H :    0.161984

  Mayer bond orders larger than 0.100000
B(  0-C ,  1-C ) :   0.9134 B(  0-C , 19-H ) :   0.9716 B(  0-C , 20-H ) :   0.9566
B(  0-C , 21-H ) :   0.9563 B(  1-C ,  2-O ) :   0.7559 B(  1-C , 22-H ) :   0.9590
B(  1-C , 23-H ) :   0.9492 B(  2-O ,  3-P ) :   1.1493 B(  3-P ,  4-S ) :   1.7155
B(  3-P ,  5-O ) :   1.0909 B(  3-P ,  8-S ) :   1.0717 B(  5-O ,  6-C ) :   0.7624
B(  6-C ,  7-C ) :   0.9520 B(  6-C , 24-H ) :   0.9492 B(  6-C , 25-H ) :   0.9373
B(  7-C , 26-H ) :   0.9585 B(  7-C , 27-H ) :   0.9690 B(  7-C , 28-H ) :   0.9688
B(  8-S ,  9-C ) :   0.9094 B(  9-C , 10-S ) :   0.8979 B(  9-C , 29-H ) :   0.8997
B(  9-C , 30-H ) :   0.9005 B( 10-S , 11-P ) :   1.0114 B( 11-P , 12-S ) :   1.8130
B( 11-P , 13-O ) :   1.1741 B( 11-P , 16-O ) :   1.0494 B( 13-O , 14-C ) :   0.7276
B( 14-C , 15-C ) :   0.9181 B( 14-C , 31-H ) :   0.9346 B( 14-C , 32-H ) :   0.9435
B( 15-C , 33-H ) :   0.9598 B( 15-C , 34-H ) :   0.9697 B( 15-C , 35-H ) :   0.9669
B( 16-O , 17-C ) :   0.8068 B( 17-C , 18-C ) :   0.9059 B( 17-C , 36-H ) :   0.9506
B( 17-C , 37-H ) :   0.9674 B( 18-C , 38-H ) :   0.9647 B( 18-C , 39-H ) :   0.9509
B( 18-C , 40-H ) :   0.9645

Dispersion correction           -0.021348887
FINAL SINGLE POINT ENERGY     -2932.472037231362

DIPOLE MOMENT
-------------

Method             : SCF
Type of density    : Electron Density
Multiplicity       :   1
Irrep              :   0
Energy             : -2932.4970696131886143 Eh
Relativity type    :
Basis              : AO
                                X                 Y                 Z
Electronic contribution:     -9.281880603      -2.744133562     -15.389473330
Nuclear contribution   :     10.060136217       3.175853659      17.791825273
                        -----------------------------------------
Total Dipole Moment    :      0.778255615       0.431720096       2.402351943
                        -----------------------------------------
Magnitude (a.u.)       :      2.561905326
Magnitude (Debye)      :      6.511845834

Rotational constants in cm-1:             0.013522             0.004555             0.004415
Rotational constants in MHz :           405.392393           136.567851           132.365933

                             ****ORCA TERMINATED NORMALLY****
TOTAL RUN TIME: 0 days 0 hours 1 minutes 56 seconds 403 msec
