                         Program Version 6.0.0  -   RELEASE  -
|  1> ! pbe def2-sv(p) def2/J RI DEFGRID1 loosescf d4 GCP(DFT/SV(P)) printgap
|  2> %output
|  3>     printlevel normal
|  4> end
|  5> * xyz 0 1
|  6> C 3.1450524247 -2.649862358 -1.5878241889
|  7> C 4.3006276904 -1.8160636073 -1.0787152263
|  8> O 3.9755205712 -0.4047308328 -1.0005478108
|  9> P 2.8300091789 0.2260934061 -0.1281123639
| 10> S 3.1369868272 2.1267361846 0.2295535924
| 11> O 2.8498784069 -0.7137835056 1.1580125457
| 12> C 2.1089891074 -0.427852607 2.3593428917
| 13> C 0.9716538238 -1.4168715842 2.5230939919
| 14> S 1.0190678725 -0.1790924594 -1.1991412615
| 15> C 0.1473155104 1.3705541395 -0.8851678615
| 16> S -0.7822965369 1.3696901686 0.6722993461
| 17> P -2.3470055873 0.1274207212 -0.015020714
| 18> S -2.9917300976 0.4396372004 -1.8457878704
| 19> O -3.4546108343 0.2074134031 1.1199194187
| 20> C -4.5129258438 1.1800309682 1.0989284257
| 21> C -3.9972879823 2.5892987623 1.3084002975
| 22> O -1.6980214831 -1.2910433837 0.2578982638
| 23> C -2.1425674391 -2.4855868198 -0.4180198546
| 24> C -3.5382165243 -2.8857452623 0.0111376438
| 25> H 2.7983046209 -2.2751843826 -2.5476906959
| 26> H 3.4719632778 -3.6788015958 -1.7015265104
| 27> H 2.3173500277 -2.6164520818 -0.8816835066
| 28> H 5.1468815353 -1.8358140697 -1.7669378864
| 29> H 4.6168153849 -2.1466445644 -0.0877739185
| 30> H 2.8327518169 -0.5229047633 3.1716129953
| 31> H 1.7439790232 0.6039855148 2.3257031076
| 32> H 0.2531548155 -1.3162807563 1.7131961426
| 33> H 1.359365398 -2.4316725848 2.527506353
| 34> H 0.4660409017 -1.2208935097 3.4630485986
| 35> H -0.5463335719 1.5191757226 -1.7130484709
| 36> H 0.8729935987 2.1829509017 -0.8198327366
| 37> H -5.0362008535 1.1021577068 0.1403388076
| 38> H -5.1725816986 0.8676770297 1.909519672
| 39> H -4.8370815079 3.2700598815 1.4045462968
| 40> H -3.3860929086 2.6391549072 2.2060987088
| 41> H -3.391567108 2.8959057784 0.4562920239
| 42> H -2.1016588217 -2.3072883255 -1.4971196995
| 43> H -1.4013667367 -3.2354268303 -0.1393459485
| 44> H -3.5890462358 -2.9684497195 1.0935622135
| 45> H -4.2560594306 -2.1356043903 -0.3187608621
| 46> H -3.7942320884 -3.8398172358 -0.4388074906
| 47> *
| 48>
| 49>                          ****END OF INPUT****

CARTESIAN COORDINATES (ANGSTROEM)
---------------------------------
  C      3.145052   -2.649862   -1.587824
  C      4.300628   -1.816064   -1.078715
  O      3.975521   -0.404731   -1.000548
  P      2.830009    0.226093   -0.128112
  S      3.136987    2.126736    0.229554
  O      2.849878   -0.713784    1.158013
  C      2.108989   -0.427853    2.359343
  C      0.971654   -1.416872    2.523094
  S      1.019068   -0.179092   -1.199141
  C      0.147316    1.370554   -0.885168
  S     -0.782297    1.369690    0.672299
  P     -2.347006    0.127421   -0.015021
  S     -2.991730    0.439637   -1.845788
  O     -3.454611    0.207413    1.119919
  C     -4.512926    1.180031    1.098928
  C     -3.997288    2.589299    1.308400
  O     -1.698021   -1.291043    0.257898
  C     -2.142567   -2.485587   -0.418020
  C     -3.538217   -2.885745    0.011138
  H      2.798305   -2.275184   -2.547691
  H      3.471963   -3.678802   -1.701527
  H      2.317350   -2.616452   -0.881684
  H      5.146882   -1.835814   -1.766938
  H      4.616815   -2.146645   -0.087774
  H      2.832752   -0.522905    3.171613
  H      1.743979    0.603986    2.325703
  H      0.253155   -1.316281    1.713196
  H      1.359365   -2.431673    2.527506
  H      0.466041   -1.220894    3.463049
  H     -0.546334    1.519176   -1.713048
  H      0.872994    2.182951   -0.819833
  H     -5.036201    1.102158    0.140339
  H     -5.172582    0.867677    1.909520
  H     -4.837082    3.270060    1.404546
  H     -3.386093    2.639155    2.206099
  H     -3.391567    2.895906    0.456292
  H     -2.101659   -2.307288   -1.497120
  H     -1.401367   -3.235427   -0.139346
  H     -3.589046   -2.968450    1.093562
  H     -4.256059   -2.135604   -0.318761
  H     -3.794232   -3.839817   -0.438807

 Total Charge           Charge          ....    0
 Multiplicity           Mult            ....    1
 Number of Electrons    NEL             ....  202
 Basis Dimension        Dim             ....  334

ORBITAL ENERGIES
----------------

  NO   OCC          E(Eh)            E(eV)
   0   2.0000     -88.045037     -2395.8273
   1   2.0000     -88.039454     -2395.6753
   2   2.0000     -87.994689     -2394.4572
   3   2.0000     -87.984251     -2394.1732
   4   2.0000     -76.431464     -2079.8059
   5   2.0000     -76.426251     -2079.6640
   6   2.0000     -18.799526      -511.5611
   7   2.0000     -18.795871      -511.4616
   8   2.0000     -18.793798      -511.4053
   9   2.0000     -18.791283      -511.3368
  10   2.0000      -9.960147      -271.0294
  11   2.0000      -9.957515      -270.9578
  12   2.0000      -9.955677      -270.9077
  13   2.0000      -9.949480      -270.7391
  14   2.0000      -9.948546      -270.7137
  15   2.0000      -9.893436      -269.2141
  16   2.0000      -9.888156      -269.0704
  17   2.0000      -9.887439      -269.0509
  18   2.0000      -9.878141      -268.7979
  19   2.0000      -7.689984      -209.2551
  20   2.0000      -7.684150      -209.0963
  21   2.0000      -7.639491      -207.8811
  22   2.0000      -7.629505      -207.6094
  23   2.0000      -6.429168      -174.9466
  24   2.0000      -6.423690      -174.7975
  25   2.0000      -5.717727      -155.5873
  26   2.0000      -5.714657      -155.5037
  27   2.0000      -5.712044      -155.4326
  28   2.0000      -5.708649      -155.3402
  29   2.0000      -5.706930      -155.2935
  30   2.0000      -5.701213      -155.1379
  31   2.0000      -5.668237      -154.2406
  32   2.0000      -5.660195      -154.0217
  33   2.0000      -5.659791      -154.0108
  34   2.0000      -5.658489      -153.9753
  35   2.0000      -5.649970      -153.7435
  36   2.0000      -5.649700      -153.7361
  37   2.0000      -4.651619      -126.5770
  38   2.0000      -4.650890      -126.5572
  39   2.0000      -4.649733      -126.5257
  40   2.0000      -4.646635      -126.4414
  41   2.0000      -4.645190      -126.4021
  42   2.0000      -4.644065      -126.3714
  43   2.0000      -0.993213       -27.0267
  44   2.0000      -0.988641       -26.9023
  45   2.0000      -0.952563       -25.9206
  46   2.0000      -0.943737       -25.6804
  47   2.0000      -0.763397       -20.7731
  48   2.0000      -0.724084       -19.7033
  49   2.0000      -0.712478       -19.3875
  50   2.0000      -0.692177       -18.8351
  51   2.0000      -0.690457       -18.7883
  52   2.0000      -0.677607       -18.4386
  53   2.0000      -0.653090       -17.7715
  54   2.0000      -0.637446       -17.3458
  55   2.0000      -0.606408       -16.5012
  56   2.0000      -0.595755       -16.2113
  57   2.0000      -0.577420       -15.7124
  58   2.0000      -0.575639       -15.6639
  59   2.0000      -0.557421       -15.1682
  60   2.0000      -0.501282       -13.6406
  61   2.0000      -0.496451       -13.5091
  62   2.0000      -0.479132       -13.0378
  63   2.0000      -0.475965       -12.9517
  64   2.0000      -0.459705       -12.5092
  65   2.0000      -0.449049       -12.2192
  66   2.0000      -0.444762       -12.1026
  67   2.0000      -0.440212       -11.9788
  68   2.0000      -0.427039       -11.6203
  69   2.0000      -0.425519       -11.5789
  70   2.0000      -0.412528       -11.2255
  71   2.0000      -0.399201       -10.8628
  72   2.0000      -0.393152       -10.6982
  73   2.0000      -0.387898       -10.5552
  74   2.0000      -0.385193       -10.4816
  75   2.0000      -0.377317       -10.2673
  76   2.0000      -0.367953       -10.0125
  77   2.0000      -0.360596        -9.8123
  78   2.0000      -0.358887        -9.7658
  79   2.0000      -0.353235        -9.6120
  80   2.0000      -0.351101        -9.5539
  81   2.0000      -0.349749        -9.5171
  82   2.0000      -0.344455        -9.3731
  83   2.0000      -0.340566        -9.2673
  84   2.0000      -0.331314        -9.0155
  85   2.0000      -0.324104        -8.8193
  86   2.0000      -0.312365        -8.4999
  87   2.0000      -0.300213        -8.1692
  88   2.0000      -0.299153        -8.1404
  89   2.0000      -0.291856        -7.9418
  90   2.0000      -0.287546        -7.8245
  91   2.0000      -0.279592        -7.6081
  92   2.0000      -0.276490        -7.5237
  93   2.0000      -0.269183        -7.3248
  94   2.0000      -0.255795        -6.9605
  95   2.0000      -0.235236        -6.4011
  96   2.0000      -0.220464        -5.9991
  97   2.0000      -0.215663        -5.8685
  98   2.0000      -0.207236        -5.6392
  99   2.0000      -0.202183        -5.5017
 100   2.0000      -0.199282        -5.4227
 101   0.0000      -0.044955        -1.2233
 102   0.0000      -0.027881        -0.7587
 103   0.0000      -0.006675        -0.1816
 104   0.0000      -0.000411        -0.0112
 105   0.0000       0.010142         0.2760

MULLIKEN ATOMIC CHARGES
-----------------------
   0 C :   -0.342395
   1 C :    0.009998
   2 O :   -0.363259
   3 P :    0.611789
   4 S :   -0.309918
   5 O :   -0.385913
   6 C :   -0.003932
   7 C :   -0.322191
   8 S :   -0.110463
   9 C :   -0.359949
  10 S :   -0.076922
  11 P :    0.611933
  12 S :   -0.331942
  13 O :   -0.370643
  14 C :   -0.005801
  15 C :   -0.317988
  16 O :   -0.355401
  17 C :    0.001047
  18 C :   -0.309446
  19 H :    0.133090
  20 H :    0.118628
  21 H :    0.133551
  22 H :    0.113265
  23 H :    0.112287
  24 H :    0.104609
  25 H :    0.104196
  26 H :    0.154866
  27 H :    0.103220
  28 H :    0.105551
  29 H :    0.192300
  30 H :    0.197306
  31 H :    0.112403
  32 H :    0.107285
  33 H :    0.115682
  34 H :    0.120038
  35 H :    0.129867
  36 H :    0.113316
  37 H :    0.105031
  38 H :    0.117880
  39 H :    0.123310
  40 H :    0.113715
Sum of atomic charges:   -0.0000000

LOEWDIN ATOMIC CHARGES
----------------------
   0 C :   -0.374150
   1 C :   -0.106264
   2 O :   -0.236460
   3 P :    0.572401
   4 S :   -0.303383
   5 O :   -0.251698
   6 C :   -0.116361
   7 C :   -0.369424
   8 S :    0.073975
   9 C :   -0.492563
  10 S :    0.099783
  11 P :    0.574994
  12 S :   -0.320163
  13 O :   -0.241740
  14 C :   -0.118746
  15 C :   -0.369505
  16 O :   -0.233011
  17 C :   -0.116454
  18 C :   -0.364872
  19 H :    0.129537
  20 H :    0.134292
  21 H :    0.119173
  22 H :    0.124056
  23 H :    0.116206
  24 H :    0.117377
  25 H :    0.102951
  26 H :    0.122261
  27 H :    0.120155
  28 H :    0.128969
  29 H :    0.128387
  30 H :    0.127994
  31 H :    0.111310
  32 H :    0.119685
  33 H :    0.132499
  34 H :    0.125351
  35 H :    0.122608
  36 H :    0.111641
  37 H :    0.118264
  38 H :    0.126995
  39 H :    0.122738
  40 H :    0.131192

  Mayer bond orders larger than 0.100000
B(  0-C ,  1-C ) :   1.1700 B(  0-C , 19-H ) :   0.9403 B(  0-C , 20-H ) :   0.9348
B(  0-C , 21-H ) :   0.9312 B(  1-C ,  2-O ) :   0.8972 B(  1-C , 22-H ) :   0.9338
B(  1-C , 23-H ) :   0.9276 B(  2-O ,  3-P ) :   1.1482 B(  3-P ,  4-S ) :   1.6470
B(  3-P ,  5-O ) :   1.0723 B(  3-P ,  8-S ) :   0.9366 B(  4-S ,  8-S ) :   0.1161
B(  4-S , 30-H ) :   0.1089 B(  5-O ,  6-C ) :   0.9007 B(  6-C ,  7-C ) :   1.1661
B(  6-C , 24-H ) :   0.9355 B(  6-C , 25-H ) :   0.9023 B(  7-C , 26-H ) :   0.9188
B(  7-C , 27-H ) :   0.9458 B(  7-C , 28-H ) :   0.9401 B(  8-S ,  9-C ) :   1.0170
B(  9-C , 10-S ) :   0.9974 B(  9-C , 29-H ) :   0.8693 B(  9-C , 30-H ) :   0.8546
B( 10-S , 11-P ) :   0.9660 B( 10-S , 12-S ) :   0.1083 B( 11-P , 12-S ) :   1.5884
B( 11-P , 13-O ) :   1.1128 B( 11-P , 16-O ) :   1.1189 B( 13-O , 14-C ) :   0.9057
B( 14-C , 15-C ) :   1.1662 B( 14-C , 31-H ) :   0.9167 B( 14-C , 32-H ) :   0.9336
B( 15-C , 33-H ) :   0.9375 B( 15-C , 34-H ) :   0.9445 B( 15-C , 35-H ) :   0.9351
B( 16-O , 17-C ) :   0.9007 B( 17-C , 18-C ) :   1.1640 B( 17-C , 36-H ) :   0.9176
B( 17-C , 37-H ) :   0.9336 B( 18-C , 38-H ) :   0.9459 B( 18-C , 39-H ) :   0.9364
B( 18-C , 40-H ) :   0.9389

Dispersion correction           -0.065233926
FINAL SINGLE POINT ENERGY     -2929.522561138352

DIPOLE MOMENT
-------------

Method             : SCF
Type of density    : Electron Density
Multiplicity       :   1
Irrep              :   0
Energy             : -2929.6432994596202661 Eh
Relativity type    :
Basis              : AO
                                X                 Y                 Z
Electronic contribution:     10.608252372      15.188202242      -7.458237597
Nuclear contribution   :    -11.331247482     -16.828489801       8.186089818
                        -----------------------------------------
Total Dipole Moment    :     -0.722995110      -1.640287559       0.727852220
                        -----------------------------------------
Magnitude (a.u.)       :      1.934692239
Magnitude (Debye)      :      4.917596864

Rotational constants in cm-1:             0.012625             0.004821             0.004392
Rotational constants in MHz :           378.480890           144.542503           131.663309

                             ****ORCA TERMINATED NORMALLY****
TOTAL RUN TIME: 0 days 0 hours 0 minutes 21 seconds 356 msec
