                         Program Version 6.0.0  -   RELEASE  -
|  1> ! pbe def2-sv(p) def2/J RI DEFGRID1 loosescf d4 GCP(DFT/SV(P)) printgap
|  2> %output
|  3>     printlevel normal
|  4> end
|  5> * xyz 0 1
|  6> C 5.7019715596 1.4371147702 -0.2591454946
|  7> C 4.4632706934 0.8237209902 -0.8791343329
|  8> O 3.4897789088 0.6403100047 0.1714132202
|  9> P 1.9742501889 0.3308649011 -0.1695421745
| 10> S 1.0899755296 1.5972391336 -1.3768174735
| 11> O 1.290078638 0.3219305115 1.2488794038
| 12> C 1.8925663752 -0.128349194 2.4916396368
| 13> C 2.3065626804 -1.5835396586 2.4566315149
| 14> S 2.0369274894 -1.6501643052 -0.9492959824
| 15> C 0.2792310065 -1.7981915154 -1.3150903677
| 16> S -0.7339698433 -1.9534943935 0.1982881364
| 17> P -2.1100665811 -0.3874653383 -0.0524474106
| 18> S -2.3552719419 0.2834940313 -1.8821566789
| 19> O -1.7871659211 0.727815922 1.040563376
| 20> C -1.5448488813 2.1166406182 0.7727368197
| 21> C -2.6458935915 2.9527340692 1.3937746459
| 22> O -3.3006772892 -1.1900823287 0.6270373161
| 23> C -4.4803062469 -0.5671546432 1.1721274229
| 24> C -5.4035412923 -0.0466454118 0.0884952986
| 25> H 6.0963381293 0.7815316622 0.5114979633
| 26> H 6.4522426256 1.5763386129 -1.0303776705
| 27> H 5.4613299949 2.3995711638 0.1835361645
| 28> H 4.6752113517 -0.1537420626 -1.3198412833
| 29> H 4.0295403759 1.4750196911 -1.6447377664
| 30> H 2.745301399 0.5190161863 2.702396756
| 31> H 1.0998021808 0.0436186909 3.2217439114
| 32> H 3.1193504279 -1.7324971797 1.7493554115
| 33> H 2.6428602133 -1.8739114508 3.4472201729
| 34> H 1.4668483878 -2.2117137673 2.1667669446
| 35> H 0.1627389046 -2.7093585536 -1.8959219865
| 36> H -0.0621704814 -0.9253016206 -1.8805130495
| 37> H -0.5689003598 2.346323618 1.2059452303
| 38> H -1.494823446 2.2716718451 -0.3105945586
| 39> H -2.4136017724 4.0027250525 1.2484827807
| 40> H -3.5988339244 2.7323356407 0.9178603313
| 41> H -2.7193760776 2.7442768622 2.4576193865
| 42> H -4.9510439503 -1.3685198918 1.7443495847
| 43> H -4.1719617883 0.2360832794 1.846535267
| 44> H -5.672668437 -0.8493524574 -0.5932451061
| 45> H -6.3029828214 0.3565918696 0.5431869371
| 46> H -4.9112598298 0.7367581084 -0.4861968889
| 47> *
| 48>
| 49>                          ****END OF INPUT****

CARTESIAN COORDINATES (ANGSTROEM)
---------------------------------
  C      5.701972    1.437115   -0.259145
  C      4.463271    0.823721   -0.879134
  O      3.489779    0.640310    0.171413
  P      1.974250    0.330865   -0.169542
  S      1.089976    1.597239   -1.376817
  O      1.290079    0.321931    1.248879
  C      1.892566   -0.128349    2.491640
  C      2.306563   -1.583540    2.456632
  S      2.036927   -1.650164   -0.949296
  C      0.279231   -1.798192   -1.315090
  S     -0.733970   -1.953494    0.198288
  P     -2.110067   -0.387465   -0.052447
  S     -2.355272    0.283494   -1.882157
  O     -1.787166    0.727816    1.040563
  C     -1.544849    2.116641    0.772737
  C     -2.645894    2.952734    1.393775
  O     -3.300677   -1.190082    0.627037
  C     -4.480306   -0.567155    1.172127
  C     -5.403541   -0.046645    0.088495
  H      6.096338    0.781532    0.511498
  H      6.452243    1.576339   -1.030378
  H      5.461330    2.399571    0.183536
  H      4.675211   -0.153742   -1.319841
  H      4.029540    1.475020   -1.644738
  H      2.745301    0.519016    2.702397
  H      1.099802    0.043619    3.221744
  H      3.119350   -1.732497    1.749355
  H      2.642860   -1.873911    3.447220
  H      1.466848   -2.211714    2.166767
  H      0.162739   -2.709359   -1.895922
  H     -0.062170   -0.925302   -1.880513
  H     -0.568900    2.346324    1.205945
  H     -1.494823    2.271672   -0.310595
  H     -2.413602    4.002725    1.248483
  H     -3.598834    2.732336    0.917860
  H     -2.719376    2.744277    2.457619
  H     -4.951044   -1.368520    1.744350
  H     -4.171962    0.236083    1.846535
  H     -5.672668   -0.849352   -0.593245
  H     -6.302983    0.356592    0.543187
  H     -4.911260    0.736758   -0.486197

 Total Charge           Charge          ....    0
 Multiplicity           Mult            ....    1
 Number of Electrons    NEL             ....  202
 Basis Dimension        Dim             ....  334

ORBITAL ENERGIES
----------------

  NO   OCC          E(Eh)            E(eV)
   0   2.0000     -88.041137     -2395.7211
   1   2.0000     -88.035130     -2395.5577
   2   2.0000     -87.979429     -2394.0420
   3   2.0000     -87.979243     -2394.0369
   4   2.0000     -76.426512     -2079.6711
   5   2.0000     -76.419507     -2079.4805
   6   2.0000     -18.801004      -511.6013
   7   2.0000     -18.793559      -511.3987
   8   2.0000     -18.785109      -511.1688
   9   2.0000     -18.783140      -511.1152
  10   2.0000      -9.959108      -271.0011
  11   2.0000      -9.957846      -270.9668
  12   2.0000      -9.951540      -270.7952
  13   2.0000      -9.950113      -270.7563
  14   2.0000      -9.934975      -270.3444
  15   2.0000      -9.893678      -269.2207
  16   2.0000      -9.885824      -269.0069
  17   2.0000      -9.880195      -268.8538
  18   2.0000      -9.880003      -268.8486
  19   2.0000      -7.686364      -209.1566
  20   2.0000      -7.680511      -208.9973
  21   2.0000      -7.624329      -207.4686
  22   2.0000      -7.624308      -207.4680
  23   2.0000      -6.423880      -174.8027
  24   2.0000      -6.417045      -174.6167
  25   2.0000      -5.714163      -155.4903
  26   2.0000      -5.710884      -155.4011
  27   2.0000      -5.708501      -155.3362
  28   2.0000      -5.705025      -155.2416
  29   2.0000      -5.703394      -155.1973
  30   2.0000      -5.697245      -155.0299
  31   2.0000      -5.653214      -153.8318
  32   2.0000      -5.653210      -153.8317
  33   2.0000      -5.645257      -153.6153
  34   2.0000      -5.645122      -153.6116
  35   2.0000      -5.644236      -153.5875
  36   2.0000      -5.644207      -153.5867
  37   2.0000      -4.647039      -126.4524
  38   2.0000      -4.645557      -126.4120
  39   2.0000      -4.643851      -126.3656
  40   2.0000      -4.639726      -126.2534
  41   2.0000      -4.638381      -126.2168
  42   2.0000      -4.637844      -126.2021
  43   2.0000      -0.992925       -27.0189
  44   2.0000      -0.978801       -26.6345
  45   2.0000      -0.948728       -25.8162
  46   2.0000      -0.935182       -25.4476
  47   2.0000      -0.759659       -20.6714
  48   2.0000      -0.722824       -19.6691
  49   2.0000      -0.709818       -19.3151
  50   2.0000      -0.696215       -18.9450
  51   2.0000      -0.681472       -18.5438
  52   2.0000      -0.671267       -18.2661
  53   2.0000      -0.647758       -17.6264
  54   2.0000      -0.629368       -17.1260
  55   2.0000      -0.595351       -16.2003
  56   2.0000      -0.588104       -16.0031
  57   2.0000      -0.576921       -15.6988
  58   2.0000      -0.568816       -15.4783
  59   2.0000      -0.556966       -15.1558
  60   2.0000      -0.510574       -13.8934
  61   2.0000      -0.491547       -13.3757
  62   2.0000      -0.476047       -12.9539
  63   2.0000      -0.469425       -12.7737
  64   2.0000      -0.450997       -12.2723
  65   2.0000      -0.449253       -12.2248
  66   2.0000      -0.445673       -12.1274
  67   2.0000      -0.432862       -11.7788
  68   2.0000      -0.424346       -11.5471
  69   2.0000      -0.412516       -11.2251
  70   2.0000      -0.405075       -11.0226
  71   2.0000      -0.403360       -10.9760
  72   2.0000      -0.391489       -10.6530
  73   2.0000      -0.381092       -10.3700
  74   2.0000      -0.378399       -10.2968
  75   2.0000      -0.369555       -10.0561
  76   2.0000      -0.368199       -10.0192
  77   2.0000      -0.357016        -9.7149
  78   2.0000      -0.351221        -9.5572
  79   2.0000      -0.347426        -9.4539
  80   2.0000      -0.344479        -9.3738
  81   2.0000      -0.343749        -9.3539
  82   2.0000      -0.339706        -9.2439
  83   2.0000      -0.334728        -9.1084
  84   2.0000      -0.333548        -9.0763
  85   2.0000      -0.323295        -8.7973
  86   2.0000      -0.309991        -8.4353
  87   2.0000      -0.305778        -8.3206
  88   2.0000      -0.295971        -8.0538
  89   2.0000      -0.286676        -7.8008
  90   2.0000      -0.281871        -7.6701
  91   2.0000      -0.277275        -7.5450
  92   2.0000      -0.268737        -7.3127
  93   2.0000      -0.260562        -7.0903
  94   2.0000      -0.255130        -6.9424
  95   2.0000      -0.231634        -6.3031
  96   2.0000      -0.215309        -5.8589
  97   2.0000      -0.213069        -5.7979
  98   2.0000      -0.197421        -5.3721
  99   2.0000      -0.188497        -5.1293
 100   2.0000      -0.184112        -5.0099
 101   0.0000      -0.040210        -1.0942
 102   0.0000      -0.027424        -0.7463
 103   0.0000      -0.006705        -0.1825
 104   0.0000       0.012072         0.3285
 105   0.0000       0.019855         0.5403

MULLIKEN ATOMIC CHARGES
-----------------------
   0 C :   -0.280431
   1 C :   -0.014215
   2 O :   -0.386482
   3 P :    0.599472
   4 S :   -0.305239
   5 O :   -0.353781
   6 C :    0.010477
   7 C :   -0.324650
   8 S :   -0.112894
   9 C :   -0.363000
  10 S :   -0.094732
  11 P :    0.639412
  12 S :   -0.316405
  13 O :   -0.380725
  14 C :   -0.024255
  15 C :   -0.291082
  16 O :   -0.378123
  17 C :   -0.014984
  18 C :   -0.315102
  19 H :    0.114909
  20 H :    0.115507
  21 H :    0.122070
  22 H :    0.108196
  23 H :    0.110283
  24 H :    0.108366
  25 H :    0.109862
  26 H :    0.120106
  27 H :    0.111378
  28 H :    0.135743
  29 H :    0.184864
  30 H :    0.216026
  31 H :    0.105084
  32 H :    0.131791
  33 H :    0.112509
  34 H :    0.112420
  35 H :    0.109687
  36 H :    0.106360
  37 H :    0.107791
  38 H :    0.121504
  39 H :    0.107011
  40 H :    0.135272
Sum of atomic charges:   -0.0000000

LOEWDIN ATOMIC CHARGES
----------------------
   0 C :   -0.350183
   1 C :   -0.118767
   2 O :   -0.250222
   3 P :    0.562999
   4 S :   -0.295512
   5 O :   -0.230847
   6 C :   -0.105486
   7 C :   -0.372594
   8 S :    0.067093
   9 C :   -0.479900
  10 S :    0.086520
  11 P :    0.566065
  12 S :   -0.299428
  13 O :   -0.243663
  14 C :   -0.127722
  15 C :   -0.358238
  16 O :   -0.249208
  17 C :   -0.114542
  18 C :   -0.367084
  19 H :    0.125971
  20 H :    0.132851
  21 H :    0.129753
  22 H :    0.110452
  23 H :    0.112415
  24 H :    0.114087
  25 H :    0.122784
  26 H :    0.116721
  27 H :    0.130506
  28 H :    0.123665
  29 H :    0.137873
  30 H :    0.125546
  31 H :    0.110982
  32 H :    0.106118
  33 H :    0.131231
  34 H :    0.120810
  35 H :    0.120947
  36 H :    0.119868
  37 H :    0.109220
  38 H :    0.130180
  39 H :    0.127793
  40 H :    0.120945

  Mayer bond orders larger than 0.100000
B(  0-C ,  1-C ) :   1.1607 B(  0-C , 19-H ) :   0.9511 B(  0-C , 20-H ) :   0.9413
B(  0-C , 21-H ) :   0.9506 B(  1-C ,  2-O ) :   0.8987 B(  1-C , 22-H ) :   0.9291
B(  1-C , 23-H ) :   0.9102 B(  2-O ,  3-P ) :   1.0769 B(  3-P ,  4-S ) :   1.6624
B(  3-P ,  5-O ) :   1.1380 B(  3-P ,  8-S ) :   0.9429 B(  4-S ,  8-S ) :   0.1058
B(  5-O ,  6-C ) :   0.8886 B(  6-C ,  7-C ) :   1.1720 B(  6-C , 24-H ) :   0.9304
B(  6-C , 25-H ) :   0.9333 B(  7-C , 26-H ) :   0.9389 B(  7-C , 27-H ) :   0.9343
B(  7-C , 28-H ) :   0.9349 B(  8-S ,  9-C ) :   1.0060 B(  9-C , 10-S ) :   0.9971
B(  9-C , 29-H ) :   0.9116 B(  9-C , 30-H ) :   0.8417 B( 10-S , 11-P ) :   0.9674
B( 10-S , 12-S ) :   0.1143 B( 11-P , 12-S ) :   1.6273 B( 11-P , 13-O ) :   1.0989
B( 11-P , 16-O ) :   1.1062 B( 13-O , 14-C ) :   0.9052 B( 14-C , 15-C ) :   1.1529
B( 14-C , 31-H ) :   0.9270 B( 14-C , 32-H ) :   0.8977 B( 15-C , 33-H ) :   0.9414
B( 15-C , 34-H ) :   0.9413 B( 15-C , 35-H ) :   0.9463 B( 16-O , 17-C ) :   0.9178
B( 17-C , 18-C ) :   1.1637 B( 17-C , 36-H ) :   0.9355 B( 17-C , 37-H ) :   0.9214
B( 18-C , 38-H ) :   0.9450 B( 18-C , 39-H ) :   0.9380 B( 18-C , 40-H ) :   0.9302

Dispersion correction           -0.066590468
FINAL SINGLE POINT ENERGY     -2929.515580742502

DIPOLE MOMENT
-------------

Method             : SCF
Type of density    : Electron Density
Multiplicity       :   1
Irrep              :   0
Energy             : -2929.6348900997245437 Eh
Relativity type    :
Basis              : AO
                                X                 Y                 Z
Electronic contribution:     -0.318712743      -9.866898488     -12.751393437
Nuclear contribution   :      1.132624205       9.862460177      14.231093449
                        -----------------------------------------
Total Dipole Moment    :      0.813911462      -0.004438311       1.479700012
                        -----------------------------------------
Magnitude (a.u.)       :      1.688781719
Magnitude (Debye)      :      4.292541995

Rotational constants in cm-1:             0.013785             0.004946             0.004756
Rotational constants in MHz :           413.262280           148.274980           142.588444

                             ****ORCA TERMINATED NORMALLY****
TOTAL RUN TIME: 0 days 0 hours 0 minutes 21 seconds 261 msec
