                         Program Version 6.0.0  -   RELEASE  -
|  1> ! wb97x-v def2-tzvp def2/J RIJCOSX DEFGRID2 scfconv7 GCP(DFT/TZ) printgap
|  2> %output
|  3>     printlevel normal
|  4> end
|  5> * xyz 0 1
|  6> C -2.504106431846503 -0.7804721434414671 -0.002481722924507803
|  7> C -1.2284327285580756 0.008798616959249451 -0.022495527002851227
|  8> C -1.2236906769316163 1.4021897849127622 -0.09561987639100483
|  9> C -0.029595454372654328 2.1188176037443127 -0.11280309118340923
| 10> C 1.1825299361513535 1.4375547879467545 -0.055450993829416935
| 11> C 1.2261242747630352 0.043315909886380365 0.018324136042957385
| 12> C 0.007479683550887879 -0.6490719155544175 0.033785903770643944
| 13> O -0.03689990004333892 -2.027541252490656 0.1069586827969589
| 14> C 2.529666657858803 -0.7003113429011454 0.07949480620419799
| 15> H -3.3670854028049453 -0.11427922672639652 -0.07625781500564639
| 16> H -2.545835643668082 -1.4938570500844772 -0.8334789306660931
| 17> H -2.598028374962165 -1.3645791924688542 0.9205371190324589
| 18> H -2.174776170776671 1.9257772777177142 -0.14073317438768984
| 19> H -0.0438630586164904 3.2024989722111585 -0.16993555015226808
| 20> H 2.1191097137860395 1.9883611232268499 -0.0681023817232885
| 21> H 0.8632518371927461 -2.3789718362291468 0.1366182139777648
| 22> H 2.61260231176725 -1.3012910833163576 0.9940710397707002
| 23> H 2.6492670007975265 -1.3821486678767345 -0.7722335564959233
| 24> H 3.367609637978468 -0.0002937528963121636 0.06464263300727495
| 25> *
| 26>
| 27>                          ****END OF INPUT****

CARTESIAN COORDINATES (ANGSTROEM)
---------------------------------
  C     -2.504106   -0.780472   -0.002482
  C     -1.228433    0.008799   -0.022496
  C     -1.223691    1.402190   -0.095620
  C     -0.029595    2.118818   -0.112803
  C      1.182530    1.437555   -0.055451
  C      1.226124    0.043316    0.018324
  C      0.007480   -0.649072    0.033786
  O     -0.036900   -2.027541    0.106959
  C      2.529667   -0.700311    0.079495
  H     -3.367085   -0.114279   -0.076258
  H     -2.545836   -1.493857   -0.833479
  H     -2.598028   -1.364579    0.920537
  H     -2.174776    1.925777   -0.140733
  H     -0.043863    3.202499   -0.169936
  H      2.119110    1.988361   -0.068102
  H      0.863252   -2.378972    0.136618
  H      2.612602   -1.301291    0.994071
  H      2.649267   -1.382149   -0.772234
  H      3.367610   -0.000294    0.064643

 Total Charge           Charge          ....    0
 Multiplicity           Mult            ....    1
 Number of Electrons    NEL             ....   66
 Basis Dimension        Dim             ....  339

ORBITAL ENERGIES
----------------

  NO   OCC          E(Eh)            E(eV)
   0   2.0000     -21.700885      -590.5111
   1   2.0000     -12.104593      -329.3827
   2   2.0000     -12.057854      -328.1109
   3   2.0000     -12.056532      -328.0749
   4   2.0000     -12.051841      -327.9473
   5   2.0000     -12.046679      -327.8068
   6   2.0000     -12.044465      -327.7465
   7   2.0000     -12.039653      -327.6156
   8   2.0000     -12.036187      -327.5213
   9   2.0000      -1.712995       -46.6130
  10   2.0000      -1.384914       -37.6854
  11   2.0000      -1.306690       -35.5569
  12   2.0000      -1.281626       -34.8748
  13   2.0000      -1.210680       -32.9443
  14   2.0000      -1.187749       -32.3203
  15   2.0000      -1.138570       -30.9821
  16   2.0000      -1.087790       -29.6003
  17   2.0000      -1.051207       -28.6048
  18   2.0000      -1.000300       -27.2196
  19   2.0000      -0.944434       -25.6993
  20   2.0000      -0.942397       -25.6439
  21   2.0000      -0.928997       -25.2793
  22   2.0000      -0.889728       -24.2107
  23   2.0000      -0.867824       -23.6147
  24   2.0000      -0.849837       -23.1252
  25   2.0000      -0.845834       -23.0163
  26   2.0000      -0.827996       -22.5309
  27   2.0000      -0.823536       -22.4096
  28   2.0000      -0.809866       -22.0376
  29   2.0000      -0.803053       -21.8522
  30   2.0000      -0.750436       -20.4204
  31   2.0000      -0.631345       -17.1798
  32   2.0000      -0.627646       -17.0791
  33   0.0000      -0.242294        -6.5931
  34   0.0000      -0.236771        -6.4429
  35   0.0000      -0.150029        -4.0825
  36   0.0000      -0.072500        -1.9728
  37   0.0000      -0.068525        -1.8646

MULLIKEN ATOMIC CHARGES
-----------------------
   0 C :   -0.333413
   1 C :    0.036625
   2 C :   -0.173638
   3 C :   -0.131615
   4 C :   -0.186444
   5 C :    0.125283
   6 C :    0.122381
   7 O :   -0.390696
   8 C :   -0.472828
   9 H :    0.110730
  10 H :    0.122544
  11 H :    0.121686
  12 H :    0.109681
  13 H :    0.111819
  14 H :    0.107521
  15 H :    0.317696
  16 H :    0.137595
  17 H :    0.138298
  18 H :    0.126775
Sum of atomic charges:    0.0000000

LOEWDIN ATOMIC CHARGES
----------------------
   0 C :   -0.249021
   1 C :   -0.153449
   2 C :   -0.118835
   3 C :   -0.157530
   4 C :   -0.124173
   5 C :   -0.169901
   6 C :   -0.200876
   7 O :    0.072021
   8 C :   -0.265540
   9 H :    0.122662
  10 H :    0.128725
  11 H :    0.128749
  12 H :    0.143050
  13 H :    0.139926
  14 H :    0.142201
  15 H :    0.182196
  16 H :    0.124467
  17 H :    0.124649
  18 H :    0.130679

  Mayer bond orders larger than 0.100000
B(  0-C ,  1-C ) :   0.9622 B(  0-C ,  9-H ) :   0.9942 B(  0-C , 10-H ) :   0.9671
B(  0-C , 11-H ) :   0.9661 B(  1-C ,  2-C ) :   1.4314 B(  1-C ,  6-C ) :   1.3723
B(  2-C ,  3-C ) :   1.4362 B(  2-C , 12-H ) :   0.9707 B(  3-C ,  4-C ) :   1.4509
B(  3-C , 13-H ) :   0.9804 B(  4-C ,  5-C ) :   1.3898 B(  4-C , 14-H ) :   0.9657
B(  5-C ,  6-C ) :   1.3301 B(  5-C ,  8-C ) :   0.8771 B(  6-C ,  7-O ) :   1.2020
B(  7-O , 15-H ) :   0.8838 B(  8-C , 16-H ) :   0.9842 B(  8-C , 17-H ) :   0.9838
B(  8-C , 18-H ) :   0.9816

FINAL SINGLE POINT ENERGY      -386.123382676505

DIPOLE MOMENT
-------------

Method             : SCF
Type of density    : Electron Density
Multiplicity       :   1
Irrep              :   0
Energy             :  -386.1347586870049895 Eh
Relativity type    :
Basis              : AO
                                X                 Y                 Z
Electronic contribution:     -0.281752657       0.869421891      -0.049158657
Nuclear contribution   :      0.841144557      -0.987094474       0.062676158
                        -----------------------------------------
Total Dipole Moment    :      0.559391900      -0.117672583       0.013517501
                        -----------------------------------------
Magnitude (a.u.)       :      0.571794419
Magnitude (Debye)      :      1.453385910

Rotational constants in cm-1:             0.076052             0.058817             0.033581
Rotational constants in MHz :          2279.975120          1763.296001          1006.737613

                             ****ORCA TERMINATED NORMALLY****
TOTAL RUN TIME: 0 days 0 hours 3 minutes 17 seconds 976 msec
