                         Program Version 6.0.0  -   RELEASE  -
|  1> ! wb97x-v def2-tzvp def2/J RIJCOSX DEFGRID2 scfconv7 GCP(DFT/TZ) printgap
|  2> %output
|  3>     printlevel normal
|  4> end
|  5> %cpcm
|  6>     smd true
|  7>     smdsolvent "water"
|  8> end
|  9> * xyz 0 1
| 10> C -2.504106431846503 -0.7804721434414671 -0.002481722924507803
| 11> C -1.2284327285580756 0.008798616959249451 -0.022495527002851227
| 12> C -1.2236906769316163 1.4021897849127622 -0.09561987639100483
| 13> C -0.029595454372654328 2.1188176037443127 -0.11280309118340923
| 14> C 1.1825299361513535 1.4375547879467545 -0.055450993829416935
| 15> C 1.2261242747630352 0.043315909886380365 0.018324136042957385
| 16> C 0.007479683550887879 -0.6490719155544175 0.033785903770643944
| 17> O -0.03689990004333892 -2.027541252490656 0.1069586827969589
| 18> C 2.529666657858803 -0.7003113429011454 0.07949480620419799
| 19> H -3.3670854028049453 -0.11427922672639652 -0.07625781500564639
| 20> H -2.545835643668082 -1.4938570500844772 -0.8334789306660931
| 21> H -2.598028374962165 -1.3645791924688542 0.9205371190324589
| 22> H -2.174776170776671 1.9257772777177142 -0.14073317438768984
| 23> H -0.0438630586164904 3.2024989722111585 -0.16993555015226808
| 24> H 2.1191097137860395 1.9883611232268499 -0.0681023817232885
| 25> H 0.8632518371927461 -2.3789718362291468 0.1366182139777648
| 26> H 2.61260231176725 -1.3012910833163576 0.9940710397707002
| 27> H 2.6492670007975265 -1.3821486678767345 -0.7722335564959233
| 28> H 3.367609637978468 -0.0002937528963121636 0.06464263300727495
| 29> *
| 30>
| 31>                          ****END OF INPUT****

CARTESIAN COORDINATES (ANGSTROEM)
---------------------------------
  C     -2.504106   -0.780472   -0.002482
  C     -1.228433    0.008799   -0.022496
  C     -1.223691    1.402190   -0.095620
  C     -0.029595    2.118818   -0.112803
  C      1.182530    1.437555   -0.055451
  C      1.226124    0.043316    0.018324
  C      0.007480   -0.649072    0.033786
  O     -0.036900   -2.027541    0.106959
  C      2.529667   -0.700311    0.079495
  H     -3.367085   -0.114279   -0.076258
  H     -2.545836   -1.493857   -0.833479
  H     -2.598028   -1.364579    0.920537
  H     -2.174776    1.925777   -0.140733
  H     -0.043863    3.202499   -0.169936
  H      2.119110    1.988361   -0.068102
  H      0.863252   -2.378972    0.136618
  H      2.612602   -1.301291    0.994071
  H      2.649267   -1.382149   -0.772234
  H      3.367610   -0.000294    0.064643

 Total Charge           Charge          ....    0
 Multiplicity           Mult            ....    1
 Number of Electrons    NEL             ....   66
 Basis Dimension        Dim             ....  339

ORBITAL ENERGIES
----------------

  NO   OCC          E(Eh)            E(eV)
   0   2.0000     -21.699769      -590.4807
   1   2.0000     -12.105004      -329.3939
   2   2.0000     -12.055883      -328.0573
   3   2.0000     -12.053523      -327.9930
   4   2.0000     -12.044644      -327.7514
   5   2.0000     -12.044039      -327.7350
   6   2.0000     -12.039576      -327.6135
   7   2.0000     -12.038690      -327.5894
   8   2.0000     -12.034348      -327.4713
   9   2.0000      -1.712214       -46.5917
  10   2.0000      -1.385679       -37.7062
  11   2.0000      -1.304397       -35.4945
  12   2.0000      -1.281545       -34.8726
  13   2.0000      -1.203437       -32.7472
  14   2.0000      -1.185807       -32.2674
  15   2.0000      -1.135924       -30.9101
  16   2.0000      -1.086693       -29.5704
  17   2.0000      -1.049501       -28.5584
  18   2.0000      -1.001893       -27.2629
  19   2.0000      -0.945924       -25.7399
  20   2.0000      -0.942515       -25.6471
  21   2.0000      -0.926140       -25.2016
  22   2.0000      -0.885022       -24.0827
  23   2.0000      -0.864442       -23.5227
  24   2.0000      -0.838719       -22.8227
  25   2.0000      -0.835079       -22.7237
  26   2.0000      -0.826226       -22.4828
  27   2.0000      -0.815088       -22.1797
  28   2.0000      -0.803486       -21.8640
  29   2.0000      -0.800462       -21.7817
  30   2.0000      -0.751177       -20.4406
  31   2.0000      -0.631700       -17.1894
  32   2.0000      -0.630408       -17.1543
  33   0.0000      -0.244027        -6.6403
  34   0.0000      -0.237772        -6.4701
  35   0.0000      -0.147720        -4.0197
  36   0.0000      -0.072619        -1.9761
  37   0.0000      -0.043008        -1.1703

MULLIKEN ATOMIC CHARGES
-----------------------
   0 C :   -0.393585
   1 C :    0.020497
   2 C :   -0.226563
   3 C :   -0.181477
   4 C :   -0.233036
   5 C :    0.060276
   6 C :    0.153769
   7 O :   -0.460855
   8 C :   -0.460832
   9 H :    0.141800
  10 H :    0.137963
  11 H :    0.138302
  12 H :    0.155539
  13 H :    0.156562
  14 H :    0.156967
  15 H :    0.374303
  16 H :    0.155644
  17 H :    0.155812
  18 H :    0.148914
Sum of atomic charges:    0.0000000

LOEWDIN ATOMIC CHARGES
----------------------
   0 C :   -0.255910
   1 C :   -0.165594
   2 C :   -0.133009
   3 C :   -0.173109
   4 C :   -0.133399
   5 C :   -0.170674
   6 C :   -0.209588
   7 O :    0.050532
   8 C :   -0.259525
   9 H :    0.130442
  10 H :    0.130289
  11 H :    0.130625
  12 H :    0.152458
  13 H :    0.148305
  14 H :    0.152850
  15 H :    0.203613
  16 H :    0.133431
  17 H :    0.133516
  18 H :    0.134748

  Mayer bond orders larger than 0.100000
B(  0-C ,  1-C ) :   0.9529 B(  0-C ,  9-H ) :   0.9881 B(  0-C , 10-H ) :   0.9675
B(  0-C , 11-H ) :   0.9667 B(  1-C ,  2-C ) :   1.4102 B(  1-C ,  6-C ) :   1.3615
B(  2-C ,  3-C ) :   1.4163 B(  2-C , 12-H ) :   0.9754 B(  3-C ,  4-C ) :   1.4189
B(  3-C , 13-H ) :   0.9854 B(  4-C ,  5-C ) :   1.3654 B(  4-C , 14-H ) :   0.9704
B(  5-C ,  6-C ) :   1.3296 B(  5-C ,  8-C ) :   0.9300 B(  6-C ,  7-O ) :   1.1691
B(  7-O , 15-H ) :   0.8472 B(  8-C , 16-H ) :   0.9720 B(  8-C , 17-H ) :   0.9716
B(  8-C , 18-H ) :   0.9767

FINAL SINGLE POINT ENERGY      -386.131304480418

DIPOLE MOMENT
-------------

Method             : SCF
Type of density    : Electron Density
Multiplicity       :   1
Irrep              :   0
Energy             :  -386.1426804909183375 Eh
Relativity type    :
Basis              : AO
                                X                 Y                 Z
Electronic contribution:     -0.030837062       0.803919475      -0.042519817
Nuclear contribution   :      0.841144557      -0.987094474       0.062676158
                        -----------------------------------------
Total Dipole Moment    :      0.810307496      -0.183174999       0.020156341
                        -----------------------------------------
Magnitude (a.u.)       :      0.830997952
Magnitude (Debye)      :      2.112228931

Rotational constants in cm-1:             0.076052             0.058817             0.033581
Rotational constants in MHz :          2279.975120          1763.296001          1006.737613

                             ****ORCA TERMINATED NORMALLY****
TOTAL RUN TIME: 0 days 0 hours 3 minutes 22 seconds 593 msec
