                         Program Version 6.0.0  -   RELEASE  -
|  1> ! pbe def2-sv(p) def2/J RI DEFGRID1 loosescf d4 GCP(DFT/SV(P)) printgap
|  2> %output
|  3>     printlevel normal
|  4> end
|  5> * xyz 0 1
|  6> C 1.4032096335 -1.7395122884 -2.4920520808
|  7> C 2.0489362553 -0.3699065454 -2.5087285246
|  8> O 1.7904274461 0.3876563856 -1.3004755741
|  9> P 2.1819805469 -0.0510458359 0.1601422155
| 10> S 2.3629210467 1.4650240726 1.3866903915
| 11> O 3.5024586348 -0.892600355 -0.1245305239
| 12> C 4.2639588877 -1.5362946619 0.9152168304
| 13> C 5.349129751 -0.6224652776 1.4499437978
| 14> S 0.8371673311 -1.5651707959 0.8409233377
| 15> C -0.1091867404 -0.6534249508 2.0939523354
| 16> S -1.8925534782 -0.7503611671 1.8140772421
| 17> P -2.0037960341 0.2871668953 -0.0261404252
| 18> S -0.8348823841 1.8675007939 -0.153987821
| 19> O -3.5527813164 0.5891507417 -0.1792684085
| 20> C -4.1818067631 1.6748013617 0.5315956762
| 21> C -5.4571168346 2.0364693603 -0.2027080328
| 22> O -1.7795758921 -0.8616175223 -1.0915765266
| 23> C -2.5102029435 -0.9570974421 -2.338901556
| 24> C -2.1923640178 0.1992904418 -3.2631318147
| 25> H 0.3467894642 -1.655569867 -2.2505791324
| 26> H 1.5153030457 -2.1964978113 -3.4703205913
| 27> H 1.8772928776 -2.3739541571 -1.7453800204
| 28> H 1.6291789591 0.267667723 -3.2893132455
| 29> H 3.1304008679 -0.4463541273 -2.6351863421
| 30> H 3.5861411119 -1.8517237747 1.713097561
| 31> H 4.6917816547 -2.4165790593 0.4311506285
| 32> H 5.9962416935 -0.2960287909 0.6405019245
| 33> H 4.9072606091 0.2545290391 1.9176988936
| 34> H 5.9374063855 -1.1598935379 2.1865733837
| 35> H 0.2217270672 0.389873016 2.0853587275
| 36> H 0.0656224925 -1.1103676414 3.0647577703
| 37> H -4.3884579217 1.3363425064 1.5498113895
| 38> H -3.4836933825 2.5181419643 0.56813011
| 39> H -5.2293389807 2.3742007337 -1.2098628994
| 40> H -6.1108356304 1.1709973649 -0.2584398209
| 41> H -5.9610379721 2.8330614834 0.3345604922
| 42> H -2.1827708865 -1.9117654761 -2.7539850751
| 43> H -3.5763309038 -0.996089234 -2.1110470671
| 44> H -2.4938360953 1.1380365078 -2.799221562
| 45> H -1.1243611076 0.2466364787 -3.4620725056
| 46> H -2.7280486771 0.0745276607 -4.1988409083
| 47> *
| 48>
| 49>                          ****END OF INPUT****

CARTESIAN COORDINATES (ANGSTROEM)
---------------------------------
  C      1.403210   -1.739512   -2.492052
  C      2.048936   -0.369907   -2.508729
  O      1.790427    0.387656   -1.300476
  P      2.181981   -0.051046    0.160142
  S      2.362921    1.465024    1.386690
  O      3.502459   -0.892600   -0.124531
  C      4.263959   -1.536295    0.915217
  C      5.349130   -0.622465    1.449944
  S      0.837167   -1.565171    0.840923
  C     -0.109187   -0.653425    2.093952
  S     -1.892553   -0.750361    1.814077
  P     -2.003796    0.287167   -0.026140
  S     -0.834882    1.867501   -0.153988
  O     -3.552781    0.589151   -0.179268
  C     -4.181807    1.674801    0.531596
  C     -5.457117    2.036469   -0.202708
  O     -1.779576   -0.861618   -1.091577
  C     -2.510203   -0.957097   -2.338902
  C     -2.192364    0.199290   -3.263132
  H      0.346789   -1.655570   -2.250579
  H      1.515303   -2.196498   -3.470321
  H      1.877293   -2.373954   -1.745380
  H      1.629179    0.267668   -3.289313
  H      3.130401   -0.446354   -2.635186
  H      3.586141   -1.851724    1.713098
  H      4.691782   -2.416579    0.431151
  H      5.996242   -0.296029    0.640502
  H      4.907261    0.254529    1.917699
  H      5.937406   -1.159894    2.186573
  H      0.221727    0.389873    2.085359
  H      0.065622   -1.110368    3.064758
  H     -4.388458    1.336343    1.549811
  H     -3.483693    2.518142    0.568130
  H     -5.229339    2.374201   -1.209863
  H     -6.110836    1.170997   -0.258440
  H     -5.961038    2.833061    0.334560
  H     -2.182771   -1.911765   -2.753985
  H     -3.576331   -0.996089   -2.111047
  H     -2.493836    1.138037   -2.799222
  H     -1.124361    0.246636   -3.462073
  H     -2.728049    0.074528   -4.198841

 Total Charge           Charge          ....    0
 Multiplicity           Mult            ....    1
 Number of Electrons    NEL             ....  202
 Basis Dimension        Dim             ....  334

ORBITAL ENERGIES
----------------

  NO   OCC          E(Eh)            E(eV)
   0   2.0000     -88.037014     -2395.6089
   1   2.0000     -88.036104     -2395.5842
   2   2.0000     -87.977360     -2393.9857
   3   2.0000     -87.974970     -2393.9206
   4   2.0000     -76.422727     -2079.5681
   5   2.0000     -76.420495     -2079.5074
   6   2.0000     -18.796043      -511.4663
   7   2.0000     -18.790358      -511.3116
   8   2.0000     -18.787721      -511.2399
   9   2.0000     -18.783083      -511.1137
  10   2.0000      -9.957514      -270.9577
  11   2.0000      -9.954075      -270.8642
  12   2.0000      -9.952483      -270.8208
  13   2.0000      -9.951601      -270.7968
  14   2.0000      -9.947318      -270.6803
  15   2.0000      -9.890882      -269.1446
  16   2.0000      -9.887367      -269.0489
  17   2.0000      -9.885224      -268.9906
  18   2.0000      -9.876891      -268.7639
  19   2.0000      -7.682651      -209.0556
  20   2.0000      -7.680565      -208.9988
  21   2.0000      -7.622051      -207.4065
  22   2.0000      -7.620220      -207.3567
  23   2.0000      -6.420112      -174.7001
  24   2.0000      -6.417488      -174.6287
  25   2.0000      -5.710612      -155.3936
  26   2.0000      -5.708367      -155.3326
  27   2.0000      -5.707072      -155.2973
  28   2.0000      -5.705018      -155.2414
  29   2.0000      -5.699586      -155.0936
  30   2.0000      -5.697754      -155.0438
  31   2.0000      -5.650921      -153.7694
  32   2.0000      -5.649266      -153.7243
  33   2.0000      -5.642899      -153.5511
  34   2.0000      -5.642115      -153.5298
  35   2.0000      -5.640651      -153.4899
  36   2.0000      -5.640362      -153.4820
  37   2.0000      -4.643270      -126.3498
  38   2.0000      -4.641731      -126.3079
  39   2.0000      -4.640483      -126.2740
  40   2.0000      -4.640132      -126.2644
  41   2.0000      -4.639116      -126.2368
  42   2.0000      -4.637791      -126.2007
  43   2.0000      -0.989062       -26.9137
  44   2.0000      -0.983614       -26.7655
  45   2.0000      -0.944484       -25.7007
  46   2.0000      -0.937762       -25.5178
  47   2.0000      -0.757261       -20.6061
  48   2.0000      -0.718500       -19.5514
  49   2.0000      -0.708414       -19.2769
  50   2.0000      -0.693292       -18.8654
  51   2.0000      -0.687215       -18.7001
  52   2.0000      -0.671394       -18.2696
  53   2.0000      -0.646331       -17.5876
  54   2.0000      -0.627623       -17.0785
  55   2.0000      -0.591510       -16.0958
  56   2.0000      -0.586386       -15.9564
  57   2.0000      -0.574883       -15.6434
  58   2.0000      -0.573704       -15.6113
  59   2.0000      -0.559255       -15.2181
  60   2.0000      -0.506267       -13.7762
  61   2.0000      -0.496568       -13.5123
  62   2.0000      -0.476775       -12.9737
  63   2.0000      -0.469704       -12.7813
  64   2.0000      -0.450537       -12.2597
  65   2.0000      -0.446323       -12.1451
  66   2.0000      -0.440873       -11.9968
  67   2.0000      -0.436158       -11.8685
  68   2.0000      -0.421817       -11.4782
  69   2.0000      -0.417592       -11.3633
  70   2.0000      -0.408502       -11.1159
  71   2.0000      -0.398899       -10.8546
  72   2.0000      -0.394563       -10.7366
  73   2.0000      -0.389385       -10.5957
  74   2.0000      -0.380247       -10.3470
  75   2.0000      -0.367371        -9.9967
  76   2.0000      -0.356355        -9.6969
  77   2.0000      -0.355082        -9.6623
  78   2.0000      -0.352554        -9.5935
  79   2.0000      -0.350341        -9.5333
  80   2.0000      -0.347246        -9.4490
  81   2.0000      -0.341350        -9.2886
  82   2.0000      -0.339423        -9.2362
  83   2.0000      -0.336217        -9.1489
  84   2.0000      -0.329555        -8.9676
  85   2.0000      -0.319496        -8.6939
  86   2.0000      -0.311416        -8.4741
  87   2.0000      -0.303058        -8.2466
  88   2.0000      -0.294969        -8.0265
  89   2.0000      -0.291619        -7.9354
  90   2.0000      -0.286727        -7.8023
  91   2.0000      -0.274849        -7.4790
  92   2.0000      -0.270039        -7.3481
  93   2.0000      -0.256838        -6.9889
  94   2.0000      -0.251575        -6.8457
  95   2.0000      -0.232755        -6.3336
  96   2.0000      -0.217956        -5.9309
  97   2.0000      -0.208035        -5.6609
  98   2.0000      -0.193282        -5.2595
  99   2.0000      -0.184198        -5.0123
 100   2.0000      -0.179486        -4.8841
 101   0.0000      -0.040633        -1.1057
 102   0.0000      -0.029180        -0.7940
 103   0.0000      -0.001170        -0.0318
 104   0.0000       0.016694         0.4543
 105   0.0000       0.017249         0.4694

MULLIKEN ATOMIC CHARGES
-----------------------
   0 C :   -0.365491
   1 C :    0.006540
   2 O :   -0.351361
   3 P :    0.616562
   4 S :   -0.295798
   5 O :   -0.386924
   6 C :   -0.004449
   7 C :   -0.290242
   8 S :   -0.118538
   9 C :   -0.349605
  10 S :   -0.104407
  11 P :    0.616817
  12 S :   -0.292713
  13 O :   -0.392740
  14 C :   -0.008696
  15 C :   -0.285338
  16 O :   -0.371685
  17 C :   -0.004189
  18 C :   -0.316144
  19 H :    0.162883
  20 H :    0.110326
  21 H :    0.121218
  22 H :    0.114964
  23 H :    0.108198
  24 H :    0.097086
  25 H :    0.101503
  26 H :    0.110848
  27 H :    0.130531
  28 H :    0.104902
  29 H :    0.210615
  30 H :    0.176689
  31 H :    0.105002
  32 H :    0.108845
  33 H :    0.119170
  34 H :    0.115440
  35 H :    0.114676
  36 H :    0.109280
  37 H :    0.114580
  38 H :    0.128169
  39 H :    0.123976
  40 H :    0.109499
Sum of atomic charges:   -0.0000000

LOEWDIN ATOMIC CHARGES
----------------------
   0 C :   -0.377229
   1 C :   -0.106564
   2 O :   -0.228399
   3 P :    0.571197
   4 S :   -0.294139
   5 O :   -0.249301
   6 C :   -0.117401
   7 C :   -0.364389
   8 S :    0.066616
   9 C :   -0.482992
  10 S :    0.067913
  11 P :    0.559793
  12 S :   -0.292617
  13 O :   -0.250287
  14 C :   -0.120454
  15 C :   -0.351134
  16 O :   -0.244598
  17 C :   -0.110803
  18 C :   -0.364330
  19 H :    0.130321
  20 H :    0.129907
  21 H :    0.118302
  22 H :    0.120295
  23 H :    0.114119
  24 H :    0.103737
  25 H :    0.115817
  26 H :    0.124918
  27 H :    0.124666
  28 H :    0.127587
  29 H :    0.124864
  30 H :    0.134752
  31 H :    0.112130
  32 H :    0.109457
  33 H :    0.127166
  34 H :    0.125902
  35 H :    0.132376
  36 H :    0.118080
  37 H :    0.114225
  38 H :    0.124184
  39 H :    0.127323
  40 H :    0.128987

  Mayer bond orders larger than 0.100000
B(  0-C ,  1-C ) :   1.1698 B(  0-C , 19-H ) :   0.9197 B(  0-C , 20-H ) :   0.9350
B(  0-C , 21-H ) :   0.9355 B(  1-C ,  2-O ) :   0.9052 B(  1-C , 22-H ) :   0.9275
B(  1-C , 23-H ) :   0.9280 B(  2-O ,  3-P ) :   1.1365 B(  3-P ,  4-S ) :   1.6405
B(  3-P ,  5-O ) :   1.0634 B(  3-P ,  8-S ) :   0.9421 B(  4-S ,  8-S ) :   0.1219
B(  4-S , 29-H ) :   0.1010 B(  5-O ,  6-C ) :   0.9080 B(  6-C ,  7-C ) :   1.1679
B(  6-C , 24-H ) :   0.9111 B(  6-C , 25-H ) :   0.9367 B(  7-C , 26-H ) :   0.9474
B(  7-C , 27-H ) :   0.9287 B(  7-C , 28-H ) :   0.9394 B(  8-S ,  9-C ) :   0.9983
B(  9-C , 10-S ) :   1.0021 B(  9-C , 29-H ) :   0.8408 B(  9-C , 30-H ) :   0.9111
B( 10-S , 11-P ) :   0.9464 B( 10-S , 12-S ) :   0.1225 B( 11-P , 12-S ) :   1.6676
B( 11-P , 13-O ) :   1.0699 B( 11-P , 16-O ) :   1.1056 B( 13-O , 14-C ) :   0.9004
B( 14-C , 15-C ) :   1.1592 B( 14-C , 31-H ) :   0.9307 B( 14-C , 32-H ) :   0.9044
B( 15-C , 33-H ) :   0.9516 B( 15-C , 34-H ) :   0.9505 B( 15-C , 35-H ) :   0.9418
B( 16-O , 17-C ) :   0.8940 B( 17-C , 18-C ) :   1.1732 B( 17-C , 36-H ) :   0.9294
B( 17-C , 37-H ) :   0.9264 B( 18-C , 38-H ) :   0.9314 B( 18-C , 39-H ) :   0.9442
B( 18-C , 40-H ) :   0.9361

Dispersion correction           -0.066537896
FINAL SINGLE POINT ENERGY     -2929.512164474946

DIPOLE MOMENT
-------------

Method             : SCF
Type of density    : Electron Density
Multiplicity       :   1
Irrep              :   0
Energy             : -2929.6316075102809009 Eh
Relativity type    :
Basis              : AO
                                X                 Y                 Z
Electronic contribution:      2.627595220       2.596332720      14.062572771
Nuclear contribution   :     -3.338459260      -3.827121744     -14.994558244
                        -----------------------------------------
Total Dipole Moment    :     -0.710864040      -1.230789024      -0.931985473
                        -----------------------------------------
Magnitude (a.u.)       :      1.699637087
Magnitude (Debye)      :      4.320134148

Rotational constants in cm-1:             0.013817             0.005090             0.004610
Rotational constants in MHz :           414.233705           152.595352           138.199238

                             ****ORCA TERMINATED NORMALLY****
TOTAL RUN TIME: 0 days 0 hours 0 minutes 21 seconds 403 msec
