                         Program Version 6.0.0  -   RELEASE  -
|  1> ! pbe def2-sv(p) def2/J RI DEFGRID1 loosescf d4 GCP(DFT/SV(P)) printgap
|  2> %output
|  3>     printlevel normal
|  4> end
|  5> * xyz 0 1
|  6> C 3.0602323397 -0.9402778992 -3.041172344
|  7> C 3.7295663004 -1.3451785602 -1.7454837741
|  8> O 3.4404371113 -0.4518813023 -0.6551483985
|  9> P 1.9999598732 0.1179793138 -0.281388053
| 10> S 1.4380316542 1.6526228364 -1.3571834981
| 11> O 2.1886341245 0.5303324374 1.2272826195
| 12> C 2.902258068 -0.262255307 2.2122841304
| 13> C 4.3177513649 0.2515578323 2.3750137061
| 14> S 0.8613724457 -1.7044406549 -0.2518031642
| 15> C -0.1732324371 -1.556086001 1.2431456951
| 16> S -1.9429361271 -1.4964903668 0.8859272044
| 17> P -1.9528800062 0.5207219272 0.2223128922
| 18> S -0.9402955395 1.7138832406 1.4048252215
| 19> O -3.4815262754 0.8834865575 0.0085136064
| 20> C -4.3207486556 1.3763797007 1.070259496
| 21> C -4.5364260247 0.3472878032 2.1602703343
| 22> O -1.3918636435 0.5062932299 -1.2492462977
| 23> C -2.1159437788 0.1553835666 -2.4541878585
| 24> C -2.5228445693 -1.3030472691 -2.482107609
| 25> H 1.976969587 -0.9802766972 -2.9266279656
| 26> H 3.3365106288 0.0762195454 -3.3118929239
| 27> H 3.3594770581 -1.6213881545 -3.8311979628
| 28> H 4.8170194488 -1.3062653656 -1.8301299785
| 29> H 3.4143524454 -2.3498748514 -1.4493298189
| 30> H 2.3281247387 -0.1376250451 3.1329484524
| 31> H 2.8969229232 -1.310814851 1.9043172013
| 32> H 4.8120300915 -0.3128797572 3.1595483377
| 33> H 4.8680087055 0.1381714109 1.4446822855
| 34> H 4.300828569 1.3042850107 2.6437658382
| 35> H 0.1011892726 -0.6486567293 1.7834410345
| 36> H -0.0073777206 -2.4503535566 1.8375472814
| 37> H -3.8610138549 2.2808055575 1.4800972233
| 38> H -5.2526670082 1.6300485333 0.5628050845
| 39> H -5.2794513447 0.7192779553 2.8583472941
| 40> H -4.8786715592 -0.592408933 1.7343233813
| 41> H -3.6051998641 0.1732368976 2.6968094881
| 42> H -2.9849923734 0.8110241311 -2.5314662816
| 43> H -1.3993981251 0.3944816357 -3.2425770862
| 44> H -3.2702862069 -1.5041977637 -1.7173957677
| 45> H -2.943413412 -1.5291898265 -3.4569400526
| 46> H -1.6596837035 -1.9425206674 -2.3096986595
| 47> *
| 48>
| 49>                          ****END OF INPUT****

CARTESIAN COORDINATES (ANGSTROEM)
---------------------------------
  C      3.060232   -0.940278   -3.041172
  C      3.729566   -1.345179   -1.745484
  O      3.440437   -0.451881   -0.655148
  P      1.999960    0.117979   -0.281388
  S      1.438032    1.652623   -1.357183
  O      2.188634    0.530332    1.227283
  C      2.902258   -0.262255    2.212284
  C      4.317751    0.251558    2.375014
  S      0.861372   -1.704441   -0.251803
  C     -0.173232   -1.556086    1.243146
  S     -1.942936   -1.496490    0.885927
  P     -1.952880    0.520722    0.222313
  S     -0.940296    1.713883    1.404825
  O     -3.481526    0.883487    0.008514
  C     -4.320749    1.376380    1.070259
  C     -4.536426    0.347288    2.160270
  O     -1.391864    0.506293   -1.249246
  C     -2.115944    0.155384   -2.454188
  C     -2.522845   -1.303047   -2.482108
  H      1.976970   -0.980277   -2.926628
  H      3.336511    0.076220   -3.311893
  H      3.359477   -1.621388   -3.831198
  H      4.817019   -1.306265   -1.830130
  H      3.414352   -2.349875   -1.449330
  H      2.328125   -0.137625    3.132948
  H      2.896923   -1.310815    1.904317
  H      4.812030   -0.312880    3.159548
  H      4.868009    0.138171    1.444682
  H      4.300829    1.304285    2.643766
  H      0.101189   -0.648657    1.783441
  H     -0.007378   -2.450354    1.837547
  H     -3.861014    2.280806    1.480097
  H     -5.252667    1.630049    0.562805
  H     -5.279451    0.719278    2.858347
  H     -4.878672   -0.592409    1.734323
  H     -3.605200    0.173237    2.696809
  H     -2.984992    0.811024   -2.531466
  H     -1.399398    0.394482   -3.242577
  H     -3.270286   -1.504198   -1.717396
  H     -2.943413   -1.529190   -3.456940
  H     -1.659684   -1.942521   -2.309699

 Total Charge           Charge          ....    0
 Multiplicity           Mult            ....    1
 Number of Electrons    NEL             ....  202
 Basis Dimension        Dim             ....  334

ORBITAL ENERGIES
----------------

  NO   OCC          E(Eh)            E(eV)
   0   2.0000     -88.039929     -2395.6883
   1   2.0000     -88.037514     -2395.6226
   2   2.0000     -87.978052     -2394.0045
   3   2.0000     -87.965406     -2393.6604
   4   2.0000     -76.421683     -2079.5397
   5   2.0000     -76.416383     -2079.3955
   6   2.0000     -18.795127      -511.4414
   7   2.0000     -18.784409      -511.1498
   8   2.0000     -18.782428      -511.0959
   9   2.0000     -18.779943      -511.0282
  10   2.0000      -9.957789      -270.9652
  11   2.0000      -9.954855      -270.8854
  12   2.0000      -9.954231      -270.8684
  13   2.0000      -9.953717      -270.8544
  14   2.0000      -9.948973      -270.7253
  15   2.0000      -9.885922      -269.0096
  16   2.0000      -9.883067      -268.9319
  17   2.0000      -9.881652      -268.8934
  18   2.0000      -9.881516      -268.8897
  19   2.0000      -7.685143      -209.1234
  20   2.0000      -7.682198      -209.0432
  21   2.0000      -7.623004      -207.4325
  22   2.0000      -7.610676      -207.0970
  23   2.0000      -6.419040      -174.6710
  24   2.0000      -6.413375      -174.5168
  25   2.0000      -5.712858      -155.4548
  26   2.0000      -5.710207      -155.3826
  27   2.0000      -5.709743      -155.3700
  28   2.0000      -5.706502      -155.2818
  29   2.0000      -5.702139      -155.1631
  30   2.0000      -5.699322      -155.0864
  31   2.0000      -5.652004      -153.7988
  32   2.0000      -5.643730      -153.5737
  33   2.0000      -5.642980      -153.5533
  34   2.0000      -5.639952      -153.4709
  35   2.0000      -5.631260      -153.2344
  36   2.0000      -5.630498      -153.2136
  37   2.0000      -4.642190      -126.3204
  38   2.0000      -4.640550      -126.2758
  39   2.0000      -4.639203      -126.2391
  40   2.0000      -4.636569      -126.1675
  41   2.0000      -4.635564      -126.1401
  42   2.0000      -4.632921      -126.0682
  43   2.0000      -0.985357       -26.8129
  44   2.0000      -0.980416       -26.6785
  45   2.0000      -0.939695       -25.5704
  46   2.0000      -0.937253       -25.5039
  47   2.0000      -0.759752       -20.6739
  48   2.0000      -0.715168       -19.4607
  49   2.0000      -0.708171       -19.2703
  50   2.0000      -0.689031       -18.7495
  51   2.0000      -0.688037       -18.7224
  52   2.0000      -0.673621       -18.3302
  53   2.0000      -0.645688       -17.5701
  54   2.0000      -0.628743       -17.1090
  55   2.0000      -0.595202       -16.1963
  56   2.0000      -0.579104       -15.7582
  57   2.0000      -0.576187       -15.6788
  58   2.0000      -0.571898       -15.5621
  59   2.0000      -0.560837       -15.2611
  60   2.0000      -0.500217       -13.6116
  61   2.0000      -0.493374       -13.4254
  62   2.0000      -0.468367       -12.7449
  63   2.0000      -0.466799       -12.7023
  64   2.0000      -0.454252       -12.3608
  65   2.0000      -0.448816       -12.2129
  66   2.0000      -0.442073       -12.0294
  67   2.0000      -0.432671       -11.7736
  68   2.0000      -0.423192       -11.5156
  69   2.0000      -0.422895       -11.5075
  70   2.0000      -0.410457       -11.1691
  71   2.0000      -0.402161       -10.9434
  72   2.0000      -0.392990       -10.6938
  73   2.0000      -0.385414       -10.4877
  74   2.0000      -0.377588       -10.2747
  75   2.0000      -0.366471        -9.9722
  76   2.0000      -0.355789        -9.6815
  77   2.0000      -0.354732        -9.6528
  78   2.0000      -0.350247        -9.5307
  79   2.0000      -0.347296        -9.4504
  80   2.0000      -0.345145        -9.3919
  81   2.0000      -0.340204        -9.2574
  82   2.0000      -0.337627        -9.1873
  83   2.0000      -0.335958        -9.1419
  84   2.0000      -0.332884        -9.0582
  85   2.0000      -0.317723        -8.6457
  86   2.0000      -0.313273        -8.5246
  87   2.0000      -0.294531        -8.0146
  88   2.0000      -0.291952        -7.9444
  89   2.0000      -0.289847        -7.8871
  90   2.0000      -0.284705        -7.7472
  91   2.0000      -0.271123        -7.3776
  92   2.0000      -0.268646        -7.3102
  93   2.0000      -0.257048        -6.9946
  94   2.0000      -0.250265        -6.8100
  95   2.0000      -0.232649        -6.3307
  96   2.0000      -0.214707        -5.8425
  97   2.0000      -0.204237        -5.5576
  98   2.0000      -0.194044        -5.2802
  99   2.0000      -0.180370        -4.9081
 100   2.0000      -0.169293        -4.6067
 101   0.0000      -0.041788        -1.1371
 102   0.0000      -0.028283        -0.7696
 103   0.0000      -0.019175        -0.5218
 104   0.0000       0.004015         0.1093
 105   0.0000       0.019749         0.5374

MULLIKEN ATOMIC CHARGES
-----------------------
   0 C :   -0.320030
   1 C :   -0.002217
   2 O :   -0.385713
   3 P :    0.586975
   4 S :   -0.277681
   5 O :   -0.348935
   6 C :   -0.025491
   7 C :   -0.278146
   8 S :   -0.128563
   9 C :   -0.373953
  10 S :   -0.096815
  11 P :    0.607547
  12 S :   -0.293013
  13 O :   -0.383547
  14 C :    0.001807
  15 C :   -0.322948
  16 O :   -0.337968
  17 C :    0.009977
  18 C :   -0.320032
  19 H :    0.125647
  20 H :    0.132000
  21 H :    0.109314
  22 H :    0.107604
  23 H :    0.106086
  24 H :    0.110396
  25 H :    0.095798
  26 H :    0.105455
  27 H :    0.123238
  28 H :    0.123590
  29 H :    0.216160
  30 H :    0.180184
  31 H :    0.115257
  32 H :    0.104694
  33 H :    0.115300
  34 H :    0.116525
  35 H :    0.130438
  36 H :    0.106500
  37 H :    0.111067
  38 H :    0.116546
  39 H :    0.109361
  40 H :    0.127584
Sum of atomic charges:    0.0000000

LOEWDIN ATOMIC CHARGES
----------------------
   0 C :   -0.372495
   1 C :   -0.117754
   2 O :   -0.252086
   3 P :    0.560923
   4 S :   -0.286702
   5 O :   -0.228659
   6 C :   -0.117253
   7 C :   -0.356563
   8 S :    0.044507
   9 C :   -0.482462
  10 S :    0.075424
  11 P :    0.572209
  12 S :   -0.295170
  13 O :   -0.245663
  14 C :   -0.115489
  15 C :   -0.372688
  16 O :   -0.224226
  17 C :   -0.105751
  18 C :   -0.370427
  19 H :    0.117873
  20 H :    0.131274
  21 H :    0.128694
  22 H :    0.120472
  23 H :    0.105065
  24 H :    0.118830
  25 H :    0.103881
  26 H :    0.127764
  27 H :    0.127817
  28 H :    0.130839
  29 H :    0.127273
  30 H :    0.135473
  31 H :    0.114781
  32 H :    0.118499
  33 H :    0.132501
  34 H :    0.122750
  35 H :    0.122256
  36 H :    0.113194
  37 H :    0.122125
  38 H :    0.115729
  39 H :    0.128923
  40 H :    0.124311

  Mayer bond orders larger than 0.100000
B(  0-C ,  1-C ) :   1.1686 B(  0-C , 19-H ) :   0.9330 B(  0-C , 20-H ) :   0.9388
B(  0-C , 21-H ) :   0.9329 B(  1-C ,  2-O ) :   0.9233 B(  1-C , 22-H ) :   0.9330
B(  1-C , 23-H ) :   0.9233 B(  2-O ,  3-P ) :   1.0446 B(  3-P ,  4-S ) :   1.7087
B(  3-P ,  5-O ) :   1.1208 B(  3-P ,  8-S ) :   0.9179 B(  4-S ,  8-S ) :   0.1101
B(  5-O ,  6-C ) :   0.8921 B(  6-C ,  7-C ) :   1.1726 B(  6-C , 24-H ) :   0.9299
B(  6-C , 25-H ) :   0.9127 B(  7-C , 26-H ) :   0.9396 B(  7-C , 27-H ) :   0.9422
B(  7-C , 28-H ) :   0.9472 B(  8-S ,  9-C ) :   0.9959 B(  9-C , 10-S ) :   1.0174
B(  9-C , 29-H ) :   0.8457 B(  9-C , 30-H ) :   0.9118 B( 10-S , 11-P ) :   0.9263
B( 10-S , 12-S ) :   0.1083 B( 11-P , 12-S ) :   1.6391 B( 11-P , 13-O ) :   1.0825
B( 11-P , 16-O ) :   1.1554 B( 13-O , 14-C ) :   0.9019 B( 14-C , 15-C ) :   1.1666
B( 14-C , 31-H ) :   0.9177 B( 14-C , 32-H ) :   0.9342 B( 15-C , 33-H ) :   0.9368
B( 15-C , 34-H ) :   0.9442 B( 15-C , 35-H ) :   0.9321 B( 16-O , 17-C ) :   0.8985
B( 17-C , 18-C ) :   1.1693 B( 17-C , 36-H ) :   0.9290 B( 17-C , 37-H ) :   0.9292
B( 18-C , 38-H ) :   0.9411 B( 18-C , 39-H ) :   0.9364 B( 18-C , 40-H ) :   0.9387

Dispersion correction           -0.068566303
FINAL SINGLE POINT ENERGY     -2929.499684042899

DIPOLE MOMENT
-------------

Method             : SCF
Type of density    : Electron Density
Multiplicity       :   1
Irrep              :   0
Energy             : -2929.6174524615407790 Eh
Relativity type    :
Basis              : AO
                                X                 Y                 Z
Electronic contribution:     -1.328835935       7.557897236       1.419852215
Nuclear contribution   :      0.989192480      -9.146354217      -1.260857496
                        -----------------------------------------
Total Dipole Moment    :     -0.339643454      -1.588456981       0.158994719
                        -----------------------------------------
Magnitude (a.u.)       :      1.632125172
Magnitude (Debye)      :      4.148532498

Rotational constants in cm-1:             0.012602             0.005633             0.005018
Rotational constants in MHz :           377.812176           168.873714           150.431210

                             ****ORCA TERMINATED NORMALLY****
TOTAL RUN TIME: 0 days 0 hours 0 minutes 21 seconds 911 msec
