                         Program Version 6.0.0  -   RELEASE  -
|  1> ! r2scan-3c def2/J RI DEFGRID2 scfconv6 printgap
|  2> %output
|  3>     printlevel normal
|  4> end
|  5> * xyz 0 1
|  6> C 0.610093352 1.7018503895 -0.0355919552
|  7> C 1.3939301808 0.4040262603 -0.2508532197
|  8> H 1.6094991743 0.2756797846 -1.3174404042
|  9> C 0.5464229597 -0.7925158984 0.2191586319
| 10> H 0.357144158 -0.7041954411 1.303070957
| 11> C -0.8037172151 -0.7666741515 -0.5130186682
| 12> H -0.6260483076 -0.9185759261 -1.5817419054
| 13> C -1.4676752346 0.6109182109 -0.2974201081
| 14> H -2.3541020388 0.6838237211 -0.9416550446
| 15> O -0.6392543289 1.6685212174 -0.7094732302
| 16> O -1.8067464316 0.7031987208 1.0523091253
| 17> O -1.6689638679 -1.7926333073 -0.1188928332
| 18> O 1.198975278 -2.0096183648 -0.0500059795
| 19> O 2.6458712684 0.4169613544 0.3888391346
| 20> H 1.1441814728 2.5547454479 -0.4536844246
| 21> H 0.4472167913 1.854738898 1.0396229028
| 22> H -2.3969637787 1.4570345672 1.2022570707
| 23> H -1.8985488524 -1.6656331913 0.8154233607
| 24> H 2.1443513136 -1.8929094317 0.1371799665
| 25> H 2.5356761933 0.6496923504 1.3231873863
| 26> *
| 27>
| 28>                          ****END OF INPUT****

CARTESIAN COORDINATES (ANGSTROEM)
---------------------------------
  C      0.610093    1.701850   -0.035592
  C      1.393930    0.404026   -0.250853
  H      1.609499    0.275680   -1.317440
  C      0.546423   -0.792516    0.219159
  H      0.357144   -0.704195    1.303071
  C     -0.803717   -0.766674   -0.513019
  H     -0.626048   -0.918576   -1.581742
  C     -1.467675    0.610918   -0.297420
  H     -2.354102    0.683824   -0.941655
  O     -0.639254    1.668521   -0.709473
  O     -1.806746    0.703199    1.052309
  O     -1.668964   -1.792633   -0.118893
  O      1.198975   -2.009618   -0.050006
  O      2.645871    0.416961    0.388839
  H      1.144181    2.554745   -0.453684
  H      0.447217    1.854739    1.039623
  H     -2.396964    1.457035    1.202257
  H     -1.898549   -1.665633    0.815423
  H      2.144351   -1.892909    0.137180
  H      2.535676    0.649692    1.323187

 Total Charge           Charge          ....    0
 Multiplicity           Mult            ....    1
 Number of Electrons    NEL             ....   80
 Basis Dimension        Dim             ....  265

ORBITAL ENERGIES
----------------

  NO   OCC          E(Eh)            E(eV)
   0   2.0000     -18.980143      -516.4759
   1   2.0000     -18.974155      -516.3130
   2   2.0000     -18.973893      -516.3059
   3   2.0000     -18.951183      -515.6879
   4   2.0000     -18.948563      -515.6166
   5   2.0000     -10.140957      -275.9495
   6   2.0000     -10.095028      -274.6997
   7   2.0000     -10.090087      -274.5652
   8   2.0000     -10.089672      -274.5539
   9   2.0000     -10.086910      -274.4788
  10   2.0000      -1.056072       -28.7372
  11   2.0000      -1.017236       -27.6804
  12   2.0000      -0.998573       -27.1725
  13   2.0000      -0.987000       -26.8576
  14   2.0000      -0.978224       -26.6188
  15   2.0000      -0.748125       -20.3575
  16   2.0000      -0.726807       -19.7774
  17   2.0000      -0.620519       -16.8852
  18   2.0000      -0.618939       -16.8422
  19   2.0000      -0.576624       -15.6907
  20   2.0000      -0.524508       -14.2726
  21   2.0000      -0.509208       -13.8563
  22   2.0000      -0.485067       -13.1993
  23   2.0000      -0.474140       -12.9020
  24   2.0000      -0.462200       -12.5771
  25   2.0000      -0.440325       -11.9819
  26   2.0000      -0.417771       -11.3681
  27   2.0000      -0.400157       -10.8888
  28   2.0000      -0.390947       -10.6382
  29   2.0000      -0.379363       -10.3230
  30   2.0000      -0.358371        -9.7518
  31   2.0000      -0.337319        -9.1789
  32   2.0000      -0.324107        -8.8194
  33   2.0000      -0.308695        -8.4000
  34   2.0000      -0.299952        -8.1621
  35   2.0000      -0.287833        -7.8323
  36   2.0000      -0.276551        -7.5253
  37   2.0000      -0.252090        -6.8597
  38   2.0000      -0.239045        -6.5047
  39   2.0000      -0.223535        -6.0827
  40   0.0000       0.028899         0.7864
  41   0.0000       0.039839         1.0841
  42   0.0000       0.066014         1.7963
  43   0.0000       0.087024         2.3680
  44   0.0000       0.097675         2.6579

MULLIKEN ATOMIC CHARGES
-----------------------
   0 C :   -0.253547
   1 C :   -0.067605
   2 H :    0.166726
   3 C :    0.049983
   4 H :    0.163768
   5 C :   -0.158994
   6 H :    0.173377
   7 C :    0.067571
   8 H :    0.135733
   9 O :   -0.200901
  10 O :   -0.419886
  11 O :   -0.382188
  12 O :   -0.407579
  13 O :   -0.412432
  14 H :    0.159163
  15 H :    0.158051
  16 H :    0.307074
  17 H :    0.309477
  18 H :    0.309790
  19 H :    0.302419
Sum of atomic charges:    0.0000000

LOEWDIN ATOMIC CHARGES
----------------------
   0 C :    0.040084
   1 C :    0.092854
   2 H :    0.197148
   3 C :    0.094613
   4 H :    0.179617
   5 C :    0.121175
   6 H :    0.203762
   7 C :    0.283837
   8 H :    0.198973
   9 O :   -0.675418
  10 O :   -0.531793
  11 O :   -0.539106
  12 O :   -0.564742
  13 O :   -0.580647
  14 H :    0.190352
  15 H :    0.174853
  16 H :    0.280038
  17 H :    0.279786
  18 H :    0.281575
  19 H :    0.273037

  Mayer bond orders larger than 0.100000
B(  0-C ,  1-C ) :   0.9052 B(  0-C ,  9-O ) :   0.9360 B(  0-C , 14-H ) :   0.9408
B(  0-C , 15-H ) :   0.9864 B(  1-C ,  2-H ) :   0.9546 B(  1-C ,  3-C ) :   0.8960
B(  1-C , 13-O ) :   0.9805 B(  3-C ,  4-H ) :   0.9438 B(  3-C ,  5-C ) :   0.9300
B(  3-C , 12-O ) :   0.9213 B(  5-C ,  6-H ) :   0.9769 B(  5-C ,  7-C ) :   0.9082
B(  5-C , 11-O ) :   1.0055 B(  7-C ,  8-H ) :   0.9551 B(  7-C ,  9-O ) :   0.9580
B(  7-C , 10-O ) :   0.9996 B( 10-O , 16-H ) :   0.8910 B( 11-O , 17-H ) :   0.8730
B( 12-O , 18-H ) :   0.8717 B( 13-O , 19-H ) :   0.8846

Dispersion correction           -0.006301460
FINAL SINGLE POINT ENERGY      -572.561296164124

DIPOLE MOMENT
-------------

Method             : SCF
Type of density    : Electron Density
Multiplicity       :   1
Irrep              :   0
Energy             :  -572.5713688498050260 Eh
Relativity type    :
Basis              : AO
                                X                 Y                 Z
Electronic contribution:     -1.016400634      -0.997685495      -0.573999568
Nuclear contribution   :      0.898899007       2.137522720       1.440191114
                        -----------------------------------------
Total Dipole Moment    :     -0.117501627       1.139837225       0.866191546
                        -----------------------------------------
Magnitude (a.u.)       :      1.436427279
Magnitude (Debye)      :      3.651107984

Rotational constants in cm-1:             0.057323             0.044333             0.028955
Rotational constants in MHz :          1718.499212          1329.063478           868.061003

                             ****ORCA TERMINATED NORMALLY****
TOTAL RUN TIME: 0 days 0 hours 0 minutes 44 seconds 785 msec
