                         Program Version 6.0.0  -   RELEASE  -
|  1> ! r2scan-3c def2/J RI DEFGRID2 scfconv6 printgap
|  2> %output
|  3>     printlevel normal
|  4> end
|  5> %cpcm
|  6>     smd true
|  7>     smdsolvent "water"
|  8> end
|  9> * xyz 0 1
| 10> C 0.610093352 1.7018503895 -0.0355919552
| 11> C 1.3939301808 0.4040262603 -0.2508532197
| 12> H 1.6094991743 0.2756797846 -1.3174404042
| 13> C 0.5464229597 -0.7925158984 0.2191586319
| 14> H 0.357144158 -0.7041954411 1.303070957
| 15> C -0.8037172151 -0.7666741515 -0.5130186682
| 16> H -0.6260483076 -0.9185759261 -1.5817419054
| 17> C -1.4676752346 0.6109182109 -0.2974201081
| 18> H -2.3541020388 0.6838237211 -0.9416550446
| 19> O -0.6392543289 1.6685212174 -0.7094732302
| 20> O -1.8067464316 0.7031987208 1.0523091253
| 21> O -1.6689638679 -1.7926333073 -0.1188928332
| 22> O 1.198975278 -2.0096183648 -0.0500059795
| 23> O 2.6458712684 0.4169613544 0.3888391346
| 24> H 1.1441814728 2.5547454479 -0.4536844246
| 25> H 0.4472167913 1.854738898 1.0396229028
| 26> H -2.3969637787 1.4570345672 1.2022570707
| 27> H -1.8985488524 -1.6656331913 0.8154233607
| 28> H 2.1443513136 -1.8929094317 0.1371799665
| 29> H 2.5356761933 0.6496923504 1.3231873863
| 30> *
| 31>
| 32>                          ****END OF INPUT****

CARTESIAN COORDINATES (ANGSTROEM)
---------------------------------
  C      0.610093    1.701850   -0.035592
  C      1.393930    0.404026   -0.250853
  H      1.609499    0.275680   -1.317440
  C      0.546423   -0.792516    0.219159
  H      0.357144   -0.704195    1.303071
  C     -0.803717   -0.766674   -0.513019
  H     -0.626048   -0.918576   -1.581742
  C     -1.467675    0.610918   -0.297420
  H     -2.354102    0.683824   -0.941655
  O     -0.639254    1.668521   -0.709473
  O     -1.806746    0.703199    1.052309
  O     -1.668964   -1.792633   -0.118893
  O      1.198975   -2.009618   -0.050006
  O      2.645871    0.416961    0.388839
  H      1.144181    2.554745   -0.453684
  H      0.447217    1.854739    1.039623
  H     -2.396964    1.457035    1.202257
  H     -1.898549   -1.665633    0.815423
  H      2.144351   -1.892909    0.137180
  H      2.535676    0.649692    1.323187

 Total Charge           Charge          ....    0
 Multiplicity           Mult            ....    1
 Number of Electrons    NEL             ....   80
 Basis Dimension        Dim             ....  265

ORBITAL ENERGIES
----------------

  NO   OCC          E(Eh)            E(eV)
   0   2.0000     -18.971226      -516.2333
   1   2.0000     -18.966589      -516.1071
   2   2.0000     -18.963938      -516.0350
   3   2.0000     -18.960767      -515.9487
   4   2.0000     -18.956751      -515.8394
   5   2.0000     -10.132973      -275.7322
   6   2.0000     -10.087590      -274.4973
   7   2.0000     -10.085989      -274.4537
   8   2.0000     -10.082526      -274.3595
   9   2.0000     -10.077051      -274.2105
  10   2.0000      -1.048551       -28.5325
  11   2.0000      -1.011324       -27.5195
  12   2.0000      -1.002380       -27.2761
  13   2.0000      -0.983949       -26.7746
  14   2.0000      -0.977582       -26.6014
  15   2.0000      -0.743018       -20.2186
  16   2.0000      -0.718842       -19.5607
  17   2.0000      -0.614041       -16.7089
  18   2.0000      -0.612346       -16.6628
  19   2.0000      -0.569702       -15.5024
  20   2.0000      -0.513008       -13.9597
  21   2.0000      -0.505191       -13.7470
  22   2.0000      -0.481620       -13.1055
  23   2.0000      -0.469615       -12.7789
  24   2.0000      -0.455901       -12.4057
  25   2.0000      -0.434700       -11.8288
  26   2.0000      -0.414728       -11.2853
  27   2.0000      -0.393767       -10.7149
  28   2.0000      -0.387522       -10.5450
  29   2.0000      -0.381085       -10.3698
  30   2.0000      -0.352053        -9.5798
  31   2.0000      -0.334677        -9.1070
  32   2.0000      -0.328097        -8.9280
  33   2.0000      -0.309141        -8.4122
  34   2.0000      -0.301187        -8.1957
  35   2.0000      -0.279653        -7.6097
  36   2.0000      -0.273706        -7.4479
  37   2.0000      -0.252960        -6.8834
  38   2.0000      -0.241544        -6.5728
  39   2.0000      -0.225908        -6.1473
  40   0.0000       0.042710         1.1622
  41   0.0000       0.064424         1.7531
  42   0.0000       0.081485         2.2173
  43   0.0000       0.099495         2.7074
  44   0.0000       0.106200         2.8898

MULLIKEN ATOMIC CHARGES
-----------------------
   0 C :   -0.269495
   1 C :   -0.040932
   2 H :    0.183151
   3 C :    0.035908
   4 H :    0.184008
   5 C :   -0.124025
   6 H :    0.191348
   7 C :    0.054227
   8 H :    0.162069
   9 O :   -0.256240
  10 O :   -0.462896
  11 O :   -0.465854
  12 O :   -0.490352
  13 O :   -0.475119
  14 H :    0.174798
  15 H :    0.182718
  16 H :    0.355327
  17 H :    0.355380
  18 H :    0.348067
  19 H :    0.357913
Sum of atomic charges:   -0.0000000

LOEWDIN ATOMIC CHARGES
----------------------
   0 C :    0.044433
   1 C :    0.096913
   2 H :    0.201023
   3 C :    0.096463
   4 H :    0.191342
   5 C :    0.115788
   6 H :    0.208956
   7 C :    0.286984
   8 H :    0.208036
   9 O :   -0.700415
  10 O :   -0.536251
  11 O :   -0.576556
  12 O :   -0.603720
  13 O :   -0.596395
  14 H :    0.196709
  15 H :    0.186164
  16 H :    0.298358
  17 H :    0.294285
  18 H :    0.294787
  19 H :    0.293097

  Mayer bond orders larger than 0.100000
B(  0-C ,  1-C ) :   0.8885 B(  0-C ,  9-O ) :   0.9198 B(  0-C , 14-H ) :   0.9353
B(  0-C , 15-H ) :   0.9784 B(  1-C ,  2-H ) :   0.9603 B(  1-C ,  3-C ) :   0.9004
B(  1-C , 13-O ) :   0.9742 B(  3-C ,  4-H ) :   0.9434 B(  3-C ,  5-C ) :   0.9168
B(  3-C , 12-O ) :   0.9023 B(  5-C ,  6-H ) :   0.9654 B(  5-C ,  7-C ) :   0.9127
B(  5-C , 11-O ) :   0.9749 B(  7-C ,  8-H ) :   0.9522 B(  7-C ,  9-O ) :   0.9543
B(  7-C , 10-O ) :   0.9963 B( 10-O , 16-H ) :   0.8656 B( 11-O , 17-H ) :   0.8507
B( 12-O , 18-H ) :   0.8546 B( 13-O , 19-H ) :   0.8574

Dispersion correction           -0.006301460
FINAL SINGLE POINT ENERGY      -572.591823837632

DIPOLE MOMENT
-------------

Method             : SCF
Type of density    : Electron Density
Multiplicity       :   1
Irrep              :   0
Energy             :  -572.6018965233131439 Eh
Relativity type    :
Basis              : AO
                                X                 Y                 Z
Electronic contribution:     -1.016523069      -0.528269932      -0.173803371
Nuclear contribution   :      0.898899007       2.137522720       1.440191114
                        -----------------------------------------
Total Dipole Moment    :     -0.117624062       1.609252788       1.266387743
                        -----------------------------------------
Magnitude (a.u.)       :      2.051162566
Magnitude (Debye)      :      5.213640908

Rotational constants in cm-1:             0.057323             0.044333             0.028955
Rotational constants in MHz :          1718.499212          1329.063478           868.061003

                             ****ORCA TERMINATED NORMALLY****
TOTAL RUN TIME: 0 days 0 hours 0 minutes 51 seconds 170 msec
