                         Program Version 6.0.1  -  RELEASE   -
|  1> ! pbe def2-sv(p) def2/J RI DEFGRID1 loosescf d4 GCP(DFT/SV(P)) printgap
|  2> %output
|  3>     printlevel normal
|  4> end
|  5> * xyz 0 1
|  6> C 3.0113209904 -3.1409188725 1.1070983452
|  7> C 3.0732651264 -1.6296260616 1.245965196
|  8> O 2.8310638946 -1.0097829639 -0.033460411
|  9> C 1.7125049595 -0.3812948489 -0.2617562043
| 10> O 0.8229900319 -0.2028514289 0.560818279
| 11> C 1.6093947006 0.1629149353 -1.664351657
| 12> C 0.3396161713 0.9945522718 -1.7585807258
| 13> H 0.2907077464 1.5297025706 -2.7105805911
| 14> C 0.224588504 2.0021224833 -0.6238783046
| 15> O -0.8213893993 2.3293203006 -0.1130152706
| 16> O 1.402422064 2.5047565535 -0.3164644404
| 17> C 1.4743865014 3.5102678603 0.7156585048
| 18> C 2.6399705791 4.4300105363 0.406233642
| 19> S -1.176001949 -0.027119566 -1.8012623994
| 20> P -1.5679259672 -0.9729953668 0.0616534555
| 21> S -0.7059308149 -2.6399236461 0.6202121239
| 22> O -1.8843550606 0.1045282864 1.200712185
| 23> C -1.1779353162 0.2752677861 2.4222430813
| 24> O -3.0599878127 -1.4108861458 -0.3214418504
| 25> C -4.1108760623 -0.4901041304 -0.6627805211
| 26> H 1.9998598306 -3.4522417766 0.8520056032
| 27> H 3.6934428001 -3.4717558941 0.3297582278
| 28> H 3.290265567 -3.5978677245 2.0505355364
| 29> H 4.0719364307 -1.2991026 1.5366458582
| 30> H 2.3283623473 -1.2716013753 1.9609673748
| 31> H 1.5798849725 -0.6668802902 -2.3723807922
| 32> H 2.4906731287 0.7694202808 -1.8765159627
| 33> H 0.5218787561 4.0479416069 0.7432009769
| 34> H 1.6157267048 2.9925981527 1.6696574729
| 35> H 2.4860569012 4.9230416423 -0.5490186566
| 36> H 2.7166338834 5.1800658962 1.1862982978
| 37> H 3.5634696476 3.8607757623 0.3650060879
| 38> H -1.9298192898 0.5123807777 3.1720344036
| 39> H -0.4703497441 1.0960036959 2.3145313906
| 40> H -0.6485594592 -0.6421378813 2.6847445654
| 41> H -3.9642041903 0.4628935361 -0.1569587442
| 42> H -5.0324160364 -0.9614330242 -0.329120919
| 43> H -4.1225404455 -0.346760056 -1.7422832136
| 44> *
| 45>
| 46>                          ****END OF INPUT****

CARTESIAN COORDINATES (ANGSTROEM)
---------------------------------
  C      3.011321   -3.140919    1.107098
  C      3.073265   -1.629626    1.245965
  O      2.831064   -1.009783   -0.033460
  C      1.712505   -0.381295   -0.261756
  O      0.822990   -0.202851    0.560818
  C      1.609395    0.162915   -1.664352
  C      0.339616    0.994552   -1.758581
  H      0.290708    1.529703   -2.710581
  C      0.224589    2.002122   -0.623878
  O     -0.821389    2.329320   -0.113015
  O      1.402422    2.504757   -0.316464
  C      1.474387    3.510268    0.715659
  C      2.639971    4.430011    0.406234
  S     -1.176002   -0.027120   -1.801262
  P     -1.567926   -0.972995    0.061653
  S     -0.705931   -2.639924    0.620212
  O     -1.884355    0.104528    1.200712
  C     -1.177935    0.275268    2.422243
  O     -3.059988   -1.410886   -0.321442
  C     -4.110876   -0.490104   -0.662781
  H      1.999860   -3.452242    0.852006
  H      3.693443   -3.471756    0.329758
  H      3.290266   -3.597868    2.050536
  H      4.071936   -1.299103    1.536646
  H      2.328362   -1.271601    1.960967
  H      1.579885   -0.666880   -2.372381
  H      2.490673    0.769420   -1.876516
  H      0.521879    4.047942    0.743201
  H      1.615727    2.992598    1.669657
  H      2.486057    4.923042   -0.549019
  H      2.716634    5.180066    1.186298
  H      3.563470    3.860776    0.365006
  H     -1.929819    0.512381    3.172034
  H     -0.470350    1.096004    2.314531
  H     -0.648559   -0.642138    2.684745
  H     -3.964204    0.462894   -0.156959
  H     -5.032416   -0.961433   -0.329121
  H     -4.122540   -0.346760   -1.742283

 Total Charge           Charge          ....    0
 Multiplicity           Mult            ....    1
 Number of Electrons    NEL             ....  174
 Basis Dimension        Dim             ....  316

ORBITAL ENERGIES
----------------

  NO   OCC          E(Eh)            E(eV)
   0   2.0000     -88.029326     -2395.3997
   1   2.0000     -87.959253     -2393.4930
   2   2.0000     -76.412761     -2079.2969
   3   2.0000     -18.817454      -512.0490
   4   2.0000     -18.813065      -511.9295
   5   2.0000     -18.774540      -510.8812
   6   2.0000     -18.768107      -510.7061
   7   2.0000     -18.759573      -510.4739
   8   2.0000     -18.739030      -509.9149
   9   2.0000     -10.025966      -272.8204
  10   2.0000     -10.018437      -272.6155
  11   2.0000      -9.956772      -270.9375
  12   2.0000      -9.952371      -270.8178
  13   2.0000      -9.951330      -270.7895
  14   2.0000      -9.928221      -270.1606
  15   2.0000      -9.926804      -270.1221
  16   2.0000      -9.919282      -269.9174
  17   2.0000      -9.898034      -269.3392
  18   2.0000      -9.882202      -268.9084
  19   2.0000      -7.673995      -208.8200
  20   2.0000      -7.604879      -206.9393
  21   2.0000      -6.408320      -174.3792
  22   2.0000      -5.702602      -155.1757
  23   2.0000      -5.698112      -155.0535
  24   2.0000      -5.690651      -154.8505
  25   2.0000      -5.634169      -153.3135
  26   2.0000      -5.625330      -153.0730
  27   2.0000      -5.624671      -153.0551
  28   2.0000      -4.631463      -126.0285
  29   2.0000      -4.630187      -125.9938
  30   2.0000      -4.628621      -125.9512
  31   2.0000      -1.027313       -27.9546
  32   2.0000      -1.018581       -27.7170
  33   2.0000      -0.963860       -26.2280
  34   2.0000      -0.934507       -25.4292
  35   2.0000      -0.921521       -25.0759
  36   2.0000      -0.918930       -25.0054
  37   2.0000      -0.765879       -20.8406
  38   2.0000      -0.718004       -19.5379
  39   2.0000      -0.712204       -19.3801
  40   2.0000      -0.685806       -18.6617
  41   2.0000      -0.654467       -17.8090
  42   2.0000      -0.622405       -16.9365
  43   2.0000      -0.621386       -16.9088
  44   2.0000      -0.598669       -16.2906
  45   2.0000      -0.595139       -16.1946
  46   2.0000      -0.566433       -15.4134
  47   2.0000      -0.520548       -14.1648
  48   2.0000      -0.510316       -13.8864
  49   2.0000      -0.495829       -13.4922
  50   2.0000      -0.490408       -13.3447
  51   2.0000      -0.464777       -12.6472
  52   2.0000      -0.458441       -12.4748
  53   2.0000      -0.452013       -12.2999
  54   2.0000      -0.444887       -12.1060
  55   2.0000      -0.435518       -11.8511
  56   2.0000      -0.421933       -11.4814
  57   2.0000      -0.415827       -11.3152
  58   2.0000      -0.409890       -11.1537
  59   2.0000      -0.405924       -11.0458
  60   2.0000      -0.396015       -10.7761
  61   2.0000      -0.392181       -10.6718
  62   2.0000      -0.386952       -10.5295
  63   2.0000      -0.382580       -10.4105
  64   2.0000      -0.379374       -10.3233
  65   2.0000      -0.370042       -10.0693
  66   2.0000      -0.361842        -9.8462
  67   2.0000      -0.356522        -9.7015
  68   2.0000      -0.351956        -9.5772
  69   2.0000      -0.339172        -9.2293
  70   2.0000      -0.334295        -9.0966
  71   2.0000      -0.331005        -9.0071
  72   2.0000      -0.324029        -8.8173
  73   2.0000      -0.308087        -8.3835
  74   2.0000      -0.301384        -8.2011
  75   2.0000      -0.296048        -8.0559
  76   2.0000      -0.286780        -7.8037
  77   2.0000      -0.276749        -7.5307
  78   2.0000      -0.271914        -7.3992
  79   2.0000      -0.266728        -7.2580
  80   2.0000      -0.253257        -6.8915
  81   2.0000      -0.244138        -6.6433
  82   2.0000      -0.242429        -6.5968
  83   2.0000      -0.225243        -6.1292
  84   2.0000      -0.213440        -5.8080
  85   2.0000      -0.178885        -4.8677
  86   2.0000      -0.172856        -4.7036
  87   0.0000      -0.047605        -1.2954
  88   0.0000      -0.030157        -0.8206
  89   0.0000      -0.019564        -0.5324
  90   0.0000      -0.001541        -0.0419
  91   0.0000       0.027688         0.7534

MULLIKEN ATOMIC CHARGES
-----------------------
   0 C :   -0.302210
   1 C :   -0.023029
   2 O :   -0.211523
   3 C :    0.142432
   4 O :   -0.227104
   5 C :   -0.055844
   6 C :   -0.305006
   7 H :    0.146607
   8 C :    0.191300
   9 O :   -0.173126
  10 O :   -0.246575
  11 C :   -0.036963
  12 C :   -0.277606
  13 S :   -0.101698
  14 P :    0.657168
  15 S :   -0.348834
  16 O :   -0.378343
  17 C :   -0.089960
  18 O :   -0.380370
  19 C :   -0.114071
  20 H :    0.144265
  21 H :    0.110503
  22 H :    0.109971
  23 H :    0.102521
  24 H :    0.120591
  25 H :    0.136968
  26 H :    0.124227
  27 H :    0.118840
  28 H :    0.113702
  29 H :    0.115456
  30 H :    0.115030
  31 H :    0.114815
  32 H :    0.111649
  33 H :    0.111760
  34 H :    0.115404
  35 H :    0.128969
  36 H :    0.120845
  37 H :    0.119241
Sum of atomic charges:   -0.0000000

LOEWDIN ATOMIC CHARGES
----------------------
   0 C :   -0.357601
   1 C :   -0.106877
   2 O :   -0.033877
   3 C :    0.047066
   4 O :   -0.164213
   5 C :   -0.254340
   6 C :   -0.264647
   7 H :    0.152212
   8 C :    0.007368
   9 O :   -0.150111
  10 O :   -0.063780
  11 C :   -0.107766
  12 C :   -0.350538
  13 S :    0.110332
  14 P :    0.581541
  15 S :   -0.333430
  16 O :   -0.238824
  17 C :   -0.210793
  18 O :   -0.259632
  19 C :   -0.217562
  20 H :    0.128199
  21 H :    0.123964
  22 H :    0.130534
  23 H :    0.117022
  24 H :    0.122718
  25 H :    0.150341
  26 H :    0.147375
  27 H :    0.121841
  28 H :    0.117426
  29 H :    0.127115
  30 H :    0.132323
  31 H :    0.125967
  32 H :    0.114607
  33 H :    0.105315
  34 H :    0.105985
  35 H :    0.115265
  36 H :    0.119672
  37 H :    0.109803

  Mayer bond orders larger than 0.100000
B(  0-C ,  1-C ) :   1.1806 B(  0-C , 20-H ) :   0.9283 B(  0-C , 21-H ) :   0.9479
B(  0-C , 22-H ) :   0.9416 B(  1-C ,  2-O ) :   0.8921 B(  1-C , 23-H ) :   0.9345
B(  1-C , 24-H ) :   0.9065 B(  2-O ,  3-C ) :   1.2949 B(  3-C ,  4-O ) :   1.8541
B(  3-C ,  5-C ) :   1.0096 B(  5-C ,  6-C ) :   1.0316 B(  5-C , 25-H ) :   0.8816
B(  5-C , 26-H ) :   0.8729 B(  6-C ,  7-H ) :   0.8642 B(  6-C ,  8-C ) :   0.8796
B(  6-C , 13-S ) :   1.0488 B(  8-C ,  9-O ) :   2.0941 B(  8-C , 10-O ) :   1.2175
B( 10-O , 11-C ) :   0.9042 B( 11-C , 12-C ) :   1.1587 B( 11-C , 27-H ) :   0.9168
B( 11-C , 28-H ) :   0.9305 B( 12-C , 29-H ) :   0.9514 B( 12-C , 30-H ) :   0.9435
B( 12-C , 31-H ) :   0.9488 B( 13-S , 14-P ) :   0.9515 B( 13-S , 15-S ) :   0.1040
B( 14-P , 15-S ) :   1.5880 B( 14-P , 16-O ) :   1.0862 B( 14-P , 18-O ) :   1.0858
B( 16-O , 17-C ) :   0.9363 B( 17-C , 32-H ) :   0.9536 B( 17-C , 33-H ) :   0.9459
B( 17-C , 34-H ) :   0.9324 B( 18-O , 19-C ) :   0.9245 B( 19-C , 35-H ) :   0.9409
B( 19-C , 36-H ) :   0.9585 B( 19-C , 37-H ) :   0.9524

Dispersion correction           -0.054337913
FINAL SINGLE POINT ENERGY     -1979.001158093826

DIPOLE MOMENT
-------------

Method             : SCF
Type of density    : Electron Density
Multiplicity       :   1
Irrep              :   0
Energy             : -1979.1323894095376090 Eh
Relativity type    :
Basis              : AO
                                X                 Y                 Z
Electronic contribution:    -13.418140010      -8.419163930      -8.420802114
Nuclear contribution   :     15.030595429      10.048338395       8.557695998
                        -----------------------------------------
Total Dipole Moment    :      1.612455420       1.629174466       0.136893884
                        -----------------------------------------
Magnitude (a.u.)       :      2.296293068
Magnitude (Debye)      :      5.836713129

Rotational constants in cm-1:             0.011684             0.009124             0.006586
Rotational constants in MHz :           350.286761           273.537735           197.430478

                             ****ORCA TERMINATED NORMALLY****
TOTAL RUN TIME: 0 days 0 hours 0 minutes 39 seconds 22 msec
