                         Program Version 6.0.0  -   RELEASE  -
|  1> ! pbe def2-sv(p) def2/J RI DEFGRID1 loosescf d4 GCP(DFT/SV(P)) printgap
|  2> %output
|  3>     printlevel normal
|  4> end
|  5> * xyz 0 1
|  6> C 3.8621007488 0.617341017 -2.6971518943
|  7> C 4.1650144255 1.3392691137 -1.3990439279
|  8> O 3.9436864466 0.502141418 -0.2508543812
|  9> P 2.4968409735 0.0579309984 0.198687495
| 10> S 1.1121883243 1.4337655785 -0.0529112745
| 11> O 2.9174909141 -0.3146993337 1.6768030277
| 12> C 2.1257266087 -1.0718968091 2.6089216373
| 13> C 1.0914433344 -0.2054712115 3.3013408609
| 14> S 2.1392926357 -1.8056475355 -0.7719972485
| 15> C 0.3779199094 -1.6314595077 -1.128274087
| 16> S -0.637524262 -1.6353284524 0.3949059933
| 17> P -2.079407137 -0.1835803403 -0.1115177351
| 18> S -1.9865751712 0.590022617 -1.9133505157
| 19> O -2.1183124461 0.8689717318 1.0830385471
| 20> C -1.9326976573 2.2863691651 0.9413599669
| 21> C -3.2729419001 2.9931728358 0.9674079316
| 22> O -3.3171333504 -1.1209547323 0.2319239262
| 23> C -4.6647806856 -0.6395704725 0.4034288464
| 24> C -5.3584287667 -0.41616948 -0.9262130384
| 25> H 2.7916001883 0.4334671025 -2.7820374426
| 26> H 4.1774001053 1.2333434848 -3.5332689494
| 27> H 4.3861047669 -0.3344188127 -2.7299779996
| 28> H 3.5454703846 2.2372797775 -1.3034558647
| 29> H 5.2194027718 1.6086535334 -1.3253685601
| 30> H 1.6469208021 -1.9080428221 2.0882668249
| 31> H 2.8588792368 -1.4551391429 3.3209900973
| 32> H 1.5703103532 0.6561572876 3.7587993888
| 33> H 0.3488560211 0.1460850192 2.5871504197
| 34> H 0.5893180224 -0.7902083418 4.0651594018
| 35> H 0.1097757985 -2.4937742774 -1.7330501009
| 36> H 0.1853051784 -0.6983649694 -1.6646906368
| 37> H -1.3003930878 2.5824326703 1.7798456069
| 38> H -1.4021560435 2.4903884885 0.0062151924
| 39> H -3.866996997 2.696269605 0.104997815
| 40> H -3.8113828383 2.7462142443 1.8785398015
| 41> H -3.1075484243 4.0648528509 0.9280999611
| 42> H -5.1516894473 -1.4313889262 0.9757469219
| 43> H -4.6399058 0.2786227737 0.9961919205
| 44> H -6.3849077393 -0.1112251681 -0.7486179362
| 45> H -4.8501416842 0.3587843599 -1.4968711097
| 46> H -5.3507687721 -1.3322271724 -1.51070924
| 47> *
| 48>
| 49>                          ****END OF INPUT****

CARTESIAN COORDINATES (ANGSTROEM)
---------------------------------
  C      3.862101    0.617341   -2.697152
  C      4.165014    1.339269   -1.399044
  O      3.943686    0.502141   -0.250854
  P      2.496841    0.057931    0.198687
  S      1.112188    1.433766   -0.052911
  O      2.917491   -0.314699    1.676803
  C      2.125727   -1.071897    2.608922
  C      1.091443   -0.205471    3.301341
  S      2.139293   -1.805648   -0.771997
  C      0.377920   -1.631460   -1.128274
  S     -0.637524   -1.635328    0.394906
  P     -2.079407   -0.183580   -0.111518
  S     -1.986575    0.590023   -1.913351
  O     -2.118312    0.868972    1.083039
  C     -1.932698    2.286369    0.941360
  C     -3.272942    2.993173    0.967408
  O     -3.317133   -1.120955    0.231924
  C     -4.664781   -0.639570    0.403429
  C     -5.358429   -0.416169   -0.926213
  H      2.791600    0.433467   -2.782037
  H      4.177400    1.233343   -3.533269
  H      4.386105   -0.334419   -2.729978
  H      3.545470    2.237280   -1.303456
  H      5.219403    1.608654   -1.325369
  H      1.646921   -1.908043    2.088267
  H      2.858879   -1.455139    3.320990
  H      1.570310    0.656157    3.758799
  H      0.348856    0.146085    2.587150
  H      0.589318   -0.790208    4.065159
  H      0.109776   -2.493774   -1.733050
  H      0.185305   -0.698365   -1.664691
  H     -1.300393    2.582433    1.779846
  H     -1.402156    2.490388    0.006215
  H     -3.866997    2.696270    0.104998
  H     -3.811383    2.746214    1.878540
  H     -3.107548    4.064853    0.928100
  H     -5.151689   -1.431389    0.975747
  H     -4.639906    0.278623    0.996192
  H     -6.384908   -0.111225   -0.748618
  H     -4.850142    0.358784   -1.496871
  H     -5.350769   -1.332227   -1.510709

 Total Charge           Charge          ....    0
 Multiplicity           Mult            ....    1
 Number of Electrons    NEL             ....  202
 Basis Dimension        Dim             ....  334

ORBITAL ENERGIES
----------------

  NO   OCC          E(Eh)            E(eV)
   0   2.0000     -88.047312     -2395.8892
   1   2.0000     -88.039522     -2395.6772
   2   2.0000     -87.988072     -2394.2772
   3   2.0000     -87.986447     -2394.2330
   4   2.0000     -76.426832     -2079.6798
   5   2.0000     -76.425806     -2079.6519
   6   2.0000     -18.792486      -511.3695
   7   2.0000     -18.789108      -511.2776
   8   2.0000     -18.787825      -511.2427
   9   2.0000     -18.787204      -511.2258
  10   2.0000      -9.953865      -270.8584
  11   2.0000      -9.953591      -270.8510
  12   2.0000      -9.950209      -270.7590
  13   2.0000      -9.950174      -270.7580
  14   2.0000      -9.947399      -270.6825
  15   2.0000      -9.885900      -269.0090
  16   2.0000      -9.882299      -268.9110
  17   2.0000      -9.881725      -268.8954
  18   2.0000      -9.876014      -268.7400
  19   2.0000      -7.692141      -209.3138
  20   2.0000      -7.684480      -209.1053
  21   2.0000      -7.632931      -207.7026
  22   2.0000      -7.630962      -207.6490
  23   2.0000      -6.423955      -174.8047
  24   2.0000      -6.423221      -174.7847
  25   2.0000      -5.720068      -155.6510
  26   2.0000      -5.716438      -155.5522
  27   2.0000      -5.712493      -155.4448
  28   2.0000      -5.709331      -155.3588
  29   2.0000      -5.709174      -155.3545
  30   2.0000      -5.701095      -155.1347
  31   2.0000      -5.661803      -154.0655
  32   2.0000      -5.659805      -154.0111
  33   2.0000      -5.653823      -153.8484
  34   2.0000      -5.652847      -153.8218
  35   2.0000      -5.651467      -153.7842
  36   2.0000      -5.651371      -153.7816
  37   2.0000      -4.646185      -126.4291
  38   2.0000      -4.646150      -126.4282
  39   2.0000      -4.645866      -126.4204
  40   2.0000      -4.644576      -126.3853
  41   2.0000      -4.644324      -126.3785
  42   2.0000      -4.644062      -126.3714
  43   2.0000      -0.987929       -26.8829
  44   2.0000      -0.984327       -26.7849
  45   2.0000      -0.942867       -25.6567
  46   2.0000      -0.941426       -25.6175
  47   2.0000      -0.761735       -20.7279
  48   2.0000      -0.722451       -19.6589
  49   2.0000      -0.709741       -19.3130
  50   2.0000      -0.686728       -18.6868
  51   2.0000      -0.680336       -18.5129
  52   2.0000      -0.673264       -18.3204
  53   2.0000      -0.652292       -17.7498
  54   2.0000      -0.636942       -17.3321
  55   2.0000      -0.600449       -16.3390
  56   2.0000      -0.591547       -16.0968
  57   2.0000      -0.575420       -15.6580
  58   2.0000      -0.566825       -15.4241
  59   2.0000      -0.558788       -15.2054
  60   2.0000      -0.502542       -13.6749
  61   2.0000      -0.492181       -13.3929
  62   2.0000      -0.475835       -12.9481
  63   2.0000      -0.466770       -12.7014
  64   2.0000      -0.451744       -12.2926
  65   2.0000      -0.448414       -12.2020
  66   2.0000      -0.435934       -11.8624
  67   2.0000      -0.432996       -11.7824
  68   2.0000      -0.419425       -11.4131
  69   2.0000      -0.413959       -11.2644
  70   2.0000      -0.408823       -11.1246
  71   2.0000      -0.404184       -10.9984
  72   2.0000      -0.396485       -10.7889
  73   2.0000      -0.388605       -10.5745
  74   2.0000      -0.381811       -10.3896
  75   2.0000      -0.374785       -10.1984
  76   2.0000      -0.366584        -9.9753
  77   2.0000      -0.353580        -9.6214
  78   2.0000      -0.349985        -9.5236
  79   2.0000      -0.349774        -9.5178
  80   2.0000      -0.344974        -9.3872
  81   2.0000      -0.340976        -9.2784
  82   2.0000      -0.338407        -9.2085
  83   2.0000      -0.337244        -9.1769
  84   2.0000      -0.330799        -9.0015
  85   2.0000      -0.313443        -8.5292
  86   2.0000      -0.311582        -8.4786
  87   2.0000      -0.296203        -8.0601
  88   2.0000      -0.291504        -7.9322
  89   2.0000      -0.288394        -7.8476
  90   2.0000      -0.285453        -7.7676
  91   2.0000      -0.276784        -7.5317
  92   2.0000      -0.268755        -7.3132
  93   2.0000      -0.264823        -7.2062
  94   2.0000      -0.258121        -7.0238
  95   2.0000      -0.236859        -6.4453
  96   2.0000      -0.222906        -6.0656
  97   2.0000      -0.215349        -5.8599
  98   2.0000      -0.203493        -5.5373
  99   2.0000      -0.196068        -5.3353
 100   2.0000      -0.191414        -5.2086
 101   0.0000      -0.046850        -1.2749
 102   0.0000      -0.035612        -0.9690
 103   0.0000      -0.010696        -0.2911
 104   0.0000       0.009302         0.2531
 105   0.0000       0.015395         0.4189

MULLIKEN ATOMIC CHARGES
-----------------------
   0 C :   -0.318371
   1 C :   -0.002019
   2 O :   -0.355509
   3 P :    0.609962
   4 S :   -0.342294
   5 O :   -0.351538
   6 C :   -0.010112
   7 C :   -0.311657
   8 S :   -0.112217
   9 C :   -0.344926
  10 S :   -0.106884
  11 P :    0.652774
  12 S :   -0.323299
  13 O :   -0.381865
  14 C :   -0.027811
  15 C :   -0.289418
  16 O :   -0.370227
  17 C :   -0.019080
  18 C :   -0.306422
  19 H :    0.129453
  20 H :    0.112801
  21 H :    0.117916
  22 H :    0.113845
  23 H :    0.106595
  24 H :    0.108763
  25 H :    0.105467
  26 H :    0.112903
  27 H :    0.141133
  28 H :    0.105103
  29 H :    0.182625
  30 H :    0.214752
  31 H :    0.109762
  32 H :    0.131762
  33 H :    0.115668
  34 H :    0.116779
  35 H :    0.114217
  36 H :    0.107401
  37 H :    0.106540
  38 H :    0.106809
  39 H :    0.132423
  40 H :    0.118193
Sum of atomic charges:   -0.0000000

LOEWDIN ATOMIC CHARGES
----------------------
   0 C :   -0.368539
   1 C :   -0.118500
   2 O :   -0.233142
   3 P :    0.569306
   4 S :   -0.303664
   5 O :   -0.230882
   6 C :   -0.117207
   7 C :   -0.367710
   8 S :    0.080669
   9 C :   -0.477545
  10 S :    0.086460
  11 P :    0.573068
  12 S :   -0.300039
  13 O :   -0.242848
  14 C :   -0.125034
  15 C :   -0.359724
  16 O :   -0.247605
  17 C :   -0.115286
  18 C :   -0.365755
  19 H :    0.121824
  20 H :    0.130795
  21 H :    0.124652
  22 H :    0.110890
  23 H :    0.119662
  24 H :    0.097618
  25 H :    0.118946
  26 H :    0.125489
  27 H :    0.119524
  28 H :    0.128180
  29 H :    0.136315
  30 H :    0.121962
  31 H :    0.117423
  32 H :    0.106039
  33 H :    0.122464
  34 H :    0.122856
  35 H :    0.132489
  36 H :    0.120088
  37 H :    0.108713
  38 H :    0.127886
  39 H :    0.121443
  40 H :    0.128721

  Mayer bond orders larger than 0.100000
B(  0-C ,  1-C ) :   1.1632 B(  0-C , 19-H ) :   0.9371 B(  0-C , 20-H ) :   0.9382
B(  0-C , 21-H ) :   0.9445 B(  1-C ,  2-O ) :   0.9113 B(  1-C , 22-H ) :   0.9146
B(  1-C , 23-H ) :   0.9339 B(  2-O ,  3-P ) :   1.1347 B(  3-P ,  4-S ) :   1.6045
B(  3-P ,  5-O ) :   1.1385 B(  3-P ,  8-S ) :   0.9317 B(  4-S ,  8-S ) :   0.1183
B(  5-O ,  6-C ) :   0.9166 B(  6-C ,  7-C ) :   1.1651 B(  6-C , 24-H ) :   0.9069
B(  6-C , 25-H ) :   0.9350 B(  7-C , 26-H ) :   0.9457 B(  7-C , 27-H ) :   0.9286
B(  7-C , 28-H ) :   0.9391 B(  8-S ,  9-C ) :   1.0081 B(  9-C , 10-S ) :   0.9906
B(  9-C , 29-H ) :   0.9073 B(  9-C , 30-H ) :   0.8490 B( 10-S , 11-P ) :   0.9535
B( 10-S , 12-S ) :   0.1162 B( 11-P , 12-S ) :   1.6115 B( 11-P , 13-O ) :   1.0975
B( 11-P , 16-O ) :   1.1159 B( 13-O , 14-C ) :   0.9012 B( 14-C , 15-C ) :   1.1625
B( 14-C , 31-H ) :   0.9314 B( 14-C , 32-H ) :   0.8997 B( 15-C , 33-H ) :   0.9394
B( 15-C , 34-H ) :   0.9423 B( 15-C , 35-H ) :   0.9393 B( 16-O , 17-C ) :   0.9152
B( 17-C , 18-C ) :   1.1644 B( 17-C , 36-H ) :   0.9357 B( 17-C , 37-H ) :   0.9179
B( 18-C , 38-H ) :   0.9389 B( 18-C , 39-H ) :   0.9325 B( 18-C , 40-H ) :   0.9463

Dispersion correction           -0.066816795
FINAL SINGLE POINT ENERGY     -2929.520192476351

DIPOLE MOMENT
-------------

Method             : SCF
Type of density    : Electron Density
Multiplicity       :   1
Irrep              :   0
Energy             : -2929.6379206082469864 Eh
Relativity type    :
Basis              : AO
                                X                 Y                 Z
Electronic contribution:     11.656129881     -10.383755431      -2.980940361
Nuclear contribution   :    -12.037642735      10.451362489       3.466083826
                        -----------------------------------------
Total Dipole Moment    :     -0.381512853       0.067607058       0.485143465
                        -----------------------------------------
Magnitude (a.u.)       :      0.620875956
Magnitude (Debye)      :      1.578141264

Rotational constants in cm-1:             0.012859             0.004910             0.004816
Rotational constants in MHz :           385.498055           147.197963           144.385497

                             ****ORCA TERMINATED NORMALLY****
TOTAL RUN TIME: 0 days 0 hours 0 minutes 20 seconds 972 msec
