                         Program Version 6.0.0  -   RELEASE  -
|  1> ! pbe def2-sv(p) def2/J RI DEFGRID1 loosescf d4 GCP(DFT/SV(P)) printgap
|  2> %output
|  3>     printlevel normal
|  4> end
|  5> * xyz 0 1
|  6> C 0.7958810464 1.3166857859 -1.0312989252
|  7> C 1.4734097405 0.3136325872 -0.0931621753
|  8> H 2.4158407386 -0.0121053982 -0.5580340152
|  9> C 0.6033504542 -0.945990149 0.0790348839
| 10> H 0.5321720287 -1.1390925484 1.1598615097
| 11> C -0.8213921395 -0.7399450852 -0.4708478426
| 12> H -0.8054901273 -0.8394461581 -1.561078374
| 13> C -1.3189004267 0.6605727206 -0.0917121016
| 14> H -2.3266514975 0.8233429005 -0.514370744
| 15> O -0.5122693281 1.6848980092 -0.6098293641
| 16> O -1.3804844031 0.7025407648 1.3037869106
| 17> O -1.7006606093 -1.728647907 -0.0056281255
| 18> O 1.2441958601 -2.0135253217 -0.5764804992
| 19> O 1.7100477624 0.847859665 1.186064064
| 20> H 0.7553355292 0.8877985358 -2.0397339577
| 21> H 1.3477664752 2.2573828822 -1.0638551761
| 22> H -1.5910474292 1.6014255677 1.5958612854
| 23> H -1.8868284384 -1.5585075975 0.9313059037
| 24> H 0.6863458285 -2.802638869 -0.506638755
| 25> H 2.2914556464 1.6187964158 1.1157583745
| 26> *
| 27>
| 28>                          ****END OF INPUT****

CARTESIAN COORDINATES (ANGSTROEM)
---------------------------------
  C      0.795881    1.316686   -1.031299
  C      1.473410    0.313633   -0.093162
  H      2.415841   -0.012105   -0.558034
  C      0.603350   -0.945990    0.079035
  H      0.532172   -1.139093    1.159862
  C     -0.821392   -0.739945   -0.470848
  H     -0.805490   -0.839446   -1.561078
  C     -1.318900    0.660573   -0.091712
  H     -2.326651    0.823343   -0.514371
  O     -0.512269    1.684898   -0.609829
  O     -1.380484    0.702541    1.303787
  O     -1.700661   -1.728648   -0.005628
  O      1.244196   -2.013525   -0.576480
  O      1.710048    0.847860    1.186064
  H      0.755336    0.887799   -2.039734
  H      1.347766    2.257383   -1.063855
  H     -1.591047    1.601426    1.595861
  H     -1.886828   -1.558508    0.931306
  H      0.686346   -2.802639   -0.506639
  H      2.291456    1.618796    1.115758

 Total Charge           Charge          ....    0
 Multiplicity           Mult            ....    1
 Number of Electrons    NEL             ....   80
 Basis Dimension        Dim             ....  160

ORBITAL ENERGIES
----------------

  NO   OCC          E(Eh)            E(eV)
   0   2.0000     -18.765187      -510.6267
   1   2.0000     -18.760110      -510.4886
   2   2.0000     -18.752803      -510.2897
   3   2.0000     -18.749895      -510.2106
   4   2.0000     -18.745806      -510.0993
   5   2.0000      -9.982813      -271.6461
   6   2.0000      -9.941750      -270.5288
   7   2.0000      -9.939741      -270.4741
   8   2.0000      -9.938947      -270.4525
   9   2.0000      -9.935085      -270.3474
  10   2.0000      -0.978068       -26.6146
  11   2.0000      -0.936215       -25.4757
  12   2.0000      -0.931348       -25.3433
  13   2.0000      -0.914510       -24.8851
  14   2.0000      -0.907528       -24.6951
  15   2.0000      -0.698287       -19.0013
  16   2.0000      -0.675171       -18.3723
  17   2.0000      -0.596419       -16.2294
  18   2.0000      -0.573830       -15.6147
  19   2.0000      -0.527788       -14.3618
  20   2.0000      -0.504977       -13.7411
  21   2.0000      -0.479531       -13.0487
  22   2.0000      -0.459274       -12.4975
  23   2.0000      -0.453765       -12.3476
  24   2.0000      -0.413458       -11.2508
  25   2.0000      -0.410395       -11.1674
  26   2.0000      -0.396906       -10.8004
  27   2.0000      -0.388113       -10.5611
  28   2.0000      -0.363878        -9.9016
  29   2.0000      -0.355504        -9.6738
  30   2.0000      -0.334042        -9.0897
  31   2.0000      -0.306466        -8.3394
  32   2.0000      -0.299618        -8.1530
  33   2.0000      -0.285641        -7.7727
  34   2.0000      -0.263894        -7.1809
  35   2.0000      -0.245546        -6.6816
  36   2.0000      -0.238542        -6.4911
  37   2.0000      -0.228114        -6.2073
  38   2.0000      -0.212412        -5.7800
  39   2.0000      -0.199978        -5.4417
  40   0.0000       0.019502         0.5307
  41   0.0000       0.029229         0.7954
  42   0.0000       0.048012         1.3065
  43   0.0000       0.056164         1.5283
  44   0.0000       0.072779         1.9804

MULLIKEN ATOMIC CHARGES
-----------------------
   0 C :    0.042316
   1 C :    0.024667
   2 H :    0.074386
   3 C :    0.086550
   4 H :    0.068336
   5 C :    0.012873
   6 H :    0.071464
   7 C :    0.179769
   8 H :    0.063467
   9 O :   -0.319732
  10 O :   -0.407410
  11 O :   -0.425809
  12 O :   -0.421524
  13 O :   -0.418975
  14 H :    0.082051
  15 H :    0.080368
  16 H :    0.304237
  17 H :    0.305542
  18 H :    0.301998
  19 H :    0.295426
Sum of atomic charges:   -0.0000000

LOEWDIN ATOMIC CHARGES
----------------------
   0 C :   -0.120858
   1 C :   -0.075171
   2 H :    0.110715
   3 C :   -0.064216
   4 H :    0.111326
   5 C :   -0.093830
   6 H :    0.120097
   7 C :   -0.009260
   8 H :    0.093090
   9 O :   -0.161121
  10 O :   -0.318149
  11 O :   -0.313800
  12 O :   -0.322574
  13 O :   -0.317127
  14 H :    0.107423
  15 H :    0.111560
  16 H :    0.288449
  17 H :    0.284717
  18 H :    0.285541
  19 H :    0.283190

  Mayer bond orders larger than 0.100000
B(  0-C ,  1-C ) :   1.1194 B(  0-C ,  9-O ) :   1.0176 B(  0-C , 14-H ) :   0.9007
B(  0-C , 15-H ) :   0.9167 B(  1-C ,  2-H ) :   0.8775 B(  1-C ,  3-C ) :   0.9830
B(  1-C , 13-O ) :   1.0418 B(  3-C ,  4-H ) :   0.8733 B(  3-C ,  5-C ) :   1.0410
B(  3-C , 12-O ) :   1.0743 B(  5-C ,  6-H ) :   0.8545 B(  5-C ,  7-C ) :   1.0292
B(  5-C , 11-O ) :   1.0498 B(  7-C ,  8-H ) :   0.9010 B(  7-C ,  9-O ) :   1.0728
B(  7-C , 10-O ) :   1.1085 B( 10-O , 16-H ) :   0.8395 B( 11-O , 17-H ) :   0.8376
B( 12-O , 18-H ) :   0.8410 B( 13-O , 19-H ) :   0.8504

Dispersion correction           -0.019558915
FINAL SINGLE POINT ENERGY      -571.408810271557

DIPOLE MOMENT
-------------

Method             : SCF
Type of density    : Electron Density
Multiplicity       :   1
Irrep              :   0
Energy             :  -571.5164876050847624 Eh
Relativity type    :
Basis              : AO
                                X                 Y                 Z
Electronic contribution:     -1.252189172      -0.135024644       1.421145572
Nuclear contribution   :      1.321699422       0.777697765      -1.332603870
                        -----------------------------------------
Total Dipole Moment    :      0.069510251       0.642673121       0.088541701
                        -----------------------------------------
Magnitude (a.u.)       :      0.652456932
Magnitude (Debye)      :      1.658413724

Rotational constants in cm-1:             0.051966             0.048496             0.034013
Rotational constants in MHz :          1557.888601          1453.858843          1019.696787

                             ****ORCA TERMINATED NORMALLY****
TOTAL RUN TIME: 0 days 0 hours 0 minutes 11 seconds 209 msec
