                         Program Version 6.0.1  -  RELEASE   -
|  1> ! r2scan-3c def2/J RI DEFGRID2 scfconv6 printgap
|  2> %output
|  3>     printlevel normal
|  4> end
|  5> * xyz 0 1
|  6> C 5.4244649319 -2.0207805221 -2.0413953952
|  7> C 4.9448510362 -1.2316654674 -0.8334674541
|  8> O 3.6385931832 -1.6722588341 -0.413906777
|  9> C 2.5818284383 -1.1461247885 -0.9984332742
| 10> O 2.6179966493 -0.2888128772 -1.852389507
| 11> C 1.2983760191 -1.7612127935 -0.4675336245
| 12> C 0.2586913387 -0.6667369208 -0.2766101876
| 13> H 0.1988600252 -0.0549119418 -1.1877504668
| 14> C 0.5836117845 0.281675322 0.8592641424
| 15> O -0.2817291588 0.7704235865 1.5581016034
| 16> O 1.8652655294 0.5042822949 0.9790459956
| 17> C 2.3000192593 1.4893551414 1.9434612258
| 18> C 2.2591628098 2.88138236 1.3363806163
| 19> S -1.397494396 -1.3565120837 0.0379797495
| 20> P -2.4867282996 0.4699209557 0.1212991454
| 21> S -1.7472556163 2.0074494672 -0.8401372425
| 22> O -3.8883459109 -0.017398601 -0.5024072475
| 23> C -4.0141987195 -0.3498248093 -1.8869931705
| 24> O -2.9728118204 0.7670042417 1.5930962477
| 25> C -3.6356784157 -0.2259959171 2.4003197149
| 26> H 4.7794221345 -1.8258394775 -2.8950673628
| 27> H 6.4364092375 -1.7179471697 -2.2893123801
| 28> H 5.4117993775 -3.0848711216 -1.8225485085
| 29> H 4.8941925211 -0.1638528021 -1.0638783515
| 30> H 5.5822045855 -1.4061718381 0.0333044933
| 31> H 1.503880909 -2.2892325483 0.4621199616
| 32> H 0.929019183 -2.4736943962 -1.2077695361
| 33> H 1.6500111226 1.4266614344 2.8202825277
| 34> H 3.3171686636 1.1892809315 2.1944511144
| 35> H 2.8646394455 2.9158383933 0.4344828304
| 36> H 1.235959661 3.1482290472 1.0765383513
| 37> H 2.6396552498 3.599734278 2.0546861564
| 38> H -3.5246297798 -1.3032890267 -2.0853705868
| 39> H -3.5688675145 0.4338744879 -2.5024437258
| 40> H -5.0822049516 -0.4196754322 -2.0763067368
| 41> H -3.0209356075 -1.1239192385 2.46631942
| 42> H -4.6055405405 -0.4659853521 1.9682416315
| 43> H -3.7468592193 0.2357931161 3.3778884684
| 44> *
| 45>
| 46>                          ****END OF INPUT****

CARTESIAN COORDINATES (ANGSTROEM)
---------------------------------
  C      5.424465   -2.020781   -2.041395
  C      4.944851   -1.231665   -0.833467
  O      3.638593   -1.672259   -0.413907
  C      2.581828   -1.146125   -0.998433
  O      2.617997   -0.288813   -1.852390
  C      1.298376   -1.761213   -0.467534
  C      0.258691   -0.666737   -0.276610
  H      0.198860   -0.054912   -1.187750
  C      0.583612    0.281675    0.859264
  O     -0.281729    0.770424    1.558102
  O      1.865266    0.504282    0.979046
  C      2.300019    1.489355    1.943461
  C      2.259163    2.881382    1.336381
  S     -1.397494   -1.356512    0.037980
  P     -2.486728    0.469921    0.121299
  S     -1.747256    2.007449   -0.840137
  O     -3.888346   -0.017399   -0.502407
  C     -4.014199   -0.349825   -1.886993
  O     -2.972812    0.767004    1.593096
  C     -3.635678   -0.225996    2.400320
  H      4.779422   -1.825839   -2.895067
  H      6.436409   -1.717947   -2.289312
  H      5.411799   -3.084871   -1.822549
  H      4.894193   -0.163853   -1.063878
  H      5.582205   -1.406172    0.033304
  H      1.503881   -2.289233    0.462120
  H      0.929019   -2.473694   -1.207770
  H      1.650011    1.426661    2.820283
  H      3.317169    1.189281    2.194451
  H      2.864639    2.915838    0.434483
  H      1.235960    3.148229    1.076538
  H      2.639655    3.599734    2.054686
  H     -3.524630   -1.303289   -2.085371
  H     -3.568868    0.433874   -2.502444
  H     -5.082205   -0.419675   -2.076307
  H     -3.020936   -1.123919    2.466319
  H     -4.605541   -0.465985    1.968242
  H     -3.746859    0.235793    3.377888

 Total Charge           Charge          ....    0
 Multiplicity           Mult            ....    1
 Number of Electrons    NEL             ....  174
 Basis Dimension        Dim             ....  510

ORBITAL ENERGIES
----------------

  NO   OCC          E(Eh)            E(eV)
   0   2.0000     -88.571683     -2410.1580
   1   2.0000     -88.505660     -2408.3614
   2   2.0000     -76.905495     -2092.7049
   3   2.0000     -19.014340      -517.4065
   4   2.0000     -19.007407      -517.2178
   5   2.0000     -18.981311      -516.5077
   6   2.0000     -18.978044      -516.4188
   7   2.0000     -18.940667      -515.4018
   8   2.0000     -18.937019      -515.3025
   9   2.0000     -10.166621      -276.6478
  10   2.0000     -10.165519      -276.6178
  11   2.0000     -10.100212      -274.8407
  12   2.0000     -10.099809      -274.8298
  13   2.0000     -10.094299      -274.6799
  14   2.0000     -10.088946      -274.5342
  15   2.0000     -10.080882      -274.3148
  16   2.0000     -10.066144      -273.9137
  17   2.0000     -10.035366      -273.0762
  18   2.0000     -10.028852      -272.8989
  19   2.0000      -7.865981      -214.0442
  20   2.0000      -7.800501      -212.2624
  21   2.0000      -6.583170      -179.1372
  22   2.0000      -5.812784      -158.1739
  23   2.0000      -5.809895      -158.0953
  24   2.0000      -5.803123      -157.9110
  25   2.0000      -5.748464      -156.4237
  26   2.0000      -5.740913      -156.2182
  27   2.0000      -5.740041      -156.1945
  28   2.0000      -4.728933      -128.6808
  29   2.0000      -4.728365      -128.6654
  30   2.0000      -4.726562      -128.6163
  31   2.0000      -1.092377       -29.7251
  32   2.0000      -1.083111       -29.4729
  33   2.0000      -1.039052       -28.2740
  34   2.0000      -0.996418       -27.1139
  35   2.0000      -0.992066       -26.9955
  36   2.0000      -0.987490       -26.8710
  37   2.0000      -0.812029       -22.0964
  38   2.0000      -0.757216       -20.6049
  39   2.0000      -0.749294       -20.3893
  40   2.0000      -0.726390       -19.7661
  41   2.0000      -0.696941       -18.9647
  42   2.0000      -0.665891       -18.1198
  43   2.0000      -0.658383       -17.9155
  44   2.0000      -0.645668       -17.5695
  45   2.0000      -0.633200       -17.2303
  46   2.0000      -0.598510       -16.2863
  47   2.0000      -0.539249       -14.6737
  48   2.0000      -0.532576       -14.4921
  49   2.0000      -0.525962       -14.3122
  50   2.0000      -0.495634       -13.4869
  51   2.0000      -0.495510       -13.4835
  52   2.0000      -0.482941       -13.1415
  53   2.0000      -0.466761       -12.7012
  54   2.0000      -0.462654       -12.5895
  55   2.0000      -0.453068       -12.3286
  56   2.0000      -0.442611       -12.0441
  57   2.0000      -0.439267       -11.9531
  58   2.0000      -0.434794       -11.8313
  59   2.0000      -0.425154       -11.5690
  60   2.0000      -0.423046       -11.5117
  61   2.0000      -0.419089       -11.4040
  62   2.0000      -0.409009       -11.1297
  63   2.0000      -0.406055       -11.0493
  64   2.0000      -0.395552       -10.7635
  65   2.0000      -0.385679       -10.4949
  66   2.0000      -0.373113       -10.1529
  67   2.0000      -0.371661       -10.1134
  68   2.0000      -0.364427        -9.9166
  69   2.0000      -0.353661        -9.6236
  70   2.0000      -0.350351        -9.5335
  71   2.0000      -0.344734        -9.3807
  72   2.0000      -0.340083        -9.2541
  73   2.0000      -0.328641        -8.9428
  74   2.0000      -0.316892        -8.6231
  75   2.0000      -0.315776        -8.5927
  76   2.0000      -0.309050        -8.4097
  77   2.0000      -0.304798        -8.2940
  78   2.0000      -0.288112        -7.8399
  79   2.0000      -0.279816        -7.6142
  80   2.0000      -0.277757        -7.5582
  81   2.0000      -0.267279        -7.2730
  82   2.0000      -0.252147        -6.8613
  83   2.0000      -0.246429        -6.7057
  84   2.0000      -0.233232        -6.3466
  85   2.0000      -0.207523        -5.6470
  86   2.0000      -0.199246        -5.4217
  87   0.0000      -0.043733        -1.1900
  88   0.0000      -0.028926        -0.7871
  89   0.0000      -0.016327        -0.4443
  90   0.0000       0.011001         0.2994
  91   0.0000       0.027758         0.7553

MULLIKEN ATOMIC CHARGES
-----------------------
   0 C :   -0.469558
   1 C :   -0.136280
   2 O :   -0.162948
   3 C :    0.322854
   4 O :   -0.402434
   5 C :   -0.389153
   6 C :   -0.021050
   7 H :    0.272093
   8 C :    0.276274
   9 O :   -0.401892
  10 O :   -0.100928
  11 C :   -0.144615
  12 C :   -0.461420
  13 S :   -0.217979
  14 P :    0.812477
  15 S :   -0.463521
  16 O :   -0.364119
  17 C :   -0.301304
  18 O :   -0.301765
  19 C :   -0.291177
  20 H :    0.174430
  21 H :    0.149095
  22 H :    0.153070
  23 H :    0.169065
  24 H :    0.149489
  25 H :    0.193879
  26 H :    0.184281
  27 H :    0.168758
  28 H :    0.148882
  29 H :    0.157658
  30 H :    0.185352
  31 H :    0.148390
  32 H :    0.153709
  33 H :    0.176278
  34 H :    0.148510
  35 H :    0.162869
  36 H :    0.167208
  37 H :    0.155520
Sum of atomic charges:   -0.0000000

LOEWDIN ATOMIC CHARGES
----------------------
   0 C :   -0.388476
   1 C :    0.029922
   2 O :   -0.580305
   3 C :    0.355170
   4 O :   -0.426820
   5 C :   -0.202209
   6 C :   -0.204185
   7 H :    0.224097
   8 C :    0.359943
   9 O :   -0.449705
  10 O :   -0.569316
  11 C :    0.038654
  12 C :   -0.384981
  13 S :    0.187809
  14 P :    0.409060
  15 S :   -0.087915
  16 O :   -0.695388
  17 C :   -0.065717
  18 O :   -0.637892
  19 C :   -0.049637
  20 H :    0.166004
  21 H :    0.160260
  22 H :    0.157888
  23 H :    0.188813
  24 H :    0.178824
  25 H :    0.190934
  26 H :    0.190349
  27 H :    0.190502
  28 H :    0.178693
  29 H :    0.160842
  30 H :    0.172767
  31 H :    0.159650
  32 H :    0.166500
  33 H :    0.176750
  34 H :    0.175085
  35 H :    0.171451
  36 H :    0.172537
  37 H :    0.180044

  Mayer bond orders larger than 0.100000
B(  0-C ,  1-C ) :   0.9384 B(  0-C , 20-H ) :   0.9704 B(  0-C , 21-H ) :   0.9643
B(  0-C , 22-H ) :   0.9731 B(  1-C ,  2-O ) :   0.8094 B(  1-C , 23-H ) :   0.9684
B(  1-C , 24-H ) :   0.9605 B(  2-O ,  3-C ) :   1.0727 B(  3-C ,  4-O ) :   1.8717
B(  3-C ,  5-C ) :   0.8863 B(  5-C ,  6-C ) :   0.8554 B(  5-C , 25-H ) :   1.0013
B(  5-C , 26-H ) :   0.9368 B(  6-C ,  7-H ) :   0.8832 B(  6-C ,  8-C ) :   0.9774
B(  6-C , 13-S ) :   0.8790 B(  8-C ,  9-O ) :   1.8102 B(  8-C , 10-O ) :   1.1680
B(  9-O , 14-P ) :   0.1063 B( 10-O , 11-C ) :   0.7653 B( 11-C , 12-C ) :   0.9406
B( 11-C , 27-H ) :   0.9604 B( 11-C , 28-H ) :   0.9622 B( 12-C , 29-H ) :   0.9719
B( 12-C , 30-H ) :   0.9624 B( 12-C , 31-H ) :   0.9653 B( 13-S , 14-P ) :   0.9645
B( 14-P , 15-S ) :   1.7892 B( 14-P , 16-O ) :   1.0006 B( 14-P , 18-O ) :   1.1872
B( 16-O , 17-C ) :   0.8383 B( 17-C , 32-H ) :   0.9569 B( 17-C , 33-H ) :   0.9579
B( 17-C , 34-H ) :   0.9694 B( 18-O , 19-C ) :   0.7962 B( 19-C , 35-H ) :   0.9593
B( 19-C , 36-H ) :   0.9628 B( 19-C , 37-H ) :   0.9657

Dispersion correction           -0.016885934
FINAL SINGLE POINT ENERGY     -1981.447803931803

DIPOLE MOMENT
-------------

Method             : SCF
Type of density    : Electron Density
Multiplicity       :   1
Irrep              :   0
Energy             : -1981.4685371853893230 Eh
Relativity type    :
Basis              : AO
                                X                 Y                 Z
Electronic contribution:    -17.923857816       2.178811049       1.021634649
Nuclear contribution   :     19.115253673      -3.608783773      -0.292157423
                        -----------------------------------------
Total Dipole Moment    :      1.191395857      -1.429972724       0.729477226
                        -----------------------------------------
Magnitude (a.u.)       :      1.999095571
Magnitude (Debye)      :      5.081297125

Rotational constants in cm-1:             0.016748             0.005529             0.004958
Rotational constants in MHz :           502.097268           165.745690           148.640225

                             ****ORCA TERMINATED NORMALLY****
TOTAL RUN TIME: 0 days 0 hours 1 minutes 14 seconds 747 msec
