                         Program Version 6.0.1  -  RELEASE   -
|  1> ! r2scan-3c def2/J RI DEFGRID2 scfconv6 printgap
|  2> %output
|  3>     printlevel normal
|  4> end
|  5> %cpcm
|  6>     smd true
|  7>     smdsolvent "water"
|  8> end
|  9> * xyz 0 1
| 10> C 5.4244649319 -2.0207805221 -2.0413953952
| 11> C 4.9448510362 -1.2316654674 -0.8334674541
| 12> O 3.6385931832 -1.6722588341 -0.413906777
| 13> C 2.5818284383 -1.1461247885 -0.9984332742
| 14> O 2.6179966493 -0.2888128772 -1.852389507
| 15> C 1.2983760191 -1.7612127935 -0.4675336245
| 16> C 0.2586913387 -0.6667369208 -0.2766101876
| 17> H 0.1988600252 -0.0549119418 -1.1877504668
| 18> C 0.5836117845 0.281675322 0.8592641424
| 19> O -0.2817291588 0.7704235865 1.5581016034
| 20> O 1.8652655294 0.5042822949 0.9790459956
| 21> C 2.3000192593 1.4893551414 1.9434612258
| 22> C 2.2591628098 2.88138236 1.3363806163
| 23> S -1.397494396 -1.3565120837 0.0379797495
| 24> P -2.4867282996 0.4699209557 0.1212991454
| 25> S -1.7472556163 2.0074494672 -0.8401372425
| 26> O -3.8883459109 -0.017398601 -0.5024072475
| 27> C -4.0141987195 -0.3498248093 -1.8869931705
| 28> O -2.9728118204 0.7670042417 1.5930962477
| 29> C -3.6356784157 -0.2259959171 2.4003197149
| 30> H 4.7794221345 -1.8258394775 -2.8950673628
| 31> H 6.4364092375 -1.7179471697 -2.2893123801
| 32> H 5.4117993775 -3.0848711216 -1.8225485085
| 33> H 4.8941925211 -0.1638528021 -1.0638783515
| 34> H 5.5822045855 -1.4061718381 0.0333044933
| 35> H 1.503880909 -2.2892325483 0.4621199616
| 36> H 0.929019183 -2.4736943962 -1.2077695361
| 37> H 1.6500111226 1.4266614344 2.8202825277
| 38> H 3.3171686636 1.1892809315 2.1944511144
| 39> H 2.8646394455 2.9158383933 0.4344828304
| 40> H 1.235959661 3.1482290472 1.0765383513
| 41> H 2.6396552498 3.599734278 2.0546861564
| 42> H -3.5246297798 -1.3032890267 -2.0853705868
| 43> H -3.5688675145 0.4338744879 -2.5024437258
| 44> H -5.0822049516 -0.4196754322 -2.0763067368
| 45> H -3.0209356075 -1.1239192385 2.46631942
| 46> H -4.6055405405 -0.4659853521 1.9682416315
| 47> H -3.7468592193 0.2357931161 3.3778884684
| 48> *
| 49>
| 50>                          ****END OF INPUT****

CARTESIAN COORDINATES (ANGSTROEM)
---------------------------------
  C      5.424465   -2.020781   -2.041395
  C      4.944851   -1.231665   -0.833467
  O      3.638593   -1.672259   -0.413907
  C      2.581828   -1.146125   -0.998433
  O      2.617997   -0.288813   -1.852390
  C      1.298376   -1.761213   -0.467534
  C      0.258691   -0.666737   -0.276610
  H      0.198860   -0.054912   -1.187750
  C      0.583612    0.281675    0.859264
  O     -0.281729    0.770424    1.558102
  O      1.865266    0.504282    0.979046
  C      2.300019    1.489355    1.943461
  C      2.259163    2.881382    1.336381
  S     -1.397494   -1.356512    0.037980
  P     -2.486728    0.469921    0.121299
  S     -1.747256    2.007449   -0.840137
  O     -3.888346   -0.017399   -0.502407
  C     -4.014199   -0.349825   -1.886993
  O     -2.972812    0.767004    1.593096
  C     -3.635678   -0.225996    2.400320
  H      4.779422   -1.825839   -2.895067
  H      6.436409   -1.717947   -2.289312
  H      5.411799   -3.084871   -1.822549
  H      4.894193   -0.163853   -1.063878
  H      5.582205   -1.406172    0.033304
  H      1.503881   -2.289233    0.462120
  H      0.929019   -2.473694   -1.207770
  H      1.650011    1.426661    2.820283
  H      3.317169    1.189281    2.194451
  H      2.864639    2.915838    0.434483
  H      1.235960    3.148229    1.076538
  H      2.639655    3.599734    2.054686
  H     -3.524630   -1.303289   -2.085371
  H     -3.568868    0.433874   -2.502444
  H     -5.082205   -0.419675   -2.076307
  H     -3.020936   -1.123919    2.466319
  H     -4.605541   -0.465985    1.968242
  H     -3.746859    0.235793    3.377888

 Total Charge           Charge          ....    0
 Multiplicity           Mult            ....    1
 Number of Electrons    NEL             ....  174
 Basis Dimension        Dim             ....  510

ORBITAL ENERGIES
----------------

  NO   OCC          E(Eh)            E(eV)
   0   2.0000     -88.579637     -2410.3745
   1   2.0000     -88.524609     -2408.8771
   2   2.0000     -76.919760     -2093.0931
   3   2.0000     -19.017630      -517.4960
   4   2.0000     -19.008589      -517.2500
   5   2.0000     -18.994851      -516.8762
   6   2.0000     -18.988471      -516.7026
   7   2.0000     -18.953005      -515.7375
   8   2.0000     -18.948241      -515.6078
   9   2.0000     -10.176151      -276.9071
  10   2.0000     -10.172809      -276.8162
  11   2.0000     -10.098387      -274.7911
  12   2.0000     -10.090042      -274.5640
  13   2.0000     -10.086103      -274.4568
  14   2.0000     -10.084563      -274.4149
  15   2.0000     -10.078578      -274.2521
  16   2.0000     -10.059743      -273.7395
  17   2.0000     -10.020885      -272.6821
  18   2.0000     -10.019392      -272.6415
  19   2.0000      -7.873819      -214.2575
  20   2.0000      -7.819822      -212.7882
  21   2.0000      -6.597563      -179.5288
  22   2.0000      -5.820660      -158.3882
  23   2.0000      -5.817790      -158.3101
  24   2.0000      -5.810881      -158.1221
  25   2.0000      -5.767633      -156.9453
  26   2.0000      -5.760289      -156.7454
  27   2.0000      -5.759384      -156.7208
  28   2.0000      -4.743306      -129.0719
  29   2.0000      -4.742663      -129.0544
  30   2.0000      -4.741090      -129.0116
  31   2.0000      -1.097093       -29.8534
  32   2.0000      -1.086116       -29.5547
  33   2.0000      -1.051112       -28.6022
  34   2.0000      -1.007200       -27.4073
  35   2.0000      -1.002737       -27.2859
  36   2.0000      -0.996565       -27.1179
  37   2.0000      -0.814063       -22.1518
  38   2.0000      -0.751161       -20.4401
  39   2.0000      -0.745695       -20.2914
  40   2.0000      -0.728395       -19.8206
  41   2.0000      -0.697185       -18.9714
  42   2.0000      -0.667154       -18.1542
  43   2.0000      -0.659443       -17.9444
  44   2.0000      -0.654785       -17.8176
  45   2.0000      -0.626553       -17.0494
  46   2.0000      -0.596459       -16.2305
  47   2.0000      -0.539447       -14.6791
  48   2.0000      -0.528268       -14.3749
  49   2.0000      -0.526262       -14.3203
  50   2.0000      -0.497555       -13.5392
  51   2.0000      -0.496576       -13.5125
  52   2.0000      -0.488688       -13.2979
  53   2.0000      -0.474361       -12.9080
  54   2.0000      -0.462625       -12.5887
  55   2.0000      -0.460493       -12.5307
  56   2.0000      -0.447775       -12.1846
  57   2.0000      -0.441305       -12.0085
  58   2.0000      -0.437282       -11.8991
  59   2.0000      -0.426951       -11.6179
  60   2.0000      -0.423255       -11.5173
  61   2.0000      -0.416133       -11.3235
  62   2.0000      -0.408113       -11.1053
  63   2.0000      -0.405490       -11.0339
  64   2.0000      -0.392917       -10.6918
  65   2.0000      -0.382361       -10.4046
  66   2.0000      -0.370223       -10.0743
  67   2.0000      -0.367015        -9.9870
  68   2.0000      -0.362689        -9.8693
  69   2.0000      -0.352172        -9.5831
  70   2.0000      -0.350351        -9.5335
  71   2.0000      -0.342042        -9.3074
  72   2.0000      -0.339436        -9.2365
  73   2.0000      -0.330461        -8.9923
  74   2.0000      -0.319126        -8.6839
  75   2.0000      -0.313403        -8.5281
  76   2.0000      -0.310156        -8.4398
  77   2.0000      -0.307387        -8.3644
  78   2.0000      -0.292014        -7.9461
  79   2.0000      -0.287697        -7.8286
  80   2.0000      -0.282116        -7.6768
  81   2.0000      -0.276623        -7.5273
  82   2.0000      -0.263728        -7.1764
  83   2.0000      -0.258191        -7.0257
  84   2.0000      -0.242612        -6.6018
  85   2.0000      -0.227021        -6.1776
  86   2.0000      -0.218958        -5.9582
  87   0.0000      -0.051847        -1.4108
  88   0.0000      -0.038348        -1.0435
  89   0.0000      -0.022382        -0.6091
  90   0.0000       0.003233         0.0880
  91   0.0000       0.016988         0.4623

MULLIKEN ATOMIC CHARGES
-----------------------
   0 C :   -0.495365
   1 C :   -0.138489
   2 O :   -0.182018
   3 C :    0.356638
   4 O :   -0.478617
   5 C :   -0.397860
   6 C :   -0.025187
   7 H :    0.274688
   8 C :    0.299257
   9 O :   -0.453548
  10 O :   -0.110598
  11 C :   -0.141046
  12 C :   -0.497821
  13 S :   -0.204570
  14 P :    0.816040
  15 S :   -0.519493
  16 O :   -0.393616
  17 C :   -0.308993
  18 O :   -0.350588
  19 C :   -0.296904
  20 H :    0.170452
  21 H :    0.171892
  22 H :    0.166905
  23 H :    0.174300
  24 H :    0.177087
  25 H :    0.220413
  26 H :    0.221593
  27 H :    0.178807
  28 H :    0.181112
  29 H :    0.170954
  30 H :    0.169905
  31 H :    0.175412
  32 H :    0.172566
  33 H :    0.175717
  34 H :    0.177177
  35 H :    0.177819
  36 H :    0.184021
  37 H :    0.181957
Sum of atomic charges:   -0.0000000

LOEWDIN ATOMIC CHARGES
----------------------
   0 C :   -0.391231
   1 C :    0.036225
   2 O :   -0.580401
   3 C :    0.364703
   4 O :   -0.480877
   5 C :   -0.193890
   6 C :   -0.200135
   7 H :    0.223310
   8 C :    0.366186
   9 O :   -0.491421
  10 O :   -0.566509
  11 C :    0.046527
  12 C :   -0.389109
  13 S :    0.205844
  14 P :    0.406264
  15 S :   -0.133659
  16 O :   -0.707586
  17 C :   -0.060632
  18 O :   -0.669843
  19 C :   -0.041876
  20 H :    0.163015
  21 H :    0.168577
  22 H :    0.162731
  23 H :    0.190909
  24 H :    0.191014
  25 H :    0.202940
  26 H :    0.205191
  27 H :    0.193890
  28 H :    0.192750
  29 H :    0.163795
  30 H :    0.163846
  31 H :    0.170020
  32 H :    0.174592
  33 H :    0.176514
  34 H :    0.187236
  35 H :    0.178785
  36 H :    0.181059
  37 H :    0.191245

  Mayer bond orders larger than 0.100000
B(  0-C ,  1-C ) :   0.9356 B(  0-C , 20-H ) :   0.9683 B(  0-C , 21-H ) :   0.9595
B(  0-C , 22-H ) :   0.9692 B(  1-C ,  2-O ) :   0.7921 B(  1-C , 23-H ) :   0.9633
B(  1-C , 24-H ) :   0.9504 B(  2-O ,  3-C ) :   1.0929 B(  3-C ,  4-O ) :   1.8100
B(  3-C ,  5-C ) :   0.8999 B(  5-C ,  6-C ) :   0.8472 B(  5-C , 25-H ) :   0.9867
B(  5-C , 26-H ) :   0.9277 B(  6-C ,  7-H ) :   0.8871 B(  6-C ,  8-C ) :   0.9687
B(  6-C , 13-S ) :   0.8675 B(  8-C ,  9-O ) :   1.7737 B(  8-C , 10-O ) :   1.1874
B(  9-O , 14-P ) :   0.1072 B( 10-O , 11-C ) :   0.7523 B( 11-C , 12-C ) :   0.9226
B( 11-C , 27-H ) :   0.9569 B( 11-C , 28-H ) :   0.9510 B( 12-C , 29-H ) :   0.9715
B( 12-C , 30-H ) :   0.9680 B( 12-C , 31-H ) :   0.9585 B( 13-S , 14-P ) :   0.9925
B( 14-P , 15-S ) :   1.7761 B( 14-P , 16-O ) :   1.0044 B( 14-P , 18-O ) :   1.1793
B( 16-O , 17-C ) :   0.8301 B( 17-C , 32-H ) :   0.9501 B( 17-C , 33-H ) :   0.9551
B( 17-C , 34-H ) :   0.9589 B( 18-O , 19-C ) :   0.7886 B( 19-C , 35-H ) :   0.9489
B( 19-C , 36-H ) :   0.9535 B( 19-C , 37-H ) :   0.9547

Dispersion correction           -0.016885934
FINAL SINGLE POINT ENERGY     -1981.463454433381

DIPOLE MOMENT
-------------

Method             : SCF
Type of density    : Electron Density
Multiplicity       :   1
Irrep              :   0
Energy             : -1981.4841876869677435 Eh
Relativity type    :
Basis              : AO
                                X                 Y                 Z
Electronic contribution:    -17.492215898       1.238120971       1.252249772
Nuclear contribution   :     19.115253673      -3.608783773      -0.292157423
                        -----------------------------------------
Total Dipole Moment    :      1.623037775      -2.370662802       0.960092349
                        -----------------------------------------
Magnitude (a.u.)       :      3.029203040
Magnitude (Debye)      :      7.699622228

Rotational constants in cm-1:             0.016748             0.005529             0.004958
Rotational constants in MHz :           502.097268           165.745690           148.640225

                             ****ORCA TERMINATED NORMALLY****
TOTAL RUN TIME: 0 days 0 hours 1 minutes 39 seconds 945 msec
