                         Program Version 6.0.0  -   RELEASE  -
|  1> ! wb97x-v def2-tzvp def2/J RIJCOSX DEFGRID2 scfconv7 GCP(DFT/TZ) printgap
|  2> %output
|  3>     printlevel normal
|  4> end
|  5> * xyz 0 1
|  6> C -0.692899194001343 -0.6211309016402463 -0.31850138277128975
|  7> C 0.6937786563040285 -0.5879541322563967 0.28537703122136093
|  8> O 1.452253076820276 0.5450756026442081 -0.1663531165431969
|  9> O -1.4560330690473768 0.5450497484146073 0.04119694343429733
| 10> H -1.207105028125138 -1.5393171925004938 -0.0009022319113394979
| 11> H -0.6306243009024138 -0.6161855011408189 -1.411368621599633
| 12> H 1.246382502113136 -1.4820732567969421 -0.021496162652155985
| 13> H 0.622188313376667 -0.5874336921305177 1.3839597680662663
| 14> H 0.9323109593896849 1.3303176869626718 0.052587182011443113
| 15> H -1.5863004196326211 0.5189262841321575 0.9986045732809354
| 16> *
| 17>
| 18>                          ****END OF INPUT****

CARTESIAN COORDINATES (ANGSTROEM)
---------------------------------
  C     -0.692899   -0.621131   -0.318501
  C      0.693779   -0.587954    0.285377
  O      1.452253    0.545076   -0.166353
  O     -1.456033    0.545050    0.041197
  H     -1.207105   -1.539317   -0.000902
  H     -0.630624   -0.616186   -1.411369
  H      1.246383   -1.482073   -0.021496
  H      0.622188   -0.587434    1.383960
  H      0.932311    1.330318    0.052587
  H     -1.586300    0.518926    0.998605

 Total Charge           Charge          ....    0
 Multiplicity           Mult            ....    1
 Number of Electrons    NEL             ....   34
 Basis Dimension        Dim             ....  160

ORBITAL ENERGIES
----------------

  NO   OCC          E(Eh)            E(eV)
   0   2.0000     -21.684461      -590.0642
   1   2.0000     -21.670420      -589.6821
   2   2.0000     -12.099948      -329.2563
   3   2.0000     -12.098170      -329.2079
   4   2.0000      -1.683978       -45.8234
   5   2.0000      -1.668702       -45.4077
   6   2.0000      -1.277503       -34.7626
   7   2.0000      -1.161449       -31.6046
   8   2.0000      -1.058756       -28.8102
   9   2.0000      -1.007386       -27.4124
  10   2.0000      -0.973008       -26.4769
  11   2.0000      -0.958864       -26.0920
  12   2.0000      -0.939136       -25.5552
  13   2.0000      -0.901822       -24.5398
  14   2.0000      -0.841296       -22.8928
  15   2.0000      -0.811970       -22.0948
  16   2.0000      -0.792393       -21.5621
  17   0.0000      -0.170969        -4.6523
  18   0.0000      -0.119956        -3.2642
  19   0.0000      -0.066407        -1.8070
  20   0.0000      -0.026493        -0.7209
  21   0.0000       0.005090         0.1385

MULLIKEN ATOMIC CHARGES
-----------------------
   0 C :   -0.037015
   1 C :   -0.039876
   2 O :   -0.450772
   3 O :   -0.459583
   4 H :    0.089212
   5 H :    0.109278
   6 H :    0.099103
   7 H :    0.082019
   8 H :    0.307996
   9 H :    0.299637
Sum of atomic charges:    0.0000000

LOEWDIN ATOMIC CHARGES
----------------------
   0 C :   -0.346992
   1 C :   -0.351872
   2 O :   -0.058330
   3 O :   -0.062735
   4 H :    0.116385
   5 H :    0.128608
   6 H :    0.128690
   7 H :    0.110492
   8 H :    0.168625
   9 H :    0.167127

  Mayer bond orders larger than 0.100000
B(  0-C ,  1-C ) :   1.0015 B(  0-C ,  3-O ) :   0.9842 B(  0-C ,  4-H ) :   0.9674
B(  0-C ,  5-H ) :   0.9644 B(  1-C ,  2-O ) :   1.0058 B(  1-C ,  6-H ) :   0.9616
B(  1-C ,  7-H ) :   0.9653 B(  2-O ,  8-H ) :   0.8911 B(  3-O ,  9-H ) :   0.9032

FINAL SINGLE POINT ENERGY      -230.269020192371

DIPOLE MOMENT
-------------

Method             : SCF
Type of density    : Electron Density
Multiplicity       :   1
Irrep              :   0
Energy             :  -230.2759937937714199 Eh
Relativity type    :
Basis              : AO
                                X                 Y                 Z
Electronic contribution:      0.123529162       1.792671969      -0.368837122
Nuclear contribution   :     -0.522862299      -2.260521245       1.064424452
                        -----------------------------------------
Total Dipole Moment    :     -0.399333137      -0.467849277       0.695587330
                        -----------------------------------------
Magnitude (a.u.)       :      0.928542748
Magnitude (Debye)      :      2.360168099

Rotational constants in cm-1:             0.507013             0.179279             0.150356
Rotational constants in MHz :         15199.879451          5374.662469          4507.565875

                             ****ORCA TERMINATED NORMALLY****
TOTAL RUN TIME: 0 days 0 hours 0 minutes 33 seconds 754 msec
