                         Program Version 6.0.0  -   RELEASE  -
|  1> ! wb97x-v def2-tzvp def2/J RIJCOSX DEFGRID2 scfconv7 GCP(DFT/TZ) printgap
|  2> %output
|  3>     printlevel normal
|  4> end
|  5> %cpcm
|  6>     smd true
|  7>     smdsolvent "water"
|  8> end
|  9> * xyz 0 1
| 10> C -0.692899194001343 -0.6211309016402463 -0.31850138277128975
| 11> C 0.6937786563040285 -0.5879541322563967 0.28537703122136093
| 12> O 1.452253076820276 0.5450756026442081 -0.1663531165431969
| 13> O -1.4560330690473768 0.5450497484146073 0.04119694343429733
| 14> H -1.207105028125138 -1.5393171925004938 -0.0009022319113394979
| 15> H -0.6306243009024138 -0.6161855011408189 -1.411368621599633
| 16> H 1.246382502113136 -1.4820732567969421 -0.021496162652155985
| 17> H 0.622188313376667 -0.5874336921305177 1.3839597680662663
| 18> H 0.9323109593896849 1.3303176869626718 0.052587182011443113
| 19> H -1.5863004196326211 0.5189262841321575 0.9986045732809354
| 20> *
| 21>
| 22>                          ****END OF INPUT****

CARTESIAN COORDINATES (ANGSTROEM)
---------------------------------
  C     -0.692899   -0.621131   -0.318501
  C      0.693779   -0.587954    0.285377
  O      1.452253    0.545076   -0.166353
  O     -1.456033    0.545050    0.041197
  H     -1.207105   -1.539317   -0.000902
  H     -0.630624   -0.616186   -1.411369
  H      1.246383   -1.482073   -0.021496
  H      0.622188   -0.587434    1.383960
  H      0.932311    1.330318    0.052587
  H     -1.586300    0.518926    0.998605

 Total Charge           Charge          ....    0
 Multiplicity           Mult            ....    1
 Number of Electrons    NEL             ....   34
 Basis Dimension        Dim             ....  160

ORBITAL ENERGIES
----------------

  NO   OCC          E(Eh)            E(eV)
   0   2.0000     -21.676312      -589.8424
   1   2.0000     -21.673943      -589.7780
   2   2.0000     -12.087291      -328.9119
   3   2.0000     -12.085928      -328.8748
   4   2.0000      -1.678219       -45.6667
   5   2.0000      -1.670068       -45.4449
   6   2.0000      -1.267018       -34.4773
   7   2.0000      -1.155200       -31.4346
   8   2.0000      -1.054765       -28.7016
   9   2.0000      -1.005402       -27.3584
  10   2.0000      -0.968828       -26.3631
  11   2.0000      -0.955180       -25.9918
  12   2.0000      -0.937175       -25.5018
  13   2.0000      -0.901338       -24.5267
  14   2.0000      -0.830501       -22.5991
  15   2.0000      -0.802873       -21.8473
  16   2.0000      -0.782058       -21.2809
  17   0.0000      -0.160426        -4.3654
  18   0.0000      -0.109254        -2.9729
  19   0.0000      -0.037377        -1.0171
  20   0.0000      -0.007491        -0.2039
  21   0.0000       0.019240         0.5236

MULLIKEN ATOMIC CHARGES
-----------------------
   0 C :   -0.038065
   1 C :   -0.035104
   2 O :   -0.559260
   3 O :   -0.560255
   4 H :    0.117335
   5 H :    0.119783
   6 H :    0.124634
   7 H :    0.113956
   8 H :    0.354506
   9 H :    0.362471
Sum of atomic charges:   -0.0000000

LOEWDIN ATOMIC CHARGES
----------------------
   0 C :   -0.342020
   1 C :   -0.344261
   2 O :   -0.102205
   3 O :   -0.099515
   4 H :    0.127307
   5 H :    0.128734
   6 H :    0.134224
   7 H :    0.122595
   8 H :    0.183986
   9 H :    0.191154

  Mayer bond orders larger than 0.100000
B(  0-C ,  1-C ) :   1.0058 B(  0-C ,  3-O ) :   0.9663 B(  0-C ,  4-H ) :   0.9687
B(  0-C ,  5-H ) :   0.9637 B(  1-C ,  2-O ) :   0.9560 B(  1-C ,  6-H ) :   0.9581
B(  1-C ,  7-H ) :   0.9690 B(  2-O ,  8-H ) :   0.8636 B(  3-O ,  9-H ) :   0.8656

FINAL SINGLE POINT ENERGY      -230.285224956753

DIPOLE MOMENT
-------------

Method             : SCF
Type of density    : Electron Density
Multiplicity       :   1
Irrep              :   0
Energy             :  -230.2921985581534727 Eh
Relativity type    :
Basis              : AO
                                X                 Y                 Z
Electronic contribution:     -0.006447063       1.609199296      -0.082970492
Nuclear contribution   :     -0.522862299      -2.260521245       1.064424452
                        -----------------------------------------
Total Dipole Moment    :     -0.529309362      -0.651321949       0.981453961
                        -----------------------------------------
Magnitude (a.u.)       :      1.291371581
Magnitude (Debye)      :      3.282405701

Rotational constants in cm-1:             0.507013             0.179279             0.150356
Rotational constants in MHz :         15199.879451          5374.662469          4507.565875

                             ****ORCA TERMINATED NORMALLY****
TOTAL RUN TIME: 0 days 0 hours 0 minutes 43 seconds 104 msec
