                         Program Version 6.0.0  -   RELEASE  -
|  1> ! pbe def2-sv(p) def2/J RI DEFGRID1 loosescf d4 GCP(DFT/SV(P)) printgap
|  2> %output
|  3>     printlevel normal
|  4> end
|  5> * xyz 0 1
|  6> C 4.0668093688 -0.0415604017 -2.4368951963
|  7> C 4.292832201 0.8005423302 -1.1980223475
|  8> O 3.749787873 0.1870244912 -0.0167203069
|  9> P 2.1918169328 -0.0551708032 0.1873291934
| 10> S 1.0712093842 1.4550552572 -0.4061328992
| 11> O 2.1028043393 -0.3969562966 1.7289124291
| 12> C 2.077571409 0.6130577633 2.7589632115
| 13> C 3.4786675953 1.0159970892 3.1714728702
| 14> S 1.8743663914 -1.9886163336 -0.5814280377
| 15> C 0.0885894556 -1.9285896828 -0.8923897245
| 16> S -0.8695387561 -1.3743385953 0.5507271951
| 17> P -2.1375003774 0.0224869173 -0.4163645859
| 18> S -1.8445713454 0.4210848695 -2.3074012338
| 19> O -2.1425340266 1.3378399065 0.4692558586
| 20> C -1.8932870521 1.4076109113 1.8880173291
| 21> C -2.8842198451 0.5968955329 2.696270689
| 22> O -3.5223042194 -0.7334593853 -0.1437271105
| 23> C -4.6829430122 -0.5248146158 -0.9646161722
| 24> C -5.3073117581 0.8328426482 -0.7117649773
| 25> H 4.4223095792 -1.0561290243 -2.2751565581
| 26> H 3.0036943344 -0.0756369493 -2.674778252
| 27> H 4.5976032717 0.3998274141 -3.2743985495
| 28> H 3.8334930069 1.7873354407 -1.3161951872
| 29> H 5.3546147976 0.9079885445 -0.9722619804
| 30> H 1.5152399856 1.4780805586 2.3891517789
| 31> H 1.5375334976 0.142186893 3.582353904
| 32> H 4.0470020892 0.136429669 3.460218184
| 33> H 3.9887547164 1.5071906035 2.3460270045
| 34> H 3.4195226017 1.7004780997 4.0119817255
| 35> H -0.1981275328 -2.9482363959 -1.1380784662
| 36> H -0.1227833999 -1.2508486583 -1.7252829905
| 37> H -0.8700699916 1.0666681911 2.0707617148
| 38> H -1.9649807663 2.4750439876 2.1034201617
| 39> H -2.8005600563 -0.4589454637 2.442115265
| 40> H -2.6693612159 0.7259747101 3.7524158441
| 41> H -3.8983768083 0.9302106662 2.4930454693
| 42> H -4.3895318723 -0.6216608195 -2.0149410456
| 43> H -5.3537730473 -1.3395836117 -0.6891082565
| 44> H -6.1868387888 0.9492019472 -1.337074366
| 45> H -5.5917863138 0.9318380943 0.3323999329
| 46> H -4.5897725618 1.6158720618 -0.9583211321
| 47> *
| 48>
| 49>                          ****END OF INPUT****

CARTESIAN COORDINATES (ANGSTROEM)
---------------------------------
  C      4.066809   -0.041560   -2.436895
  C      4.292832    0.800542   -1.198022
  O      3.749788    0.187024   -0.016720
  P      2.191817   -0.055171    0.187329
  S      1.071209    1.455055   -0.406133
  O      2.102804   -0.396956    1.728912
  C      2.077571    0.613058    2.758963
  C      3.478668    1.015997    3.171473
  S      1.874366   -1.988616   -0.581428
  C      0.088589   -1.928590   -0.892390
  S     -0.869539   -1.374339    0.550727
  P     -2.137500    0.022487   -0.416365
  S     -1.844571    0.421085   -2.307401
  O     -2.142534    1.337840    0.469256
  C     -1.893287    1.407611    1.888017
  C     -2.884220    0.596896    2.696271
  O     -3.522304   -0.733459   -0.143727
  C     -4.682943   -0.524815   -0.964616
  C     -5.307312    0.832843   -0.711765
  H      4.422310   -1.056129   -2.275157
  H      3.003694   -0.075637   -2.674778
  H      4.597603    0.399827   -3.274399
  H      3.833493    1.787335   -1.316195
  H      5.354615    0.907989   -0.972262
  H      1.515240    1.478081    2.389152
  H      1.537533    0.142187    3.582354
  H      4.047002    0.136430    3.460218
  H      3.988755    1.507191    2.346027
  H      3.419523    1.700478    4.011982
  H     -0.198128   -2.948236   -1.138078
  H     -0.122783   -1.250849   -1.725283
  H     -0.870070    1.066668    2.070762
  H     -1.964981    2.475044    2.103420
  H     -2.800560   -0.458945    2.442115
  H     -2.669361    0.725975    3.752416
  H     -3.898377    0.930211    2.493045
  H     -4.389532   -0.621661   -2.014941
  H     -5.353773   -1.339584   -0.689108
  H     -6.186839    0.949202   -1.337074
  H     -5.591786    0.931838    0.332400
  H     -4.589773    1.615872   -0.958321

 Total Charge           Charge          ....    0
 Multiplicity           Mult            ....    1
 Number of Electrons    NEL             ....  202
 Basis Dimension        Dim             ....  334

ORBITAL ENERGIES
----------------

  NO   OCC          E(Eh)            E(eV)
   0   2.0000     -88.042755     -2395.7652
   1   2.0000     -88.040629     -2395.7073
   2   2.0000     -87.983196     -2394.1445
   3   2.0000     -87.981018     -2394.0852
   4   2.0000     -76.424392     -2079.6134
   5   2.0000     -76.421252     -2079.5280
   6   2.0000     -18.790888      -511.3261
   7   2.0000     -18.789567      -511.2901
   8   2.0000     -18.786945      -511.2188
   9   2.0000     -18.781485      -511.0702
  10   2.0000      -9.954538      -270.8768
  11   2.0000      -9.953528      -270.8493
  12   2.0000      -9.952392      -270.8184
  13   2.0000      -9.951074      -270.7825
  14   2.0000      -9.945008      -270.6174
  15   2.0000      -9.889563      -269.1087
  16   2.0000      -9.885514      -268.9985
  17   2.0000      -9.882017      -268.9034
  18   2.0000      -9.880808      -268.8705
  19   2.0000      -7.688301      -209.2093
  20   2.0000      -7.685273      -209.1269
  21   2.0000      -7.627659      -207.5592
  22   2.0000      -7.626255      -207.5209
  23   2.0000      -6.421802      -174.7461
  24   2.0000      -6.418885      -174.6667
  25   2.0000      -5.716338      -155.5495
  26   2.0000      -5.713176      -155.4634
  27   2.0000      -5.712728      -155.4512
  28   2.0000      -5.710046      -155.3783
  29   2.0000      -5.705106      -155.2438
  30   2.0000      -5.701956      -155.1581
  31   2.0000      -5.656467      -153.9203
  32   2.0000      -5.655276      -153.8879
  33   2.0000      -5.648493      -153.7033
  34   2.0000      -5.647815      -153.6848
  35   2.0000      -5.647315      -153.6712
  36   2.0000      -5.645770      -153.6292
  37   2.0000      -4.644310      -126.3781
  38   2.0000      -4.643586      -126.3584
  39   2.0000      -4.642292      -126.3232
  40   2.0000      -4.641653      -126.3058
  41   2.0000      -4.640414      -126.2721
  42   2.0000      -4.639425      -126.2452
  43   2.0000      -0.985044       -26.8044
  44   2.0000      -0.978170       -26.6174
  45   2.0000      -0.944077       -25.6896
  46   2.0000      -0.939144       -25.5554
  47   2.0000      -0.761927       -20.7331
  48   2.0000      -0.719528       -19.5794
  49   2.0000      -0.707576       -19.2541
  50   2.0000      -0.689963       -18.7748
  51   2.0000      -0.686774       -18.6881
  52   2.0000      -0.671736       -18.2789
  53   2.0000      -0.649404       -17.6712
  54   2.0000      -0.634574       -17.2676
  55   2.0000      -0.601546       -16.3689
  56   2.0000      -0.591539       -16.0966
  57   2.0000      -0.573062       -15.5938
  58   2.0000      -0.572365       -15.5748
  59   2.0000      -0.558697       -15.2029
  60   2.0000      -0.495468       -13.4824
  61   2.0000      -0.490550       -13.3485
  62   2.0000      -0.473622       -12.8879
  63   2.0000      -0.469262       -12.7693
  64   2.0000      -0.452679       -12.3180
  65   2.0000      -0.448827       -12.2132
  66   2.0000      -0.436188       -11.8693
  67   2.0000      -0.433130       -11.7861
  68   2.0000      -0.426956       -11.6181
  69   2.0000      -0.412234       -11.2174
  70   2.0000      -0.409947       -11.1552
  71   2.0000      -0.402325       -10.9478
  72   2.0000      -0.389741       -10.6054
  73   2.0000      -0.384826       -10.4717
  74   2.0000      -0.379947       -10.3389
  75   2.0000      -0.375071       -10.2062
  76   2.0000      -0.368766       -10.0346
  77   2.0000      -0.357052        -9.7159
  78   2.0000      -0.352696        -9.5974
  79   2.0000      -0.352156        -9.5826
  80   2.0000      -0.348402        -9.4805
  81   2.0000      -0.344192        -9.3659
  82   2.0000      -0.341603        -9.2955
  83   2.0000      -0.336669        -9.1612
  84   2.0000      -0.334373        -9.0988
  85   2.0000      -0.310966        -8.4618
  86   2.0000      -0.307983        -8.3807
  87   2.0000      -0.303541        -8.2598
  88   2.0000      -0.295182        -8.0323
  89   2.0000      -0.282547        -7.6885
  90   2.0000      -0.277049        -7.5389
  91   2.0000      -0.272556        -7.4166
  92   2.0000      -0.269038        -7.3209
  93   2.0000      -0.262256        -7.1364
  94   2.0000      -0.258581        -7.0364
  95   2.0000      -0.232576        -6.3287
  96   2.0000      -0.220108        -5.9895
  97   2.0000      -0.212124        -5.7722
  98   2.0000      -0.198210        -5.3936
  99   2.0000      -0.193735        -5.2718
 100   2.0000      -0.184557        -5.0221
 101   0.0000      -0.046229        -1.2580
 102   0.0000      -0.032140        -0.8746
 103   0.0000      -0.007705        -0.2097
 104   0.0000       0.008988         0.2446
 105   0.0000       0.021311         0.5799

MULLIKEN ATOMIC CHARGES
-----------------------
   0 C :   -0.320665
   1 C :   -0.001659
   2 O :   -0.372955
   3 P :    0.605900
   4 S :   -0.314265
   5 O :   -0.363696
   6 C :   -0.032390
   7 C :   -0.275469
   8 S :   -0.092501
   9 C :   -0.333441
  10 S :   -0.112634
  11 P :    0.632174
  12 S :   -0.300097
  13 O :   -0.368373
  14 C :   -0.035784
  15 C :   -0.320388
  16 O :   -0.382041
  17 C :   -0.005801
  18 C :   -0.317684
  19 H :    0.118625
  20 H :    0.133362
  21 H :    0.113800
  22 H :    0.111527
  23 H :    0.103902
  24 H :    0.111737
  25 H :    0.104669
  26 H :    0.116370
  27 H :    0.120211
  28 H :    0.107868
  29 H :    0.181599
  30 H :    0.202336
  31 H :    0.140074
  32 H :    0.110769
  33 H :    0.132567
  34 H :    0.111936
  35 H :    0.122948
  36 H :    0.110421
  37 H :    0.101193
  38 H :    0.110307
  39 H :    0.115301
  40 H :    0.130246
Sum of atomic charges:   -0.0000000

LOEWDIN ATOMIC CHARGES
----------------------
   0 C :   -0.370492
   1 C :   -0.119421
   2 O :   -0.245676
   3 P :    0.562231
   4 S :   -0.308235
   5 O :   -0.240904
   6 C :   -0.121040
   7 C :   -0.358368
   8 S :    0.092357
   9 C :   -0.475296
  10 S :    0.079336
  11 P :    0.579586
  12 S :   -0.289588
  13 O :   -0.234767
  14 C :   -0.120088
  15 C :   -0.366682
  16 O :   -0.258203
  17 C :   -0.122555
  18 C :   -0.365529
  19 H :    0.123671
  20 H :    0.123642
  21 H :    0.131458
  22 H :    0.111088
  23 H :    0.118001
  24 H :    0.105038
  25 H :    0.117106
  26 H :    0.127588
  27 H :    0.125524
  28 H :    0.128702
  29 H :    0.136705
  30 H :    0.122785
  31 H :    0.109554
  32 H :    0.123150
  33 H :    0.120765
  34 H :    0.130953
  35 H :    0.126262
  36 H :    0.107799
  37 H :    0.116498
  38 H :    0.129738
  39 H :    0.121143
  40 H :    0.126164

  Mayer bond orders larger than 0.100000
B(  0-C ,  1-C ) :   1.1668 B(  0-C , 19-H ) :   0.9436 B(  0-C , 20-H ) :   0.9345
B(  0-C , 21-H ) :   0.9373 B(  1-C ,  2-O ) :   0.9067 B(  1-C , 22-H ) :   0.9160
B(  1-C , 23-H ) :   0.9337 B(  2-O ,  3-P ) :   1.1007 B(  3-P ,  4-S ) :   1.6091
B(  3-P ,  5-O ) :   1.1210 B(  3-P ,  8-S ) :   0.9606 B(  4-S ,  8-S ) :   0.1167
B(  5-O ,  6-C ) :   0.9080 B(  6-C ,  7-C ) :   1.1629 B(  6-C , 24-H ) :   0.8958
B(  6-C , 25-H ) :   0.9358 B(  7-C , 26-H ) :   0.9466 B(  7-C , 27-H ) :   0.9430
B(  7-C , 28-H ) :   0.9401 B(  8-S ,  9-C ) :   0.9941 B(  9-C , 10-S ) :   1.0083
B(  9-C , 29-H ) :   0.9111 B(  9-C , 30-H ) :   0.8496 B( 10-S , 11-P ) :   0.9406
B( 10-S , 12-S ) :   0.1102 B( 11-P , 12-S ) :   1.6191 B( 11-P , 13-O ) :   1.1126
B( 11-P , 16-O ) :   1.0769 B( 12-S , 30-H ) :   0.1132 B( 13-O , 14-C ) :   0.9071
B( 14-C , 15-C ) :   1.1603 B( 14-C , 31-H ) :   0.9059 B( 14-C , 32-H ) :   0.9348
B( 15-C , 33-H ) :   0.9348 B( 15-C , 34-H ) :   0.9363 B( 15-C , 35-H ) :   0.9411
B( 16-O , 17-C ) :   0.9183 B( 17-C , 18-C ) :   1.1605 B( 17-C , 36-H ) :   0.9101
B( 17-C , 37-H ) :   0.9342 B( 18-C , 38-H ) :   0.9391 B( 18-C , 39-H ) :   0.9438
B( 18-C , 40-H ) :   0.9364

Dispersion correction           -0.067049390
FINAL SINGLE POINT ENERGY     -2929.514428155345

DIPOLE MOMENT
-------------

Method             : SCF
Type of density    : Electron Density
Multiplicity       :   1
Irrep              :   0
Energy             : -2929.6324221772147212 Eh
Relativity type    :
Basis              : AO
                                X                 Y                 Z
Electronic contribution:      2.864080119      -8.556064733      -9.148431725
Nuclear contribution   :     -2.788343110       8.524713301      10.266663869
                        -----------------------------------------
Total Dipole Moment    :      0.075737009      -0.031351432       1.118232144
                        -----------------------------------------
Magnitude (a.u.)       :      1.121232418
Magnitude (Debye)      :      2.849946318

Rotational constants in cm-1:             0.013204             0.005192             0.004568
Rotational constants in MHz :           395.840575           155.647216           136.931773

                             ****ORCA TERMINATED NORMALLY****
TOTAL RUN TIME: 0 days 0 hours 0 minutes 21 seconds 154 msec
