                         Program Version 6.0.0  -   RELEASE  -
|  1> ! wb97x-v def2-tzvp def2/J RIJCOSX DEFGRID2 scfconv7 GCP(DFT/TZ) printgap
|  2> %output
|  3>     printlevel normal
|  4> end
|  5> * xyz 0 1
|  6> C 0.9559955934177067 1.6220230358651797 -1.802235796620373
|  7> C 2.076805344224788 1.7639456185923323 -1.0916291267658118
|  8> C 2.4264124975123735 0.5339408014760112 -0.32802189227242246
|  9> H 2.6283549469591607 0.7027784878685942 0.7313018024874844
| 10> C 1.284031811890442 -0.45360741901409435 -0.6150809354169502
| 11> H 1.6535116276466917 -1.3978008008512701 -1.0139220123774486
| 12> C 0.33656972273808666 0.27319933606930036 -1.6254658340224597
| 13> H 0.21774572708542084 -0.26687557295202596 -2.568674323632965
| 14> C -1.039681749354592 0.270486849016782 -0.8659792079823103
| 15> C -0.899964632143899 1.1841697737194345 0.33779965182943944
| 16> C -0.07612200118358908 0.5842935145776608 1.2057420080069736
| 17> C 0.3465503423979967 -0.7442040882117521 0.594077641260484
| 18> C -0.986590671558166 -1.1092154652560036 -0.13930877806383746
| 19> Cl -2.3629011750094144 -1.4067095606468523 0.9662800205377379
| 20> Cl -0.8538468941132911 -2.5062712189795167 -1.2454736356144238
| 21> Cl 0.9641915782142854 -1.9520096867121657 1.7345694600206922
| 22> Cl 0.5080211664439225 1.1982049896547142 2.6874234880083017
| 23> Cl -1.5691798314559022 2.747729276101664 0.43964092783638153
| 24> Cl -2.454631379081337 0.5568390734120657 -1.8914735375030864
| 25> Cl 4.0488021560394705 -0.14062438717211903 -0.9561809258255788
| 26> H 0.5155837476938417 2.3836989828551296 -2.4364029694634803
| 27> H 2.6998521637461783 2.6501688499797704 -1.057968561419228
| 28> *
| 29>
| 30>                          ****END OF INPUT****

CARTESIAN COORDINATES (ANGSTROEM)
---------------------------------
  C      0.955996    1.622023   -1.802236
  C      2.076805    1.763946   -1.091629
  C      2.426412    0.533941   -0.328022
  H      2.628355    0.702778    0.731302
  C      1.284032   -0.453607   -0.615081
  H      1.653512   -1.397801   -1.013922
  C      0.336570    0.273199   -1.625466
  H      0.217746   -0.266876   -2.568674
  C     -1.039682    0.270487   -0.865979
  C     -0.899965    1.184170    0.337800
  C     -0.076122    0.584294    1.205742
  C      0.346550   -0.744204    0.594078
  C     -0.986591   -1.109215   -0.139309
  Cl    -2.362901   -1.406710    0.966280
  Cl    -0.853847   -2.506271   -1.245474
  Cl     0.964192   -1.952010    1.734569
  Cl     0.508021    1.198205    2.687423
  Cl    -1.569180    2.747729    0.439641
  Cl    -2.454631    0.556839   -1.891474
  Cl     4.048802   -0.140624   -0.956181
  H      0.515584    2.383699   -2.436403
  H      2.699852    2.650169   -1.057969

 Total Charge           Charge          ....    0
 Multiplicity           Mult            ....    1
 Number of Electrons    NEL             ....  184
 Basis Dimension        Dim             ....  599

ORBITAL ENERGIES
----------------

  NO   OCC          E(Eh)            E(eV)
   0   2.0000    -107.182457     -2916.5829
   1   2.0000    -107.181169     -2916.5479
   2   2.0000    -107.171609     -2916.2877
   3   2.0000    -107.166086     -2916.1375
   4   2.0000    -107.165504     -2916.1216
   5   2.0000    -107.164640     -2916.0981
   6   2.0000    -107.137368     -2915.3560
   7   2.0000     -12.220909      -332.5479
   8   2.0000     -12.181270      -331.4692
   9   2.0000     -12.180144      -331.4386
  10   2.0000     -12.154975      -330.7537
  11   2.0000     -12.152380      -330.6831
  12   2.0000     -12.142371      -330.4107
  13   2.0000     -12.107724      -329.4679
  14   2.0000     -12.106622      -329.4379
  15   2.0000     -12.085646      -328.8672
  16   2.0000     -12.082616      -328.7847
  17   2.0000     -11.335138      -308.4448
  18   2.0000     -11.333870      -308.4103
  19   2.0000     -11.324972      -308.1681
  20   2.0000     -11.319236      -308.0121
  21   2.0000     -11.318707      -307.9977
  22   2.0000     -11.317766      -307.9721
  23   2.0000     -11.290427      -307.2281
  24   2.0000      -9.127013      -248.3587
  25   2.0000      -9.125620      -248.3207
  26   2.0000      -9.124043      -248.2778
  27   2.0000      -9.123990      -248.2764
  28   2.0000      -9.122673      -248.2406
  29   2.0000      -9.122596      -248.2385
  30   2.0000      -9.116651      -248.0767
  31   2.0000      -9.113819      -247.9996
  32   2.0000      -9.113614      -247.9940
  33   2.0000      -9.110932      -247.9211
  34   2.0000      -9.110187      -247.9008
  35   2.0000      -9.109357      -247.8782
  36   2.0000      -9.108075      -247.8433
  37   2.0000      -9.107980      -247.8407
  38   2.0000      -9.107275      -247.8215
  39   2.0000      -9.107259      -247.8211
  40   2.0000      -9.106494      -247.8003
  41   2.0000      -9.106411      -247.7980
  42   2.0000      -9.081795      -247.1282
  43   2.0000      -9.079201      -247.0576
  44   2.0000      -9.079148      -247.0562
  45   2.0000      -1.529566       -41.6216
  46   2.0000      -1.473111       -40.0854
  47   2.0000      -1.458229       -39.6804
  48   2.0000      -1.442988       -39.2657
  49   2.0000      -1.436909       -39.1003
  50   2.0000      -1.424601       -38.7654
  51   2.0000      -1.408904       -38.3382
  52   2.0000      -1.393135       -37.9091
  53   2.0000      -1.367282       -37.2056
  54   2.0000      -1.297439       -35.3051
  55   2.0000      -1.281516       -34.8718
  56   2.0000      -1.234293       -33.5868
  57   2.0000      -1.214838       -33.0574
  58   2.0000      -1.109602       -30.1938
  59   2.0000      -1.100575       -29.9482
  60   2.0000      -1.060374       -28.8543
  61   2.0000      -1.044391       -28.4193
  62   2.0000      -1.025108       -27.8946
  63   2.0000      -1.004483       -27.3334
  64   2.0000      -0.978096       -26.6153
  65   2.0000      -0.963615       -26.2213
  66   2.0000      -0.956645       -26.0316
  67   2.0000      -0.948858       -25.8197
  68   2.0000      -0.927817       -25.2472
  69   2.0000      -0.924960       -25.1694
  70   2.0000      -0.914313       -24.8797
  71   2.0000      -0.899264       -24.4702
  72   2.0000      -0.882087       -24.0028
  73   2.0000      -0.867176       -23.5971
  74   2.0000      -0.859748       -23.3949
  75   2.0000      -0.854148       -23.2425
  76   2.0000      -0.850804       -23.1515
  77   2.0000      -0.838567       -22.8186
  78   2.0000      -0.830517       -22.5995
  79   2.0000      -0.827931       -22.5291
  80   2.0000      -0.822749       -22.3881
  81   2.0000      -0.818889       -22.2831
  82   2.0000      -0.815375       -22.1875
  83   2.0000      -0.809605       -22.0305
  84   2.0000      -0.806365       -21.9423
  85   2.0000      -0.804363       -21.8878
  86   2.0000      -0.802300       -21.8317
  87   2.0000      -0.788212       -21.4483
  88   2.0000      -0.779904       -21.2223
  89   2.0000      -0.777195       -21.1485
  90   2.0000      -0.714840       -19.4518
  91   2.0000      -0.696359       -18.9489
  92   0.0000      -0.364142        -9.9088
  93   0.0000      -0.320712        -8.7270
  94   0.0000      -0.320104        -8.7105
  95   0.0000      -0.305779        -8.3207
  96   0.0000      -0.298272        -8.1164

MULLIKEN ATOMIC CHARGES
-----------------------
   0 C :   -0.203683
   1 C :   -0.188685
   2 C :    0.088125
   3 H :    0.143750
   4 C :   -0.170248
   5 H :    0.157048
   6 C :   -0.055555
   7 H :    0.146661
   8 C :    0.196991
   9 C :   -0.091106
  10 C :   -0.168307
  11 C :    0.198973
  12 C :    0.052813
  13 Cl:   -0.050971
  14 Cl:   -0.056149
  15 Cl:   -0.049203
  16 Cl:    0.000460
  17 Cl:   -0.003325
  18 Cl:   -0.056404
  19 Cl:   -0.178336
  20 H :    0.147280
  21 H :    0.139872
Sum of atomic charges:    0.0000000

LOEWDIN ATOMIC CHARGES
----------------------
   0 C :   -0.105613
   1 C :   -0.142235
   2 C :   -0.368990
   3 H :    0.145288
   4 C :   -0.171233
   5 H :    0.158945
   6 C :   -0.163756
   7 H :    0.160197
   8 C :   -0.479923
   9 C :   -0.472786
  10 C :   -0.473834
  11 C :   -0.482721
  12 C :   -0.692896
  13 Cl:    0.395177
  14 Cl:    0.403248
  15 Cl:    0.408507
  16 Cl:    0.470767
  17 Cl:    0.477075
  18 Cl:    0.404547
  19 Cl:    0.241427
  20 H :    0.145533
  21 H :    0.143276

  Mayer bond orders larger than 0.100000
B(  0-C ,  1-C ) :   1.8980 B(  0-C ,  6-C ) :   0.9434 B(  0-C , 20-H ) :   0.9546
B(  1-C ,  2-C ) :   1.0103 B(  1-C , 21-H ) :   0.9647 B(  2-C ,  3-H ) :   0.9666
B(  2-C ,  4-C ) :   0.9486 B(  2-C , 19-Cl) :   0.9376 B(  4-C ,  5-H ) :   0.9457
B(  4-C ,  6-C ) :   0.9609 B(  4-C , 11-C ) :   0.9493 B(  6-C ,  7-H ) :   0.9350
B(  6-C ,  8-C ) :   0.9311 B(  8-C ,  9-C ) :   0.8812 B(  8-C , 12-C ) :   1.0302
B(  8-C , 18-Cl) :   1.1406 B(  9-C , 10-C ) :   1.6995 B(  9-C , 17-Cl) :   1.2064
B( 10-C , 11-C ) :   0.8583 B( 10-C , 16-Cl) :   1.2284 B( 11-C , 12-C ) :   1.0245
B( 11-C , 15-Cl) :   1.1534 B( 12-C , 13-Cl) :   1.1422 B( 12-C , 14-Cl) :   1.1285

FINAL SINGLE POINT ENERGY     -3605.091121337955

DIPOLE MOMENT
-------------

Method             : SCF
Type of density    : Electron Density
Multiplicity       :   1
Irrep              :   0
Energy             : -3605.1046413247549935 Eh
Relativity type    :
Basis              : AO
                                X                 Y                 Z
Electronic contribution:     -9.533586966      -5.100862984       7.922560836
Nuclear contribution   :      9.545437771       5.811742386      -8.242754948
                        -----------------------------------------
Total Dipole Moment    :      0.011850804       0.710879403      -0.320194112
                        -----------------------------------------
Magnitude (a.u.)       :      0.779752676
Magnitude (Debye)      :      1.981973793

Rotational constants in cm-1:             0.010229             0.007985             0.007497
Rotational constants in MHz :           306.663200           239.384262           224.741359

                             ****ORCA TERMINATED NORMALLY****
TOTAL RUN TIME: 0 days 0 hours 12 minutes 0 seconds 810 msec
