                         Program Version 6.0.0  -   RELEASE  -
|  1> ! wb97x-v def2-tzvp def2/J RIJCOSX DEFGRID2 scfconv7 GCP(DFT/TZ) printgap
|  2> %output
|  3>     printlevel normal
|  4> end
|  5> %cpcm
|  6>     smd true
|  7>     smdsolvent "water"
|  8> end
|  9> * xyz 0 1
| 10> C 0.9559955934177067 1.6220230358651797 -1.802235796620373
| 11> C 2.076805344224788 1.7639456185923323 -1.0916291267658118
| 12> C 2.4264124975123735 0.5339408014760112 -0.32802189227242246
| 13> H 2.6283549469591607 0.7027784878685942 0.7313018024874844
| 14> C 1.284031811890442 -0.45360741901409435 -0.6150809354169502
| 15> H 1.6535116276466917 -1.3978008008512701 -1.0139220123774486
| 16> C 0.33656972273808666 0.27319933606930036 -1.6254658340224597
| 17> H 0.21774572708542084 -0.26687557295202596 -2.568674323632965
| 18> C -1.039681749354592 0.270486849016782 -0.8659792079823103
| 19> C -0.899964632143899 1.1841697737194345 0.33779965182943944
| 20> C -0.07612200118358908 0.5842935145776608 1.2057420080069736
| 21> C 0.3465503423979967 -0.7442040882117521 0.594077641260484
| 22> C -0.986590671558166 -1.1092154652560036 -0.13930877806383746
| 23> Cl -2.3629011750094144 -1.4067095606468523 0.9662800205377379
| 24> Cl -0.8538468941132911 -2.5062712189795167 -1.2454736356144238
| 25> Cl 0.9641915782142854 -1.9520096867121657 1.7345694600206922
| 26> Cl 0.5080211664439225 1.1982049896547142 2.6874234880083017
| 27> Cl -1.5691798314559022 2.747729276101664 0.43964092783638153
| 28> Cl -2.454631379081337 0.5568390734120657 -1.8914735375030864
| 29> Cl 4.0488021560394705 -0.14062438717211903 -0.9561809258255788
| 30> H 0.5155837476938417 2.3836989828551296 -2.4364029694634803
| 31> H 2.6998521637461783 2.6501688499797704 -1.057968561419228
| 32> *
| 33>
| 34>                          ****END OF INPUT****

CARTESIAN COORDINATES (ANGSTROEM)
---------------------------------
  C      0.955996    1.622023   -1.802236
  C      2.076805    1.763946   -1.091629
  C      2.426412    0.533941   -0.328022
  H      2.628355    0.702778    0.731302
  C      1.284032   -0.453607   -0.615081
  H      1.653512   -1.397801   -1.013922
  C      0.336570    0.273199   -1.625466
  H      0.217746   -0.266876   -2.568674
  C     -1.039682    0.270487   -0.865979
  C     -0.899965    1.184170    0.337800
  C     -0.076122    0.584294    1.205742
  C      0.346550   -0.744204    0.594078
  C     -0.986591   -1.109215   -0.139309
  Cl    -2.362901   -1.406710    0.966280
  Cl    -0.853847   -2.506271   -1.245474
  Cl     0.964192   -1.952010    1.734569
  Cl     0.508021    1.198205    2.687423
  Cl    -1.569180    2.747729    0.439641
  Cl    -2.454631    0.556839   -1.891474
  Cl     4.048802   -0.140624   -0.956181
  H      0.515584    2.383699   -2.436403
  H      2.699852    2.650169   -1.057969

 Total Charge           Charge          ....    0
 Multiplicity           Mult            ....    1
 Number of Electrons    NEL             ....  184
 Basis Dimension        Dim             ....  599

ORBITAL ENERGIES
----------------

  NO   OCC          E(Eh)            E(eV)
   0   2.0000    -107.178512     -2916.4756
   1   2.0000    -107.177834     -2916.4571
   2   2.0000    -107.169463     -2916.2293
   3   2.0000    -107.166421     -2916.1466
   4   2.0000    -107.163730     -2916.0733
   5   2.0000    -107.162970     -2916.0527
   6   2.0000    -107.133608     -2915.2537
   7   2.0000     -12.218214      -332.4745
   8   2.0000     -12.176876      -331.3496
   9   2.0000     -12.174393      -331.2821
  10   2.0000     -12.150296      -330.6264
  11   2.0000     -12.147713      -330.5561
  12   2.0000     -12.130595      -330.0903
  13   2.0000     -12.095895      -329.1460
  14   2.0000     -12.092963      -329.0662
  15   2.0000     -12.068155      -328.3912
  16   2.0000     -12.064849      -328.3012
  17   2.0000     -11.331181      -308.3371
  18   2.0000     -11.330527      -308.3193
  19   2.0000     -11.322806      -308.1092
  20   2.0000     -11.319683      -308.0242
  21   2.0000     -11.316909      -307.9488
  22   2.0000     -11.316147      -307.9280
  23   2.0000     -11.286830      -307.1303
  24   2.0000      -9.123100      -248.2522
  25   2.0000      -9.122234      -248.2286
  26   2.0000      -9.120125      -248.1712
  27   2.0000      -9.120096      -248.1704
  28   2.0000      -9.119293      -248.1486
  29   2.0000      -9.119211      -248.1464
  30   2.0000      -9.114571      -248.0201
  31   2.0000      -9.111992      -247.9499
  32   2.0000      -9.111460      -247.9354
  33   2.0000      -9.110772      -247.9167
  34   2.0000      -9.108608      -247.8578
  35   2.0000      -9.108342      -247.8506
  36   2.0000      -9.108209      -247.8470
  37   2.0000      -9.107711      -247.8334
  38   2.0000      -9.105674      -247.7780
  39   2.0000      -9.105638      -247.7770
  40   2.0000      -9.104918      -247.7574
  41   2.0000      -9.104877      -247.7563
  42   2.0000      -9.078157      -247.0292
  43   2.0000      -9.075685      -246.9619
  44   2.0000      -9.075634      -246.9606
  45   2.0000      -1.525142       -41.5012
  46   2.0000      -1.470134       -40.0044
  47   2.0000      -1.454675       -39.5837
  48   2.0000      -1.438303       -39.1382
  49   2.0000      -1.433898       -39.0183
  50   2.0000      -1.417780       -38.5797
  51   2.0000      -1.408186       -38.3187
  52   2.0000      -1.389314       -37.8051
  53   2.0000      -1.359178       -36.9851
  54   2.0000      -1.288365       -35.0582
  55   2.0000      -1.273440       -34.6521
  56   2.0000      -1.226613       -33.3778
  57   2.0000      -1.205451       -32.8020
  58   2.0000      -1.099975       -29.9318
  59   2.0000      -1.095852       -29.8197
  60   2.0000      -1.048740       -28.5377
  61   2.0000      -1.036545       -28.2058
  62   2.0000      -1.019998       -27.7556
  63   2.0000      -0.994166       -27.0526
  64   2.0000      -0.969371       -26.3779
  65   2.0000      -0.959685       -26.1144
  66   2.0000      -0.947757       -25.7898
  67   2.0000      -0.944020       -25.6881
  68   2.0000      -0.923793       -25.1377
  69   2.0000      -0.921963       -25.0879
  70   2.0000      -0.904543       -24.6139
  71   2.0000      -0.885572       -24.0976
  72   2.0000      -0.874436       -23.7946
  73   2.0000      -0.859575       -23.3902
  74   2.0000      -0.852123       -23.1875
  75   2.0000      -0.842920       -22.9370
  76   2.0000      -0.837616       -22.7927
  77   2.0000      -0.834406       -22.7053
  78   2.0000      -0.828604       -22.5475
  79   2.0000      -0.824120       -22.4254
  80   2.0000      -0.819562       -22.3014
  81   2.0000      -0.816436       -22.2164
  82   2.0000      -0.815835       -22.2000
  83   2.0000      -0.807307       -21.9679
  84   2.0000      -0.805307       -21.9135
  85   2.0000      -0.800577       -21.7848
  86   2.0000      -0.799695       -21.7608
  87   2.0000      -0.785860       -21.3843
  88   2.0000      -0.776550       -21.1310
  89   2.0000      -0.773414       -21.0457
  90   2.0000      -0.710048       -19.3214
  91   2.0000      -0.680934       -18.5292
  92   0.0000      -0.361103        -9.8261
  93   0.0000      -0.318324        -8.6620
  94   0.0000      -0.311994        -8.4898
  95   0.0000      -0.299791        -8.1577
  96   0.0000      -0.294608        -8.0167

MULLIKEN ATOMIC CHARGES
-----------------------
   0 C :   -0.237716
   1 C :   -0.236484
   2 C :    0.110971
   3 H :    0.169634
   4 C :   -0.176716
   5 H :    0.175148
   6 C :   -0.031160
   7 H :    0.177788
   8 C :    0.212614
   9 C :   -0.111561
  10 C :   -0.167618
  11 C :    0.215556
  12 C :    0.038010
  13 Cl:   -0.064840
  14 Cl:   -0.060228
  15 Cl:   -0.069094
  16 Cl:   -0.002716
  17 Cl:   -0.006151
  18 Cl:   -0.071946
  19 Cl:   -0.222978
  20 H :    0.182011
  21 H :    0.177476
Sum of atomic charges:    0.0000000

LOEWDIN ATOMIC CHARGES
----------------------
   0 C :   -0.100476
   1 C :   -0.144291
   2 C :   -0.361622
   3 H :    0.152768
   4 C :   -0.168351
   5 H :    0.164304
   6 C :   -0.156372
   7 H :    0.169618
   8 C :   -0.478477
   9 C :   -0.472872
  10 C :   -0.473435
  11 C :   -0.481207
  12 C :   -0.694118
  13 Cl:    0.384105
  14 Cl:    0.400829
  15 Cl:    0.397612
  16 Cl:    0.468759
  17 Cl:    0.473905
  18 Cl:    0.396420
  19 Cl:    0.214604
  20 H :    0.155716
  21 H :    0.152579

  Mayer bond orders larger than 0.100000
B(  0-C ,  1-C ) :   1.8915 B(  0-C ,  6-C ) :   0.9420 B(  0-C , 20-H ) :   0.9533
B(  1-C ,  2-C ) :   0.9976 B(  1-C , 21-H ) :   0.9632 B(  2-C ,  3-H ) :   0.9548
B(  2-C ,  4-C ) :   0.9638 B(  2-C , 19-Cl) :   0.8834 B(  4-C ,  5-H ) :   0.9336
B(  4-C ,  6-C ) :   0.9565 B(  4-C , 11-C ) :   0.9472 B(  6-C ,  7-H ) :   0.9198
B(  6-C ,  8-C ) :   0.9256 B(  8-C ,  9-C ) :   0.8761 B(  8-C , 12-C ) :   1.0332
B(  8-C , 18-Cl) :   1.1097 B(  9-C , 10-C ) :   1.7031 B(  9-C , 17-Cl) :   1.2098
B( 10-C , 11-C ) :   0.8570 B( 10-C , 16-Cl) :   1.2258 B( 11-C , 12-C ) :   1.0296
B( 11-C , 15-Cl) :   1.1117 B( 12-C , 13-Cl) :   1.1348 B( 12-C , 14-Cl) :   1.1396

FINAL SINGLE POINT ENERGY     -3605.095290258552

DIPOLE MOMENT
-------------

Method             : SCF
Type of density    : Electron Density
Multiplicity       :   1
Irrep              :   0
Energy             : -3605.1088102453522879 Eh
Relativity type    :
Basis              : AO
                                X                 Y                 Z
Electronic contribution:     -9.402850397      -4.807170227       7.673976402
Nuclear contribution   :      9.545437771       5.811742386      -8.242754948
                        -----------------------------------------
Total Dipole Moment    :      0.142587374       1.004572159      -0.568778545
                        -----------------------------------------
Magnitude (a.u.)       :      1.163187610
Magnitude (Debye)      :      2.956587941

Rotational constants in cm-1:             0.010229             0.007985             0.007497
Rotational constants in MHz :           306.663200           239.384262           224.741359

                             ****ORCA TERMINATED NORMALLY****
TOTAL RUN TIME: 0 days 0 hours 11 minutes 19 seconds 120 msec
