                         Program Version 6.0.0  -   RELEASE  -
|  1> ! r2scan-3c def2/J RI DEFGRID2 scfconv6 printgap
|  2> %output
|  3>     printlevel normal
|  4> end
|  5> * xyz 0 1
|  6> C 4.6830029468 0.2664982212 -1.8047050092
|  7> C 4.4568449219 1.1764189931 -0.6146706837
|  8> O 3.5950936882 0.5838881735 0.3722317545
|  9> P 2.055872276 0.2980854138 0.1080001363
| 10> S 1.1436504948 1.6998051222 -0.9123842473
| 11> O 1.4635393112 0.1669044835 1.5625764143
| 12> C 1.6712943713 -0.9251484708 2.4943911194
| 13> C 3.1334578739 -1.2166752601 2.749379588
| 14> S 2.0208147618 -1.6468074271 -0.7494466841
| 15> C 0.2978029756 -1.653220846 -1.2834364794
| 16> S -0.8742392501 -1.7776771793 0.1149113097
| 17> P -2.0060762865 -0.0234840671 -0.1322813598
| 18> S -2.1622259053 0.6745344054 -1.9613775616
| 19> O -1.4176838734 0.9170383322 0.9938025483
| 20> C -1.655917844 2.3381180865 1.0178011258
| 21> C -3.1174595736 2.6647511862 1.232545484
| 22> O -3.3920164146 -0.4457859944 0.523335471
| 23> C -4.3494158818 -1.2539301946 -0.188489547
| 24> C -5.7048531311 -1.0565757933 0.4598624573
| 25> H 5.0061648778 -0.7174243916 -1.4748617711
| 26> H 3.7614651551 0.1616891121 -2.3750279214
| 27> H 5.443352085 0.7003217023 -2.4461883772
| 28> H 4.0148739728 2.1251838815 -0.9351394147
| 29> H 5.3826693343 1.3640482441 -0.0692077377
| 30> H 1.1635092081 -0.5763840411 3.3949059548
| 31> H 1.1571214657 -1.8086844648 2.1047061715
| 32> H 3.6500079348 -0.3131940537 3.0625696518
| 33> H 3.2096498149 -1.9651936708 3.5321308775
| 34> H 3.6058275532 -1.5985443762 1.8467814625
| 35> H 0.1740154439 -2.5373934136 -1.9030058449
| 36> H 0.0719792063 -0.7421002887 -1.8447010509
| 37> H -1.0294457677 2.6890259047 1.8394793041
| 38> H -1.291146676 2.765251612 0.0774009614
| 39> H -3.2317736677 3.7388418784 1.3406776698
| 40> H -3.6985015167 2.3314334718 0.373214332
| 41> H -3.4863852816 2.165306006 2.1245631898
| 42> H -4.35601742 -0.9420742212 -1.2386025776
| 43> H -4.0258030918 -2.2964419263 -0.1267217432
| 44> H -5.6546810443 -1.3268620881 1.5104780646
| 45> H -6.0134628227 -0.0182705289 0.3772204197
| 46> H -6.4325124535 -1.6868222036 -0.0406046272
| 47> *
| 48>
| 49>                          ****END OF INPUT****

CARTESIAN COORDINATES (ANGSTROEM)
---------------------------------
  C      4.683003    0.266498   -1.804705
  C      4.456845    1.176419   -0.614671
  O      3.595094    0.583888    0.372232
  P      2.055872    0.298085    0.108000
  S      1.143650    1.699805   -0.912384
  O      1.463539    0.166904    1.562576
  C      1.671294   -0.925148    2.494391
  C      3.133458   -1.216675    2.749380
  S      2.020815   -1.646807   -0.749447
  C      0.297803   -1.653221   -1.283436
  S     -0.874239   -1.777677    0.114911
  P     -2.006076   -0.023484   -0.132281
  S     -2.162226    0.674534   -1.961378
  O     -1.417684    0.917038    0.993803
  C     -1.655918    2.338118    1.017801
  C     -3.117460    2.664751    1.232545
  O     -3.392016   -0.445786    0.523335
  C     -4.349416   -1.253930   -0.188490
  C     -5.704853   -1.056576    0.459862
  H      5.006165   -0.717424   -1.474862
  H      3.761465    0.161689   -2.375028
  H      5.443352    0.700322   -2.446188
  H      4.014874    2.125184   -0.935139
  H      5.382669    1.364048   -0.069208
  H      1.163509   -0.576384    3.394906
  H      1.157121   -1.808684    2.104706
  H      3.650008   -0.313194    3.062570
  H      3.209650   -1.965194    3.532131
  H      3.605828   -1.598544    1.846781
  H      0.174015   -2.537393   -1.903006
  H      0.071979   -0.742100   -1.844701
  H     -1.029446    2.689026    1.839479
  H     -1.291147    2.765252    0.077401
  H     -3.231774    3.738842    1.340678
  H     -3.698502    2.331433    0.373214
  H     -3.486385    2.165306    2.124563
  H     -4.356017   -0.942074   -1.238603
  H     -4.025803   -2.296442   -0.126722
  H     -5.654681   -1.326862    1.510478
  H     -6.013463   -0.018271    0.377220
  H     -6.432512   -1.686822   -0.040605

 Total Charge           Charge          ....    0
 Multiplicity           Mult            ....    1
 Number of Electrons    NEL             ....  202
 Basis Dimension        Dim             ....  539

ORBITAL ENERGIES
----------------

  NO   OCC          E(Eh)            E(eV)
   0   2.0000     -88.577150     -2410.3068
   1   2.0000     -88.573194     -2410.1991
   2   2.0000     -88.512934     -2408.5594
   3   2.0000     -88.511620     -2408.5236
   4   2.0000     -76.911434     -2092.8665
   5   2.0000     -76.907667     -2092.7640
   6   2.0000     -18.991180      -516.7763
   7   2.0000     -18.986901      -516.6598
   8   2.0000     -18.985691      -516.6269
   9   2.0000     -18.980249      -516.4788
  10   2.0000     -10.106247      -275.0050
  11   2.0000     -10.098037      -274.7816
  12   2.0000     -10.097471      -274.7661
  13   2.0000     -10.092994      -274.6443
  14   2.0000     -10.085489      -274.4401
  15   2.0000     -10.030537      -272.9448
  16   2.0000     -10.029993      -272.9300
  17   2.0000     -10.027917      -272.8735
  18   2.0000     -10.020188      -272.6632
  19   2.0000      -7.871706      -214.2000
  20   2.0000      -7.867846      -214.0950
  21   2.0000      -7.807660      -212.4572
  22   2.0000      -7.806552      -212.4271
  23   2.0000      -6.589702      -179.3149
  24   2.0000      -6.586156      -179.2184
  25   2.0000      -5.818581      -158.3316
  26   2.0000      -5.815353      -158.2438
  27   2.0000      -5.814623      -158.2239
  28   2.0000      -5.811661      -158.1433
  29   2.0000      -5.808981      -158.0704
  30   2.0000      -5.805030      -157.9629
  31   2.0000      -5.755318      -156.6102
  32   2.0000      -5.754326      -156.5832
  33   2.0000      -5.748166      -156.4156
  34   2.0000      -5.747432      -156.3956
  35   2.0000      -5.746769      -156.3775
  36   2.0000      -5.746462      -156.3692
  37   2.0000      -4.735451      -128.8582
  38   2.0000      -4.734781      -128.8399
  39   2.0000      -4.733085      -128.7938
  40   2.0000      -4.731460      -128.7496
  41   2.0000      -4.731040      -128.7382
  42   2.0000      -4.730102      -128.7126
  43   2.0000      -1.047457       -28.5028
  44   2.0000      -1.042669       -28.3725
  45   2.0000      -1.008041       -27.4302
  46   2.0000      -1.002486       -27.2790
  47   2.0000      -0.799275       -21.7494
  48   2.0000      -0.755671       -20.5629
  49   2.0000      -0.747562       -20.3422
  50   2.0000      -0.733387       -19.9565
  51   2.0000      -0.726148       -19.7595
  52   2.0000      -0.709639       -19.3103
  53   2.0000      -0.682869       -18.5818
  54   2.0000      -0.661289       -17.9946
  55   2.0000      -0.629246       -17.1226
  56   2.0000      -0.621219       -16.9042
  57   2.0000      -0.608014       -16.5449
  58   2.0000      -0.595468       -16.2035
  59   2.0000      -0.590053       -16.0562
  60   2.0000      -0.523625       -14.2486
  61   2.0000      -0.514209       -13.9923
  62   2.0000      -0.488706       -13.2984
  63   2.0000      -0.487147       -13.2559
  64   2.0000      -0.466335       -12.6896
  65   2.0000      -0.464253       -12.6330
  66   2.0000      -0.459121       -12.4933
  67   2.0000      -0.450809       -12.2671
  68   2.0000      -0.444358       -12.0916
  69   2.0000      -0.432634       -11.7726
  70   2.0000      -0.427129       -11.6228
  71   2.0000      -0.414163       -11.2700
  72   2.0000      -0.407611       -11.0917
  73   2.0000      -0.397178       -10.8078
  74   2.0000      -0.393823       -10.7165
  75   2.0000      -0.385755       -10.4969
  76   2.0000      -0.380503       -10.3540
  77   2.0000      -0.373697       -10.1688
  78   2.0000      -0.368438       -10.0257
  79   2.0000      -0.365474        -9.9450
  80   2.0000      -0.360409        -9.8072
  81   2.0000      -0.355595        -9.6762
  82   2.0000      -0.351693        -9.5701
  83   2.0000      -0.348971        -9.4960
  84   2.0000      -0.345706        -9.4071
  85   2.0000      -0.326036        -8.8719
  86   2.0000      -0.320859        -8.7310
  87   2.0000      -0.310633        -8.4528
  88   2.0000      -0.307340        -8.3632
  89   2.0000      -0.304921        -8.2973
  90   2.0000      -0.291064        -7.9202
  91   2.0000      -0.285411        -7.7664
  92   2.0000      -0.278114        -7.5679
  93   2.0000      -0.274855        -7.4792
  94   2.0000      -0.270332        -7.3561
  95   2.0000      -0.249290        -6.7835
  96   2.0000      -0.232738        -6.3331
  97   2.0000      -0.226047        -6.1510
  98   2.0000      -0.213882        -5.8200
  99   2.0000      -0.205310        -5.5868
 100   2.0000      -0.196250        -5.3402
 101   0.0000      -0.042193        -1.1481
 102   0.0000      -0.029953        -0.8151
 103   0.0000      -0.008473        -0.2306
 104   0.0000       0.015453         0.4205
 105   0.0000       0.022843         0.6216

MULLIKEN ATOMIC CHARGES
-----------------------
   0 C :   -0.456226
   1 C :   -0.167484
   2 O :   -0.281199
   3 P :    0.651835
   4 S :   -0.427127
   5 O :   -0.257689
   6 C :   -0.137318
   7 C :   -0.441287
   8 S :   -0.153849
   9 C :   -0.220199
  10 S :   -0.158993
  11 P :    0.672833
  12 S :   -0.466326
  13 O :   -0.270232
  14 C :   -0.149793
  15 C :   -0.451439
  16 O :   -0.279082
  17 C :   -0.157845
  18 C :   -0.443372
  19 H :    0.152591
  20 H :    0.182725
  21 H :    0.148522
  22 H :    0.176843
  23 H :    0.147601
  24 H :    0.153528
  25 H :    0.166887
  26 H :    0.160934
  27 H :    0.149060
  28 H :    0.159036
  29 H :    0.196473
  30 H :    0.220071
  31 H :    0.154721
  32 H :    0.180345
  33 H :    0.146171
  34 H :    0.168311
  35 H :    0.154187
  36 H :    0.172378
  37 H :    0.150578
  38 H :    0.152801
  39 H :    0.155171
  40 H :    0.145854
Sum of atomic charges:    0.0000000

LOEWDIN ATOMIC CHARGES
----------------------
   0 C :   -0.408855
   1 C :    0.020360
   2 O :   -0.671067
   3 P :    0.383448
   4 S :   -0.074051
   5 O :   -0.651719
   6 C :    0.019037
   7 C :   -0.400702
   8 S :    0.131070
   9 C :   -0.412365
  10 S :    0.160378
  11 P :    0.367623
  12 S :   -0.129021
  13 O :   -0.662427
  14 C :    0.014153
  15 C :   -0.402002
  16 O :   -0.671368
  17 C :    0.015544
  18 C :   -0.386907
  19 H :    0.158445
  20 H :    0.167030
  21 H :    0.159636
  22 H :    0.181480
  23 H :    0.178987
  24 H :    0.183448
  25 H :    0.177848
  26 H :    0.163766
  27 H :    0.159410
  28 H :    0.163155
  29 H :    0.180696
  30 H :    0.202964
  31 H :    0.183016
  32 H :    0.184418
  33 H :    0.158807
  34 H :    0.165023
  35 H :    0.160119
  36 H :    0.181052
  37 H :    0.171103
  38 H :    0.159311
  39 H :    0.159902
  40 H :    0.159255

  Mayer bond orders larger than 0.100000
B(  0-C ,  1-C ) :   0.9099 B(  0-C , 19-H ) :   0.9693 B(  0-C , 20-H ) :   0.9627
B(  0-C , 21-H ) :   0.9577 B(  1-C ,  2-O ) :   0.8143 B(  1-C , 22-H ) :   0.9670
B(  1-C , 23-H ) :   0.9615 B(  2-O ,  3-P ) :   1.0500 B(  3-P ,  4-S ) :   1.8129
B(  3-P ,  5-O ) :   1.1490 B(  3-P ,  8-S ) :   1.0099 B(  5-O ,  6-C ) :   0.8115
B(  6-C ,  7-C ) :   0.9158 B(  6-C , 24-H ) :   0.9585 B(  6-C , 25-H ) :   0.9608
B(  7-C , 26-H ) :   0.9704 B(  7-C , 27-H ) :   0.9582 B(  7-C , 28-H ) :   0.9624
B(  8-S ,  9-C ) :   0.9106 B(  9-C , 10-S ) :   0.8948 B(  9-C , 29-H ) :   0.9128
B(  9-C , 30-H ) :   0.9054 B( 10-S , 11-P ) :   1.0923 B( 11-P , 12-S ) :   1.7521
B( 11-P , 13-O ) :   1.1930 B( 11-P , 16-O ) :   1.0735 B( 13-O , 14-C ) :   0.8050
B( 14-C , 15-C ) :   0.9106 B( 14-C , 31-H ) :   0.9618 B( 14-C , 32-H ) :   0.9636
B( 15-C , 33-H ) :   0.9607 B( 15-C , 34-H ) :   0.9623 B( 15-C , 35-H ) :   0.9716
B( 16-O , 17-C ) :   0.7879 B( 17-C , 18-C ) :   0.9556 B( 17-C , 36-H ) :   0.9508
B( 17-C , 37-H ) :   0.9468 B( 18-C , 38-H ) :   0.9721 B( 18-C , 39-H ) :   0.9715
B( 18-C , 40-H ) :   0.9654

Dispersion correction           -0.022122653
FINAL SINGLE POINT ENERGY     -2932.458159255572

DIPOLE MOMENT
-------------

Method             : SCF
Type of density    : Electron Density
Multiplicity       :   1
Irrep              :   0
Energy             : -2932.4826278962377728 Eh
Relativity type    :
Basis              : AO
                                X                 Y                 Z
Electronic contribution:      2.868106191      -2.013122955      -7.754549593
Nuclear contribution   :     -2.464144362       1.221385465       8.739946293
                        -----------------------------------------
Total Dipole Moment    :      0.403961829      -0.791737489       0.985396700
                        -----------------------------------------
Magnitude (a.u.)       :      1.327041848
Magnitude (Debye)      :      3.373072316

Rotational constants in cm-1:             0.013731             0.004982             0.004832
Rotational constants in MHz :           411.630956           149.349207           144.863249

                             ****ORCA TERMINATED NORMALLY****
TOTAL RUN TIME: 0 days 0 hours 1 minutes 20 seconds 678 msec
