                         Program Version 6.0.0  -   RELEASE  -
|  1> ! r2scan-3c def2/J RI DEFGRID2 scfconv6 printgap
|  2> %output
|  3>     printlevel normal
|  4> end
|  5> %cpcm
|  6>     smd true
|  7>     smdsolvent "water"
|  8> end
|  9> * xyz 0 1
| 10> C 4.6830029468 0.2664982212 -1.8047050092
| 11> C 4.4568449219 1.1764189931 -0.6146706837
| 12> O 3.5950936882 0.5838881735 0.3722317545
| 13> P 2.055872276 0.2980854138 0.1080001363
| 14> S 1.1436504948 1.6998051222 -0.9123842473
| 15> O 1.4635393112 0.1669044835 1.5625764143
| 16> C 1.6712943713 -0.9251484708 2.4943911194
| 17> C 3.1334578739 -1.2166752601 2.749379588
| 18> S 2.0208147618 -1.6468074271 -0.7494466841
| 19> C 0.2978029756 -1.653220846 -1.2834364794
| 20> S -0.8742392501 -1.7776771793 0.1149113097
| 21> P -2.0060762865 -0.0234840671 -0.1322813598
| 22> S -2.1622259053 0.6745344054 -1.9613775616
| 23> O -1.4176838734 0.9170383322 0.9938025483
| 24> C -1.655917844 2.3381180865 1.0178011258
| 25> C -3.1174595736 2.6647511862 1.232545484
| 26> O -3.3920164146 -0.4457859944 0.523335471
| 27> C -4.3494158818 -1.2539301946 -0.188489547
| 28> C -5.7048531311 -1.0565757933 0.4598624573
| 29> H 5.0061648778 -0.7174243916 -1.4748617711
| 30> H 3.7614651551 0.1616891121 -2.3750279214
| 31> H 5.443352085 0.7003217023 -2.4461883772
| 32> H 4.0148739728 2.1251838815 -0.9351394147
| 33> H 5.3826693343 1.3640482441 -0.0692077377
| 34> H 1.1635092081 -0.5763840411 3.3949059548
| 35> H 1.1571214657 -1.8086844648 2.1047061715
| 36> H 3.6500079348 -0.3131940537 3.0625696518
| 37> H 3.2096498149 -1.9651936708 3.5321308775
| 38> H 3.6058275532 -1.5985443762 1.8467814625
| 39> H 0.1740154439 -2.5373934136 -1.9030058449
| 40> H 0.0719792063 -0.7421002887 -1.8447010509
| 41> H -1.0294457677 2.6890259047 1.8394793041
| 42> H -1.291146676 2.765251612 0.0774009614
| 43> H -3.2317736677 3.7388418784 1.3406776698
| 44> H -3.6985015167 2.3314334718 0.373214332
| 45> H -3.4863852816 2.165306006 2.1245631898
| 46> H -4.35601742 -0.9420742212 -1.2386025776
| 47> H -4.0258030918 -2.2964419263 -0.1267217432
| 48> H -5.6546810443 -1.3268620881 1.5104780646
| 49> H -6.0134628227 -0.0182705289 0.3772204197
| 50> H -6.4325124535 -1.6868222036 -0.0406046272
| 51> *
| 52>
| 53>                          ****END OF INPUT****

CARTESIAN COORDINATES (ANGSTROEM)
---------------------------------
  C      4.683003    0.266498   -1.804705
  C      4.456845    1.176419   -0.614671
  O      3.595094    0.583888    0.372232
  P      2.055872    0.298085    0.108000
  S      1.143650    1.699805   -0.912384
  O      1.463539    0.166904    1.562576
  C      1.671294   -0.925148    2.494391
  C      3.133458   -1.216675    2.749380
  S      2.020815   -1.646807   -0.749447
  C      0.297803   -1.653221   -1.283436
  S     -0.874239   -1.777677    0.114911
  P     -2.006076   -0.023484   -0.132281
  S     -2.162226    0.674534   -1.961378
  O     -1.417684    0.917038    0.993803
  C     -1.655918    2.338118    1.017801
  C     -3.117460    2.664751    1.232545
  O     -3.392016   -0.445786    0.523335
  C     -4.349416   -1.253930   -0.188490
  C     -5.704853   -1.056576    0.459862
  H      5.006165   -0.717424   -1.474862
  H      3.761465    0.161689   -2.375028
  H      5.443352    0.700322   -2.446188
  H      4.014874    2.125184   -0.935139
  H      5.382669    1.364048   -0.069208
  H      1.163509   -0.576384    3.394906
  H      1.157121   -1.808684    2.104706
  H      3.650008   -0.313194    3.062570
  H      3.209650   -1.965194    3.532131
  H      3.605828   -1.598544    1.846781
  H      0.174015   -2.537393   -1.903006
  H      0.071979   -0.742100   -1.844701
  H     -1.029446    2.689026    1.839479
  H     -1.291147    2.765252    0.077401
  H     -3.231774    3.738842    1.340678
  H     -3.698502    2.331433    0.373214
  H     -3.486385    2.165306    2.124563
  H     -4.356017   -0.942074   -1.238603
  H     -4.025803   -2.296442   -0.126722
  H     -5.654681   -1.326862    1.510478
  H     -6.013463   -0.018271    0.377220
  H     -6.432512   -1.686822   -0.040605

 Total Charge           Charge          ....    0
 Multiplicity           Mult            ....    1
 Number of Electrons    NEL             ....  202
 Basis Dimension        Dim             ....  539

ORBITAL ENERGIES
----------------

  NO   OCC          E(Eh)            E(eV)
   0   2.0000     -88.580208     -2410.3900
   1   2.0000     -88.578717     -2410.3494
   2   2.0000     -88.524908     -2408.8852
   3   2.0000     -88.522011     -2408.8064
   4   2.0000     -76.918298     -2093.0533
   5   2.0000     -76.917509     -2093.0318
   6   2.0000     -18.994032      -516.8539
   7   2.0000     -18.993351      -516.8354
   8   2.0000     -18.992340      -516.8079
   9   2.0000     -18.991104      -516.7742
  10   2.0000     -10.105872      -274.9948
  11   2.0000     -10.091348      -274.5995
  12   2.0000     -10.089423      -274.5471
  13   2.0000     -10.087939      -274.5068
  14   2.0000     -10.087178      -274.4861
  15   2.0000     -10.019728      -272.6507
  16   2.0000     -10.019041      -272.6320
  17   2.0000     -10.018268      -272.6109
  18   2.0000     -10.017680      -272.5949
  19   2.0000      -7.874652      -214.2802
  20   2.0000      -7.873305      -214.2435
  21   2.0000      -7.819959      -212.7919
  22   2.0000      -7.817272      -212.7188
  23   2.0000      -6.596643      -179.5038
  24   2.0000      -6.596055      -179.4878
  25   2.0000      -5.821564      -158.4128
  26   2.0000      -5.820083      -158.3725
  27   2.0000      -5.818325      -158.3247
  28   2.0000      -5.817123      -158.2920
  29   2.0000      -5.811883      -158.1494
  30   2.0000      -5.810500      -158.1117
  31   2.0000      -5.767546      -156.9429
  32   2.0000      -5.764942      -156.8720
  33   2.0000      -5.760452      -156.7499
  34   2.0000      -5.759755      -156.7309
  35   2.0000      -5.757568      -156.6714
  36   2.0000      -5.757144      -156.6599
  37   2.0000      -4.742365      -129.0463
  38   2.0000      -4.741672      -129.0274
  39   2.0000      -4.741329      -129.0181
  40   2.0000      -4.740943      -129.0076
  41   2.0000      -4.740131      -128.9855
  42   2.0000      -4.740056      -128.9835
  43   2.0000      -1.052031       -28.6272
  44   2.0000      -1.050818       -28.5942
  45   2.0000      -1.012216       -27.5438
  46   2.0000      -1.010434       -27.4953
  47   2.0000      -0.801821       -21.8186
  48   2.0000      -0.755977       -20.5712
  49   2.0000      -0.745020       -20.2730
  50   2.0000      -0.726032       -19.7563
  51   2.0000      -0.723393       -19.6845
  52   2.0000      -0.711037       -19.3483
  53   2.0000      -0.688489       -18.7347
  54   2.0000      -0.669406       -18.2155
  55   2.0000      -0.631596       -17.1866
  56   2.0000      -0.621705       -16.9175
  57   2.0000      -0.603982       -16.4352
  58   2.0000      -0.593042       -16.1375
  59   2.0000      -0.589674       -16.0459
  60   2.0000      -0.525151       -14.2901
  61   2.0000      -0.512504       -13.9459
  62   2.0000      -0.491728       -13.3806
  63   2.0000      -0.486563       -13.2400
  64   2.0000      -0.469728       -12.7819
  65   2.0000      -0.465331       -12.6623
  66   2.0000      -0.456921       -12.4334
  67   2.0000      -0.447694       -12.1824
  68   2.0000      -0.443057       -12.0562
  69   2.0000      -0.434778       -11.8309
  70   2.0000      -0.425176       -11.5696
  71   2.0000      -0.413436       -11.2502
  72   2.0000      -0.406591       -11.0639
  73   2.0000      -0.399543       -10.8721
  74   2.0000      -0.392952       -10.6928
  75   2.0000      -0.386870       -10.5273
  76   2.0000      -0.380591       -10.3564
  77   2.0000      -0.370891       -10.0924
  78   2.0000      -0.362023        -9.8511
  79   2.0000      -0.358967        -9.7680
  80   2.0000      -0.353187        -9.6107
  81   2.0000      -0.352507        -9.5922
  82   2.0000      -0.350679        -9.5425
  83   2.0000      -0.346549        -9.4301
  84   2.0000      -0.343325        -9.3424
  85   2.0000      -0.323620        -8.8061
  86   2.0000      -0.321987        -8.7617
  87   2.0000      -0.310723        -8.4552
  88   2.0000      -0.308007        -8.3813
  89   2.0000      -0.302553        -8.2329
  90   2.0000      -0.296755        -8.0751
  91   2.0000      -0.287987        -7.8365
  92   2.0000      -0.284151        -7.7321
  93   2.0000      -0.276508        -7.5242
  94   2.0000      -0.273882        -7.4527
  95   2.0000      -0.253662        -6.9025
  96   2.0000      -0.240800        -6.5525
  97   2.0000      -0.237105        -6.4519
  98   2.0000      -0.225255        -6.1295
  99   2.0000      -0.215266        -5.8577
 100   2.0000      -0.208315        -5.6685
 101   0.0000      -0.047000        -1.2789
 102   0.0000      -0.036928        -1.0049
 103   0.0000      -0.012603        -0.3429
 104   0.0000       0.010150         0.2762
 105   0.0000       0.016030         0.4362

MULLIKEN ATOMIC CHARGES
-----------------------
   0 C :   -0.491800
   1 C :   -0.161368
   2 O :   -0.302837
   3 P :    0.666773
   4 S :   -0.478275
   5 O :   -0.295730
   6 C :   -0.130751
   7 C :   -0.481176
   8 S :   -0.147185
   9 C :   -0.219476
  10 S :   -0.155750
  11 P :    0.703606
  12 S :   -0.521364
  13 O :   -0.300121
  14 C :   -0.147735
  15 C :   -0.494115
  16 O :   -0.307174
  17 C :   -0.148628
  18 C :   -0.485193
  19 H :    0.169940
  20 H :    0.175274
  21 H :    0.172984
  22 H :    0.178370
  23 H :    0.175203
  24 H :    0.178525
  25 H :    0.173715
  26 H :    0.171357
  27 H :    0.175258
  28 H :    0.164855
  29 H :    0.237941
  30 H :    0.213318
  31 H :    0.177591
  32 H :    0.179993
  33 H :    0.171816
  34 H :    0.169639
  35 H :    0.169434
  36 H :    0.171954
  37 H :    0.170591
  38 H :    0.165706
  39 H :    0.165673
  40 H :    0.169164
Sum of atomic charges:    0.0000000

LOEWDIN ATOMIC CHARGES
----------------------
   0 C :   -0.411407
   1 C :    0.025338
   2 O :   -0.679803
   3 P :    0.384881
   4 S :   -0.110992
   5 O :   -0.675634
   6 C :    0.024145
   7 C :   -0.401705
   8 S :    0.143528
   9 C :   -0.406202
  10 S :    0.165214
  11 P :    0.370911
  12 S :   -0.163883
  13 O :   -0.682627
  14 C :    0.014828
  15 C :   -0.403725
  16 O :   -0.684855
  17 C :    0.020546
  18 C :   -0.390233
  19 H :    0.163459
  20 H :    0.161929
  21 H :    0.168475
  22 H :    0.181448
  23 H :    0.190744
  24 H :    0.193420
  25 H :    0.180980
  26 H :    0.165769
  27 H :    0.169822
  28 H :    0.163314
  29 H :    0.197392
  30 H :    0.200036
  31 H :    0.191091
  32 H :    0.183393
  33 H :    0.168628
  34 H :    0.163313
  35 H :    0.164197
  36 H :    0.181383
  37 H :    0.179205
  38 H :    0.163002
  39 H :    0.162157
  40 H :    0.168515

  Mayer bond orders larger than 0.100000
B(  0-C ,  1-C ) :   0.8995 B(  0-C , 19-H ) :   0.9660 B(  0-C , 20-H ) :   0.9646
B(  0-C , 21-H ) :   0.9525 B(  1-C ,  2-O ) :   0.8034 B(  1-C , 22-H ) :   0.9652
B(  1-C , 23-H ) :   0.9511 B(  2-O ,  3-P ) :   1.0583 B(  3-P ,  4-S ) :   1.7907
B(  3-P ,  5-O ) :   1.1451 B(  3-P ,  8-S ) :   1.0302 B(  5-O ,  6-C ) :   0.7999
B(  6-C ,  7-C ) :   0.9103 B(  6-C , 24-H ) :   0.9468 B(  6-C , 25-H ) :   0.9529
B(  7-C , 26-H ) :   0.9697 B(  7-C , 27-H ) :   0.9513 B(  7-C , 28-H ) :   0.9597
B(  8-S ,  9-C ) :   0.9047 B(  9-C , 10-S ) :   0.8882 B(  9-C , 29-H ) :   0.8966
B(  9-C , 30-H ) :   0.9099 B( 10-S , 11-P ) :   1.1230 B( 11-P , 12-S ) :   1.7000
B( 11-P , 13-O ) :   1.1880 B( 11-P , 16-O ) :   1.0809 B( 13-O , 14-C ) :   0.7896
B( 14-C , 15-C ) :   0.9074 B( 14-C , 31-H ) :   0.9498 B( 14-C , 32-H ) :   0.9599
B( 15-C , 33-H ) :   0.9540 B( 15-C , 34-H ) :   0.9616 B( 15-C , 35-H ) :   0.9699
B( 16-O , 17-C ) :   0.7801 B( 17-C , 18-C ) :   0.9520 B( 17-C , 36-H ) :   0.9478
B( 17-C , 37-H ) :   0.9379 B( 18-C , 38-H ) :   0.9691 B( 18-C , 39-H ) :   0.9691
B( 18-C , 40-H ) :   0.9589

Dispersion correction           -0.022122653
FINAL SINGLE POINT ENERGY     -2932.467435417181

DIPOLE MOMENT
-------------

Method             : SCF
Type of density    : Electron Density
Multiplicity       :   1
Irrep              :   0
Energy             : -2932.4919040578461136 Eh
Relativity type    :
Basis              : AO
                                X                 Y                 Z
Electronic contribution:      3.079352671      -2.573900223      -7.515223560
Nuclear contribution   :     -2.464144362       1.221385465       8.739946293
                        -----------------------------------------
Total Dipole Moment    :      0.615208310      -1.352514757       1.224722732
                        -----------------------------------------
Magnitude (a.u.)       :      1.925544911
Magnitude (Debye)      :      4.894346203

Rotational constants in cm-1:             0.013731             0.004982             0.004832
Rotational constants in MHz :           411.630956           149.349207           144.863249

                             ****ORCA TERMINATED NORMALLY****
TOTAL RUN TIME: 0 days 0 hours 1 minutes 48 seconds 912 msec
