                         Program Version 6.0.0  -   RELEASE  -
|  1> ! wb97x-v def2-tzvp def2/J RIJCOSX DEFGRID2 scfconv7 GCP(DFT/TZ) printgap
|  2> %output
|  3>     printlevel normal
|  4> end
|  5> * xyz 0 1
|  6> C -1.862989167575482 -1.4130833780329415 -8.043089390171631e-05
|  7> C -0.5391927832298357 -0.708997657483616 0.00012115760872202083
|  8> C 0.6705183470575017 -1.4042854133134337 0.00024816288808325815
|  9> C 1.8980014048746832 -0.7427007541373439 6.365996801301283e-05
| 10> C 1.9267469881066501 0.6487946234314846 -9.696481319778906e-05
| 11> C 0.735843273331891 1.3706446297692796 -0.00020292888221942399
| 12> C -0.4812051801633005 0.6925322740435678 -0.00020401561691729054
| 13> O -1.685457505963654 1.3644093105824924 -0.0006641729944363885
| 14> H -2.4559488529542963 -1.1480526454350253 -0.8825598964675843
| 15> H -1.720920578605619 -2.4962099266743136 0.005558606644190366
| 16> H -2.4610005350320723 -1.139303577870129 0.8762353919036626
| 17> H 0.6429679190697177 -2.4907061286026644 0.0005192954194154732
| 18> H 2.8221548063347957 -1.3112668951455095 0.00012063243893861661
| 19> H 2.8734674042820547 1.1799840664023418 -0.00015159297476008407
| 20> H 0.7434512283938219 2.457494871268348 -0.0003276028871379519
| 21> H -1.5115483178774336 2.3158700327051784 -0.0005310168363560543
| 22> *
| 23>
| 24>                          ****END OF INPUT****

CARTESIAN COORDINATES (ANGSTROEM)
---------------------------------
  C     -1.862989   -1.413083   -0.000080
  C     -0.539193   -0.708998    0.000121
  C      0.670518   -1.404285    0.000248
  C      1.898001   -0.742701    0.000064
  C      1.926747    0.648795   -0.000097
  C      0.735843    1.370645   -0.000203
  C     -0.481205    0.692532   -0.000204
  O     -1.685458    1.364409   -0.000664
  H     -2.455949   -1.148053   -0.882560
  H     -1.720921   -2.496210    0.005559
  H     -2.461001   -1.139304    0.876235
  H      0.642968   -2.490706    0.000519
  H      2.822155   -1.311267    0.000121
  H      2.873467    1.179984   -0.000152
  H      0.743451    2.457495   -0.000328
  H     -1.511548    2.315870   -0.000531

 Total Charge           Charge          ....    0
 Multiplicity           Mult            ....    1
 Number of Electrons    NEL             ....   58
 Basis Dimension        Dim             ....  296

ORBITAL ENERGIES
----------------

  NO   OCC          E(Eh)            E(eV)
   0   2.0000     -21.703409      -590.5798
   1   2.0000     -12.110125      -329.5332
   2   2.0000     -12.055187      -328.0383
   3   2.0000     -12.052902      -327.9761
   4   2.0000     -12.050377      -327.9074
   5   2.0000     -12.049405      -327.8810
   6   2.0000     -12.042923      -327.7046
   7   2.0000     -12.038447      -327.5828
   8   2.0000      -1.716107       -46.6976
   9   2.0000      -1.385062       -37.6895
  10   2.0000      -1.296714       -35.2854
  11   2.0000      -1.275356       -34.7042
  12   2.0000      -1.194143       -32.4943
  13   2.0000      -1.154024       -31.4026
  14   2.0000      -1.095159       -29.8008
  15   2.0000      -1.057893       -28.7867
  16   2.0000      -1.003291       -27.3009
  17   2.0000      -0.947451       -25.7814
  18   2.0000      -0.942981       -25.6598
  19   2.0000      -0.938061       -25.5259
  20   2.0000      -0.895173       -24.3589
  21   2.0000      -0.871750       -23.7215
  22   2.0000      -0.836384       -22.7592
  23   2.0000      -0.831426       -22.6243
  24   2.0000      -0.815333       -22.1863
  25   2.0000      -0.803002       -21.8508
  26   2.0000      -0.759246       -20.6601
  27   2.0000      -0.638531       -17.3753
  28   2.0000      -0.630646       -17.1608
  29   0.0000      -0.243347        -6.6218
  30   0.0000      -0.238605        -6.4928
  31   0.0000      -0.146175        -3.9776
  32   0.0000      -0.070587        -1.9208
  33   0.0000      -0.068701        -1.8695

MULLIKEN ATOMIC CHARGES
-----------------------
   0 C :   -0.330389
   1 C :    0.036101
   2 C :   -0.159092
   3 C :   -0.140268
   4 C :   -0.131007
   5 C :   -0.206737
   6 C :    0.213080
   7 O :   -0.394455
   8 H :    0.123316
   9 H :    0.111021
  10 H :    0.123497
  11 H :    0.111392
  12 H :    0.113965
  13 H :    0.116857
  14 H :    0.101974
  15 H :    0.310743
Sum of atomic charges:   -0.0000000

LOEWDIN ATOMIC CHARGES
----------------------
   0 C :   -0.248700
   1 C :   -0.153828
   2 C :   -0.112729
   3 C :   -0.158787
   4 C :   -0.143876
   5 C :   -0.148412
   6 C :   -0.231497
   7 O :    0.067329
   8 H :    0.129173
   9 H :    0.123052
  10 H :    0.129169
  11 H :    0.144007
  12 H :    0.140054
  13 H :    0.141604
  14 H :    0.138836
  15 H :    0.184604

  Mayer bond orders larger than 0.100000
B(  0-C ,  1-C ) :   0.9587 B(  0-C ,  8-H ) :   0.9663 B(  0-C ,  9-H ) :   0.9934
B(  0-C , 10-H ) :   0.9665 B(  1-C ,  2-C ) :   1.4409 B(  1-C ,  6-C ) :   1.3497
B(  2-C ,  3-C ) :   1.4316 B(  2-C , 11-H ) :   0.9681 B(  3-C ,  4-C ) :   1.4434
B(  3-C , 12-H ) :   0.9761 B(  4-C ,  5-C ) :   1.4211 B(  4-C , 13-H ) :   0.9655
B(  5-C ,  6-C ) :   1.4020 B(  5-C , 14-H ) :   0.9660 B(  6-C ,  7-O ) :   1.1741
B(  7-O , 15-H ) :   0.8895

FINAL SINGLE POINT ENERGY      -346.804940807001

DIPOLE MOMENT
-------------

Method             : SCF
Type of density    : Electron Density
Multiplicity       :   1
Irrep              :   0
Energy             :  -346.8138409923009249 Eh
Relativity type    :
Basis              : AO
                                X                 Y                 Z
Electronic contribution:      1.180289607       2.872419239       0.000088428
Nuclear contribution   :     -1.037229034      -2.482219115      -0.000130740
                        -----------------------------------------
Total Dipole Moment    :      0.143060573       0.390200124      -0.000042312
                        -----------------------------------------
Magnitude (a.u.)       :      0.415598924
Magnitude (Debye)      :      1.056368515

Rotational constants in cm-1:             0.108865             0.073443             0.044215
Rotational constants in MHz :          3263.677668          2201.760656          1325.530837

                             ****ORCA TERMINATED NORMALLY****
TOTAL RUN TIME: 0 days 0 hours 2 minutes 16 seconds 368 msec
