                         Program Version 6.0.0  -   RELEASE  -
|  1> ! wb97x-v def2-tzvp def2/J RIJCOSX DEFGRID2 scfconv7 GCP(DFT/TZ) printgap
|  2> %output
|  3>     printlevel normal
|  4> end
|  5> %cpcm
|  6>     smd true
|  7>     smdsolvent "water"
|  8> end
|  9> * xyz 0 1
| 10> C -1.862989167575482 -1.4130833780329415 -8.043089390171631e-05
| 11> C -0.5391927832298357 -0.708997657483616 0.00012115760872202083
| 12> C 0.6705183470575017 -1.4042854133134337 0.00024816288808325815
| 13> C 1.8980014048746832 -0.7427007541373439 6.365996801301283e-05
| 14> C 1.9267469881066501 0.6487946234314846 -9.696481319778906e-05
| 15> C 0.735843273331891 1.3706446297692796 -0.00020292888221942399
| 16> C -0.4812051801633005 0.6925322740435678 -0.00020401561691729054
| 17> O -1.685457505963654 1.3644093105824924 -0.0006641729944363885
| 18> H -2.4559488529542963 -1.1480526454350253 -0.8825598964675843
| 19> H -1.720920578605619 -2.4962099266743136 0.005558606644190366
| 20> H -2.4610005350320723 -1.139303577870129 0.8762353919036626
| 21> H 0.6429679190697177 -2.4907061286026644 0.0005192954194154732
| 22> H 2.8221548063347957 -1.3112668951455095 0.00012063243893861661
| 23> H 2.8734674042820547 1.1799840664023418 -0.00015159297476008407
| 24> H 0.7434512283938219 2.457494871268348 -0.0003276028871379519
| 25> H -1.5115483178774336 2.3158700327051784 -0.0005310168363560543
| 26> *
| 27>
| 28>                          ****END OF INPUT****

CARTESIAN COORDINATES (ANGSTROEM)
---------------------------------
  C     -1.862989   -1.413083   -0.000080
  C     -0.539193   -0.708998    0.000121
  C      0.670518   -1.404285    0.000248
  C      1.898001   -0.742701    0.000064
  C      1.926747    0.648795   -0.000097
  C      0.735843    1.370645   -0.000203
  C     -0.481205    0.692532   -0.000204
  O     -1.685458    1.364409   -0.000664
  H     -2.455949   -1.148053   -0.882560
  H     -1.720921   -2.496210    0.005559
  H     -2.461001   -1.139304    0.876235
  H      0.642968   -2.490706    0.000519
  H      2.822155   -1.311267    0.000121
  H      2.873467    1.179984   -0.000152
  H      0.743451    2.457495   -0.000328
  H     -1.511548    2.315870   -0.000531

 Total Charge           Charge          ....    0
 Multiplicity           Mult            ....    1
 Number of Electrons    NEL             ....   58
 Basis Dimension        Dim             ....  296

ORBITAL ENERGIES
----------------

  NO   OCC          E(Eh)            E(eV)
   0   2.0000     -21.700219      -590.4930
   1   2.0000     -12.109206      -329.5082
   2   2.0000     -12.055221      -328.0392
   3   2.0000     -12.049683      -327.8885
   4   2.0000     -12.047632      -327.8327
   5   2.0000     -12.046145      -327.7923
   6   2.0000     -12.041272      -327.6597
   7   2.0000     -12.034877      -327.4856
   8   2.0000      -1.713189       -46.6182
   9   2.0000      -1.384901       -37.6851
  10   2.0000      -1.295731       -35.2586
  11   2.0000      -1.274021       -34.6679
  12   2.0000      -1.192120       -32.4392
  13   2.0000      -1.151575       -31.3359
  14   2.0000      -1.093153       -29.7462
  15   2.0000      -1.055711       -28.7274
  16   2.0000      -1.003344       -27.3024
  17   2.0000      -0.946866       -25.7655
  18   2.0000      -0.941227       -25.6121
  19   2.0000      -0.935076       -25.4447
  20   2.0000      -0.890612       -24.2348
  21   2.0000      -0.868293       -23.6275
  22   2.0000      -0.833036       -22.6681
  23   2.0000      -0.829710       -22.5775
  24   2.0000      -0.812193       -22.1009
  25   2.0000      -0.799186       -21.7470
  26   2.0000      -0.759859       -20.6768
  27   2.0000      -0.638428       -17.3725
  28   2.0000      -0.631878       -17.1943
  29   0.0000      -0.244281        -6.6472
  30   0.0000      -0.238257        -6.4833
  31   0.0000      -0.143130        -3.8948
  32   0.0000      -0.070111        -1.9078
  33   0.0000      -0.036923        -1.0047

MULLIKEN ATOMIC CHARGES
-----------------------
   0 C :   -0.389637
   1 C :    0.023534
   2 C :   -0.206590
   3 C :   -0.192775
   4 C :   -0.162586
   5 C :   -0.262041
   6 C :    0.223323
   7 O :   -0.470721
   8 H :    0.138955
   9 H :    0.142027
  10 H :    0.138877
  11 H :    0.157046
  12 H :    0.158205
  13 H :    0.162233
  14 H :    0.164625
  15 H :    0.375526
Sum of atomic charges:   -0.0000000

LOEWDIN ATOMIC CHARGES
----------------------
   0 C :   -0.255286
   1 C :   -0.164845
   2 C :   -0.123944
   3 C :   -0.173037
   4 C :   -0.154928
   5 C :   -0.144643
   6 C :   -0.239620
   7 O :    0.045019
   8 H :    0.130924
   9 H :    0.130826
  10 H :    0.130850
  11 H :    0.153804
  12 H :    0.148511
  13 H :    0.151118
  14 H :    0.155625
  15 H :    0.209626

  Mayer bond orders larger than 0.100000
B(  0-C ,  1-C ) :   0.9477 B(  0-C ,  8-H ) :   0.9666 B(  0-C ,  9-H ) :   0.9875
B(  0-C , 10-H ) :   0.9668 B(  1-C ,  2-C ) :   1.4214 B(  1-C ,  6-C ) :   1.3350
B(  2-C ,  3-C ) :   1.4124 B(  2-C , 11-H ) :   0.9719 B(  3-C ,  4-C ) :   1.4104
B(  3-C , 12-H ) :   0.9804 B(  4-C ,  5-C ) :   1.3798 B(  4-C , 13-H ) :   0.9683
B(  5-C ,  6-C ) :   1.4044 B(  5-C , 14-H ) :   0.9728 B(  6-C ,  7-O ) :   1.1370
B(  7-O , 15-H ) :   0.8491

FINAL SINGLE POINT ENERGY      -346.813632044422

DIPOLE MOMENT
-------------

Method             : SCF
Type of density    : Electron Density
Multiplicity       :   1
Irrep              :   0
Energy             :  -346.8225322297221282 Eh
Relativity type    :
Basis              : AO
                                X                 Y                 Z
Electronic contribution:      1.267540145       3.044413641       0.000047391
Nuclear contribution   :     -1.037229034      -2.482219115      -0.000130740
                        -----------------------------------------
Total Dipole Moment    :      0.230311111       0.562194526      -0.000083349
                        -----------------------------------------
Magnitude (a.u.)       :      0.607540863
Magnitude (Debye)      :      1.544246149

Rotational constants in cm-1:             0.108865             0.073443             0.044215
Rotational constants in MHz :          3263.677668          2201.760656          1325.530837

                             ****ORCA TERMINATED NORMALLY****
TOTAL RUN TIME: 0 days 0 hours 2 minutes 29 seconds 479 msec
