                         Program Version 6.0.0  -   RELEASE  -
|  1> ! pbe def2-sv(p) def2/J RI DEFGRID1 loosescf d4 GCP(DFT/SV(P)) printgap
|  2> %output
|  3>     printlevel normal
|  4> end
|  5> * xyz 0 1
|  6> C 2.6501554236 0.2419614451 -2.8919953021
|  7> C 3.5900276309 0.5830621053 -1.7534293499
|  8> O 3.3918629319 -0.2788481054 -0.6222318872
|  9> P 2.0795040476 -0.2226045849 0.2744649464
| 10> S 1.4782561676 1.6129563839 0.6395069594
| 11> O 2.4857543907 -1.0639710672 1.5514885782
| 12> C 3.0111831896 -0.4427448104 2.7433234864
| 13> C 4.4179364126 0.0736627593 2.5282226733
| 14> S 0.8527277849 -1.6831085781 -0.6480445537
| 15> C -0.2455669051 -2.0870975149 0.7421376925
| 16> S -1.0810650789 -0.6503412392 1.4726914331
| 17> P -2.0942692446 0.0840242982 -0.2362114405
| 18> S -1.1765657775 0.969293007 -1.7322057675
| 19> O -3.2409217857 0.9733122988 0.4132747764
| 20> C -3.0942126532 2.381991287 0.6490696441
| 21> C -2.1433091265 2.6631378565 1.7947150188
| 22> O -2.8533145852 -1.2526010495 -0.614123461
| 23> C -3.4379763714 -1.4607307153 -1.9167566031
| 24> C -4.6575947967 -0.5887706191 -2.1271858129
| 25> H 1.6196547216 0.4582825687 -2.6057832377
| 26> H 2.8997489358 0.8413766716 -3.7614973383
| 27> H 2.7273338304 -0.8130155189 -3.1433615027
| 28> H 3.4427211513 1.6199002661 -1.4324102998
| 29> H 4.6332974513 0.422074662 -2.0282436496
| 30> H 2.3393609103 0.3710531088 3.0347985839
| 31> H 2.9797469788 -1.2378444986 3.4891756076
| 32> H 4.81346609 0.4446291468 3.4684753588
| 33> H 5.0568372346 -0.7209551396 2.152140315
| 34> H 4.4049829042 0.8870397096 1.803786998
| 35> H 0.3336056228 -2.5384231057 1.5444525671
| 36> H -0.9855778859 -2.781292731 0.3503832707
| 37> H -2.7373531777 2.855804838 -0.2718415983
| 38> H -4.1072232265 2.718789653 0.8736360702
| 39> H -2.1486401762 3.7249475493 2.0185496674
| 40> H -2.4405395069 2.1037620521 2.6782717193
| 41> H -1.128471394 2.3721168964 1.5209733258
| 42> H -2.6767223662 -1.2523390877 -2.675436221
| 43> H -3.6918385106 -2.5214663507 -1.9232994546
| 44> H -5.1282563408 -0.8485427064 -3.070145231
| 45> H -5.3657620454 -0.731108305 -1.3151787567
| 46> H -4.3614571302 0.4590440435 -2.1558712567
| 47> *
| 48>
| 49>                          ****END OF INPUT****

CARTESIAN COORDINATES (ANGSTROEM)
---------------------------------
  C      2.650155    0.241961   -2.891995
  C      3.590028    0.583062   -1.753429
  O      3.391863   -0.278848   -0.622232
  P      2.079504   -0.222605    0.274465
  S      1.478256    1.612956    0.639507
  O      2.485754   -1.063971    1.551489
  C      3.011183   -0.442745    2.743323
  C      4.417936    0.073663    2.528223
  S      0.852728   -1.683109   -0.648045
  C     -0.245567   -2.087098    0.742138
  S     -1.081065   -0.650341    1.472691
  P     -2.094269    0.084024   -0.236211
  S     -1.176566    0.969293   -1.732206
  O     -3.240922    0.973312    0.413275
  C     -3.094213    2.381991    0.649070
  C     -2.143309    2.663138    1.794715
  O     -2.853315   -1.252601   -0.614123
  C     -3.437976   -1.460731   -1.916757
  C     -4.657595   -0.588771   -2.127186
  H      1.619655    0.458283   -2.605783
  H      2.899749    0.841377   -3.761497
  H      2.727334   -0.813016   -3.143362
  H      3.442721    1.619900   -1.432410
  H      4.633297    0.422075   -2.028244
  H      2.339361    0.371053    3.034799
  H      2.979747   -1.237844    3.489176
  H      4.813466    0.444629    3.468475
  H      5.056837   -0.720955    2.152140
  H      4.404983    0.887040    1.803787
  H      0.333606   -2.538423    1.544453
  H     -0.985578   -2.781293    0.350383
  H     -2.737353    2.855805   -0.271842
  H     -4.107223    2.718790    0.873636
  H     -2.148640    3.724948    2.018550
  H     -2.440540    2.103762    2.678272
  H     -1.128471    2.372117    1.520973
  H     -2.676722   -1.252339   -2.675436
  H     -3.691839   -2.521466   -1.923299
  H     -5.128256   -0.848543   -3.070145
  H     -5.365762   -0.731108   -1.315179
  H     -4.361457    0.459044   -2.155871

 Total Charge           Charge          ....    0
 Multiplicity           Mult            ....    1
 Number of Electrons    NEL             ....  202
 Basis Dimension        Dim             ....  334

ORBITAL ENERGIES
----------------

  NO   OCC          E(Eh)            E(eV)
   0   2.0000     -88.037873     -2395.6323
   1   2.0000     -88.036680     -2395.5999
   2   2.0000     -87.980124     -2394.0609
   3   2.0000     -87.980070     -2394.0594
   4   2.0000     -76.422384     -2079.5588
   5   2.0000     -76.422333     -2079.5574
   6   2.0000     -18.790346      -511.3113
   7   2.0000     -18.790007      -511.3021
   8   2.0000     -18.788648      -511.2651
   9   2.0000     -18.788105      -511.2503
  10   2.0000      -9.956587      -270.9325
  11   2.0000      -9.949681      -270.7446
  12   2.0000      -9.949607      -270.7426
  13   2.0000      -9.946553      -270.6595
  14   2.0000      -9.946477      -270.6574
  15   2.0000      -9.881686      -268.8944
  16   2.0000      -9.881556      -268.8908
  17   2.0000      -9.877139      -268.7706
  18   2.0000      -9.876426      -268.7512
  19   2.0000      -7.682937      -209.0633
  20   2.0000      -7.681820      -209.0329
  21   2.0000      -7.624709      -207.4789
  22   2.0000      -7.624652      -207.4773
  23   2.0000      -6.419799      -174.6916
  24   2.0000      -6.419760      -174.6906
  25   2.0000      -5.711026      -155.4049
  26   2.0000      -5.709956      -155.3758
  27   2.0000      -5.707542      -155.3101
  28   2.0000      -5.706410      -155.2793
  29   2.0000      -5.699565      -155.0930
  30   2.0000      -5.698405      -155.0615
  31   2.0000      -5.653569      -153.8414
  32   2.0000      -5.653483      -153.8391
  33   2.0000      -5.645276      -153.6158
  34   2.0000      -5.645219      -153.6142
  35   2.0000      -5.645027      -153.6090
  36   2.0000      -5.644991      -153.6080
  37   2.0000      -4.642420      -126.3267
  38   2.0000      -4.642415      -126.3265
  39   2.0000      -4.641603      -126.3044
  40   2.0000      -4.641584      -126.3039
  41   2.0000      -4.640163      -126.2653
  42   2.0000      -4.640105      -126.2637
  43   2.0000      -0.984212       -26.7818
  44   2.0000      -0.983982       -26.7755
  45   2.0000      -0.944555       -25.7027
  46   2.0000      -0.944532       -25.7020
  47   2.0000      -0.760762       -20.7014
  48   2.0000      -0.716499       -19.4969
  49   2.0000      -0.703408       -19.1407
  50   2.0000      -0.683197       -18.5907
  51   2.0000      -0.682767       -18.5790
  52   2.0000      -0.666108       -18.1257
  53   2.0000      -0.650542       -17.7022
  54   2.0000      -0.634046       -17.2533
  55   2.0000      -0.598205       -16.2780
  56   2.0000      -0.590074       -16.0567
  57   2.0000      -0.569540       -15.4980
  58   2.0000      -0.569272       -15.4907
  59   2.0000      -0.559119       -15.2144
  60   2.0000      -0.492838       -13.4108
  61   2.0000      -0.488446       -13.2913
  62   2.0000      -0.472261       -12.8509
  63   2.0000      -0.469174       -12.7669
  64   2.0000      -0.456269       -12.4157
  65   2.0000      -0.441561       -12.0155
  66   2.0000      -0.435653       -11.8547
  67   2.0000      -0.432936       -11.7808
  68   2.0000      -0.420660       -11.4467
  69   2.0000      -0.412232       -11.2174
  70   2.0000      -0.407638       -11.0924
  71   2.0000      -0.391822       -10.6620
  72   2.0000      -0.390536       -10.6270
  73   2.0000      -0.387938       -10.5563
  74   2.0000      -0.383677       -10.4404
  75   2.0000      -0.371019       -10.0960
  76   2.0000      -0.365782        -9.9534
  77   2.0000      -0.354341        -9.6421
  78   2.0000      -0.351112        -9.5542
  79   2.0000      -0.349029        -9.4976
  80   2.0000      -0.344376        -9.3709
  81   2.0000      -0.344045        -9.3620
  82   2.0000      -0.338899        -9.2219
  83   2.0000      -0.335087        -9.1182
  84   2.0000      -0.327950        -8.9240
  85   2.0000      -0.317167        -8.6305
  86   2.0000      -0.303180        -8.2499
  87   2.0000      -0.291845        -7.9415
  88   2.0000      -0.290285        -7.8990
  89   2.0000      -0.282886        -7.6977
  90   2.0000      -0.277606        -7.5540
  91   2.0000      -0.273111        -7.4317
  92   2.0000      -0.268408        -7.3038
  93   2.0000      -0.258625        -7.0375
  94   2.0000      -0.257735        -7.0133
  95   2.0000      -0.247072        -6.7232
  96   2.0000      -0.218648        -5.9497
  97   2.0000      -0.209188        -5.6923
  98   2.0000      -0.188442        -5.1278
  99   2.0000      -0.185978        -5.0607
 100   2.0000      -0.183164        -4.9841
 101   0.0000      -0.049049        -1.3347
 102   0.0000      -0.026679        -0.7260
 103   0.0000      -0.006154        -0.1675
 104   0.0000      -0.003340        -0.0909
 105   0.0000       0.026879         0.7314

MULLIKEN ATOMIC CHARGES
-----------------------
   0 C :   -0.343940
   1 C :   -0.001516
   2 O :   -0.370438
   3 P :    0.618048
   4 S :   -0.306426
   5 O :   -0.375075
   6 C :   -0.005100
   7 C :   -0.303182
   8 S :   -0.093760
   9 C :   -0.333981
  10 S :   -0.095254
  11 P :    0.620307
  12 S :   -0.304315
  13 O :   -0.371349
  14 C :   -0.001935
  15 C :   -0.344350
  16 O :   -0.375619
  17 C :   -0.005009
  18 C :   -0.303697
  19 H :    0.155864
  20 H :    0.112698
  21 H :    0.117415
  22 H :    0.109797
  23 H :    0.102615
  24 H :    0.112391
  25 H :    0.100763
  26 H :    0.110806
  27 H :    0.116463
  28 H :    0.122646
  29 H :    0.187564
  30 H :    0.186950
  31 H :    0.109918
  32 H :    0.102236
  33 H :    0.111789
  34 H :    0.115747
  35 H :    0.157927
  36 H :    0.111853
  37 H :    0.100907
  38 H :    0.110955
  39 H :    0.116684
  40 H :    0.122603
Sum of atomic charges:   -0.0000000

LOEWDIN ATOMIC CHARGES
----------------------
   0 C :   -0.374196
   1 C :   -0.120967
   2 O :   -0.243555
   3 P :    0.571866
   4 S :   -0.301902
   5 O :   -0.243014
   6 C :   -0.119477
   7 C :   -0.363834
   8 S :    0.086371
   9 C :   -0.472584
  10 S :    0.087438
  11 P :    0.571351
  12 S :   -0.303236
  13 O :   -0.242805
  14 C :   -0.120510
  15 C :   -0.374481
  16 O :   -0.243718
  17 C :   -0.119570
  18 C :   -0.363988
  19 H :    0.124128
  20 H :    0.131780
  21 H :    0.123645
  22 H :    0.109259
  23 H :    0.117313
  24 H :    0.110633
  25 H :    0.116196
  26 H :    0.129848
  27 H :    0.126479
  28 H :    0.123313
  29 H :    0.134046
  30 H :    0.133675
  31 H :    0.109365
  32 H :    0.117048
  33 H :    0.131499
  34 H :    0.123504
  35 H :    0.122403
  36 H :    0.110639
  37 H :    0.116289
  38 H :    0.129865
  39 H :    0.126566
  40 H :    0.123317

  Mayer bond orders larger than 0.100000
B(  0-C ,  1-C ) :   1.1643 B(  0-C , 19-H ) :   0.9229 B(  0-C , 20-H ) :   0.9378
B(  0-C , 21-H ) :   0.9437 B(  1-C ,  2-O ) :   0.9087 B(  1-C , 22-H ) :   0.9125
B(  1-C , 23-H ) :   0.9328 B(  2-O ,  3-P ) :   1.1066 B(  3-P ,  4-S ) :   1.6126
B(  3-P ,  5-O ) :   1.1096 B(  3-P ,  8-S ) :   0.9554 B(  4-S ,  8-S ) :   0.1148
B(  5-O ,  6-C ) :   0.9035 B(  6-C ,  7-C ) :   1.1659 B(  6-C , 24-H ) :   0.9129
B(  6-C , 25-H ) :   0.9339 B(  7-C , 26-H ) :   0.9393 B(  7-C , 27-H ) :   0.9463
B(  7-C , 28-H ) :   0.9361 B(  8-S ,  9-C ) :   1.0008 B(  9-C , 10-S ) :   1.0034
B(  9-C , 29-H ) :   0.9037 B(  9-C , 30-H ) :   0.9028 B( 10-S , 11-P ) :   0.9515
B( 10-S , 12-S ) :   0.1158 B( 11-P , 12-S ) :   1.6225 B( 11-P , 13-O ) :   1.1069
B( 11-P , 16-O ) :   1.1073 B( 13-O , 14-C ) :   0.9077 B( 14-C , 15-C ) :   1.1650
B( 14-C , 31-H ) :   0.9115 B( 14-C , 32-H ) :   0.9330 B( 15-C , 33-H ) :   0.9379
B( 15-C , 34-H ) :   0.9442 B( 15-C , 35-H ) :   0.9207 B( 16-O , 17-C ) :   0.9045
B( 17-C , 18-C ) :   1.1666 B( 17-C , 36-H ) :   0.9131 B( 17-C , 37-H ) :   0.9339
B( 18-C , 38-H ) :   0.9391 B( 18-C , 39-H ) :   0.9461 B( 18-C , 40-H ) :   0.9363

Dispersion correction           -0.068383954
FINAL SINGLE POINT ENERGY     -2929.516665363215

DIPOLE MOMENT
-------------

Method             : SCF
Type of density    : Electron Density
Multiplicity       :   1
Irrep              :   0
Energy             : -2929.6329370076064151 Eh
Relativity type    :
Basis              : AO
                                X                 Y                 Z
Electronic contribution:     -0.540299574      -6.072581387       1.614909835
Nuclear contribution   :      0.457164933       5.565734830      -1.374504081
                        -----------------------------------------
Total Dipole Moment    :     -0.083134641      -0.506846557       0.240405754
                        -----------------------------------------
Magnitude (a.u.)       :      0.567097634
Magnitude (Debye)      :      1.441447633

Rotational constants in cm-1:             0.012485             0.005483             0.005085
Rotational constants in MHz :           374.277884           164.368361           152.457566

                             ****ORCA TERMINATED NORMALLY****
TOTAL RUN TIME: 0 days 0 hours 0 minutes 21 seconds 635 msec
