                         Program Version 6.0.0  -   RELEASE  -
|  1> ! pbe def2-sv(p) def2/J RI DEFGRID1 loosescf d4 GCP(DFT/SV(P)) printgap
|  2> %output
|  3>     printlevel normal
|  4> end
|  5> * xyz 0 1
|  6> C 5.7104526316 -0.1635290896 0.3642269823
|  7> C 4.3935075733 -0.6351740092 -0.2184283594
|  8> O 3.3398033845 0.1512405609 0.3712245653
|  9> P 1.8896761608 0.217147401 -0.2780621907
| 10> S 1.8867313196 0.571077353 -2.2109832618
| 11> O 1.1818769918 1.2598969836 0.6748601733
| 12> C 1.1897535593 2.6754524014 0.4079080463
| 13> C 2.5788197818 3.2640233548 0.5238669858
| 14> S 1.0702772712 -1.6174642764 0.339812694
| 15> C -0.1460459827 -1.924517628 -0.9859441214
| 16> S -1.8385086791 -2.0485829909 -0.3700954759
| 17> P -2.118261776 0.0007819915 0.1221939906
| 18> S -1.546881317 1.2954855999 -1.2285014703
| 19> O -1.396572247 0.2151715139 1.5065572282
| 20> C -1.726329699 -0.5604032837 2.6907591424
| 21> C -0.5348791201 -0.5160698511 3.6239920315
| 22> O -3.6492966899 0.0750914368 0.5430399975
| 23> C -4.7165793753 0.2902182806 -0.3987713059
| 24> C -4.8677558555 -0.8583835168 -1.3744751636
| 25> H 5.8815197373 0.8789590129 0.1112025184
| 26> H 5.6931515253 -0.2655035082 1.4452892351
| 27> H 6.5150551161 -0.767149174 -0.0424305515
| 28> H 4.2069123543 -1.6865626864 0.0170099471
| 29> H 4.3609550381 -0.5009309857 -1.3050931916
| 30> H 0.7736316603 2.8426495633 -0.5916370438
| 31> H 0.5054964738 3.0823318916 1.1541817072
| 32> H 3.2139926865 2.8652875441 -0.2663560407
| 33> H 2.5203933388 4.3429464854 0.4193211625
| 34> H 3.0129829521 3.0121549762 1.4878366803
| 35> H 0.0839935376 -2.8873138253 -1.4345882939
| 36> H -0.0705477669 -1.1186996782 -1.7216077959
| 37> H -2.6117819547 -0.1076911459 3.1403654386
| 38> H -1.9580028209 -1.5850035461 2.3850510291
| 39> H 0.3317176574 -0.9698612228 3.1494615498
| 40> H -0.2949583821 0.5134352252 3.8740665963
| 41> H -0.774425452 -1.0622889578 4.5305547942
| 42> H -5.5981480199 0.4000830967 0.2344322307
| 43> H -4.5211884087 1.2256190382 -0.9318828407
| 44> H -4.0109880735 -0.8938536571 -2.0455561543
| 45> H -4.9354116108 -1.8030793693 -0.8408682532
| 46> H -5.7673957686 -0.71019159 -1.963175413
| 47> *
| 48>
| 49>                          ****END OF INPUT****

CARTESIAN COORDINATES (ANGSTROEM)
---------------------------------
  C      5.710453   -0.163529    0.364227
  C      4.393508   -0.635174   -0.218428
  O      3.339803    0.151241    0.371225
  P      1.889676    0.217147   -0.278062
  S      1.886731    0.571077   -2.210983
  O      1.181877    1.259897    0.674860
  C      1.189754    2.675452    0.407908
  C      2.578820    3.264023    0.523867
  S      1.070277   -1.617464    0.339813
  C     -0.146046   -1.924518   -0.985944
  S     -1.838509   -2.048583   -0.370095
  P     -2.118262    0.000782    0.122194
  S     -1.546881    1.295486   -1.228501
  O     -1.396572    0.215172    1.506557
  C     -1.726330   -0.560403    2.690759
  C     -0.534879   -0.516070    3.623992
  O     -3.649297    0.075091    0.543040
  C     -4.716579    0.290218   -0.398771
  C     -4.867756   -0.858384   -1.374475
  H      5.881520    0.878959    0.111203
  H      5.693152   -0.265504    1.445289
  H      6.515055   -0.767149   -0.042431
  H      4.206912   -1.686563    0.017010
  H      4.360955   -0.500931   -1.305093
  H      0.773632    2.842650   -0.591637
  H      0.505496    3.082332    1.154182
  H      3.213993    2.865288   -0.266356
  H      2.520393    4.342946    0.419321
  H      3.012983    3.012155    1.487837
  H      0.083994   -2.887314   -1.434588
  H     -0.070548   -1.118700   -1.721608
  H     -2.611782   -0.107691    3.140365
  H     -1.958003   -1.585004    2.385051
  H      0.331718   -0.969861    3.149462
  H     -0.294958    0.513435    3.874067
  H     -0.774425   -1.062289    4.530555
  H     -5.598148    0.400083    0.234432
  H     -4.521188    1.225619   -0.931883
  H     -4.010988   -0.893854   -2.045556
  H     -4.935412   -1.803079   -0.840868
  H     -5.767396   -0.710192   -1.963175

 Total Charge           Charge          ....    0
 Multiplicity           Mult            ....    1
 Number of Electrons    NEL             ....  202
 Basis Dimension        Dim             ....  334

ORBITAL ENERGIES
----------------

  NO   OCC          E(Eh)            E(eV)
   0   2.0000     -88.043573     -2395.7874
   1   2.0000     -88.040685     -2395.7088
   2   2.0000     -87.982262     -2394.1191
   3   2.0000     -87.980256     -2394.0645
   4   2.0000     -76.423448     -2079.5877
   5   2.0000     -76.420083     -2079.4962
   6   2.0000     -18.793914      -511.4084
   7   2.0000     -18.788324      -511.2563
   8   2.0000     -18.787270      -511.2276
   9   2.0000     -18.780730      -511.0496
  10   2.0000      -9.954220      -270.8681
  11   2.0000      -9.953913      -270.8597
  12   2.0000      -9.950919      -270.7783
  13   2.0000      -9.948073      -270.7008
  14   2.0000      -9.939151      -270.4581
  15   2.0000      -9.885937      -269.0100
  16   2.0000      -9.884918      -268.9823
  17   2.0000      -9.881685      -268.8943
  18   2.0000      -9.875832      -268.7350
  19   2.0000      -7.688636      -209.2184
  20   2.0000      -7.685901      -209.1440
  21   2.0000      -7.627183      -207.5462
  22   2.0000      -7.625169      -207.4914
  23   2.0000      -6.421001      -174.7243
  24   2.0000      -6.417755      -174.6360
  25   2.0000      -5.716427      -155.5519
  26   2.0000      -5.713737      -155.4787
  27   2.0000      -5.712987      -155.4583
  28   2.0000      -5.710365      -155.3869
  29   2.0000      -5.705839      -155.2638
  30   2.0000      -5.702878      -155.1832
  31   2.0000      -5.656184      -153.9126
  32   2.0000      -5.654039      -153.8542
  33   2.0000      -5.647641      -153.6801
  34   2.0000      -5.647402      -153.6736
  35   2.0000      -5.645971      -153.6347
  36   2.0000      -5.645213      -153.6140
  37   2.0000      -4.643878      -126.3664
  38   2.0000      -4.642733      -126.3352
  39   2.0000      -4.641211      -126.2938
  40   2.0000      -4.640027      -126.2616
  41   2.0000      -4.639448      -126.2458
  42   2.0000      -4.638517      -126.2205
  43   2.0000      -0.986620       -26.8473
  44   2.0000      -0.980848       -26.6902
  45   2.0000      -0.942519       -25.6472
  46   2.0000      -0.938329       -25.5332
  47   2.0000      -0.761675       -20.7262
  48   2.0000      -0.719255       -19.5719
  49   2.0000      -0.707864       -19.2619
  50   2.0000      -0.688342       -18.7307
  51   2.0000      -0.683151       -18.5895
  52   2.0000      -0.672335       -18.2952
  53   2.0000      -0.647481       -17.6189
  54   2.0000      -0.631059       -17.1720
  55   2.0000      -0.597452       -16.2575
  56   2.0000      -0.588395       -16.0110
  57   2.0000      -0.567831       -15.4515
  58   2.0000      -0.563267       -15.3273
  59   2.0000      -0.557413       -15.1680
  60   2.0000      -0.504373       -13.7247
  61   2.0000      -0.497535       -13.5386
  62   2.0000      -0.473366       -12.8809
  63   2.0000      -0.468197       -12.7403
  64   2.0000      -0.450249       -12.2519
  65   2.0000      -0.446172       -12.1410
  66   2.0000      -0.437101       -11.8941
  67   2.0000      -0.433403       -11.7935
  68   2.0000      -0.427030       -11.6201
  69   2.0000      -0.415860       -11.3161
  70   2.0000      -0.410656       -11.1745
  71   2.0000      -0.392684       -10.6855
  72   2.0000      -0.386995       -10.5307
  73   2.0000      -0.380931       -10.3657
  74   2.0000      -0.378953       -10.3118
  75   2.0000      -0.369871       -10.0647
  76   2.0000      -0.361562        -9.8386
  77   2.0000      -0.356315        -9.6958
  78   2.0000      -0.353269        -9.6129
  79   2.0000      -0.350896        -9.5484
  80   2.0000      -0.342276        -9.3138
  81   2.0000      -0.339677        -9.2431
  82   2.0000      -0.337907        -9.1949
  83   2.0000      -0.336443        -9.1551
  84   2.0000      -0.330067        -8.9816
  85   2.0000      -0.313674        -8.5355
  86   2.0000      -0.307403        -8.3649
  87   2.0000      -0.300567        -8.1789
  88   2.0000      -0.296085        -8.0569
  89   2.0000      -0.293484        -7.9861
  90   2.0000      -0.275731        -7.5030
  91   2.0000      -0.268342        -7.3019
  92   2.0000      -0.262788        -7.1508
  93   2.0000      -0.261117        -7.1053
  94   2.0000      -0.256591        -6.9822
  95   2.0000      -0.236524        -6.4361
  96   2.0000      -0.220332        -5.9955
  97   2.0000      -0.214457        -5.8357
  98   2.0000      -0.202540        -5.5114
  99   2.0000      -0.192595        -5.2408
 100   2.0000      -0.184925        -5.0321
 101   0.0000      -0.037926        -1.0320
 102   0.0000      -0.028124        -0.7653
 103   0.0000      -0.008850        -0.2408
 104   0.0000       0.012776         0.3476
 105   0.0000       0.024012         0.6534

MULLIKEN ATOMIC CHARGES
-----------------------
   0 C :   -0.280845
   1 C :   -0.009396
   2 O :   -0.379140
   3 P :    0.613216
   4 S :   -0.320621
   5 O :   -0.349933
   6 C :   -0.003446
   7 C :   -0.303298
   8 S :   -0.103412
   9 C :   -0.356107
  10 S :   -0.103023
  11 P :    0.595022
  12 S :   -0.296950
  13 O :   -0.347419
  14 C :   -0.011227
  15 C :   -0.278205
  16 O :   -0.385055
  17 C :    0.002384
  18 C :   -0.323419
  19 H :    0.119882
  20 H :    0.115257
  21 H :    0.110752
  22 H :    0.098085
  23 H :    0.103516
  24 H :    0.123830
  25 H :    0.101765
  26 H :    0.120729
  27 H :    0.109093
  28 H :    0.112211
  29 H :    0.182730
  30 H :    0.209803
  31 H :    0.105373
  32 H :    0.099494
  33 H :    0.125619
  34 H :    0.116441
  35 H :    0.104714
  36 H :    0.104189
  37 H :    0.111880
  38 H :    0.132606
  39 H :    0.117856
  40 H :    0.115049
Sum of atomic charges:    0.0000000

LOEWDIN ATOMIC CHARGES
----------------------
   0 C :   -0.350371
   1 C :   -0.123278
   2 O :   -0.249005
   3 P :    0.568545
   4 S :   -0.314147
   5 O :   -0.227416
   6 C :   -0.118301
   7 C :   -0.366360
   8 S :    0.079427
   9 C :   -0.479935
  10 S :    0.076349
  11 P :    0.563897
  12 S :   -0.289686
  13 O :   -0.231114
  14 C :   -0.115875
  15 C :   -0.352432
  16 O :   -0.250450
  17 C :   -0.115773
  18 C :   -0.372061
  19 H :    0.127830
  20 H :    0.126308
  21 H :    0.130188
  22 H :    0.107212
  23 H :    0.106731
  24 H :    0.109749
  25 H :    0.118081
  26 H :    0.120547
  27 H :    0.129157
  28 H :    0.123841
  29 H :    0.137696
  30 H :    0.127001
  31 H :    0.113947
  32 H :    0.101813
  33 H :    0.122754
  34 H :    0.127725
  35 H :    0.127444
  36 H :    0.118411
  37 H :    0.113121
  38 H :    0.123328
  39 H :    0.122937
  40 H :    0.132168

  Mayer bond orders larger than 0.100000
B(  0-C ,  1-C ) :   1.1597 B(  0-C , 19-H ) :   0.9517 B(  0-C , 20-H ) :   0.9504
B(  0-C , 21-H ) :   0.9423 B(  1-C ,  2-O ) :   0.9078 B(  1-C , 22-H ) :   0.9273
B(  1-C , 23-H ) :   0.9076 B(  2-O ,  3-P ) :   1.0924 B(  3-P ,  4-S ) :   1.6063
B(  3-P ,  5-O ) :   1.1556 B(  3-P ,  8-S ) :   0.9618 B(  4-S ,  8-S ) :   0.1154
B(  5-O ,  6-C ) :   0.9000 B(  6-C ,  7-C ) :   1.1589 B(  6-C , 24-H ) :   0.9125
B(  6-C , 25-H ) :   0.9355 B(  7-C , 26-H ) :   0.9355 B(  7-C , 27-H ) :   0.9389
B(  7-C , 28-H ) :   0.9448 B(  8-S ,  9-C ) :   0.9915 B(  9-C , 10-S ) :   1.0013
B(  9-C , 29-H ) :   0.9117 B(  9-C , 30-H ) :   0.8474 B( 10-S , 11-P ) :   0.9436
B( 10-S , 12-S ) :   0.1044 B( 11-P , 12-S ) :   1.6486 B( 11-P , 13-O ) :   1.1446
B( 11-P , 16-O ) :   1.0826 B( 13-O , 14-C ) :   0.8888 B( 14-C , 15-C ) :   1.1652
B( 14-C , 31-H ) :   0.9318 B( 14-C , 32-H ) :   0.9091 B( 15-C , 33-H ) :   0.9429
B( 15-C , 34-H ) :   0.9491 B( 15-C , 35-H ) :   0.9404 B( 16-O , 17-C ) :   0.9077
B( 17-C , 18-C ) :   1.1662 B( 17-C , 36-H ) :   0.9345 B( 17-C , 37-H ) :   0.9184
B( 18-C , 38-H ) :   0.9346 B( 18-C , 39-H ) :   0.9433 B( 18-C , 40-H ) :   0.9369

Dispersion correction           -0.067149089
FINAL SINGLE POINT ENERGY     -2929.522377326804

DIPOLE MOMENT
-------------

Method             : SCF
Type of density    : Electron Density
Multiplicity       :   1
Irrep              :   0
Energy             : -2929.6406516116717285 Eh
Relativity type    :
Basis              : AO
                                X                 Y                 Z
Electronic contribution:     -6.627798929      -4.925332643      -9.332157503
Nuclear contribution   :      6.360428599       4.390799216      10.423044795
                        -----------------------------------------
Total Dipole Moment    :     -0.267370330      -0.534533427       1.090887292
                        -----------------------------------------
Magnitude (a.u.)       :      1.243884223
Magnitude (Debye)      :      3.161702431

Rotational constants in cm-1:             0.013189             0.005110             0.005029
Rotational constants in MHz :           395.390475           153.207004           150.759995

                             ****ORCA TERMINATED NORMALLY****
TOTAL RUN TIME: 0 days 0 hours 0 minutes 21 seconds 667 msec
