                         Program Version 6.0.0  -   RELEASE  -
|  1> ! pbe def2-sv(p) def2/J RI DEFGRID1 loosescf d4 GCP(DFT/SV(P)) printgap
|  2> %output
|  3>     printlevel normal
|  4> end
|  5> * xyz 0 1
|  6> C 2.7697419434 -1.0065903865 -2.7810885509
|  7> C 3.5043908902 -0.1195447286 -1.7962725328
|  8> O 2.5868182268 0.5911135011 -0.9306920772
|  9> P 2.0460096644 0.0393508849 0.448781164
| 10> S 1.0839541492 1.4026921413 1.4695728708
| 11> O 3.3219859321 -0.5458088452 1.2277795233
| 12> C 4.1064345703 0.251509327 2.1333271974
| 13> C 4.9572802617 1.2702051563 1.401313119
| 14> S 1.0904584039 -1.8142460698 0.1156900061
| 15> C -0.2149328053 -1.6691843984 1.3727286603
| 16> S -1.8938003296 -1.5701088493 0.6872143016
| 17> P -1.9095016971 0.2604209969 -0.402602797
| 18> S -0.505909877 0.5964093022 -1.7278052326
| 19> O -2.0373261198 1.4452645404 0.6219020293
| 20> C -2.7423859325 1.4365253261 1.8868973081
| 21> C -4.2154765985 1.125678305 1.7375037543
| 22> O -3.35717489 0.1871397047 -1.0498598174
| 23> C -3.6382279357 -0.6547391531 -2.1857273592
| 24> C -4.8628031338 -0.1021657335 -2.8866793044
| 25> H 3.4668622377 -1.3495522157 -3.5389201805
| 26> H 2.3356276972 -1.868563971 -2.2792093662
| 27> H 1.9674640889 -0.4442404696 -3.2537647999
| 28> H 4.0385790809 0.6811064225 -2.3109430321
| 29> H 4.1963842482 -0.6987575013 -1.1791783249
| 30> H 3.4266124836 0.75161037 2.8304622812
| 31> H 4.7158747722 -0.4791521493 2.6667268847
| 32> H 5.551093459 1.8248285888 2.121086264
| 33> H 5.618781577 0.778630424 0.6925619641
| 34> H 4.3155133284 1.9673618184 0.8623532064
| 35> H -0.0128066987 -0.7853308856 1.9821168577
| 36> H -0.2090714998 -2.5773007984 1.9699030822
| 37> H -2.2534311302 0.7164418584 2.5482519372
| 38> H -2.5734204154 2.445972807 2.26539699
| 39> H -4.3544786188 0.0987595492 1.407010591
| 40> H -4.700900993 1.2582187809 2.6994943386
| 41> H -4.667075482 1.7949392736 1.0101954387
| 42> H -2.7641880854 -0.6542102773 -2.8459227828
| 43> H -3.8108737711 -1.6694716054 -1.8182733763
| 44> H -4.6699272955 0.9105240554 -3.2299029342
| 45> H -5.0980065919 -0.7307430885 -3.7391479341
| 46> H -5.7074440166 -0.0882898415 -2.2042625985
| 47> *
| 48>
| 49>                          ****END OF INPUT****

CARTESIAN COORDINATES (ANGSTROEM)
---------------------------------
  C      2.769742   -1.006590   -2.781089
  C      3.504391   -0.119545   -1.796273
  O      2.586818    0.591114   -0.930692
  P      2.046010    0.039351    0.448781
  S      1.083954    1.402692    1.469573
  O      3.321986   -0.545809    1.227780
  C      4.106435    0.251509    2.133327
  C      4.957280    1.270205    1.401313
  S      1.090458   -1.814246    0.115690
  C     -0.214933   -1.669184    1.372729
  S     -1.893800   -1.570109    0.687214
  P     -1.909502    0.260421   -0.402603
  S     -0.505910    0.596409   -1.727805
  O     -2.037326    1.445265    0.621902
  C     -2.742386    1.436525    1.886897
  C     -4.215477    1.125678    1.737504
  O     -3.357175    0.187140   -1.049860
  C     -3.638228   -0.654739   -2.185727
  C     -4.862803   -0.102166   -2.886679
  H      3.466862   -1.349552   -3.538920
  H      2.335628   -1.868564   -2.279209
  H      1.967464   -0.444240   -3.253765
  H      4.038579    0.681106   -2.310943
  H      4.196384   -0.698758   -1.179178
  H      3.426612    0.751610    2.830462
  H      4.715875   -0.479152    2.666727
  H      5.551093    1.824829    2.121086
  H      5.618782    0.778630    0.692562
  H      4.315513    1.967362    0.862353
  H     -0.012807   -0.785331    1.982117
  H     -0.209071   -2.577301    1.969903
  H     -2.253431    0.716442    2.548252
  H     -2.573420    2.445973    2.265397
  H     -4.354479    0.098760    1.407011
  H     -4.700901    1.258219    2.699494
  H     -4.667075    1.794939    1.010195
  H     -2.764188   -0.654210   -2.845923
  H     -3.810874   -1.669472   -1.818273
  H     -4.669927    0.910524   -3.229903
  H     -5.098007   -0.730743   -3.739148
  H     -5.707444   -0.088290   -2.204263

 Total Charge           Charge          ....    0
 Multiplicity           Mult            ....    1
 Number of Electrons    NEL             ....  202
 Basis Dimension        Dim             ....  334

ORBITAL ENERGIES
----------------

  NO   OCC          E(Eh)            E(eV)
   0   2.0000     -88.039527     -2395.6773
   1   2.0000     -88.035765     -2395.5749
   2   2.0000     -87.981154     -2394.0889
   3   2.0000     -87.970735     -2393.8054
   4   2.0000     -76.420565     -2079.5093
   5   2.0000     -76.417317     -2079.4209
   6   2.0000     -18.788790      -511.2690
   7   2.0000     -18.784130      -511.1422
   8   2.0000     -18.781880      -511.0809
   9   2.0000     -18.780548      -511.0447
  10   2.0000      -9.954861      -270.8855
  11   2.0000      -9.954784      -270.8834
  12   2.0000      -9.950667      -270.7714
  13   2.0000      -9.946668      -270.6626
  14   2.0000      -9.945881      -270.6412
  15   2.0000      -9.883928      -268.9554
  16   2.0000      -9.882806      -268.9248
  17   2.0000      -9.882234      -268.9093
  18   2.0000      -9.881675      -268.8940
  19   2.0000      -7.684397      -209.1031
  20   2.0000      -7.681082      -209.0129
  21   2.0000      -7.626337      -207.5232
  22   2.0000      -7.615696      -207.2336
  23   2.0000      -6.418187      -174.6477
  24   2.0000      -6.414528      -174.5482
  25   2.0000      -5.712039      -155.4325
  26   2.0000      -5.709045      -155.3510
  27   2.0000      -5.708831      -155.3452
  28   2.0000      -5.705912      -155.2658
  29   2.0000      -5.701729      -155.1519
  30   2.0000      -5.697557      -155.0384
  31   2.0000      -5.655315      -153.8890
  32   2.0000      -5.647257      -153.6697
  33   2.0000      -5.646022      -153.6361
  34   2.0000      -5.644738      -153.6011
  35   2.0000      -5.636164      -153.3678
  36   2.0000      -5.635863      -153.3596
  37   2.0000      -4.641105      -126.2909
  38   2.0000      -4.639522      -126.2478
  39   2.0000      -4.638779      -126.2276
  40   2.0000      -4.637378      -126.1895
  41   2.0000      -4.636598      -126.1682
  42   2.0000      -4.634494      -126.1110
  43   2.0000      -0.979275       -26.6474
  44   2.0000      -0.979010       -26.6402
  45   2.0000      -0.937949       -25.5229
  46   2.0000      -0.936746       -25.4902
  47   2.0000      -0.757781       -20.6203
  48   2.0000      -0.716255       -19.4903
  49   2.0000      -0.707607       -19.2550
  50   2.0000      -0.688262       -18.7285
  51   2.0000      -0.687032       -18.6951
  52   2.0000      -0.669617       -18.2212
  53   2.0000      -0.645261       -17.5584
  54   2.0000      -0.629819       -17.1382
  55   2.0000      -0.591209       -16.0876
  56   2.0000      -0.585615       -15.9354
  57   2.0000      -0.575303       -15.6548
  58   2.0000      -0.563838       -15.3428
  59   2.0000      -0.559009       -15.2114
  60   2.0000      -0.498908       -13.5760
  61   2.0000      -0.493052       -13.4166
  62   2.0000      -0.473273       -12.8784
  63   2.0000      -0.472454       -12.8561
  64   2.0000      -0.449044       -12.2191
  65   2.0000      -0.445379       -12.1194
  66   2.0000      -0.435537       -11.8516
  67   2.0000      -0.430001       -11.7009
  68   2.0000      -0.427534       -11.6338
  69   2.0000      -0.417365       -11.3571
  70   2.0000      -0.402259       -10.9460
  71   2.0000      -0.395275       -10.7560
  72   2.0000      -0.392147       -10.6709
  73   2.0000      -0.381319       -10.3762
  74   2.0000      -0.374004       -10.1772
  75   2.0000      -0.367586       -10.0025
  76   2.0000      -0.359160        -9.7732
  77   2.0000      -0.353247        -9.6123
  78   2.0000      -0.350104        -9.5268
  79   2.0000      -0.347924        -9.4675
  80   2.0000      -0.345261        -9.3950
  81   2.0000      -0.342988        -9.3332
  82   2.0000      -0.342368        -9.3163
  83   2.0000      -0.336257        -9.1500
  84   2.0000      -0.331048        -9.0083
  85   2.0000      -0.313570        -8.5327
  86   2.0000      -0.309007        -8.4085
  87   2.0000      -0.299157        -8.1405
  88   2.0000      -0.291388        -7.9291
  89   2.0000      -0.283171        -7.7055
  90   2.0000      -0.273159        -7.4330
  91   2.0000      -0.270066        -7.3489
  92   2.0000      -0.264858        -7.2072
  93   2.0000      -0.263378        -7.1669
  94   2.0000      -0.252735        -6.8773
  95   2.0000      -0.234622        -6.3844
  96   2.0000      -0.216736        -5.8977
  97   2.0000      -0.203463        -5.5365
  98   2.0000      -0.199290        -5.4229
  99   2.0000      -0.180055        -4.8995
 100   2.0000      -0.178121        -4.8469
 101   0.0000      -0.039016        -1.0617
 102   0.0000      -0.029060        -0.7908
 103   0.0000      -0.005752        -0.1565
 104   0.0000       0.005967         0.1624
 105   0.0000       0.025843         0.7032

MULLIKEN ATOMIC CHARGES
-----------------------
   0 C :   -0.303891
   1 C :   -0.032864
   2 O :   -0.356970
   3 P :    0.633542
   4 S :   -0.303364
   5 O :   -0.389659
   6 C :   -0.003321
   7 C :   -0.317780
   8 S :   -0.089488
   9 C :   -0.334065
  10 S :   -0.133282
  11 P :    0.606773
  12 S :   -0.303810
  13 O :   -0.345731
  14 C :    0.001439
  15 C :   -0.303705
  16 O :   -0.379134
  17 C :   -0.008075
  18 C :   -0.282146
  19 H :    0.108403
  20 H :    0.132519
  21 H :    0.139872
  22 H :    0.110909
  23 H :    0.107131
  24 H :    0.106861
  25 H :    0.100924
  26 H :    0.112027
  27 H :    0.112219
  28 H :    0.131816
  29 H :    0.187487
  30 H :    0.180565
  31 H :    0.105935
  32 H :    0.111507
  33 H :    0.116919
  34 H :    0.110026
  35 H :    0.121499
  36 H :    0.103204
  37 H :    0.100278
  38 H :    0.122013
  39 H :    0.110180
  40 H :    0.113235
Sum of atomic charges:   -0.0000000

LOEWDIN ATOMIC CHARGES
----------------------
   0 C :   -0.363894
   1 C :   -0.115079
   2 O :   -0.229766
   3 P :    0.578055
   4 S :   -0.291937
   5 O :   -0.264291
   6 C :   -0.122448
   7 C :   -0.366031
   8 S :    0.087966
   9 C :   -0.480103
  10 S :    0.054268
  11 P :    0.560420
  12 S :   -0.303744
  13 O :   -0.224159
  14 C :   -0.110526
  15 C :   -0.366521
  16 O :   -0.247299
  17 C :   -0.122248
  18 C :   -0.351083
  19 H :    0.129221
  20 H :    0.119163
  21 H :    0.133359
  22 H :    0.122015
  23 H :    0.107904
  24 H :    0.106589
  25 H :    0.116232
  26 H :    0.130508
  27 H :    0.121417
  28 H :    0.126934
  29 H :    0.119142
  30 H :    0.137859
  31 H :    0.108203
  32 H :    0.123457
  33 H :    0.118037
  34 H :    0.129572
  35 H :    0.128742
  36 H :    0.107102
  37 H :    0.108265
  38 H :    0.129784
  39 H :    0.129971
  40 H :    0.124946

  Mayer bond orders larger than 0.100000
B(  0-C ,  1-C ) :   1.1709 B(  0-C , 19-H ) :   0.9374 B(  0-C , 20-H ) :   0.9339
B(  0-C , 21-H ) :   0.9391 B(  1-C ,  2-O ) :   0.9055 B(  1-C , 22-H ) :   0.9342
B(  1-C , 23-H ) :   0.9154 B(  2-O ,  3-P ) :   1.1249 B(  3-P ,  4-S ) :   1.6003
B(  3-P ,  5-O ) :   1.0602 B(  3-P ,  8-S ) :   0.9519 B(  4-S ,  8-S ) :   0.1091
B(  4-S , 29-H ) :   0.1127 B(  5-O ,  6-C ) :   0.9209 B(  6-C ,  7-C ) :   1.1599
B(  6-C , 24-H ) :   0.9105 B(  6-C , 25-H ) :   0.9346 B(  7-C , 26-H ) :   0.9398
B(  7-C , 27-H ) :   0.9463 B(  7-C , 28-H ) :   0.9369 B(  8-S ,  9-C ) :   1.0121
B(  9-C , 10-S ) :   0.9827 B(  9-C , 29-H ) :   0.8535 B(  9-C , 30-H ) :   0.9103
B( 10-S , 11-P ) :   0.9406 B( 10-S , 12-S ) :   0.1192 B( 11-P , 12-S ) :   1.6513
B( 11-P , 13-O ) :   1.1495 B( 11-P , 16-O ) :   1.0811 B( 13-O , 14-C ) :   0.8998
B( 14-C , 15-C ) :   1.1685 B( 14-C , 31-H ) :   0.9195 B( 14-C , 32-H ) :   0.9345
B( 15-C , 33-H ) :   0.9379 B( 15-C , 34-H ) :   0.9366 B( 15-C , 35-H ) :   0.9439
B( 16-O , 17-C ) :   0.9059 B( 17-C , 18-C ) :   1.1603 B( 17-C , 36-H ) :   0.9026
B( 17-C , 37-H ) :   0.9306 B( 18-C , 38-H ) :   0.9505 B( 18-C , 39-H ) :   0.9421
B( 18-C , 40-H ) :   0.9517

Dispersion correction           -0.067137912
FINAL SINGLE POINT ENERGY     -2929.507695479191

DIPOLE MOMENT
-------------

Method             : SCF
Type of density    : Electron Density
Multiplicity       :   1
Irrep              :   0
Energy             : -2929.6251796298847694 Eh
Relativity type    :
Basis              : AO
                                X                 Y                 Z
Electronic contribution:      1.363393406      -2.319562718       3.561730668
Nuclear contribution   :     -1.223160172       1.563470824      -3.196179735
                        -----------------------------------------
Total Dipole Moment    :      0.140233233      -0.756091893       0.365550933
                        -----------------------------------------
Magnitude (a.u.)       :      0.851450407
Magnitude (Debye)      :      2.164214941

Rotational constants in cm-1:             0.013432             0.005151             0.004561
Rotational constants in MHz :           402.670757           154.436711           136.722286

                             ****ORCA TERMINATED NORMALLY****
TOTAL RUN TIME: 0 days 0 hours 0 minutes 20 seconds 886 msec
