                         Program Version 6.0.0  -   RELEASE  -
|  1> ! wb97x-v def2-tzvp def2/J RIJCOSX DEFGRID2 scfconv7 GCP(DFT/TZ) printgap
|  2> %output
|  3>     printlevel normal
|  4> end
|  5> * xyz 0 1
|  6> C 4.239851153364061 -0.26434581629550424 -2.7736348213036965
|  7> C 4.748993429470283 -0.6720729555525811 -1.4131348846698815
|  8> O 3.661327559185266 -0.8649757423964014 -0.44324617353673906
|  9> P 2.9047439926082976 0.3652908992200124 0.25685666065560364
| 10> S 3.9233995791967775 1.973184598427865 0.6600669153085519
| 11> O 2.322555370681473 -0.49104619079583034 1.4889977505537977
| 12> C 1.479906727108145 0.17088239599656552 2.493658694347464
| 13> C 1.056124218888304 -0.8818448406894923 3.4837785989743715
| 14> S 1.257333054630685 0.9000250787968352 -0.9519502515288295
| 15> C 0.5105606868615054 -0.744831296025108 -1.3143822461520442
| 16> S -0.6797329864928756 -1.405891468032085 -0.08091034258490604
| 17> P -2.247426219975699 0.008587953115363844 -0.24511458950080378
| 18> S -2.5185470187934236 0.7821809204645227 -2.0113977300988655
| 19> O -1.9115017484126546 1.0227089003202487 0.9531337422934864
| 20> C -2.474074109437276 2.3826605903688245 1.0010874052886494
| 21> C -3.93838262948974 2.372509447921184 1.3625959188461954
| 22> O -3.473618055878923 -0.813282605678559 0.4017743796887691
| 23> C -4.21659093900938 -1.7994546414672703 -0.3961391428922412
| 24> C -5.270330099666625 -2.3920389821119805 0.5026283121635907
| 25> H 5.0780026298618 -0.29380180933447125 -3.4774897020970315
| 26> H 3.468420034091739 -0.9548660817380483 -3.1276562721646455
| 27> H 3.835085896093324 0.7509124887492896 -2.7691341251099986
| 28> H 5.451207743526155 0.05894528671669985 -1.0010000460025994
| 29> H 5.231550210001414 -1.6507434076846363 -1.4430584839466605
| 30> H 2.071997185392318 0.9596936975037772 2.9682754645811387
| 31> H 0.6190591270617467 0.6182324086288461 1.985424952600254
| 32> H 0.4280066675489373 -0.4141340591025156 4.248157680774125
| 33> H 0.47634853751774436 -1.6697450660009814 2.995005090555285
| 34> H 1.9245173937910192 -1.3287420513485277 3.9760076075145765
| 35> H 1.2965737313453831 -1.5003664270867452 -1.4036667158390752
| 36> H 0.003992224789220315 -0.6401661809563562 -2.277621218858252
| 37> H -1.8711984674366624 2.877013170137542 1.7651562161012733
| 38> H -2.290921528415564 2.862909316206019 0.03503568762408874
| 39> H -4.273197727328101 3.4074800517335015 1.487622281455126
| 40> H -4.545202485743482 1.9126746191986437 0.5769842782030757
| 41> H -4.106724960622056 1.8394229370627189 2.302544526047382
| 42> H -4.65576557977908 -1.2818024359383478 -1.25413440044397
| 43> H -3.513347043412638 -2.559333865102233 -0.7533479326251766
| 44> H -5.8468067557140575 -3.1281263807298934 -0.06580539034159907
| 45> H -4.817147925309073 -2.8961563156711443 1.3607283315024763
| 46> H -5.955511523026586 -1.618773512422235 0.8614390533666665
| 47> *
| 48>
| 49>                          ****END OF INPUT****

CARTESIAN COORDINATES (ANGSTROEM)
---------------------------------
  C      4.239851   -0.264346   -2.773635
  C      4.748993   -0.672073   -1.413135
  O      3.661328   -0.864976   -0.443246
  P      2.904744    0.365291    0.256857
  S      3.923400    1.973185    0.660067
  O      2.322555   -0.491046    1.488998
  C      1.479907    0.170882    2.493659
  C      1.056124   -0.881845    3.483779
  S      1.257333    0.900025   -0.951950
  C      0.510561   -0.744831   -1.314382
  S     -0.679733   -1.405891   -0.080910
  P     -2.247426    0.008588   -0.245115
  S     -2.518547    0.782181   -2.011398
  O     -1.911502    1.022709    0.953134
  C     -2.474074    2.382661    1.001087
  C     -3.938383    2.372509    1.362596
  O     -3.473618   -0.813283    0.401774
  C     -4.216591   -1.799455   -0.396139
  C     -5.270330   -2.392039    0.502628
  H      5.078003   -0.293802   -3.477490
  H      3.468420   -0.954866   -3.127656
  H      3.835086    0.750912   -2.769134
  H      5.451208    0.058945   -1.001000
  H      5.231550   -1.650743   -1.443058
  H      2.071997    0.959694    2.968275
  H      0.619059    0.618232    1.985425
  H      0.428007   -0.414134    4.248158
  H      0.476349   -1.669745    2.995005
  H      1.924517   -1.328742    3.976008
  H      1.296574   -1.500366   -1.403667
  H      0.003992   -0.640166   -2.277621
  H     -1.871198    2.877013    1.765156
  H     -2.290922    2.862909    0.035036
  H     -4.273198    3.407480    1.487622
  H     -4.545202    1.912675    0.576984
  H     -4.106725    1.839423    2.302545
  H     -4.655766   -1.281802   -1.254134
  H     -3.513347   -2.559334   -0.753348
  H     -5.846807   -3.128126   -0.065805
  H     -4.817148   -2.896156    1.360728
  H     -5.955512   -1.618774    0.861439

 Total Charge           Charge          ....    0
 Multiplicity           Mult            ....    1
 Number of Electrons    NEL             ....  202
 Basis Dimension        Dim             ....  757

ORBITAL ENERGIES
----------------

  NO   OCC          E(Eh)            E(eV)
   0   2.0000     -94.148469     -2561.9101
   1   2.0000     -94.143530     -2561.7757
   2   2.0000     -94.090061     -2560.3207
   3   2.0000     -94.079045     -2560.0210
   4   2.0000     -82.124991     -2234.7346
   5   2.0000     -82.116650     -2234.5076
   6   2.0000     -21.716398      -590.9332
   7   2.0000     -21.713154      -590.8450
   8   2.0000     -21.711684      -590.8050
   9   2.0000     -21.705144      -590.6270
  10   2.0000     -12.127652      -330.0102
  11   2.0000     -12.120762      -329.8227
  12   2.0000     -12.117682      -329.7389
  13   2.0000     -12.117016      -329.7208
  14   2.0000     -12.106282      -329.4287
  15   2.0000     -12.054543      -328.0208
  16   2.0000     -12.049758      -327.8906
  17   2.0000     -12.049153      -327.8741
  18   2.0000     -12.041407      -327.6634
  19   2.0000      -9.659890      -262.8590
  20   2.0000      -9.654712      -262.7181
  21   2.0000      -9.602928      -261.3089
  22   2.0000      -9.591781      -261.0056
  23   2.0000      -8.238334      -224.1765
  24   2.0000      -8.229955      -223.9485
  25   2.0000      -7.637526      -207.8276
  26   2.0000      -7.636610      -207.8027
  27   2.0000      -7.635477      -207.7719
  28   2.0000      -7.632183      -207.6822
  29   2.0000      -7.631034      -207.6510
  30   2.0000      -7.629953      -207.6216
  31   2.0000      -7.580535      -206.2768
  32   2.0000      -7.578779      -206.2291
  33   2.0000      -7.578681      -206.2264
  34   2.0000      -7.569332      -205.9720
  35   2.0000      -7.567749      -205.9289
  36   2.0000      -7.567543      -205.9233
  37   2.0000      -6.402457      -174.2197
  38   2.0000      -6.402416      -174.2186
  39   2.0000      -6.401993      -174.2071
  40   2.0000      -6.394252      -173.9964
  41   2.0000      -6.394033      -173.9905
  42   2.0000      -6.393472      -173.9752
  43   2.0000      -1.725397       -46.9504
  44   2.0000      -1.720889       -46.8278
  45   2.0000      -1.702044       -46.3150
  46   2.0000      -1.694681       -46.1146
  47   2.0000      -1.332086       -36.2479
  48   2.0000      -1.316686       -35.8288
  49   2.0000      -1.305986       -35.5377
  50   2.0000      -1.292876       -35.1809
  51   2.0000      -1.283719       -34.9318
  52   2.0000      -1.256168       -34.1821
  53   2.0000      -1.232581       -33.5402
  54   2.0000      -1.208182       -32.8763
  55   2.0000      -1.178962       -32.0812
  56   2.0000      -1.174711       -31.9655
  57   2.0000      -1.153485       -31.3879
  58   2.0000      -1.140703       -31.0401
  59   2.0000      -1.121180       -30.5089
  60   2.0000      -1.080139       -29.3921
  61   2.0000      -1.070035       -29.1171
  62   2.0000      -1.049965       -28.5710
  63   2.0000      -1.046251       -28.4699
  64   2.0000      -1.002448       -27.2780
  65   2.0000      -0.995651       -27.0930
  66   2.0000      -0.985705       -26.8224
  67   2.0000      -0.984773       -26.7970
  68   2.0000      -0.982833       -26.7442
  69   2.0000      -0.968384       -26.3511
  70   2.0000      -0.964092       -26.2343
  71   2.0000      -0.963124       -26.2079
  72   2.0000      -0.922650       -25.1066
  73   2.0000      -0.896891       -24.4056
  74   2.0000      -0.885784       -24.1034
  75   2.0000      -0.880846       -23.9690
  76   2.0000      -0.876534       -23.8517
  77   2.0000      -0.870076       -23.6760
  78   2.0000      -0.864462       -23.5232
  79   2.0000      -0.851020       -23.1574
  80   2.0000      -0.843331       -22.9482
  81   2.0000      -0.842154       -22.9162
  82   2.0000      -0.840145       -22.8615
  83   2.0000      -0.835815       -22.7437
  84   2.0000      -0.828600       -22.5474
  85   2.0000      -0.824857       -22.4455
  86   2.0000      -0.824631       -22.4393
  87   2.0000      -0.816119       -22.2077
  88   2.0000      -0.813595       -22.1390
  89   2.0000      -0.793931       -21.6040
  90   2.0000      -0.790882       -21.5210
  91   2.0000      -0.790284       -21.5047
  92   2.0000      -0.781934       -21.2775
  93   2.0000      -0.775187       -21.0939
  94   2.0000      -0.756680       -20.5903
  95   2.0000      -0.693308       -18.8659
  96   2.0000      -0.680706       -18.5229
  97   2.0000      -0.653252       -17.7759
  98   2.0000      -0.647816       -17.6280
  99   2.0000      -0.640979       -17.4419
 100   2.0000      -0.635766       -17.3001
 101   0.0000      -0.320403        -8.7186
 102   0.0000      -0.312936        -8.5154
 103   0.0000      -0.272076        -7.4036
 104   0.0000      -0.240662        -6.5487
 105   0.0000      -0.234607        -6.3840

MULLIKEN ATOMIC CHARGES
-----------------------
   0 C :   -0.345266
   1 C :   -0.044796
   2 O :   -0.303609
   3 P :    0.583996
   4 S :   -0.410076
   5 O :   -0.290162
   6 C :   -0.061441
   7 C :   -0.312223
   8 S :   -0.104035
   9 C :   -0.196300
  10 S :   -0.130620
  11 P :    0.610153
  12 S :   -0.415275
  13 O :   -0.296056
  14 C :   -0.052235
  15 C :   -0.317485
  16 O :   -0.308134
  17 C :   -0.055328
  18 C :   -0.314322
  19 H :    0.121451
  20 H :    0.109049
  21 H :    0.144257
  22 H :    0.132029
  23 H :    0.117041
  24 H :    0.128708
  25 H :    0.119782
  26 H :    0.108376
  27 H :    0.118837
  28 H :    0.118136
  29 H :    0.162487
  30 H :    0.177972
  31 H :    0.117292
  32 H :    0.133945
  33 H :    0.118528
  34 H :    0.123474
  35 H :    0.116467
  36 H :    0.127155
  37 H :    0.114189
  38 H :    0.114770
  39 H :    0.119979
  40 H :    0.119289
Sum of atomic charges:   -0.0000000

LOEWDIN ATOMIC CHARGES
----------------------
   0 C :   -0.313978
   1 C :   -0.316345
   2 O :    0.032089
   3 P :   -0.045840
   4 S :   -0.118539
   5 O :    0.034035
   6 C :   -0.330453
   7 C :   -0.305732
   8 S :    0.357072
   9 C :   -0.699717
  10 S :    0.360345
  11 P :   -0.030440
  12 S :   -0.110396
  13 O :    0.025716
  14 C :   -0.315202
  15 C :   -0.310816
  16 O :    0.027134
  17 C :   -0.323858
  18 C :   -0.303265
  19 H :    0.127713
  20 H :    0.118894
  21 H :    0.122719
  22 H :    0.123293
  23 H :    0.126893
  24 H :    0.121632
  25 H :    0.118327
  26 H :    0.124961
  27 H :    0.118524
  28 H :    0.121603
  29 H :    0.116482
  30 H :    0.114602
  31 H :    0.127143
  32 H :    0.122783
  33 H :    0.127180
  34 H :    0.120551
  35 H :    0.122316
  36 H :    0.122098
  37 H :    0.119314
  38 H :    0.126217
  39 H :    0.122418
  40 H :    0.122530

  Mayer bond orders larger than 0.100000
B(  0-C ,  1-C ) :   0.9936 B(  0-C , 19-H ) :   0.9662 B(  0-C , 20-H ) :   0.9725
B(  0-C , 21-H ) :   0.9681 B(  1-C ,  2-O ) :   0.8808 B(  1-C , 22-H ) :   0.9743
B(  1-C , 23-H ) :   0.9673 B(  2-O ,  3-P ) :   1.2026 B(  3-P ,  4-S ) :   1.8527
B(  3-P ,  5-O ) :   1.2190 B(  3-P ,  8-S ) :   1.0835 B(  5-O ,  6-C ) :   0.8743
B(  6-C ,  7-C ) :   1.0040 B(  6-C , 24-H ) :   0.9648 B(  6-C , 25-H ) :   0.9620
B(  7-C , 26-H ) :   0.9703 B(  7-C , 27-H ) :   0.9759 B(  7-C , 28-H ) :   0.9749
B(  8-S ,  9-C ) :   0.9957 B(  9-C , 10-S ) :   1.0079 B(  9-C , 29-H ) :   0.9380
B(  9-C , 30-H ) :   0.9348 B( 10-S , 11-P ) :   1.0844 B( 11-P , 12-S ) :   1.7960
B( 11-P , 13-O ) :   1.2105 B( 11-P , 16-O ) :   1.1866 B( 13-O , 14-C ) :   0.8776
B( 14-C , 15-C ) :   1.0042 B( 14-C , 31-H ) :   0.9661 B( 14-C , 32-H ) :   0.9743
B( 15-C , 33-H ) :   0.9667 B( 15-C , 34-H ) :   0.9683 B( 15-C , 35-H ) :   0.9695
B( 16-O , 17-C ) :   0.8821 B( 17-C , 18-C ) :   1.0065 B( 17-C , 36-H ) :   0.9651
B( 17-C , 37-H ) :   0.9631 B( 18-C , 38-H ) :   0.9703 B( 18-C , 39-H ) :   0.9748
B( 18-C , 40-H ) :   0.9753

FINAL SINGLE POINT ENERGY     -2932.538925833100

DIPOLE MOMENT
-------------

Method             : SCF
Type of density    : Electron Density
Multiplicity       :   1
Irrep              :   0
Energy             : -2932.5685973913996349 Eh
Relativity type    :
Basis              : AO
                                X                 Y                 Z
Electronic contribution:     12.487076860       5.590947599      -6.342364283
Nuclear contribution   :    -13.596732123      -6.670498753       6.418181957
                        -----------------------------------------
Total Dipole Moment    :     -1.109655263      -1.079551154       0.075817674
                        -----------------------------------------
Magnitude (a.u.)       :      1.550004456
Magnitude (Debye)      :      3.939798227

Rotational constants in cm-1:             0.012559             0.004233             0.004053
Rotational constants in MHz :           376.501696           126.902081           121.502843

                             ****ORCA TERMINATED NORMALLY****
TOTAL RUN TIME: 0 days 0 hours 14 minutes 0 seconds 733 msec
