                         Program Version 6.0.0  -   RELEASE  -
|  1> ! wb97x-v def2-tzvp def2/J RIJCOSX DEFGRID2 scfconv7 GCP(DFT/TZ) printgap
|  2> %output
|  3>     printlevel normal
|  4> end
|  5> %cpcm
|  6>     smd true
|  7>     smdsolvent "water"
|  8> end
|  9> * xyz 0 1
| 10> C 4.239851153364061 -0.26434581629550424 -2.7736348213036965
| 11> C 4.748993429470283 -0.6720729555525811 -1.4131348846698815
| 12> O 3.661327559185266 -0.8649757423964014 -0.44324617353673906
| 13> P 2.9047439926082976 0.3652908992200124 0.25685666065560364
| 14> S 3.9233995791967775 1.973184598427865 0.6600669153085519
| 15> O 2.322555370681473 -0.49104619079583034 1.4889977505537977
| 16> C 1.479906727108145 0.17088239599656552 2.493658694347464
| 17> C 1.056124218888304 -0.8818448406894923 3.4837785989743715
| 18> S 1.257333054630685 0.9000250787968352 -0.9519502515288295
| 19> C 0.5105606868615054 -0.744831296025108 -1.3143822461520442
| 20> S -0.6797329864928756 -1.405891468032085 -0.08091034258490604
| 21> P -2.247426219975699 0.008587953115363844 -0.24511458950080378
| 22> S -2.5185470187934236 0.7821809204645227 -2.0113977300988655
| 23> O -1.9115017484126546 1.0227089003202487 0.9531337422934864
| 24> C -2.474074109437276 2.3826605903688245 1.0010874052886494
| 25> C -3.93838262948974 2.372509447921184 1.3625959188461954
| 26> O -3.473618055878923 -0.813282605678559 0.4017743796887691
| 27> C -4.21659093900938 -1.7994546414672703 -0.3961391428922412
| 28> C -5.270330099666625 -2.3920389821119805 0.5026283121635907
| 29> H 5.0780026298618 -0.29380180933447125 -3.4774897020970315
| 30> H 3.468420034091739 -0.9548660817380483 -3.1276562721646455
| 31> H 3.835085896093324 0.7509124887492896 -2.7691341251099986
| 32> H 5.451207743526155 0.05894528671669985 -1.0010000460025994
| 33> H 5.231550210001414 -1.6507434076846363 -1.4430584839466605
| 34> H 2.071997185392318 0.9596936975037772 2.9682754645811387
| 35> H 0.6190591270617467 0.6182324086288461 1.985424952600254
| 36> H 0.4280066675489373 -0.4141340591025156 4.248157680774125
| 37> H 0.47634853751774436 -1.6697450660009814 2.995005090555285
| 38> H 1.9245173937910192 -1.3287420513485277 3.9760076075145765
| 39> H 1.2965737313453831 -1.5003664270867452 -1.4036667158390752
| 40> H 0.003992224789220315 -0.6401661809563562 -2.277621218858252
| 41> H -1.8711984674366624 2.877013170137542 1.7651562161012733
| 42> H -2.290921528415564 2.862909316206019 0.03503568762408874
| 43> H -4.273197727328101 3.4074800517335015 1.487622281455126
| 44> H -4.545202485743482 1.9126746191986437 0.5769842782030757
| 45> H -4.106724960622056 1.8394229370627189 2.302544526047382
| 46> H -4.65576557977908 -1.2818024359383478 -1.25413440044397
| 47> H -3.513347043412638 -2.559333865102233 -0.7533479326251766
| 48> H -5.8468067557140575 -3.1281263807298934 -0.06580539034159907
| 49> H -4.817147925309073 -2.8961563156711443 1.3607283315024763
| 50> H -5.955511523026586 -1.618773512422235 0.8614390533666665
| 51> *
| 52>
| 53>                          ****END OF INPUT****

CARTESIAN COORDINATES (ANGSTROEM)
---------------------------------
  C      4.239851   -0.264346   -2.773635
  C      4.748993   -0.672073   -1.413135
  O      3.661328   -0.864976   -0.443246
  P      2.904744    0.365291    0.256857
  S      3.923400    1.973185    0.660067
  O      2.322555   -0.491046    1.488998
  C      1.479907    0.170882    2.493659
  C      1.056124   -0.881845    3.483779
  S      1.257333    0.900025   -0.951950
  C      0.510561   -0.744831   -1.314382
  S     -0.679733   -1.405891   -0.080910
  P     -2.247426    0.008588   -0.245115
  S     -2.518547    0.782181   -2.011398
  O     -1.911502    1.022709    0.953134
  C     -2.474074    2.382661    1.001087
  C     -3.938383    2.372509    1.362596
  O     -3.473618   -0.813283    0.401774
  C     -4.216591   -1.799455   -0.396139
  C     -5.270330   -2.392039    0.502628
  H      5.078003   -0.293802   -3.477490
  H      3.468420   -0.954866   -3.127656
  H      3.835086    0.750912   -2.769134
  H      5.451208    0.058945   -1.001000
  H      5.231550   -1.650743   -1.443058
  H      2.071997    0.959694    2.968275
  H      0.619059    0.618232    1.985425
  H      0.428007   -0.414134    4.248158
  H      0.476349   -1.669745    2.995005
  H      1.924517   -1.328742    3.976008
  H      1.296574   -1.500366   -1.403667
  H      0.003992   -0.640166   -2.277621
  H     -1.871198    2.877013    1.765156
  H     -2.290922    2.862909    0.035036
  H     -4.273198    3.407480    1.487622
  H     -4.545202    1.912675    0.576984
  H     -4.106725    1.839423    2.302545
  H     -4.655766   -1.281802   -1.254134
  H     -3.513347   -2.559334   -0.753348
  H     -5.846807   -3.128126   -0.065805
  H     -4.817148   -2.896156    1.360728
  H     -5.955512   -1.618774    0.861439

 Total Charge           Charge          ....    0
 Multiplicity           Mult            ....    1
 Number of Electrons    NEL             ....  202
 Basis Dimension        Dim             ....  757

ORBITAL ENERGIES
----------------

  NO   OCC          E(Eh)            E(eV)
   0   2.0000     -94.148211     -2561.9031
   1   2.0000     -94.148009     -2561.8976
   2   2.0000     -94.093419     -2560.4121
   3   2.0000     -94.091653     -2560.3640
   4   2.0000     -82.126196     -2234.7674
   5   2.0000     -82.125682     -2234.7534
   6   2.0000     -21.714815      -590.8901
   7   2.0000     -21.713883      -590.8648
   8   2.0000     -21.713414      -590.8520
   9   2.0000     -21.712588      -590.8296
  10   2.0000     -12.123670      -329.9018
  11   2.0000     -12.107029      -329.4490
  12   2.0000     -12.106366      -329.4310
  13   2.0000     -12.106157      -329.4253
  14   2.0000     -12.104782      -329.3879
  15   2.0000     -12.035509      -327.5029
  16   2.0000     -12.035179      -327.4939
  17   2.0000     -12.035072      -327.4910
  18   2.0000     -12.034725      -327.4815
  19   2.0000      -9.659599      -262.8510
  20   2.0000      -9.659263      -262.8419
  21   2.0000      -9.606555      -261.4077
  22   2.0000      -9.604747      -261.3585
  23   2.0000      -8.239572      -224.2101
  24   2.0000      -8.239022      -224.1952
  25   2.0000      -7.637358      -207.8231
  26   2.0000      -7.637065      -207.8151
  27   2.0000      -7.636382      -207.7965
  28   2.0000      -7.635735      -207.7789
  29   2.0000      -7.635000      -207.7589
  30   2.0000      -7.634197      -207.7371
  31   2.0000      -7.584170      -206.3758
  32   2.0000      -7.582505      -206.3305
  33   2.0000      -7.582385      -206.3272
  34   2.0000      -7.582299      -206.3248
  35   2.0000      -7.580790      -206.2838
  36   2.0000      -7.580618      -206.2791
  37   2.0000      -6.403699      -174.2535
  38   2.0000      -6.403649      -174.2522
  39   2.0000      -6.403294      -174.2425
  40   2.0000      -6.403246      -174.2412
  41   2.0000      -6.403116      -174.2376
  42   2.0000      -6.402581      -174.2231
  43   2.0000      -1.726558       -46.9820
  44   2.0000      -1.724072       -46.9144
  45   2.0000      -1.700732       -46.2793
  46   2.0000      -1.700532       -46.2738
  47   2.0000      -1.330936       -36.2166
  48   2.0000      -1.313432       -35.7403
  49   2.0000      -1.300652       -35.3925
  50   2.0000      -1.280985       -34.8574
  51   2.0000      -1.278081       -34.7784
  52   2.0000      -1.255914       -34.1751
  53   2.0000      -1.234452       -33.5911
  54   2.0000      -1.212994       -33.0072
  55   2.0000      -1.174941       -31.9718
  56   2.0000      -1.172917       -31.9167
  57   2.0000      -1.142822       -31.0978
  58   2.0000      -1.138761       -30.9873
  59   2.0000      -1.119303       -30.4578
  60   2.0000      -1.075525       -29.2665
  61   2.0000      -1.070393       -29.1269
  62   2.0000      -1.046758       -28.4837
  63   2.0000      -1.045163       -28.4403
  64   2.0000      -1.000406       -27.2224
  65   2.0000      -0.995681       -27.0939
  66   2.0000      -0.988916       -26.9098
  67   2.0000      -0.980749       -26.6875
  68   2.0000      -0.977490       -26.5988
  69   2.0000      -0.969667       -26.3860
  70   2.0000      -0.966813       -26.3083
  71   2.0000      -0.959668       -26.1139
  72   2.0000      -0.921916       -25.0866
  73   2.0000      -0.895960       -24.3803
  74   2.0000      -0.877802       -23.8862
  75   2.0000      -0.869798       -23.6684
  76   2.0000      -0.867395       -23.6030
  77   2.0000      -0.862833       -23.4789
  78   2.0000      -0.860888       -23.4259
  79   2.0000      -0.840088       -22.8600
  80   2.0000      -0.837862       -22.7994
  81   2.0000      -0.834860       -22.7177
  82   2.0000      -0.831075       -22.6147
  83   2.0000      -0.828441       -22.5430
  84   2.0000      -0.819420       -22.2976
  85   2.0000      -0.811539       -22.0831
  86   2.0000      -0.811222       -22.0745
  87   2.0000      -0.809937       -22.0395
  88   2.0000      -0.809811       -22.0361
  89   2.0000      -0.785054       -21.3624
  90   2.0000      -0.778620       -21.1873
  91   2.0000      -0.778052       -21.1719
  92   2.0000      -0.776798       -21.1378
  93   2.0000      -0.773394       -21.0451
  94   2.0000      -0.759549       -20.6684
  95   2.0000      -0.695454       -18.9243
  96   2.0000      -0.684096       -18.6152
  97   2.0000      -0.657647       -17.8955
  98   2.0000      -0.653900       -17.7935
  99   2.0000      -0.652320       -17.7505
 100   2.0000      -0.649533       -17.6747
 101   0.0000      -0.322509        -8.7759
 102   0.0000      -0.318031        -8.6541
 103   0.0000      -0.272403        -7.4125
 104   0.0000      -0.241454        -6.5703
 105   0.0000      -0.239548        -6.5184

MULLIKEN ATOMIC CHARGES
-----------------------
   0 C :   -0.379679
   1 C :   -0.042570
   2 O :   -0.329469
   3 P :    0.621511
   4 S :   -0.468106
   5 O :   -0.326006
   6 C :   -0.050017
   7 C :   -0.363990
   8 S :   -0.133783
   9 C :   -0.202589
  10 S :   -0.133417
  11 P :    0.645027
  12 S :   -0.464527
  13 O :   -0.325530
  14 C :   -0.049450
  15 C :   -0.366682
  16 O :   -0.340306
  17 C :   -0.044093
  18 C :   -0.366695
  19 H :    0.146681
  20 H :    0.136924
  21 H :    0.133653
  22 H :    0.135211
  23 H :    0.144659
  24 H :    0.140304
  25 H :    0.121963
  26 H :    0.138140
  27 H :    0.129072
  28 H :    0.133516
  29 H :    0.202627
  30 H :    0.198773
  31 H :    0.144348
  32 H :    0.135031
  33 H :    0.143539
  34 H :    0.131217
  35 H :    0.132089
  36 H :    0.134428
  37 H :    0.133332
  38 H :    0.137534
  39 H :    0.133189
  40 H :    0.134141
Sum of atomic charges:    0.0000000

LOEWDIN ATOMIC CHARGES
----------------------
   0 C :   -0.314682
   1 C :   -0.309826
   2 O :    0.023281
   3 P :   -0.038681
   4 S :   -0.158372
   5 O :    0.018954
   6 C :   -0.327499
   7 C :   -0.308851
   8 S :    0.343862
   9 C :   -0.686459
  10 S :    0.360871
  11 P :   -0.024799
  12 S :   -0.139400
  13 O :    0.013912
  14 C :   -0.311992
  15 C :   -0.313737
  16 O :    0.015318
  17 C :   -0.318283
  18 C :   -0.305883
  19 H :    0.134788
  20 H :    0.125831
  21 H :    0.118773
  22 H :    0.123892
  23 H :    0.136001
  24 H :    0.125344
  25 H :    0.118881
  26 H :    0.133499
  27 H :    0.119291
  28 H :    0.124665
  29 H :    0.129234
  30 H :    0.121613
  31 H :    0.135273
  32 H :    0.122883
  33 H :    0.134472
  34 H :    0.120506
  35 H :    0.125055
  36 H :    0.124764
  37 H :    0.124996
  38 H :    0.133133
  39 H :    0.124483
  40 H :    0.124890

  Mayer bond orders larger than 0.100000
B(  0-C ,  1-C ) :   0.9945 B(  0-C , 19-H ) :   0.9618 B(  0-C , 20-H ) :   0.9680
B(  0-C , 21-H ) :   0.9682 B(  1-C ,  2-O ) :   0.8514 B(  1-C , 22-H ) :   0.9752
B(  1-C , 23-H ) :   0.9609 B(  2-O ,  3-P ) :   1.2157 B(  3-P ,  4-S ) :   1.8116
B(  3-P ,  5-O ) :   1.2130 B(  3-P ,  8-S ) :   1.0950 B(  5-O ,  6-C ) :   0.8510
B(  6-C ,  7-C ) :   1.0050 B(  6-C , 24-H ) :   0.9626 B(  6-C , 25-H ) :   0.9619
B(  7-C , 26-H ) :   0.9663 B(  7-C , 27-H ) :   0.9737 B(  7-C , 28-H ) :   0.9709
B(  8-S ,  9-C ) :   0.9837 B(  9-C , 10-S ) :   1.0044 B(  9-C , 29-H ) :   0.9282
B(  9-C , 30-H ) :   0.9285 B( 10-S , 11-P ) :   1.0957 B( 11-P , 12-S ) :   1.7579
B( 11-P , 13-O ) :   1.2114 B( 11-P , 16-O ) :   1.1910 B( 13-O , 14-C ) :   0.8528
B( 14-C , 15-C ) :   1.0036 B( 14-C , 31-H ) :   0.9594 B( 14-C , 32-H ) :   0.9730
B( 15-C , 33-H ) :   0.9625 B( 15-C , 34-H ) :   0.9666 B( 15-C , 35-H ) :   0.9677
B( 16-O , 17-C ) :   0.8557 B( 17-C , 18-C ) :   1.0118 B( 17-C , 36-H ) :   0.9624
B( 17-C , 37-H ) :   0.9587 B( 18-C , 38-H ) :   0.9660 B( 18-C , 39-H ) :   0.9724
B( 18-C , 40-H ) :   0.9724

FINAL SINGLE POINT ENERGY     -2932.550512112674

DIPOLE MOMENT
-------------

Method             : SCF
Type of density    : Electron Density
Multiplicity       :   1
Irrep              :   0
Energy             : -2932.5801836709738382 Eh
Relativity type    :
Basis              : AO
                                X                 Y                 Z
Electronic contribution:     12.268685560       5.157687587      -6.466894051
Nuclear contribution   :    -13.596732123      -6.670498753       6.418181957
                        -----------------------------------------
Total Dipole Moment    :     -1.328046563      -1.512811166      -0.048712094
                        -----------------------------------------
Magnitude (a.u.)       :      2.013623144
Magnitude (Debye)      :      5.118223279

Rotational constants in cm-1:             0.012559             0.004233             0.004053
Rotational constants in MHz :           376.501696           126.902081           121.502843

                             ****ORCA TERMINATED NORMALLY****
TOTAL RUN TIME: 0 days 0 hours 14 minutes 41 seconds 928 msec
