                         Program Version 6.0.1  -  RELEASE   -
|  1> ! r2scan-3c def2/J RI DEFGRID2 scfconv6 printgap
|  2> %output
|  3>     printlevel normal
|  4> end
|  5> * xyz 0 1
|  6> C 4.1825658171 0.1272162537 -2.6130976915
|  7> C 4.3128733083 -1.2482765563 -1.9792249578
|  8> O 3.0152336579 -1.7276207222 -1.5763180336
|  9> C 2.6767853453 -1.6699804177 -0.3070405914
| 10> O 3.4022337065 -1.3182732322 0.5971096828
| 11> C 1.2340047245 -2.1037867588 -0.1013024108
| 12> C 0.3121458705 -0.9380838373 -0.4879476489
| 13> H 0.3210244105 -0.7830257775 -1.5692521574
| 14> C 0.8466759448 0.3127477456 0.1837484099
| 15> O 1.7351805521 0.9675713183 -0.3111987995
| 16> O 0.3078958748 0.5233651867 1.3656127245
| 17> C 0.8602082199 1.5733023926 2.1832167634
| 18> C 1.9420242457 1.0082480649 3.0882777459
| 19> S -1.3838982648 -1.3399678158 0.0475909872
| 20> P -2.2326610504 0.6050874614 0.0330827796
| 21> S -1.3679940886 1.9228135435 -1.1315870051
| 22> O -3.7580486023 0.2933895948 -0.3325669366
| 23> C -4.1344635947 -0.1530799473 -1.6407717871
| 24> O -2.3965733563 1.1049930996 1.5211609176
| 25> C -3.0481963373 0.3010911264 2.5280931731
| 26> H 3.7113548142 0.8141123978 -1.9122926836
| 27> H 5.1671798999 0.5010136938 -2.8730304606
| 28> H 3.5694728385 0.0729537263 -3.5081097976
| 29> H 4.9590413394 -1.2154080006 -1.0976828693
| 30> H 4.6817126369 -1.9846443448 -2.694617836
| 31> H 1.090178925 -2.3524523188 0.9506391765
| 32> H 1.0106356121 -2.9651709639 -0.728821769
| 33> H 1.2582084299 2.3482801117 1.521876696
| 34> H 0.0132133121 1.962522224 2.7491227409
| 35> H 1.5247721103 0.2526031356 3.7476927265
| 36> H 2.7295580819 0.5545604187 2.4880713624
| 37> H 2.3666027106 1.8103844859 3.6822941915
| 38> H -3.8246384855 -1.1883657936 -1.7809964766
| 39> H -3.6755008209 0.481654725 -2.4003149569
| 40> H -5.2173729184 -0.0673147126 -1.6783564911
| 41> H -2.5414429968 -0.6594265971 2.6191732763
| 42> H -4.092398489 0.1509674835 2.2623490257
| 43> H -2.9616150708 0.8729215297 3.4481459075
| 44> *
| 45>
| 46>                          ****END OF INPUT****

CARTESIAN COORDINATES (ANGSTROEM)
---------------------------------
  C      4.182566    0.127216   -2.613098
  C      4.312873   -1.248277   -1.979225
  O      3.015234   -1.727621   -1.576318
  C      2.676785   -1.669980   -0.307041
  O      3.402234   -1.318273    0.597110
  C      1.234005   -2.103787   -0.101302
  C      0.312146   -0.938084   -0.487948
  H      0.321024   -0.783026   -1.569252
  C      0.846676    0.312748    0.183748
  O      1.735181    0.967571   -0.311199
  O      0.307896    0.523365    1.365613
  C      0.860208    1.573302    2.183217
  C      1.942024    1.008248    3.088278
  S     -1.383898   -1.339968    0.047591
  P     -2.232661    0.605087    0.033083
  S     -1.367994    1.922814   -1.131587
  O     -3.758049    0.293390   -0.332567
  C     -4.134464   -0.153080   -1.640772
  O     -2.396573    1.104993    1.521161
  C     -3.048196    0.301091    2.528093
  H      3.711355    0.814112   -1.912293
  H      5.167180    0.501014   -2.873030
  H      3.569473    0.072954   -3.508110
  H      4.959041   -1.215408   -1.097683
  H      4.681713   -1.984644   -2.694618
  H      1.090179   -2.352452    0.950639
  H      1.010636   -2.965171   -0.728822
  H      1.258208    2.348280    1.521877
  H      0.013213    1.962522    2.749123
  H      1.524772    0.252603    3.747693
  H      2.729558    0.554560    2.488071
  H      2.366603    1.810384    3.682294
  H     -3.824638   -1.188366   -1.780996
  H     -3.675501    0.481655   -2.400315
  H     -5.217373   -0.067315   -1.678356
  H     -2.541443   -0.659427    2.619173
  H     -4.092398    0.150967    2.262349
  H     -2.961615    0.872922    3.448146

 Total Charge           Charge          ....    0
 Multiplicity           Mult            ....    1
 Number of Electrons    NEL             ....  174
 Basis Dimension        Dim             ....  510

ORBITAL ENERGIES
----------------

  NO   OCC          E(Eh)            E(eV)
   0   2.0000     -88.578570     -2410.3454
   1   2.0000     -88.519919     -2408.7494
   2   2.0000     -76.916651     -2093.0085
   3   2.0000     -19.001451      -517.0558
   4   2.0000     -19.001254      -517.0504
   5   2.0000     -18.997721      -516.9543
   6   2.0000     -18.995301      -516.8884
   7   2.0000     -18.932959      -515.1920
   8   2.0000     -18.932544      -515.1807
   9   2.0000     -10.162150      -276.5262
  10   2.0000     -10.161050      -276.4962
  11   2.0000     -10.101236      -274.8686
  12   2.0000     -10.100214      -274.8408
  13   2.0000     -10.094923      -274.6968
  14   2.0000     -10.088266      -274.5157
  15   2.0000     -10.087240      -274.4878
  16   2.0000     -10.065950      -273.9084
  17   2.0000     -10.021733      -272.7052
  18   2.0000     -10.018935      -272.6291
  19   2.0000      -7.872990      -214.2349
  20   2.0000      -7.814452      -212.6420
  21   2.0000      -6.594935      -179.4573
  22   2.0000      -5.819808      -158.3650
  23   2.0000      -5.816760      -158.2821
  24   2.0000      -5.810233      -158.1045
  25   2.0000      -5.762351      -156.8016
  26   2.0000      -5.754534      -156.5888
  27   2.0000      -5.754451      -156.5866
  28   2.0000      -4.740668      -129.0001
  29   2.0000      -4.740014      -128.9823
  30   2.0000      -4.738359      -128.9373
  31   2.0000      -1.081353       -29.4251
  32   2.0000      -1.076647       -29.2971
  33   2.0000      -1.054597       -28.6970
  34   2.0000      -1.012617       -27.5547
  35   2.0000      -0.985285       -26.8110
  36   2.0000      -0.981063       -26.6961
  37   2.0000      -0.815735       -22.1973
  38   2.0000      -0.753172       -20.4949
  39   2.0000      -0.738306       -20.0903
  40   2.0000      -0.732123       -19.9221
  41   2.0000      -0.699114       -19.0239
  42   2.0000      -0.680291       -18.5116
  43   2.0000      -0.659131       -17.9359
  44   2.0000      -0.647419       -17.6172
  45   2.0000      -0.622298       -16.9336
  46   2.0000      -0.601166       -16.3586
  47   2.0000      -0.545265       -14.8374
  48   2.0000      -0.529519       -14.4090
  49   2.0000      -0.523479       -14.2446
  50   2.0000      -0.501630       -13.6500
  51   2.0000      -0.498978       -13.5779
  52   2.0000      -0.477890       -13.0041
  53   2.0000      -0.468885       -12.7590
  54   2.0000      -0.460000       -12.5172
  55   2.0000      -0.454277       -12.3615
  56   2.0000      -0.445265       -12.1163
  57   2.0000      -0.440644       -11.9905
  58   2.0000      -0.436590       -11.8802
  59   2.0000      -0.429417       -11.6850
  60   2.0000      -0.422847       -11.5063
  61   2.0000      -0.417690       -11.3659
  62   2.0000      -0.410639       -11.1741
  63   2.0000      -0.400070       -10.8865
  64   2.0000      -0.391624       -10.6566
  65   2.0000      -0.384068       -10.4510
  66   2.0000      -0.368119       -10.0170
  67   2.0000      -0.363693        -9.8966
  68   2.0000      -0.359688        -9.7876
  69   2.0000      -0.350199        -9.5294
  70   2.0000      -0.344551        -9.3757
  71   2.0000      -0.341620        -9.2959
  72   2.0000      -0.337810        -9.1923
  73   2.0000      -0.331676        -9.0254
  74   2.0000      -0.326238        -8.8774
  75   2.0000      -0.320250        -8.7145
  76   2.0000      -0.308752        -8.4016
  77   2.0000      -0.304485        -8.2855
  78   2.0000      -0.292356        -7.9554
  79   2.0000      -0.282692        -7.6924
  80   2.0000      -0.274887        -7.4801
  81   2.0000      -0.269749        -7.3402
  82   2.0000      -0.252872        -6.8810
  83   2.0000      -0.242487        -6.5984
  84   2.0000      -0.231778        -6.3070
  85   2.0000      -0.218033        -5.9330
  86   2.0000      -0.215754        -5.8710
  87   0.0000      -0.046261        -1.2588
  88   0.0000      -0.026547        -0.7224
  89   0.0000      -0.024708        -0.6723
  90   0.0000       0.008543         0.2325
  91   0.0000       0.015519         0.4223

MULLIKEN ATOMIC CHARGES
-----------------------
   0 C :   -0.463772
   1 C :   -0.151763
   2 O :   -0.138478
   3 C :    0.331757
   4 O :   -0.398144
   5 C :   -0.405583
   6 C :   -0.021857
   7 H :    0.236670
   8 C :    0.297809
   9 O :   -0.380798
  10 O :   -0.140052
  11 C :   -0.154787
  12 C :   -0.470167
  13 S :   -0.214709
  14 P :    0.758891
  15 S :   -0.409864
  16 O :   -0.358132
  17 C :   -0.296214
  18 O :   -0.304875
  19 C :   -0.291090
  20 H :    0.192201
  21 H :    0.142652
  22 H :    0.147798
  23 H :    0.179017
  24 H :    0.144071
  25 H :    0.192379
  26 H :    0.171856
  27 H :    0.179944
  28 H :    0.156591
  29 H :    0.146395
  30 H :    0.191890
  31 H :    0.146240
  32 H :    0.158315
  33 H :    0.175810
  34 H :    0.152748
  35 H :    0.171470
  36 H :    0.169321
  37 H :    0.156459
Sum of atomic charges:    0.0000000

LOEWDIN ATOMIC CHARGES
----------------------
   0 C :   -0.387802
   1 C :    0.032874
   2 O :   -0.577853
   3 C :    0.355596
   4 O :   -0.424529
   5 C :   -0.202705
   6 C :   -0.192124
   7 H :    0.203194
   8 C :    0.321243
   9 O :   -0.419357
  10 O :   -0.613422
  11 C :    0.035822
  12 C :   -0.386700
  13 S :    0.187435
  14 P :    0.392918
  15 S :   -0.040738
  16 O :   -0.683296
  17 C :   -0.058703
  18 O :   -0.649083
  19 C :   -0.051419
  20 H :    0.179519
  21 H :    0.156804
  22 H :    0.156629
  23 H :    0.193190
  24 H :    0.176105
  25 H :    0.190263
  26 H :    0.185582
  27 H :    0.195774
  28 H :    0.181328
  29 H :    0.155490
  30 H :    0.176738
  31 H :    0.158283
  32 H :    0.169118
  33 H :    0.177326
  34 H :    0.177514
  35 H :    0.174302
  36 H :    0.174841
  37 H :    0.179844

  Mayer bond orders larger than 0.100000
B(  0-C ,  1-C ) :   0.9418 B(  0-C , 20-H ) :   0.9594 B(  0-C , 21-H ) :   0.9679
B(  0-C , 22-H ) :   0.9724 B(  1-C ,  2-O ) :   0.7935 B(  1-C , 23-H ) :   0.9716
B(  1-C , 24-H ) :   0.9597 B(  2-O ,  3-C ) :   1.0569 B(  3-C ,  4-O ) :   1.8266
B(  3-C ,  5-C ) :   0.9011 B(  5-C ,  6-C ) :   0.8991 B(  5-C , 25-H ) :   0.9984
B(  5-C , 26-H ) :   0.9457 B(  6-C ,  7-H ) :   0.9593 B(  6-C ,  8-C ) :   0.9214
B(  6-C , 13-S ) :   0.8598 B(  8-C ,  9-O ) :   1.7922 B(  8-C , 10-O ) :   1.0524
B( 10-O , 11-C ) :   0.7880 B( 11-C , 12-C ) :   0.9269 B( 11-C , 27-H ) :   0.9667
B( 11-C , 28-H ) :   0.9582 B( 12-C , 29-H ) :   0.9753 B( 12-C , 30-H ) :   0.9612
B( 12-C , 31-H ) :   0.9683 B( 13-S , 14-P ) :   0.9976 B( 14-P , 15-S ) :   1.8080
B( 14-P , 16-O ) :   1.0263 B( 14-P , 18-O ) :   1.1469 B( 16-O , 17-C ) :   0.8310
B( 17-C , 32-H ) :   0.9566 B( 17-C , 33-H ) :   0.9590 B( 17-C , 34-H ) :   0.9673
B( 18-O , 19-C ) :   0.7948 B( 19-C , 35-H ) :   0.9559 B( 19-C , 36-H ) :   0.9609
B( 19-C , 37-H ) :   0.9650

Dispersion correction           -0.017843596
FINAL SINGLE POINT ENERGY     -1981.450741181218

DIPOLE MOMENT
-------------

Method             : SCF
Type of density    : Electron Density
Multiplicity       :   1
Irrep              :   0
Energy             : -1981.4700904770184025 Eh
Relativity type    :
Basis              : AO
                                X                 Y                 Z
Electronic contribution:    -12.425793580       0.781352226      -2.680172672
Nuclear contribution   :     11.574847447      -1.867496759       3.046974869
                        -----------------------------------------
Total Dipole Moment    :     -0.850946133      -1.086144533       0.366802197
                        -----------------------------------------
Magnitude (a.u.)       :      1.427712548
Magnitude (Debye)      :      3.628956899

Rotational constants in cm-1:             0.015800             0.006458             0.005807
Rotational constants in MHz :           473.661313           193.592739           174.100493

                             ****ORCA TERMINATED NORMALLY****
TOTAL RUN TIME: 0 days 0 hours 1 minutes 19 seconds 27 msec
