                         Program Version 6.0.1  -  RELEASE   -
|  1> ! r2scan-3c def2/J RI DEFGRID2 scfconv6 printgap
|  2> %output
|  3>     printlevel normal
|  4> end
|  5> %cpcm
|  6>     smd true
|  7>     smdsolvent "water"
|  8> end
|  9> * xyz 0 1
| 10> C 4.1825658171 0.1272162537 -2.6130976915
| 11> C 4.3128733083 -1.2482765563 -1.9792249578
| 12> O 3.0152336579 -1.7276207222 -1.5763180336
| 13> C 2.6767853453 -1.6699804177 -0.3070405914
| 14> O 3.4022337065 -1.3182732322 0.5971096828
| 15> C 1.2340047245 -2.1037867588 -0.1013024108
| 16> C 0.3121458705 -0.9380838373 -0.4879476489
| 17> H 0.3210244105 -0.7830257775 -1.5692521574
| 18> C 0.8466759448 0.3127477456 0.1837484099
| 19> O 1.7351805521 0.9675713183 -0.3111987995
| 20> O 0.3078958748 0.5233651867 1.3656127245
| 21> C 0.8602082199 1.5733023926 2.1832167634
| 22> C 1.9420242457 1.0082480649 3.0882777459
| 23> S -1.3838982648 -1.3399678158 0.0475909872
| 24> P -2.2326610504 0.6050874614 0.0330827796
| 25> S -1.3679940886 1.9228135435 -1.1315870051
| 26> O -3.7580486023 0.2933895948 -0.3325669366
| 27> C -4.1344635947 -0.1530799473 -1.6407717871
| 28> O -2.3965733563 1.1049930996 1.5211609176
| 29> C -3.0481963373 0.3010911264 2.5280931731
| 30> H 3.7113548142 0.8141123978 -1.9122926836
| 31> H 5.1671798999 0.5010136938 -2.8730304606
| 32> H 3.5694728385 0.0729537263 -3.5081097976
| 33> H 4.9590413394 -1.2154080006 -1.0976828693
| 34> H 4.6817126369 -1.9846443448 -2.694617836
| 35> H 1.090178925 -2.3524523188 0.9506391765
| 36> H 1.0106356121 -2.9651709639 -0.728821769
| 37> H 1.2582084299 2.3482801117 1.521876696
| 38> H 0.0132133121 1.962522224 2.7491227409
| 39> H 1.5247721103 0.2526031356 3.7476927265
| 40> H 2.7295580819 0.5545604187 2.4880713624
| 41> H 2.3666027106 1.8103844859 3.6822941915
| 42> H -3.8246384855 -1.1883657936 -1.7809964766
| 43> H -3.6755008209 0.481654725 -2.4003149569
| 44> H -5.2173729184 -0.0673147126 -1.6783564911
| 45> H -2.5414429968 -0.6594265971 2.6191732763
| 46> H -4.092398489 0.1509674835 2.2623490257
| 47> H -2.9616150708 0.8729215297 3.4481459075
| 48> *
| 49>
| 50>                          ****END OF INPUT****

CARTESIAN COORDINATES (ANGSTROEM)
---------------------------------
  C      4.182566    0.127216   -2.613098
  C      4.312873   -1.248277   -1.979225
  O      3.015234   -1.727621   -1.576318
  C      2.676785   -1.669980   -0.307041
  O      3.402234   -1.318273    0.597110
  C      1.234005   -2.103787   -0.101302
  C      0.312146   -0.938084   -0.487948
  H      0.321024   -0.783026   -1.569252
  C      0.846676    0.312748    0.183748
  O      1.735181    0.967571   -0.311199
  O      0.307896    0.523365    1.365613
  C      0.860208    1.573302    2.183217
  C      1.942024    1.008248    3.088278
  S     -1.383898   -1.339968    0.047591
  P     -2.232661    0.605087    0.033083
  S     -1.367994    1.922814   -1.131587
  O     -3.758049    0.293390   -0.332567
  C     -4.134464   -0.153080   -1.640772
  O     -2.396573    1.104993    1.521161
  C     -3.048196    0.301091    2.528093
  H      3.711355    0.814112   -1.912293
  H      5.167180    0.501014   -2.873030
  H      3.569473    0.072954   -3.508110
  H      4.959041   -1.215408   -1.097683
  H      4.681713   -1.984644   -2.694618
  H      1.090179   -2.352452    0.950639
  H      1.010636   -2.965171   -0.728822
  H      1.258208    2.348280    1.521877
  H      0.013213    1.962522    2.749123
  H      1.524772    0.252603    3.747693
  H      2.729558    0.554560    2.488071
  H      2.366603    1.810384    3.682294
  H     -3.824638   -1.188366   -1.780996
  H     -3.675501    0.481655   -2.400315
  H     -5.217373   -0.067315   -1.678356
  H     -2.541443   -0.659427    2.619173
  H     -4.092398    0.150967    2.262349
  H     -2.961615    0.872922    3.448146

 Total Charge           Charge          ....    0
 Multiplicity           Mult            ....    1
 Number of Electrons    NEL             ....  174
 Basis Dimension        Dim             ....  510

ORBITAL ENERGIES
----------------

  NO   OCC          E(Eh)            E(eV)
   0   2.0000     -88.581597     -2410.4278
   1   2.0000     -88.531648     -2409.0686
   2   2.0000     -76.922832     -2093.1767
   3   2.0000     -19.011847      -517.3386
   4   2.0000     -19.009630      -517.2783
   5   2.0000     -18.999325      -516.9979
   6   2.0000     -18.996529      -516.9218
   7   2.0000     -18.951880      -515.7069
   8   2.0000     -18.949509      -515.6423
   9   2.0000     -10.177210      -276.9360
  10   2.0000     -10.173553      -276.8365
  11   2.0000     -10.102405      -274.9004
  12   2.0000     -10.087076      -274.4833
  13   2.0000     -10.085610      -274.4434
  14   2.0000     -10.085356      -274.4365
  15   2.0000     -10.082671      -274.3634
  16   2.0000     -10.062321      -273.8097
  17   2.0000     -10.019803      -272.6527
  18   2.0000     -10.018072      -272.6056
  19   2.0000      -7.875908      -214.3143
  20   2.0000      -7.826613      -212.9730
  21   2.0000      -6.601185      -179.6274
  22   2.0000      -5.822801      -158.4465
  23   2.0000      -5.819738      -158.3631
  24   2.0000      -5.813026      -158.1805
  25   2.0000      -5.774357      -157.1282
  26   2.0000      -5.766761      -156.9216
  27   2.0000      -5.766618      -156.9177
  28   2.0000      -4.746848      -129.1683
  29   2.0000      -4.746207      -129.1508
  30   2.0000      -4.744782      -129.1121
  31   2.0000      -1.093296       -29.7501
  32   2.0000      -1.086842       -29.5745
  33   2.0000      -1.055811       -28.7301
  34   2.0000      -1.012966       -27.5642
  35   2.0000      -1.002229       -27.2721
  36   2.0000      -0.996986       -27.1294
  37   2.0000      -0.818202       -22.2644
  38   2.0000      -0.754697       -20.5363
  39   2.0000      -0.739607       -20.1257
  40   2.0000      -0.732107       -19.9216
  41   2.0000      -0.697609       -18.9829
  42   2.0000      -0.672177       -18.2909
  43   2.0000      -0.661273       -17.9942
  44   2.0000      -0.651219       -17.7206
  45   2.0000      -0.624055       -16.9814
  46   2.0000      -0.602407       -16.3923
  47   2.0000      -0.544291       -14.8109
  48   2.0000      -0.531128       -14.4527
  49   2.0000      -0.526613       -14.3299
  50   2.0000      -0.505254       -13.7486
  51   2.0000      -0.495214       -13.4755
  52   2.0000      -0.482303       -13.1241
  53   2.0000      -0.474094       -12.9008
  54   2.0000      -0.460794       -12.5388
  55   2.0000      -0.458113       -12.4659
  56   2.0000      -0.454347       -12.3634
  57   2.0000      -0.450167       -12.2497
  58   2.0000      -0.436125       -11.8676
  59   2.0000      -0.428749       -11.6669
  60   2.0000      -0.420995       -11.4559
  61   2.0000      -0.413668       -11.2565
  62   2.0000      -0.411150       -11.1880
  63   2.0000      -0.401031       -10.9126
  64   2.0000      -0.391775       -10.6608
  65   2.0000      -0.385767       -10.4973
  66   2.0000      -0.370176       -10.0730
  67   2.0000      -0.365987        -9.9590
  68   2.0000      -0.359089        -9.7713
  69   2.0000      -0.353931        -9.6309
  70   2.0000      -0.350104        -9.5268
  71   2.0000      -0.346001        -9.4152
  72   2.0000      -0.341133        -9.2827
  73   2.0000      -0.332701        -9.0533
  74   2.0000      -0.323999        -8.8165
  75   2.0000      -0.319215        -8.6863
  76   2.0000      -0.310250        -8.4423
  77   2.0000      -0.306408        -8.3378
  78   2.0000      -0.293537        -7.9875
  79   2.0000      -0.284711        -7.7474
  80   2.0000      -0.282952        -7.6995
  81   2.0000      -0.281154        -7.6506
  82   2.0000      -0.264919        -7.2088
  83   2.0000      -0.258454        -7.0329
  84   2.0000      -0.242413        -6.5964
  85   2.0000      -0.230602        -6.2750
  86   2.0000      -0.228107        -6.2071
  87   0.0000      -0.051916        -1.4127
  88   0.0000      -0.038911        -1.0588
  89   0.0000      -0.033796        -0.9196
  90   0.0000       0.004697         0.1278
  91   0.0000       0.011610         0.3159

MULLIKEN ATOMIC CHARGES
-----------------------
   0 C :   -0.502140
   1 C :   -0.140679
   2 O :   -0.154312
   3 C :    0.355131
   4 O :   -0.471114
   5 C :   -0.418724
   6 C :   -0.026924
   7 H :    0.264803
   8 C :    0.303422
   9 O :   -0.448046
  10 O :   -0.147736
  11 C :   -0.143774
  12 C :   -0.503802
  13 S :   -0.199452
  14 P :    0.783701
  15 S :   -0.479754
  16 O :   -0.382998
  17 C :   -0.306220
  18 O :   -0.341023
  19 C :   -0.296050
  20 H :    0.171372
  21 H :    0.169817
  22 H :    0.169090
  23 H :    0.181810
  24 H :    0.174529
  25 H :    0.216223
  26 H :    0.209193
  27 H :    0.180352
  28 H :    0.182207
  29 H :    0.170910
  30 H :    0.170831
  31 H :    0.172719
  32 H :    0.176196
  33 H :    0.177683
  34 H :    0.180826
  35 H :    0.181554
  36 H :    0.185595
  37 H :    0.184789
Sum of atomic charges:    0.0000000

LOEWDIN ATOMIC CHARGES
----------------------
   0 C :   -0.392146
   1 C :    0.039282
   2 O :   -0.577632
   3 C :    0.363300
   4 O :   -0.476513
   5 C :   -0.193017
   6 C :   -0.189687
   7 H :    0.210637
   8 C :    0.322282
   9 O :   -0.471506
  10 O :   -0.614231
  11 C :    0.039848
  12 C :   -0.387747
  13 S :    0.207895
  14 P :    0.396695
  15 S :   -0.091679
  16 O :   -0.690809
  17 C :   -0.053127
  18 O :   -0.667464
  19 C :   -0.041910
  20 H :    0.168836
  21 H :    0.167268
  22 H :    0.162067
  23 H :    0.194129
  24 H :    0.189669
  25 H :    0.198126
  26 H :    0.202206
  27 H :    0.195034
  28 H :    0.192401
  29 H :    0.163324
  30 H :    0.166973
  31 H :    0.168560
  32 H :    0.176778
  33 H :    0.178089
  34 H :    0.189480
  35 H :    0.180065
  36 H :    0.182492
  37 H :    0.192034

  Mayer bond orders larger than 0.100000
B(  0-C ,  1-C ) :   0.9273 B(  0-C , 20-H ) :   0.9654 B(  0-C , 21-H ) :   0.9615
B(  0-C , 22-H ) :   0.9707 B(  1-C ,  2-O ) :   0.7811 B(  1-C , 23-H ) :   0.9672
B(  1-C , 24-H ) :   0.9498 B(  2-O ,  3-C ) :   1.0702 B(  3-C ,  4-O ) :   1.7624
B(  3-C ,  5-C ) :   0.8990 B(  5-C ,  6-C ) :   0.8816 B(  5-C , 25-H ) :   0.9990
B(  5-C , 26-H ) :   0.9329 B(  6-C ,  7-H ) :   0.9508 B(  6-C ,  8-C ) :   0.9180
B(  6-C , 13-S ) :   0.8582 B(  8-C ,  9-O ) :   1.7390 B(  8-C , 10-O ) :   1.0670
B( 10-O , 11-C ) :   0.7717 B( 11-C , 12-C ) :   0.9231 B( 11-C , 27-H ) :   0.9585
B( 11-C , 28-H ) :   0.9478 B( 12-C , 29-H ) :   0.9724 B( 12-C , 30-H ) :   0.9663
B( 12-C , 31-H ) :   0.9614 B( 13-S , 14-P ) :   1.0169 B( 14-P , 15-S ) :   1.7680
B( 14-P , 16-O ) :   1.0379 B( 14-P , 18-O ) :   1.1540 B( 16-O , 17-C ) :   0.8223
B( 17-C , 32-H ) :   0.9499 B( 17-C , 33-H ) :   0.9551 B( 17-C , 34-H ) :   0.9570
B( 18-O , 19-C ) :   0.7861 B( 19-C , 35-H ) :   0.9476 B( 19-C , 36-H ) :   0.9520
B( 19-C , 37-H ) :   0.9538

Dispersion correction           -0.017843596
FINAL SINGLE POINT ENERGY     -1981.465719609716

DIPOLE MOMENT
-------------

Method             : SCF
Type of density    : Electron Density
Multiplicity       :   1
Irrep              :   0
Energy             : -1981.4850689055160728 Eh
Relativity type    :
Basis              : AO
                                X                 Y                 Z
Electronic contribution:    -12.920802573      -0.026899347      -2.551761949
Nuclear contribution   :     11.574847447      -1.867496759       3.046974869
                        -----------------------------------------
Total Dipole Moment    :     -1.345955127      -1.894396106       0.495212920
                        -----------------------------------------
Magnitude (a.u.)       :      2.376040329
Magnitude (Debye)      :      6.039414557

Rotational constants in cm-1:             0.015800             0.006458             0.005807
Rotational constants in MHz :           473.661313           193.592739           174.100493

                             ****ORCA TERMINATED NORMALLY****
TOTAL RUN TIME: 0 days 0 hours 1 minutes 50 seconds 635 msec
