                         Program Version 6.0.0  -   RELEASE  -
|  1> ! pbe def2-sv(p) def2/J RI DEFGRID1 loosescf d4 GCP(DFT/SV(P)) printgap
|  2> %output
|  3>     printlevel normal
|  4> end
|  5> * xyz 0 1
|  6> C 3.7378682454 -0.1592627705 2.1807738123
|  7> C 4.1817444807 -0.7577936704 0.8625336718
|  8> O 3.6349282095 -0.0615991908 -0.2819628103
|  9> P 2.0972108617 0.1063751846 -0.6364024778
| 10> S 1.8902769739 0.4924373896 -2.5414988101
| 11> O 1.4897140727 1.2016800847 0.3602901529
| 12> C 1.4669817806 2.5966370143 0.0251260371
| 13> C 2.8515612514 3.2070070281 0.0828576239
| 14> S 1.2290773721 -1.6571488042 0.1105296413
| 15> C -0.1591881021 -1.8744258654 -1.0536239496
| 16> S -1.7541001163 -1.9613145928 -0.2167294397
| 17> P -1.9604004871 0.1103960087 0.2240551907
| 18> S -1.4673036149 1.3369333346 -1.2229128162
| 19> O -1.1202227484 0.382174998 1.5284283991
| 20> C -0.9964804704 -0.4828473217 2.6867490662
| 21> C -2.3312753348 -0.880773887 3.2762746307
| 22> O -3.4600076124 0.2583060961 0.7247833288
| 23> C -4.5576138341 0.5021016606 -0.1703767661
| 24> C -4.833162572 -0.6779923952 -1.0798668107
| 25> H 4.0378299604 0.8833666477 2.2448477643
| 26> H 2.6553394379 -0.2224365466 2.2748818127
| 27> H 4.1968839206 -0.7141029636 2.9929386862
| 28> H 3.8887816546 -1.8085877526 0.794987453
| 29> H 5.2593230121 -0.6645523341 0.7184280077
| 30> H 1.0335209298 2.7102811414 -0.9746391506
| 31> H 0.7895299284 3.0358402561 0.7596017317
| 32> H 3.4982522437 2.7124180719 -0.642079768
| 33> H 2.7880486042 4.2626575837 -0.1617354191
| 34> H 3.2757357964 3.0913082887 1.0766202491
| 35> H -0.0246938187 -2.8275482138 -1.5584647204
| 36> H -0.150435679 -1.0454018768 -1.7675792664
| 37> H -0.4203333014 -1.3654715244 2.393850454
| 38> H -0.4128675041 0.123277203 3.3815170837
| 39> H -2.9279924497 0.0016025131 3.4916940048
| 40> H -2.8775152491 -1.5149154594 2.5813186221
| 41> H -2.1575378547 -1.4315113459 4.1956599367
| 42> H -5.3970247206 0.6998647129 0.4976831501
| 43> H -4.3321615604 1.3965724992 -0.7597048469
| 44> H -4.9346395315 -1.590443159 -0.4980345731
| 45> H -5.7502841749 -0.4976439812 -1.6314353516
| 46> H -4.016410939 -0.8014236086 -1.7893227516
| 47> *
| 48>
| 49>                          ****END OF INPUT****

CARTESIAN COORDINATES (ANGSTROEM)
---------------------------------
  C      3.737868   -0.159263    2.180774
  C      4.181744   -0.757794    0.862534
  O      3.634928   -0.061599   -0.281963
  P      2.097211    0.106375   -0.636402
  S      1.890277    0.492437   -2.541499
  O      1.489714    1.201680    0.360290
  C      1.466982    2.596637    0.025126
  C      2.851561    3.207007    0.082858
  S      1.229077   -1.657149    0.110530
  C     -0.159188   -1.874426   -1.053624
  S     -1.754100   -1.961315   -0.216729
  P     -1.960400    0.110396    0.224055
  S     -1.467304    1.336933   -1.222913
  O     -1.120223    0.382175    1.528428
  C     -0.996480   -0.482847    2.686749
  C     -2.331275   -0.880774    3.276275
  O     -3.460008    0.258306    0.724783
  C     -4.557614    0.502102   -0.170377
  C     -4.833163   -0.677992   -1.079867
  H      4.037830    0.883367    2.244848
  H      2.655339   -0.222437    2.274882
  H      4.196884   -0.714103    2.992939
  H      3.888782   -1.808588    0.794987
  H      5.259323   -0.664552    0.718428
  H      1.033521    2.710281   -0.974639
  H      0.789530    3.035840    0.759602
  H      3.498252    2.712418   -0.642080
  H      2.788049    4.262658   -0.161735
  H      3.275736    3.091308    1.076620
  H     -0.024694   -2.827548   -1.558465
  H     -0.150436   -1.045402   -1.767579
  H     -0.420333   -1.365472    2.393850
  H     -0.412868    0.123277    3.381517
  H     -2.927992    0.001603    3.491694
  H     -2.877515   -1.514915    2.581319
  H     -2.157538   -1.431511    4.195660
  H     -5.397025    0.699865    0.497683
  H     -4.332162    1.396572   -0.759705
  H     -4.934640   -1.590443   -0.498035
  H     -5.750284   -0.497644   -1.631435
  H     -4.016411   -0.801424   -1.789323

 Total Charge           Charge          ....    0
 Multiplicity           Mult            ....    1
 Number of Electrons    NEL             ....  202
 Basis Dimension        Dim             ....  334

ORBITAL ENERGIES
----------------

  NO   OCC          E(Eh)            E(eV)
   0   2.0000     -88.047562     -2395.8960
   1   2.0000     -88.044072     -2395.8010
   2   2.0000     -87.980893     -2394.0818
   3   2.0000     -87.975703     -2393.9406
   4   2.0000     -76.425732     -2079.6499
   5   2.0000     -76.419255     -2079.4737
   6   2.0000     -18.794317      -511.4194
   7   2.0000     -18.789460      -511.2872
   8   2.0000     -18.789399      -511.2855
   9   2.0000     -18.777894      -510.9725
  10   2.0000      -9.958440      -270.9829
  11   2.0000      -9.957465      -270.9564
  12   2.0000      -9.954470      -270.8749
  13   2.0000      -9.953325      -270.8437
  14   2.0000      -9.935097      -270.3477
  15   2.0000      -9.891631      -269.1650
  16   2.0000      -9.887941      -269.0645
  17   2.0000      -9.884916      -268.9822
  18   2.0000      -9.875841      -268.7353
  19   2.0000      -7.692436      -209.3218
  20   2.0000      -7.689189      -209.2335
  21   2.0000      -7.625732      -207.5067
  22   2.0000      -7.620949      -207.3766
  23   2.0000      -6.423035      -174.7797
  24   2.0000      -6.417076      -174.6175
  25   2.0000      -5.720241      -155.6557
  26   2.0000      -5.717013      -155.5678
  27   2.0000      -5.716806      -155.5622
  28   2.0000      -5.713649      -155.4763
  29   2.0000      -5.709645      -155.3673
  30   2.0000      -5.706190      -155.2733
  31   2.0000      -5.654725      -153.8729
  32   2.0000      -5.650105      -153.7472
  33   2.0000      -5.646246      -153.6422
  34   2.0000      -5.645902      -153.6328
  35   2.0000      -5.641937      -153.5249
  36   2.0000      -5.640442      -153.4842
  37   2.0000      -4.645828      -126.4194
  38   2.0000      -4.644893      -126.3940
  39   2.0000      -4.643226      -126.3486
  40   2.0000      -4.639856      -126.2569
  41   2.0000      -4.638640      -126.2238
  42   2.0000      -4.637534      -126.1937
  43   2.0000      -0.986888       -26.8546
  44   2.0000      -0.976624       -26.5753
  45   2.0000      -0.945268       -25.7221
  46   2.0000      -0.936565       -25.4852
  47   2.0000      -0.764655       -20.8073
  48   2.0000      -0.720167       -19.5967
  49   2.0000      -0.710379       -19.3304
  50   2.0000      -0.691319       -18.8118
  51   2.0000      -0.689418       -18.7600
  52   2.0000      -0.673171       -18.3179
  53   2.0000      -0.649139       -17.6640
  54   2.0000      -0.632905       -17.2222
  55   2.0000      -0.599134       -16.3033
  56   2.0000      -0.590243       -16.0613
  57   2.0000      -0.578182       -15.7331
  58   2.0000      -0.572126       -15.5683
  59   2.0000      -0.560192       -15.2436
  60   2.0000      -0.496412       -13.5081
  61   2.0000      -0.488422       -13.2907
  62   2.0000      -0.471698       -12.8356
  63   2.0000      -0.468142       -12.7388
  64   2.0000      -0.452475       -12.3125
  65   2.0000      -0.451072       -12.2743
  66   2.0000      -0.443509       -12.0685
  67   2.0000      -0.436394       -11.8749
  68   2.0000      -0.425542       -11.5796
  69   2.0000      -0.414877       -11.2894
  70   2.0000      -0.410019       -11.1572
  71   2.0000      -0.405893       -11.0449
  72   2.0000      -0.396700       -10.7947
  73   2.0000      -0.382621       -10.4117
  74   2.0000      -0.380322       -10.3491
  75   2.0000      -0.366604        -9.9758
  76   2.0000      -0.364420        -9.9164
  77   2.0000      -0.361252        -9.8302
  78   2.0000      -0.354282        -9.6405
  79   2.0000      -0.353386        -9.6161
  80   2.0000      -0.349179        -9.5016
  81   2.0000      -0.347227        -9.4485
  82   2.0000      -0.339950        -9.2505
  83   2.0000      -0.336839        -9.1658
  84   2.0000      -0.333494        -9.0748
  85   2.0000      -0.315272        -8.5790
  86   2.0000      -0.307775        -8.3750
  87   2.0000      -0.302360        -8.2276
  88   2.0000      -0.293406        -7.9840
  89   2.0000      -0.291339        -7.9277
  90   2.0000      -0.278043        -7.5659
  91   2.0000      -0.267507        -7.2792
  92   2.0000      -0.265614        -7.2277
  93   2.0000      -0.261510        -7.1161
  94   2.0000      -0.255957        -6.9649
  95   2.0000      -0.237980        -6.4758
  96   2.0000      -0.221099        -6.0164
  97   2.0000      -0.209853        -5.7104
  98   2.0000      -0.199837        -5.4378
  99   2.0000      -0.192642        -5.2421
 100   2.0000      -0.181616        -4.9420
 101   0.0000      -0.042824        -1.1653
 102   0.0000      -0.030111        -0.8194
 103   0.0000      -0.013894        -0.3781
 104   0.0000       0.008893         0.2420
 105   0.0000       0.023574         0.6415

MULLIKEN ATOMIC CHARGES
-----------------------
   0 C :   -0.327379
   1 C :   -0.017179
   2 O :   -0.374970
   3 P :    0.618166
   4 S :   -0.302424
   5 O :   -0.371064
   6 C :   -0.010717
   7 C :   -0.310924
   8 S :   -0.130694
   9 C :   -0.336102
  10 S :   -0.111502
  11 P :    0.597176
  12 S :   -0.299684
  13 O :   -0.349908
  14 C :   -0.012737
  15 C :   -0.300010
  16 O :   -0.374345
  17 C :   -0.000904
  18 C :   -0.320483
  19 H :    0.127486
  20 H :    0.134693
  21 H :    0.112662
  22 H :    0.118189
  23 H :    0.114140
  24 H :    0.126297
  25 H :    0.100370
  26 H :    0.126266
  27 H :    0.109337
  28 H :    0.111356
  29 H :    0.186530
  30 H :    0.212650
  31 H :    0.117268
  32 H :    0.109538
  33 H :    0.120693
  34 H :    0.117120
  35 H :    0.111526
  36 H :    0.104101
  37 H :    0.113783
  38 H :    0.115369
  39 H :    0.114916
  40 H :    0.131394
Sum of atomic charges:    0.0000000

LOEWDIN ATOMIC CHARGES
----------------------
   0 C :   -0.368362
   1 C :   -0.117800
   2 O :   -0.245607
   3 P :    0.569614
   4 S :   -0.302188
   5 O :   -0.243385
   6 C :   -0.126278
   7 C :   -0.366340
   8 S :    0.077614
   9 C :   -0.474409
  10 S :    0.075517
  11 P :    0.568994
  12 S :   -0.289045
  13 O :   -0.229164
  14 C :   -0.116809
  15 C :   -0.366561
  16 O :   -0.242055
  17 C :   -0.118415
  18 C :   -0.371419
  19 H :    0.127778
  20 H :    0.121956
  21 H :    0.131154
  22 H :    0.108610
  23 H :    0.124108
  24 H :    0.108231
  25 H :    0.116539
  26 H :    0.124212
  27 H :    0.129734
  28 H :    0.118383
  29 H :    0.139338
  30 H :    0.128258
  31 H :    0.101570
  32 H :    0.121283
  33 H :    0.127963
  34 H :    0.117729
  35 H :    0.130652
  36 H :    0.118284
  37 H :    0.112820
  38 H :    0.122414
  39 H :    0.132150
  40 H :    0.122931

  Mayer bond orders larger than 0.100000
B(  0-C ,  1-C ) :   1.1621 B(  0-C , 19-H ) :   0.9403 B(  0-C , 20-H ) :   0.9352
B(  0-C , 21-H ) :   0.9353 B(  1-C ,  2-O ) :   0.9121 B(  1-C , 22-H ) :   0.9184
B(  1-C , 23-H ) :   0.9346 B(  2-O ,  3-P ) :   1.1028 B(  3-P ,  4-S ) :   1.6408
B(  3-P ,  5-O ) :   1.0931 B(  3-P ,  8-S ) :   0.9533 B(  4-S ,  8-S ) :   0.1050
B(  5-O ,  6-C ) :   0.9056 B(  6-C ,  7-C ) :   1.1544 B(  6-C , 24-H ) :   0.9074
B(  6-C , 25-H ) :   0.9344 B(  7-C , 26-H ) :   0.9359 B(  7-C , 27-H ) :   0.9396
B(  7-C , 28-H ) :   0.9410 B(  8-S ,  9-C ) :   0.9934 B(  9-C , 10-S ) :   1.0108
B(  9-C , 29-H ) :   0.9108 B(  9-C , 30-H ) :   0.8426 B( 10-S , 11-P ) :   0.9297
B( 10-S , 12-S ) :   0.1045 B( 11-P , 12-S ) :   1.6362 B( 11-P , 13-O ) :   1.1518
B( 11-P , 16-O ) :   1.0901 B( 13-O , 14-C ) :   0.8986 B( 14-C , 15-C ) :   1.1698
B( 14-C , 31-H ) :   0.9076 B( 14-C , 32-H ) :   0.9339 B( 15-C , 33-H ) :   0.9429
B( 15-C , 34-H ) :   0.9377 B( 15-C , 35-H ) :   0.9357 B( 16-O , 17-C ) :   0.9053
B( 17-C , 18-C ) :   1.1658 B( 17-C , 36-H ) :   0.9337 B( 17-C , 37-H ) :   0.9146
B( 18-C , 38-H ) :   0.9449 B( 18-C , 39-H ) :   0.9376 B( 18-C , 40-H ) :   0.9343

Dispersion correction           -0.069019673
FINAL SINGLE POINT ENERGY     -2929.513781086574

DIPOLE MOMENT
-------------

Method             : SCF
Type of density    : Electron Density
Multiplicity       :   1
Irrep              :   0
Energy             : -2929.6322882601666606 Eh
Relativity type    :
Basis              : AO
                                X                 Y                 Z
Electronic contribution:      1.605864549      -4.642022395     -15.159717674
Nuclear contribution   :     -1.967538771       4.043529974      17.046564924
                        -----------------------------------------
Total Dipole Moment    :     -0.361674221      -0.598492421       1.886847250
                        -----------------------------------------
Magnitude (a.u.)       :      2.012260908
Magnitude (Debye)      :      5.114760753

Rotational constants in cm-1:             0.012526             0.005579             0.005242
Rotational constants in MHz :           375.513388           167.266753           157.140768

                             ****ORCA TERMINATED NORMALLY****
TOTAL RUN TIME: 0 days 0 hours 0 minutes 22 seconds 313 msec
