                         Program Version 6.0.0  -   RELEASE  -
|  1> ! pbe def2-sv(p) def2/J RI DEFGRID1 loosescf d4 GCP(DFT/SV(P)) printgap
|  2> %output
|  3>     printlevel normal
|  4> end
|  5> * xyz 0 1
|  6> C 0.6325610047 1.4830305843 -0.1103426364
|  7> C 1.5032878638 0.2195480246 0.0983582732
|  8> H 2.4403959967 0.3000501295 -0.4655373024
|  9> C 0.7517808673 -1.0180318222 -0.4438356401
| 10> H 1.234796217 -1.9146761813 -0.0397697528
| 11> C -0.7073701366 -0.9855658798 0.0398961279
| 12> H -1.2472667716 -1.8456361762 -0.3694956448
| 13> C -1.3954129326 0.3261672899 -0.4679671065
| 14> H -2.0570099983 0.118098828 -1.3185456543
| 15> O -0.4427776918 1.2221698803 -1.0017318247
| 16> O -2.1355796342 0.9188889513 0.543285207
| 17> O -0.7982866992 -1.0690898516 1.4399908342
| 18> O 0.8507400708 -1.1235166475 -1.8377808084
| 19> O 1.7649552223 -0.0131135331 1.4665103174
| 20> H 1.1936727721 2.2943981503 -0.5725659978
| 21> H 0.2320502878 1.8205387085 0.8531750973
| 22> H -1.9803781675 0.3974613252 1.3614470819
| 23> H 0.0364049783 -0.7520429539 1.8349243473
| 24> H 0.4736052391 -0.3255470471 -2.2414483385
| 25> H 2.4001207861 0.6340993607 1.8035361174
| 26> *
| 27>
| 28>                          ****END OF INPUT****

CARTESIAN COORDINATES (ANGSTROEM)
---------------------------------
  C      0.632561    1.483031   -0.110343
  C      1.503288    0.219548    0.098358
  H      2.440396    0.300050   -0.465537
  C      0.751781   -1.018032   -0.443836
  H      1.234796   -1.914676   -0.039770
  C     -0.707370   -0.985566    0.039896
  H     -1.247267   -1.845636   -0.369496
  C     -1.395413    0.326167   -0.467967
  H     -2.057010    0.118099   -1.318546
  O     -0.442778    1.222170   -1.001732
  O     -2.135580    0.918889    0.543285
  O     -0.798287   -1.069090    1.439991
  O      0.850740   -1.123517   -1.837781
  O      1.764955   -0.013114    1.466510
  H      1.193673    2.294398   -0.572566
  H      0.232050    1.820539    0.853175
  H     -1.980378    0.397461    1.361447
  H      0.036405   -0.752043    1.834924
  H      0.473605   -0.325547   -2.241448
  H      2.400121    0.634099    1.803536

 Total Charge           Charge          ....    0
 Multiplicity           Mult            ....    1
 Number of Electrons    NEL             ....   80
 Basis Dimension        Dim             ....  160

ORBITAL ENERGIES
----------------

  NO   OCC          E(Eh)            E(eV)
   0   2.0000     -18.789960      -511.3008
   1   2.0000     -18.774033      -510.8674
   2   2.0000     -18.766791      -510.6703
   3   2.0000     -18.754181      -510.3272
   4   2.0000     -18.745954      -510.1034
   5   2.0000      -9.980390      -271.5802
   6   2.0000      -9.959071      -271.0001
   7   2.0000      -9.952384      -270.8181
   8   2.0000      -9.945328      -270.6261
   9   2.0000      -9.943834      -270.5855
  10   2.0000      -0.985630       -26.8204
  11   2.0000      -0.961330       -26.1591
  12   2.0000      -0.940011       -25.5790
  13   2.0000      -0.932780       -25.3822
  14   2.0000      -0.902018       -24.5452
  15   2.0000      -0.702055       -19.1039
  16   2.0000      -0.680808       -18.5257
  17   2.0000      -0.603016       -16.4089
  18   2.0000      -0.582643       -15.8545
  19   2.0000      -0.530428       -14.4337
  20   2.0000      -0.511014       -13.9054
  21   2.0000      -0.497278       -13.5316
  22   2.0000      -0.465193       -12.6585
  23   2.0000      -0.463586       -12.6148
  24   2.0000      -0.451987       -12.2992
  25   2.0000      -0.415601       -11.3091
  26   2.0000      -0.407445       -11.0871
  27   2.0000      -0.386070       -10.5055
  28   2.0000      -0.372010       -10.1229
  29   2.0000      -0.359106        -9.7718
  30   2.0000      -0.341677        -9.2975
  31   2.0000      -0.321608        -8.7514
  32   2.0000      -0.300289        -8.1713
  33   2.0000      -0.289848        -7.8872
  34   2.0000      -0.279330        -7.6010
  35   2.0000      -0.267907        -7.2901
  36   2.0000      -0.252111        -6.8603
  37   2.0000      -0.235754        -6.4152
  38   2.0000      -0.223647        -6.0857
  39   2.0000      -0.214760        -5.8439
  40   0.0000      -0.006866        -0.1868
  41   0.0000       0.026989         0.7344
  42   0.0000       0.048481         1.3192
  43   0.0000       0.057567         1.5665
  44   0.0000       0.068171         1.8550

MULLIKEN ATOMIC CHARGES
-----------------------
   0 C :    0.085671
   1 C :   -0.036633
   2 H :    0.078975
   3 C :    0.036878
   4 H :    0.092854
   5 C :    0.016654
   6 H :    0.085394
   7 C :    0.166354
   8 H :    0.069255
   9 O :   -0.314527
  10 O :   -0.396526
  11 O :   -0.437746
  12 O :   -0.419839
  13 O :   -0.424528
  14 H :    0.098652
  15 H :    0.058870
  16 H :    0.303742
  17 H :    0.314300
  18 H :    0.304570
  19 H :    0.317632
Sum of atomic charges:   -0.0000000

LOEWDIN ATOMIC CHARGES
----------------------
   0 C :   -0.134962
   1 C :   -0.091978
   2 H :    0.111783
   3 C :   -0.070996
   4 H :    0.123287
   5 C :   -0.092126
   6 H :    0.119800
   7 C :   -0.010729
   8 H :    0.101263
   9 O :   -0.158527
  10 O :   -0.307601
  11 O :   -0.314562
  12 O :   -0.311260
  13 O :   -0.313781
  14 H :    0.118804
  15 H :    0.103692
  16 H :    0.275305
  17 H :    0.278378
  18 H :    0.277166
  19 H :    0.297045

  Mayer bond orders larger than 0.100000
B(  0-C ,  1-C ) :   1.0402 B(  0-C ,  9-O ) :   1.0349 B(  0-C , 14-H ) :   0.9305
B(  0-C , 15-H ) :   0.8769 B(  1-C ,  2-H ) :   0.8957 B(  1-C ,  3-C ) :   0.9946
B(  1-C , 13-O ) :   1.0109 B(  3-C ,  4-H ) :   0.8972 B(  3-C ,  5-C ) :   1.0196
B(  3-C , 12-O ) :   1.0655 B(  5-C ,  6-H ) :   0.8949 B(  5-C ,  7-C ) :   0.9558
B(  5-C , 11-O ) :   1.0468 B(  7-C ,  8-H ) :   0.9081 B(  7-C ,  9-O ) :   1.0141
B(  7-C , 10-O ) :   1.1884 B( 10-O , 16-H ) :   0.7872 B( 11-O , 16-H ) :   0.1233
B( 11-O , 17-H ) :   0.7916 B( 12-O , 18-H ) :   0.8257 B( 13-O , 17-H ) :   0.1134
B( 13-O , 19-H ) :   0.8395

Dispersion correction           -0.020231794
FINAL SINGLE POINT ENERGY      -571.415951803452

DIPOLE MOMENT
-------------

Method             : SCF
Type of density    : Electron Density
Multiplicity       :   1
Irrep              :   0
Energy             :  -571.5285324961984088 Eh
Relativity type    :
Basis              : AO
                                X                 Y                 Z
Electronic contribution:     -1.373942079      -0.230276120      -0.313952587
Nuclear contribution   :      2.546545817       0.680851716       0.802470083
                        -----------------------------------------
Total Dipole Moment    :      1.172603737       0.450575597       0.488517496
                        -----------------------------------------
Magnitude (a.u.)       :      1.347837986
Magnitude (Debye)      :      3.425931898

Rotational constants in cm-1:             0.055958             0.043624             0.040775
Rotational constants in MHz :          1677.593344          1307.815584          1222.400158

                             ****ORCA TERMINATED NORMALLY****
TOTAL RUN TIME: 0 days 0 hours 0 minutes 11 seconds 398 msec
