                         Program Version 6.0.0  -   RELEASE  -
|  1> ! pbe def2-sv(p) def2/J RI DEFGRID1 loosescf d4 GCP(DFT/SV(P)) printgap
|  2> %output
|  3>     printlevel normal
|  4> end
|  5> * xyz 0 1
|  6> C 0.1728546507 0.3817296226 -0.5731720067
|  7> H 0.1936094423 0.3693457381 -1.666328183
|  8> C 1.2244638956 -0.5766048056 -0.02316439
|  9> F 2.4536461799 -0.2267492156 -0.4247830909
| 10> F 1.2442068293 -0.6191960587 1.3068857376
| 11> F 1.022202326 -1.8239027591 -0.4578737962
| 12> Cl 0.5342122608 2.0232259705 0.0118772755
| 13> Br -1.5717814031 -0.2382640607 0.0045210019
| 14> *
| 15>
| 16>                          ****END OF INPUT****

CARTESIAN COORDINATES (ANGSTROEM)
---------------------------------
  C      0.172855    0.381730   -0.573172
  H      0.193609    0.369346   -1.666328
  C      1.224464   -0.576605   -0.023164
  F      2.453646   -0.226749   -0.424783
  F      1.244207   -0.619196    1.306886
  F      1.022202   -1.823903   -0.457874
  Cl     0.534212    2.023226    0.011877
  Br    -1.571781   -0.238264    0.004521

 Total Charge           Charge          ....    0
 Multiplicity           Mult            ....    1
 Number of Electrons    NEL             ....   92
 Basis Dimension        Dim             ....  122

ORBITAL ENERGIES
----------------

  NO   OCC          E(Eh)            E(eV)
   0   2.0000    -480.958290    -13087.5404
   1   2.0000    -100.664788     -2739.2281
   2   2.0000     -61.801079     -1681.6929
   3   2.0000     -55.731876     -1516.5414
   4   2.0000     -55.728472     -1516.4488
   5   2.0000     -55.728408     -1516.4471
   6   2.0000     -24.305275      -661.3801
   7   2.0000     -24.303784      -661.3396
   8   2.0000     -24.303266      -661.3255
   9   2.0000     -10.149426      -276.1799
  10   2.0000     -10.029827      -272.9255
  11   2.0000      -9.200571      -250.3603
  12   2.0000      -8.426652      -229.3009
  13   2.0000      -7.032876      -191.3743
  14   2.0000      -7.020060      -191.0255
  15   2.0000      -7.019576      -191.0124
  16   2.0000      -6.309764      -171.6974
  17   2.0000      -6.293828      -171.2638
  18   2.0000      -6.293396      -171.2520
  19   2.0000      -2.510631       -68.3177
  20   2.0000      -2.506765       -68.2125
  21   2.0000      -2.506425       -68.2033
  22   2.0000      -2.494504       -67.8789
  23   2.0000      -2.494487       -67.8785
  24   2.0000      -1.212773       -33.0012
  25   2.0000      -1.118246       -30.4290
  26   2.0000      -1.116567       -30.3833
  27   2.0000      -0.836474       -22.7616
  28   2.0000      -0.744274       -20.2527
  29   2.0000      -0.677095       -18.4247
  30   2.0000      -0.598731       -16.2923
  31   2.0000      -0.547513       -14.8986
  32   2.0000      -0.544412       -14.8142
  33   2.0000      -0.514948       -14.0125
  34   2.0000      -0.443779       -12.0758
  35   2.0000      -0.422887       -11.5073
  36   2.0000      -0.413728       -11.2581
  37   2.0000      -0.408854       -11.1255
  38   2.0000      -0.372635       -10.1399
  39   2.0000      -0.368770       -10.0347
  40   2.0000      -0.367556       -10.0017
  41   2.0000      -0.352955        -9.6044
  42   2.0000      -0.296687        -8.0733
  43   2.0000      -0.289756        -7.8847
  44   2.0000      -0.268548        -7.3076
  45   2.0000      -0.265692        -7.2298
  46   0.0000      -0.072142        -1.9631
  47   0.0000      -0.034506        -0.9389
  48   0.0000       0.033481         0.9111
  49   0.0000       0.119589         3.2542
  50   0.0000       0.126207         3.4343

MULLIKEN ATOMIC CHARGES
-----------------------
   0 C :   -0.252395
   1 H :    0.192412
   2 C :    0.457479
   3 F :   -0.126946
   4 F :   -0.116740
   5 F :   -0.124406
   6 Cl:   -0.037036
   7 Br:    0.007631
Sum of atomic charges:   -0.0000000

LOEWDIN ATOMIC CHARGES
----------------------
   0 C :   -0.321352
   1 H :    0.150820
   2 C :    0.057601
   3 F :   -0.036184
   4 F :   -0.026134
   5 F :   -0.033155
   6 Cl:    0.112559
   7 Br:    0.095845

  Mayer bond orders larger than 0.100000
B(  0-C ,  1-H ) :   0.8825 B(  0-C ,  2-C ) :   0.8922 B(  0-C ,  6-Cl) :   1.0585
B(  0-C ,  7-Br) :   1.0464 B(  2-C ,  3-F ) :   1.1772 B(  2-C ,  4-F ) :   1.1957
B(  2-C ,  5-F ) :   1.1752

Dispersion correction           -0.008863382
FINAL SINGLE POINT ENERGY     -3408.963034590897

DIPOLE MOMENT
-------------

Method             : SCF
Type of density    : Electron Density
Multiplicity       :   1
Irrep              :   0
Energy             : -3409.0087766350598031 Eh
Relativity type    :
Basis              : AO
                                X                 Y                 Z
Electronic contribution:     -9.874401249      -2.185659683       1.550233881
Nuclear contribution   :      9.685578886       2.317036935      -2.014319404
                        -----------------------------------------
Total Dipole Moment    :     -0.188822362       0.131377252      -0.464085523
                        -----------------------------------------
Magnitude (a.u.)       :      0.517966446
Magnitude (Debye)      :      1.316566078

Rotational constants in cm-1:             0.061610             0.038649             0.027342
Rotational constants in MHz :          1847.025236          1158.681624           819.685502

                             ****ORCA TERMINATED NORMALLY****
TOTAL RUN TIME: 0 days 0 hours 0 minutes 5 seconds 619 msec
