                         Program Version 6.0.0  -   RELEASE  -
|  1> ! pbe def2-sv(p) def2/J RI DEFGRID1 loosescf d4 GCP(DFT/SV(P)) printgap
|  2> %output
|  3>     printlevel normal
|  4> end
|  5> * xyz 0 1
|  6> C 4.5049739251 -2.1466014939 -0.5500605338
|  7> C 4.5950834857 -0.8715514129 -1.3618858167
|  8> O 3.2967707677 -0.3220103122 -1.693622204
|  9> P 2.2216818361 0.2267369214 -0.6767940409
| 10> S 1.013490902 1.4170170585 -1.6619327224
| 11> O 3.1537173649 0.8079954395 0.4658062266
| 12> C 2.7347284733 1.4387026986 1.6885600718
| 13> C 2.3969145469 2.8992241671 1.4696305869
| 14> S 1.275106679 -1.459013276 0.22048942
| 15> C -0.1461730081 -1.6217514179 -0.9074373836
| 16> S -1.7208933395 -1.8238243582 -0.0472030388
| 17> P -2.0846476559 0.2179639258 0.4498386651
| 18> S -0.7963252437 1.0533425262 1.6624149169
| 19> O -3.5844802859 0.2148305397 0.9720721409
| 20> C -3.9180387505 -0.0312788498 2.3504087943
| 21> C -3.5782833576 -1.4440350604 2.777371384
| 22> O -2.1871391075 0.9926818463 -0.9196304217
| 23> C -3.3477818995 1.0646393138 -1.7822664455
| 24> C -3.745285128 -0.2812631116 -2.3508769268
| 25> H 4.0745035626 -1.9462838651 0.4291302076
| 26> H 3.8857289104 -2.8799697225 -1.0598537585
| 27> H 5.5039478872 -2.551305025 -0.4203945012
| 28> H 5.042316744 -1.0503389624 -2.3410924832
| 29> H 5.1619520466 -0.1069089242 -0.8283082758
| 30> H 1.8772481202 0.9035221035 2.1039490325
| 31> H 3.5961294716 1.3253693433 2.3495886452
| 32> H 1.5198563069 2.9893838183 0.8314140794
| 33> H 2.1755623993 3.3602550691 2.4265609078
| 34> H 3.2297546047 3.4145120876 0.9983754894
| 35> H -0.0120217753 -2.5231209904 -1.4991045295
| 36> H -0.1809331532 -0.7263982736 -1.5358012501
| 37> H -3.3844921399 0.6964778667 2.969690397
| 38> H -4.9914977205 0.1581941573 2.3935609263
| 39> H -3.9574656348 -1.6163663164 3.7794739791
| 40> H -4.0195263293 -2.164851822 2.0936930077
| 41> H -2.4977119942 -1.5810696728 2.7812471804
| 42> H -4.1672162228 1.5051043024 -1.2112924102
| 43> H -3.025076631 1.7537308679 -2.5648995014
| 44> H -4.0791373385 -0.945928388 -1.5572492515
| 45> H -4.5575452077 -0.1353243191 -3.0562946843
| 46> H -2.9053432189 -0.7391259268 -2.8677577629
| 47> *
| 48>
| 49>                          ****END OF INPUT****

CARTESIAN COORDINATES (ANGSTROEM)
---------------------------------
  C      4.504974   -2.146601   -0.550061
  C      4.595083   -0.871551   -1.361886
  O      3.296771   -0.322010   -1.693622
  P      2.221682    0.226737   -0.676794
  S      1.013491    1.417017   -1.661933
  O      3.153717    0.807995    0.465806
  C      2.734728    1.438703    1.688560
  C      2.396915    2.899224    1.469631
  S      1.275107   -1.459013    0.220489
  C     -0.146173   -1.621751   -0.907437
  S     -1.720893   -1.823824   -0.047203
  P     -2.084648    0.217964    0.449839
  S     -0.796325    1.053343    1.662415
  O     -3.584480    0.214831    0.972072
  C     -3.918039   -0.031279    2.350409
  C     -3.578283   -1.444035    2.777371
  O     -2.187139    0.992682   -0.919630
  C     -3.347782    1.064639   -1.782266
  C     -3.745285   -0.281263   -2.350877
  H      4.074504   -1.946284    0.429130
  H      3.885729   -2.879970   -1.059854
  H      5.503948   -2.551305   -0.420395
  H      5.042317   -1.050339   -2.341092
  H      5.161952   -0.106909   -0.828308
  H      1.877248    0.903522    2.103949
  H      3.596129    1.325369    2.349589
  H      1.519856    2.989384    0.831414
  H      2.175562    3.360255    2.426561
  H      3.229755    3.414512    0.998375
  H     -0.012022   -2.523121   -1.499105
  H     -0.180933   -0.726398   -1.535801
  H     -3.384492    0.696478    2.969690
  H     -4.991498    0.158194    2.393561
  H     -3.957466   -1.616366    3.779474
  H     -4.019526   -2.164852    2.093693
  H     -2.497712   -1.581070    2.781247
  H     -4.167216    1.505104   -1.211292
  H     -3.025077    1.753731   -2.564900
  H     -4.079137   -0.945928   -1.557249
  H     -4.557545   -0.135324   -3.056295
  H     -2.905343   -0.739126   -2.867758

 Total Charge           Charge          ....    0
 Multiplicity           Mult            ....    1
 Number of Electrons    NEL             ....  202
 Basis Dimension        Dim             ....  334

ORBITAL ENERGIES
----------------

  NO   OCC          E(Eh)            E(eV)
   0   2.0000     -88.039972     -2395.6894
   1   2.0000     -88.032498     -2395.4861
   2   2.0000     -87.977495     -2393.9894
   3   2.0000     -87.972599     -2393.8561
   4   2.0000     -76.424099     -2079.6055
   5   2.0000     -76.418155     -2079.4437
   6   2.0000     -18.795557      -511.4531
   7   2.0000     -18.790718      -511.3214
   8   2.0000     -18.786165      -511.1975
   9   2.0000     -18.778270      -510.9827
  10   2.0000      -9.954948      -270.8879
  11   2.0000      -9.953792      -270.8564
  12   2.0000      -9.950253      -270.7601
  13   2.0000      -9.950081      -270.7555
  14   2.0000      -9.946213      -270.6502
  15   2.0000      -9.886020      -269.0123
  16   2.0000      -9.885686      -269.0032
  17   2.0000      -9.884429      -268.9690
  18   2.0000      -9.870127      -268.5798
  19   2.0000      -7.684880      -209.1162
  20   2.0000      -7.677403      -208.9128
  21   2.0000      -7.622594      -207.4213
  22   2.0000      -7.617790      -207.2906
  23   2.0000      -6.421266      -174.7315
  24   2.0000      -6.415368      -174.5710
  25   2.0000      -5.712603      -155.4478
  26   2.0000      -5.709496      -155.3633
  27   2.0000      -5.705287      -155.2488
  28   2.0000      -5.701987      -155.1590
  29   2.0000      -5.701913      -155.1569
  30   2.0000      -5.694335      -154.9507
  31   2.0000      -5.651472      -153.7844
  32   2.0000      -5.646872      -153.6592
  33   2.0000      -5.643332      -153.5629
  34   2.0000      -5.642612      -153.5433
  35   2.0000      -5.638655      -153.4356
  36   2.0000      -5.637480      -153.4036
  37   2.0000      -4.644539      -126.3843
  38   2.0000      -4.642885      -126.3393
  39   2.0000      -4.641279      -126.2956
  40   2.0000      -4.638406      -126.2174
  41   2.0000      -4.637019      -126.1797
  42   2.0000      -4.635562      -126.1401
  43   2.0000      -0.987522       -26.8719
  44   2.0000      -0.981493       -26.7078
  45   2.0000      -0.943478       -25.6733
  46   2.0000      -0.935588       -25.4586
  47   2.0000      -0.756595       -20.5880
  48   2.0000      -0.717024       -19.5112
  49   2.0000      -0.707658       -19.2563
  50   2.0000      -0.691288       -18.8109
  51   2.0000      -0.684320       -18.6213
  52   2.0000      -0.672648       -18.3037
  53   2.0000      -0.647474       -17.6187
  54   2.0000      -0.627425       -17.0731
  55   2.0000      -0.593946       -16.1621
  56   2.0000      -0.583215       -15.8701
  57   2.0000      -0.579054       -15.7569
  58   2.0000      -0.572505       -15.5786
  59   2.0000      -0.555547       -15.1172
  60   2.0000      -0.496358       -13.5066
  61   2.0000      -0.491724       -13.3805
  62   2.0000      -0.469920       -12.7872
  63   2.0000      -0.467704       -12.7269
  64   2.0000      -0.453614       -12.3435
  65   2.0000      -0.445715       -12.1285
  66   2.0000      -0.441209       -12.0059
  67   2.0000      -0.428545       -11.6613
  68   2.0000      -0.425183       -11.5698
  69   2.0000      -0.419583       -11.4174
  70   2.0000      -0.412546       -11.2259
  71   2.0000      -0.397736       -10.8229
  72   2.0000      -0.392644       -10.6844
  73   2.0000      -0.386455       -10.5160
  74   2.0000      -0.377468       -10.2714
  75   2.0000      -0.368014       -10.0142
  76   2.0000      -0.357078        -9.7166
  77   2.0000      -0.352868        -9.6020
  78   2.0000      -0.351220        -9.5572
  79   2.0000      -0.349424        -9.5083
  80   2.0000      -0.343600        -9.3498
  81   2.0000      -0.339618        -9.2415
  82   2.0000      -0.338733        -9.2174
  83   2.0000      -0.332923        -9.0593
  84   2.0000      -0.325483        -8.8568
  85   2.0000      -0.320187        -8.7127
  86   2.0000      -0.309490        -8.4216
  87   2.0000      -0.295836        -8.0501
  88   2.0000      -0.292882        -7.9697
  89   2.0000      -0.288049        -7.8382
  90   2.0000      -0.283981        -7.7275
  91   2.0000      -0.271443        -7.3863
  92   2.0000      -0.267320        -7.2741
  93   2.0000      -0.258050        -7.0219
  94   2.0000      -0.252597        -6.8735
  95   2.0000      -0.236885        -6.4460
  96   2.0000      -0.218649        -5.9497
  97   2.0000      -0.197661        -5.3786
  98   2.0000      -0.192804        -5.2465
  99   2.0000      -0.185201        -5.0396
 100   2.0000      -0.178188        -4.8487
 101   0.0000      -0.036204        -0.9852
 102   0.0000      -0.027324        -0.7435
 103   0.0000      -0.013198        -0.3591
 104   0.0000       0.003965         0.1079
 105   0.0000       0.022402         0.6096

MULLIKEN ATOMIC CHARGES
-----------------------
   0 C :   -0.314012
   1 C :    0.006726
   2 O :   -0.364978
   3 P :    0.616212
   4 S :   -0.301220
   5 O :   -0.386837
   6 C :   -0.017189
   7 C :   -0.304997
   8 S :   -0.103856
   9 C :   -0.350670
  10 S :   -0.108557
  11 P :    0.623049
  12 S :   -0.318052
  13 O :   -0.385214
  14 C :    0.000676
  15 C :   -0.327849
  16 O :   -0.354599
  17 C :    0.008399
  18 C :   -0.319025
  19 H :    0.122968
  20 H :    0.118953
  21 H :    0.110766
  22 H :    0.106770
  23 H :    0.107513
  24 H :    0.130741
  25 H :    0.097949
  26 H :    0.147019
  27 H :    0.106015
  28 H :    0.108721
  29 H :    0.180387
  30 H :    0.194743
  31 H :    0.114274
  32 H :    0.104295
  33 H :    0.116221
  34 H :    0.118712
  35 H :    0.135336
  36 H :    0.107768
  37 H :    0.114112
  38 H :    0.123862
  39 H :    0.112211
  40 H :    0.122658
Sum of atomic charges:   -0.0000000

LOEWDIN ATOMIC CHARGES
----------------------
   0 C :   -0.368137
   1 C :   -0.109859
   2 O :   -0.245211
   3 P :    0.566575
   4 S :   -0.296680
   5 O :   -0.240295
   6 C :   -0.115986
   7 C :   -0.365353
   8 S :    0.066222
   9 C :   -0.485754
  10 S :    0.076811
  11 P :    0.577135
  12 S :   -0.307384
  13 O :   -0.247008
  14 C :   -0.117638
  15 C :   -0.373281
  16 O :   -0.230362
  17 C :   -0.106600
  18 C :   -0.369127
  19 H :    0.117128
  20 H :    0.125393
  21 H :    0.129536
  22 H :    0.120623
  23 H :    0.113437
  24 H :    0.108101
  25 H :    0.114643
  26 H :    0.128471
  27 H :    0.129010
  28 H :    0.123428
  29 H :    0.134960
  30 H :    0.120564
  31 H :    0.113369
  32 H :    0.118240
  33 H :    0.133066
  34 H :    0.123414
  35 H :    0.124263
  36 H :    0.114232
  37 H :    0.124453
  38 H :    0.118446
  39 H :    0.130598
  40 H :    0.126559

  Mayer bond orders larger than 0.100000
B(  0-C ,  1-C ) :   1.1689 B(  0-C , 19-H ) :   0.9398 B(  0-C , 20-H ) :   0.9440
B(  0-C , 21-H ) :   0.9363 B(  1-C ,  2-O ) :   0.9092 B(  1-C , 22-H ) :   0.9354
B(  1-C , 23-H ) :   0.9273 B(  2-O ,  3-P ) :   1.1194 B(  3-P ,  4-S ) :   1.6459
B(  3-P ,  5-O ) :   1.0919 B(  3-P ,  8-S ) :   0.9482 B(  4-S ,  8-S ) :   0.1191
B(  4-S , 30-H ) :   0.1205 B(  5-O ,  6-C ) :   0.8978 B(  6-C ,  7-C ) :   1.1744
B(  6-C , 24-H ) :   0.9103 B(  6-C , 25-H ) :   0.9349 B(  7-C , 26-H ) :   0.9286
B(  7-C , 27-H ) :   0.9386 B(  7-C , 28-H ) :   0.9464 B(  8-S ,  9-C ) :   0.9941
B(  9-C , 10-S ) :   1.0012 B(  9-C , 29-H ) :   0.9119 B(  9-C , 30-H ) :   0.8410
B( 10-S , 11-P ) :   0.9442 B( 10-S , 12-S ) :   0.1127 B( 11-P , 12-S ) :   1.6562
B( 11-P , 13-O ) :   1.0729 B( 11-P , 16-O ) :   1.1313 B( 13-O , 14-C ) :   0.9031
B( 14-C , 15-C ) :   1.1657 B( 14-C , 31-H ) :   0.9157 B( 14-C , 32-H ) :   0.9335
B( 15-C , 33-H ) :   0.9369 B( 15-C , 34-H ) :   0.9435 B( 15-C , 35-H ) :   0.9311
B( 16-O , 17-C ) :   0.8990 B( 17-C , 18-C ) :   1.1702 B( 17-C , 36-H ) :   0.9279
B( 17-C , 37-H ) :   0.9335 B( 18-C , 38-H ) :   0.9383 B( 18-C , 39-H ) :   0.9358
B( 18-C , 40-H ) :   0.9449

Dispersion correction           -0.066846055
FINAL SINGLE POINT ENERGY     -2929.508179475285

DIPOLE MOMENT
-------------

Method             : SCF
Type of density    : Electron Density
Multiplicity       :   1
Irrep              :   0
Energy             : -2929.6267803119767450 Eh
Relativity type    :
Basis              : AO
                                X                 Y                 Z
Electronic contribution:      1.315777961       2.176524898      -3.839552525
Nuclear contribution   :     -1.710949945      -3.032329090       4.134400450
                        -----------------------------------------
Total Dipole Moment    :     -0.395171984      -0.855804192       0.294847925
                        -----------------------------------------
Magnitude (a.u.)       :      0.987672522
Magnitude (Debye)      :      2.510464042

Rotational constants in cm-1:             0.012651             0.005028             0.004849
Rotational constants in MHz :           379.254713           150.726885           145.372834

                             ****ORCA TERMINATED NORMALLY****
TOTAL RUN TIME: 0 days 0 hours 0 minutes 20 seconds 853 msec
