                         Program Version 6.0.0  -   RELEASE  -
|  1> ! pbe def2-sv(p) def2/J RI DEFGRID1 loosescf d4 GCP(DFT/SV(P)) printgap
|  2> %output
|  3>     printlevel normal
|  4> end
|  5> * xyz 0 1
|  6> C -2.4145651533 -0.7021647705 -0.0002817522
|  7> C -2.4145541499 0.7021008813 0.0001233643
|  8> C -1.2349087954 1.3922662335 0.0002862087
|  9> C 8.5299e-06 0.7099202358 5.8176e-05
| 10> C 1.2348863694 1.3923559436 -0.0001963986
| 11> C 2.4144599443 0.7021651846 -0.0002541217
| 12> C 2.414573967 -0.7021754754 0.0001382856
| 13> C 1.2349416724 -1.3923185662 0.000252975
| 14> C 3.51019e-05 -0.7098856179 6.78037e-05
| 15> C -1.2348624471 -1.3922544635 -0.0001756081
| 16> H -3.3559393114 -1.2312815552 -0.0007709745
| 17> H -3.3560010205 1.2310797643 0.0003925702
| 18> H -1.2295035962 2.4728046522 0.0007174741
| 19> H 1.2294632101 2.4728385301 -0.0005783117
| 20> H 3.3558844535 1.2311600628 -0.0005577868
| 21> H 3.3559577477 -1.2310554956 7.42557e-05
| 22> H 1.2293873846 -2.4728504422 0.0008651987
| 23> H -1.2294280865 -2.4728097441 -0.0003680439
| 24> *
| 25>
| 26>                          ****END OF INPUT****

CARTESIAN COORDINATES (ANGSTROEM)
---------------------------------
  C     -2.414565   -0.702165   -0.000282
  C     -2.414554    0.702101    0.000123
  C     -1.234909    1.392266    0.000286
  C      0.000009    0.709920    0.000058
  C      1.234886    1.392356   -0.000196
  C      2.414460    0.702165   -0.000254
  C      2.414574   -0.702175    0.000138
  C      1.234942   -1.392319    0.000253
  C      0.000035   -0.709886    0.000068
  C     -1.234862   -1.392254   -0.000176
  H     -3.355939   -1.231282   -0.000771
  H     -3.356001    1.231080    0.000393
  H     -1.229504    2.472805    0.000717
  H      1.229463    2.472839   -0.000578
  H      3.355884    1.231160   -0.000558
  H      3.355958   -1.231055    0.000074
  H      1.229387   -2.472850    0.000865
  H     -1.229428   -2.472810   -0.000368

 Total Charge           Charge          ....    0
 Multiplicity           Mult            ....    1
 Number of Electrons    NEL             ....   68
 Basis Dimension        Dim             ....  156

ORBITAL ENERGIES
----------------

  NO   OCC          E(Eh)            E(eV)
   0   2.0000      -9.904134      -269.5052
   1   2.0000      -9.904049      -269.5029
   2   2.0000      -9.894388      -269.2400
   3   2.0000      -9.894381      -269.2398
   4   2.0000      -9.894310      -269.2379
   5   2.0000      -9.894273      -269.2368
   6   2.0000      -9.893498      -269.2158
   7   2.0000      -9.893479      -269.2152
   8   2.0000      -9.893344      -269.2116
   9   2.0000      -9.893337      -269.2114
  10   2.0000      -0.795626       -21.6501
  11   2.0000      -0.744534       -20.2598
  12   2.0000      -0.697510       -18.9802
  13   2.0000      -0.667101       -18.1527
  14   2.0000      -0.645231       -17.5576
  15   2.0000      -0.562510       -15.3067
  16   2.0000      -0.548575       -14.9275
  17   2.0000      -0.538162       -14.6441
  18   2.0000      -0.466719       -12.7001
  19   2.0000      -0.452911       -12.3243
  20   2.0000      -0.446121       -12.1396
  21   2.0000      -0.398350       -10.8396
  22   2.0000      -0.396564       -10.7911
  23   2.0000      -0.372614       -10.1393
  24   2.0000      -0.372127       -10.1261
  25   2.0000      -0.357196        -9.7198
  26   2.0000      -0.354056        -9.6343
  27   2.0000      -0.326548        -8.8858
  28   2.0000      -0.298470        -8.1218
  29   2.0000      -0.296691        -8.0734
  30   2.0000      -0.290431        -7.9030
  31   2.0000      -0.260652        -7.0927
  32   2.0000      -0.226232        -6.1561
  33   2.0000      -0.198370        -5.3979
  34   0.0000      -0.069152        -1.8817
  35   0.0000      -0.040008        -1.0887
  36   0.0000      -0.006366        -0.1732
  37   0.0000       0.042298         1.1510
  38   0.0000       0.058352         1.5878

MULLIKEN ATOMIC CHARGES
-----------------------
   0 C :   -0.041725
   1 C :   -0.041733
   2 C :   -0.123375
   3 C :    0.146520
   4 C :   -0.123333
   5 C :   -0.041731
   6 C :   -0.041695
   7 C :   -0.123337
   8 C :    0.146546
   9 C :   -0.123425
  10 H :    0.053028
  11 H :    0.053027
  12 H :    0.038810
  13 H :    0.038784
  14 H :    0.053022
  15 H :    0.052990
  16 H :    0.038810
  17 H :    0.038816
Sum of atomic charges:    0.0000000

LOEWDIN ATOMIC CHARGES
----------------------
   0 C :   -0.124485
   1 C :   -0.124473
   2 C :   -0.110964
   3 C :   -0.025450
   4 C :   -0.110972
   5 C :   -0.124464
   6 C :   -0.124488
   7 C :   -0.110946
   8 C :   -0.025462
   9 C :   -0.110955
  10 H :    0.124428
  11 H :    0.124425
  12 H :    0.123738
  13 H :    0.123745
  14 H :    0.124421
  15 H :    0.124433
  16 H :    0.123738
  17 H :    0.123733

  Mayer bond orders larger than 0.100000
B(  0-C ,  1-C ) :   1.2584 B(  0-C ,  9-C ) :   1.4614 B(  0-C , 10-H ) :   0.9621
B(  1-C ,  2-C ) :   1.4613 B(  1-C , 11-H ) :   0.9621 B(  2-C ,  3-C ) :   1.2427
B(  2-C , 12-H ) :   0.9649 B(  3-C ,  4-C ) :   1.2426 B(  3-C ,  8-C ) :   1.2534
B(  4-C ,  5-C ) :   1.4615 B(  4-C , 13-H ) :   0.9649 B(  5-C ,  6-C ) :   1.2584
B(  5-C , 14-H ) :   0.9620 B(  6-C ,  7-C ) :   1.4614 B(  6-C , 15-H ) :   0.9621
B(  7-C ,  8-C ) :   1.2427 B(  7-C , 16-H ) :   0.9649 B(  8-C ,  9-C ) :   1.2427
B(  9-C , 17-H ) :   0.9649

Dispersion correction           -0.021919283
FINAL SINGLE POINT ENERGY      -385.051676995340

DIPOLE MOMENT
-------------

Method             : SCF
Type of density    : Electron Density
Multiplicity       :   1
Irrep              :   0
Energy             :  -385.0940833738520155 Eh
Relativity type    :
Basis              : AO
                                X                 Y                 Z
Electronic contribution:      0.000215904       0.000086921       0.000179159
Nuclear contribution   :     -0.000168138      -0.000107165      -0.000211668
                        -----------------------------------------
Total Dipole Moment    :      0.000047766      -0.000020244      -0.000032509
                        -----------------------------------------
Magnitude (a.u.)       :      0.000061224
Magnitude (Debye)      :      0.000155618

Rotational constants in cm-1:             0.105563             0.041638             0.029860
Rotational constants in MHz :          3164.707855          1248.261367           895.175665

                             ****ORCA TERMINATED NORMALLY****
TOTAL RUN TIME: 0 days 0 hours 0 minutes 8 seconds 713 msec
