                         Program Version 6.0.0  -   RELEASE  -
|  1> ! pbe def2-sv(p) def2/J RI DEFGRID1 loosescf d4 GCP(DFT/SV(P)) printgap
|  2> %output
|  3>     printlevel normal
|  4> end
|  5> * xyz 0 1
|  6> C 3.3767673391 -2.7053912052 -1.7337890998
|  7> C 4.129576532 -1.7639106438 -0.8149200142
|  8> O 3.2413352324 -0.9546835713 -0.0259440602
|  9> P 2.3658265008 0.2128974474 -0.6766070602
| 10> S 3.2462411739 1.2120775986 -2.11129933
| 11> O 1.9435523118 1.0344225856 0.6106214714
| 12> C 2.6838616556 2.1778805362 1.0758624589
| 13> C 4.0245810638 1.7786272825 1.6544981896
| 14> S 0.5149741816 -0.6709195782 -1.1380514362
| 15> C 0.1461236646 -1.3978154544 0.5079554933
| 16> S -1.6128537662 -1.7434143808 0.6475034971
| 17> P -2.2893145198 0.2802936377 0.6069248993
| 18> S -1.1511605444 1.5640863606 1.5444410881
| 19> O -3.7695394315 0.1403703185 1.1693592718
| 20> C -4.0194280787 -0.1607962047 2.5586448995
| 21> C -5.4756337308 0.1451235132 2.8437123037
| 22> O -2.5499955506 0.6920224097 -0.8882250766
| 23> C -3.4293688308 -0.0368115094 -1.7875161224
| 24> C -2.6220822188 -0.8337829799 -2.7918488703
| 25> H 2.6957760704 -3.3338243697 -1.165869817
| 26> H 2.8037776579 -2.1322665134 -2.4624315021
| 27> H 4.0868329142 -3.3338671136 -2.2616313133
| 28> H 4.7757315544 -1.0993947157 -1.3973266425
| 29> H 4.7211701284 -2.3052503846 -0.0754351823
| 30> H 2.8122271654 2.8716146283 0.2386836453
| 31> H 2.0246346988 2.622167316 1.824163724
| 32> H 4.5056718026 2.6540242186 2.0790732596
| 33> H 3.891660707 1.0266930553 2.4277617198
| 34> H 4.658516813 1.3714574516 0.8676946869
| 35> H 0.4336712473 -0.6792085158 1.2747728254
| 36> H 0.6678746679 -2.3445658268 0.616360033
| 37> H -3.7913862289 -1.2170896865 2.7237295487
| 38> H -3.3517579804 0.4525702422 3.1724015888
| 39> H -5.6898448159 -0.082001439 3.8827673769
| 40> H -5.6799410962 1.1956300483 2.6565505145
| 41> H -6.114395733 -0.4569839503 2.2043584017
| 42> H -4.085807267 -0.6807499571 -1.1996812298
| 43> H -4.0179006299 0.7398290759 -2.278238872
| 44> H -1.9173035762 -0.1846553237 -3.3046341831
| 45> H -2.061501969 -1.6245496235 -2.299193281
| 46> H -3.2986299762 -1.2743688574 -3.5170640855
| 47> *
| 48>
| 49>                          ****END OF INPUT****

CARTESIAN COORDINATES (ANGSTROEM)
---------------------------------
  C      3.376767   -2.705391   -1.733789
  C      4.129577   -1.763911   -0.814920
  O      3.241335   -0.954684   -0.025944
  P      2.365827    0.212897   -0.676607
  S      3.246241    1.212078   -2.111299
  O      1.943552    1.034423    0.610621
  C      2.683862    2.177881    1.075862
  C      4.024581    1.778627    1.654498
  S      0.514974   -0.670920   -1.138051
  C      0.146124   -1.397815    0.507955
  S     -1.612854   -1.743414    0.647503
  P     -2.289315    0.280294    0.606925
  S     -1.151161    1.564086    1.544441
  O     -3.769539    0.140370    1.169359
  C     -4.019428   -0.160796    2.558645
  C     -5.475634    0.145124    2.843712
  O     -2.549996    0.692022   -0.888225
  C     -3.429369   -0.036812   -1.787516
  C     -2.622082   -0.833783   -2.791849
  H      2.695776   -3.333824   -1.165870
  H      2.803778   -2.132267   -2.462432
  H      4.086833   -3.333867   -2.261631
  H      4.775732   -1.099395   -1.397327
  H      4.721170   -2.305250   -0.075435
  H      2.812227    2.871615    0.238684
  H      2.024635    2.622167    1.824164
  H      4.505672    2.654024    2.079073
  H      3.891661    1.026693    2.427762
  H      4.658517    1.371457    0.867695
  H      0.433671   -0.679209    1.274773
  H      0.667875   -2.344566    0.616360
  H     -3.791386   -1.217090    2.723730
  H     -3.351758    0.452570    3.172402
  H     -5.689845   -0.082001    3.882767
  H     -5.679941    1.195630    2.656551
  H     -6.114396   -0.456984    2.204358
  H     -4.085807   -0.680750   -1.199681
  H     -4.017901    0.739829   -2.278239
  H     -1.917304   -0.184655   -3.304634
  H     -2.061502   -1.624550   -2.299193
  H     -3.298630   -1.274369   -3.517064

 Total Charge           Charge          ....    0
 Multiplicity           Mult            ....    1
 Number of Electrons    NEL             ....  202
 Basis Dimension        Dim             ....  334

ORBITAL ENERGIES
----------------

  NO   OCC          E(Eh)            E(eV)
   0   2.0000     -88.049959     -2395.9612
   1   2.0000     -88.038634     -2395.6530
   2   2.0000     -87.985092     -2394.1961
   3   2.0000     -87.982577     -2394.1276
   4   2.0000     -76.426100     -2079.6599
   5   2.0000     -76.421790     -2079.5426
   6   2.0000     -18.795781      -511.4592
   7   2.0000     -18.791100      -511.3318
   8   2.0000     -18.788732      -511.2674
   9   2.0000     -18.783245      -511.1181
  10   2.0000      -9.956643      -270.9340
  11   2.0000      -9.956386      -270.9270
  12   2.0000      -9.955607      -270.9058
  13   2.0000      -9.950923      -270.7784
  14   2.0000      -9.944502      -270.6036
  15   2.0000      -9.891513      -269.1618
  16   2.0000      -9.884626      -268.9743
  17   2.0000      -9.883499      -268.9437
  18   2.0000      -9.879090      -268.8237
  19   2.0000      -7.694929      -209.3897
  20   2.0000      -7.683497      -209.0786
  21   2.0000      -7.630245      -207.6295
  22   2.0000      -7.627787      -207.5626
  23   2.0000      -6.423623      -174.7957
  24   2.0000      -6.419640      -174.6873
  25   2.0000      -5.722602      -155.7199
  26   2.0000      -5.719427      -155.6335
  27   2.0000      -5.712166      -155.4359
  28   2.0000      -5.711860      -155.4276
  29   2.0000      -5.707913      -155.3202
  30   2.0000      -5.700100      -155.1076
  31   2.0000      -5.659201      -153.9947
  32   2.0000      -5.656822      -153.9300
  33   2.0000      -5.650882      -153.7683
  34   2.0000      -5.650367      -153.7543
  35   2.0000      -5.648138      -153.6936
  36   2.0000      -5.648060      -153.6915
  37   2.0000      -4.646453      -126.4364
  38   2.0000      -4.645482      -126.4100
  39   2.0000      -4.643739      -126.3626
  40   2.0000      -4.641924      -126.3132
  41   2.0000      -4.641598      -126.3043
  42   2.0000      -4.640181      -126.2658
  43   2.0000      -0.989777       -26.9332
  44   2.0000      -0.981883       -26.7184
  45   2.0000      -0.945746       -25.7351
  46   2.0000      -0.940870       -25.6024
  47   2.0000      -0.764509       -20.8033
  48   2.0000      -0.721884       -19.6435
  49   2.0000      -0.709930       -19.3182
  50   2.0000      -0.692838       -18.8531
  51   2.0000      -0.684731       -18.6325
  52   2.0000      -0.672378       -18.2963
  53   2.0000      -0.649987       -17.6870
  54   2.0000      -0.636838       -17.3292
  55   2.0000      -0.594627       -16.1806
  56   2.0000      -0.587028       -15.9738
  57   2.0000      -0.573718       -15.6117
  58   2.0000      -0.568479       -15.4691
  59   2.0000      -0.564418       -15.3586
  60   2.0000      -0.511010       -13.9053
  61   2.0000      -0.490139       -13.3374
  62   2.0000      -0.479737       -13.0543
  63   2.0000      -0.469124       -12.7655
  64   2.0000      -0.453578       -12.3425
  65   2.0000      -0.446928       -12.1615
  66   2.0000      -0.441015       -12.0006
  67   2.0000      -0.436495       -11.8776
  68   2.0000      -0.434948       -11.8355
  69   2.0000      -0.419187       -11.4066
  70   2.0000      -0.408837       -11.1250
  71   2.0000      -0.393669       -10.7123
  72   2.0000      -0.387681       -10.5493
  73   2.0000      -0.386604       -10.5200
  74   2.0000      -0.384179       -10.4541
  75   2.0000      -0.375016       -10.2047
  76   2.0000      -0.367527       -10.0009
  77   2.0000      -0.354359        -9.6426
  78   2.0000      -0.353536        -9.6202
  79   2.0000      -0.352282        -9.5861
  80   2.0000      -0.345775        -9.4090
  81   2.0000      -0.344603        -9.3771
  82   2.0000      -0.341327        -9.2880
  83   2.0000      -0.335764        -9.1366
  84   2.0000      -0.328250        -8.9321
  85   2.0000      -0.319709        -8.6997
  86   2.0000      -0.313142        -8.5210
  87   2.0000      -0.304461        -8.2848
  88   2.0000      -0.296948        -8.0804
  89   2.0000      -0.293292        -7.9809
  90   2.0000      -0.282159        -7.6779
  91   2.0000      -0.274427        -7.4675
  92   2.0000      -0.267023        -7.2661
  93   2.0000      -0.263923        -7.1817
  94   2.0000      -0.259088        -7.0501
  95   2.0000      -0.235622        -6.4116
  96   2.0000      -0.216324        -5.8865
  97   2.0000      -0.205580        -5.5941
  98   2.0000      -0.202783        -5.5180
  99   2.0000      -0.199340        -5.4243
 100   2.0000      -0.197896        -5.3850
 101   0.0000      -0.044916        -1.2222
 102   0.0000      -0.023282        -0.6335
 103   0.0000      -0.014061        -0.3826
 104   0.0000       0.005148         0.1401
 105   0.0000       0.011250         0.3061

MULLIKEN ATOMIC CHARGES
-----------------------
   0 C :   -0.312897
   1 C :   -0.007049
   2 O :   -0.386138
   3 P :    0.621615
   4 S :   -0.322071
   5 O :   -0.366380
   6 C :   -0.000515
   7 C :   -0.306125
   8 S :   -0.083351
   9 C :   -0.354504
  10 S :   -0.119440
  11 P :    0.602673
  12 S :   -0.301853
  13 O :   -0.383564
  14 C :   -0.011320
  15 C :   -0.280489
  16 O :   -0.346552
  17 C :   -0.015060
  18 C :   -0.290702
  19 H :    0.112193
  20 H :    0.128437
  21 H :    0.112457
  22 H :    0.111160
  23 H :    0.103438
  24 H :    0.112700
  25 H :    0.109902
  26 H :    0.111129
  27 H :    0.114496
  28 H :    0.119137
  29 H :    0.212170
  30 H :    0.179856
  31 H :    0.103431
  32 H :    0.105830
  33 H :    0.113422
  34 H :    0.123449
  35 H :    0.114379
  36 H :    0.103281
  37 H :    0.113433
  38 H :    0.128975
  39 H :    0.121768
  40 H :    0.108681
Sum of atomic charges:    0.0000000

LOEWDIN ATOMIC CHARGES
----------------------
   0 C :   -0.367316
   1 C :   -0.121811
   2 O :   -0.252454
   3 P :    0.568798
   4 S :   -0.320564
   5 O :   -0.233155
   6 C :   -0.114004
   7 C :   -0.364747
   8 S :    0.090476
   9 C :   -0.473983
  10 S :    0.068998
  11 P :    0.564146
  12 S :   -0.299667
  13 O :   -0.251418
  14 C :   -0.120134
  15 C :   -0.350274
  16 O :   -0.229724
  17 C :   -0.109865
  18 C :   -0.363478
  19 H :    0.121465
  20 H :    0.122274
  21 H :    0.130818
  22 H :    0.109816
  23 H :    0.117408
  24 H :    0.112126
  25 H :    0.119330
  26 H :    0.129887
  27 H :    0.125339
  28 H :    0.121363
  29 H :    0.128746
  30 H :    0.129794
  31 H :    0.107820
  32 H :    0.110173
  33 H :    0.131643
  34 H :    0.130471
  35 H :    0.125852
  36 H :    0.108048
  37 H :    0.123558
  38 H :    0.131150
  39 H :    0.114006
  40 H :    0.129086

  Mayer bond orders larger than 0.100000
B(  0-C ,  1-C ) :   1.1634 B(  0-C , 19-H ) :   0.9454 B(  0-C , 20-H ) :   0.9351
B(  0-C , 21-H ) :   0.9384 B(  1-C ,  2-O ) :   0.9164 B(  1-C , 22-H ) :   0.9135
B(  1-C , 23-H ) :   0.9341 B(  2-O ,  3-P ) :   1.0607 B(  3-P ,  4-S ) :   1.6331
B(  3-P ,  5-O ) :   1.1174 B(  3-P ,  8-S ) :   0.9778 B(  5-O ,  6-C ) :   0.9059
B(  6-C ,  7-C ) :   1.1617 B(  6-C , 24-H ) :   0.9188 B(  6-C , 25-H ) :   0.9313
B(  7-C , 26-H ) :   0.9394 B(  7-C , 27-H ) :   0.9469 B(  7-C , 28-H ) :   0.9373
B(  8-S ,  9-C ) :   0.9635 B(  9-C , 10-S ) :   1.0246 B(  9-C , 29-H ) :   0.8622
B(  9-C , 30-H ) :   0.9037 B( 10-S , 11-P ) :   0.9203 B( 10-S , 12-S ) :   0.1113
B( 11-P , 12-S ) :   1.6722 B( 11-P , 13-O ) :   1.0847 B( 11-P , 16-O ) :   1.1515
B( 13-O , 14-C ) :   0.9027 B( 14-C , 15-C ) :   1.1608 B( 14-C , 31-H ) :   0.9282
B( 14-C , 32-H ) :   0.9100 B( 15-C , 33-H ) :   0.9416 B( 15-C , 34-H ) :   0.9505
B( 15-C , 35-H ) :   0.9512 B( 16-O , 17-C ) :   0.8915 B( 17-C , 18-C ) :   1.1669
B( 17-C , 36-H ) :   0.9190 B( 17-C , 37-H ) :   0.9340 B( 18-C , 38-H ) :   0.9434
B( 18-C , 39-H ) :   0.9318 B( 18-C , 40-H ) :   0.9381

Dispersion correction           -0.063496691
FINAL SINGLE POINT ENERGY     -2929.518000168825

DIPOLE MOMENT
-------------

Method             : SCF
Type of density    : Electron Density
Multiplicity       :   1
Irrep              :   0
Energy             : -2929.6393064766102725 Eh
Relativity type    :
Basis              : AO
                                X                 Y                 Z
Electronic contribution:      1.217930356       6.402086821      -3.184223784
Nuclear contribution   :     -1.925572720      -7.769249774       3.864770407
                        -----------------------------------------
Total Dipole Moment    :     -0.707642364      -1.367162953       0.680546623
                        -----------------------------------------
Magnitude (a.u.)       :      1.683162488
Magnitude (Debye)      :      4.278259046

Rotational constants in cm-1:             0.012941             0.004548             0.004105
Rotational constants in MHz :           387.948057           136.343029           123.050141

                             ****ORCA TERMINATED NORMALLY****
TOTAL RUN TIME: 0 days 0 hours 0 minutes 20 seconds 575 msec
