                         Program Version 6.0.0  -   RELEASE  -
|  1> ! pbe def2-sv(p) def2/J RI DEFGRID1 loosescf d4 GCP(DFT/SV(P)) printgap
|  2> %output
|  3>     printlevel normal
|  4> end
|  5> * xyz 0 1
|  6> C 3.776158367 1.7922310489 -0.4422906995
|  7> C 2.5901080247 1.3253922037 -1.2586181747
|  8> O 1.633173851 0.6065965934 -0.4512933268
|  9> P 1.934423531 -0.7462773818 0.3102315403
| 10> S 2.6452013133 -0.6141377072 2.136325518
| 11> O 2.826595345 -1.5304270709 -0.7412952798
| 12> C 3.4588046015 -2.7891890863 -0.4196992189
| 13> C 4.9089277782 -2.5715629393 -0.034884124
| 14> S 0.0651482386 -1.7307397801 0.1968986491
| 15> C -0.6553682996 -1.0123495081 1.6957345326
| 16> S -0.7963975332 0.7990589051 1.6119530349
| 17> P -1.9296457843 0.9811908441 -0.1583782924
| 18> S -1.1561960499 0.962218635 -1.9620054943
| 19> O -2.5355966041 2.3906280491 0.2614639043
| 20> C -3.1137116158 3.2958831682 -0.6969689213
| 21> C -4.4236224532 2.768292964 -1.2471141277
| 22> O -3.0920330452 -0.0806804565 0.0763478452
| 23> C -3.5779219511 -1.0264775 -0.8983938486
| 24> C -3.4280492648 -2.4425276644 -0.3797926514
| 25> H 4.318684692 0.9322078221 -0.0507901511
| 26> H 4.4398247133 2.3775790812 -1.0707666499
| 27> H 3.4419536949 2.399499923 0.396121349
| 28> H 2.9015273344 0.6763429109 -2.0795817641
| 29> H 2.0089021111 2.1614294178 -1.6527201804
| 30> H 2.9089110784 -3.2736520642 0.3911803989
| 31> H 3.3696714632 -3.3842699052 -1.3300946991
| 32> H 5.4343310836 -2.049052709 -0.829504405
| 33> H 4.9689958846 -1.9826897649 0.8781049194
| 34> H 5.3805215664 -3.5339575692 0.1349096953
| 35> H -0.0057472509 -1.2206412773 2.546567049
| 36> H -1.6386892144 -1.4569573573 1.8269880296
| 37> H -3.251835762 4.220788037 -0.135346825
| 38> H -2.392942727 3.4545794558 -1.5060480095
| 39> H -5.0967647393 2.515354958 -0.4320181087
| 40> H -4.8828914684 3.5263089928 -1.8737447634
| 41> H -4.2382489045 1.8780414905 -1.8473930108
| 42> H -4.6295055743 -0.7762517762 -1.0546695542
| 43> H -3.0244391205 -0.8859939748 -1.8333123498
| 44> H -3.8902371168 -3.1236795455 -1.0868572111
| 45> H -2.3761537799 -2.7029354535 -0.2767353554
| 46> H -3.919858858 -2.5420397046 0.5838909246
| 47> *
| 48>
| 49>                          ****END OF INPUT****

CARTESIAN COORDINATES (ANGSTROEM)
---------------------------------
  C      3.776158    1.792231   -0.442291
  C      2.590108    1.325392   -1.258618
  O      1.633174    0.606597   -0.451293
  P      1.934424   -0.746277    0.310232
  S      2.645201   -0.614138    2.136326
  O      2.826595   -1.530427   -0.741295
  C      3.458805   -2.789189   -0.419699
  C      4.908928   -2.571563   -0.034884
  S      0.065148   -1.730740    0.196899
  C     -0.655368   -1.012350    1.695735
  S     -0.796398    0.799059    1.611953
  P     -1.929646    0.981191   -0.158378
  S     -1.156196    0.962219   -1.962005
  O     -2.535597    2.390628    0.261464
  C     -3.113712    3.295883   -0.696969
  C     -4.423622    2.768293   -1.247114
  O     -3.092033   -0.080680    0.076348
  C     -3.577922   -1.026477   -0.898394
  C     -3.428049   -2.442528   -0.379793
  H      4.318685    0.932208   -0.050790
  H      4.439825    2.377579   -1.070767
  H      3.441954    2.399500    0.396121
  H      2.901527    0.676343   -2.079582
  H      2.008902    2.161429   -1.652720
  H      2.908911   -3.273652    0.391180
  H      3.369671   -3.384270   -1.330095
  H      5.434331   -2.049053   -0.829504
  H      4.968996   -1.982690    0.878105
  H      5.380522   -3.533958    0.134910
  H     -0.005747   -1.220641    2.546567
  H     -1.638689   -1.456957    1.826988
  H     -3.251836    4.220788   -0.135347
  H     -2.392943    3.454579   -1.506048
  H     -5.096765    2.515355   -0.432018
  H     -4.882891    3.526309   -1.873745
  H     -4.238249    1.878041   -1.847393
  H     -4.629506   -0.776252   -1.054670
  H     -3.024439   -0.885994   -1.833312
  H     -3.890237   -3.123680   -1.086857
  H     -2.376154   -2.702935   -0.276735
  H     -3.919859   -2.542040    0.583891

 Total Charge           Charge          ....    0
 Multiplicity           Mult            ....    1
 Number of Electrons    NEL             ....  202
 Basis Dimension        Dim             ....  334

ORBITAL ENERGIES
----------------

  NO   OCC          E(Eh)            E(eV)
   0   2.0000     -88.040442     -2395.7022
   1   2.0000     -88.034650     -2395.5446
   2   2.0000     -87.983327     -2394.1480
   3   2.0000     -87.980920     -2394.0825
   4   2.0000     -76.425628     -2079.6471
   5   2.0000     -76.421280     -2079.5288
   6   2.0000     -18.796692      -511.4840
   7   2.0000     -18.791621      -511.3460
   8   2.0000     -18.785038      -511.1669
   9   2.0000     -18.780364      -511.0397
  10   2.0000      -9.957184      -270.9488
  11   2.0000      -9.953284      -270.8426
  12   2.0000      -9.951609      -270.7970
  13   2.0000      -9.948113      -270.7019
  14   2.0000      -9.946262      -270.6515
  15   2.0000      -9.888846      -269.0892
  16   2.0000      -9.884762      -268.9780
  17   2.0000      -9.884177      -268.9621
  18   2.0000      -9.878345      -268.8034
  19   2.0000      -7.685264      -209.1267
  20   2.0000      -7.679938      -208.9817
  21   2.0000      -7.628469      -207.5812
  22   2.0000      -7.625933      -207.5122
  23   2.0000      -6.422759      -174.7722
  24   2.0000      -6.418713      -174.6621
  25   2.0000      -5.713135      -155.4623
  26   2.0000      -5.709855      -155.3730
  27   2.0000      -5.708145      -155.3265
  28   2.0000      -5.704508      -155.2276
  29   2.0000      -5.702187      -155.1644
  30   2.0000      -5.696453      -155.0084
  31   2.0000      -5.657291      -153.9427
  32   2.0000      -5.654740      -153.8733
  33   2.0000      -5.649175      -153.7219
  34   2.0000      -5.648656      -153.7078
  35   2.0000      -5.646448      -153.6477
  36   2.0000      -5.646275      -153.6429
  37   2.0000      -4.645935      -126.4223
  38   2.0000      -4.644265      -126.3769
  39   2.0000      -4.643008      -126.3427
  40   2.0000      -4.641443      -126.3001
  41   2.0000      -4.640362      -126.2707
  42   2.0000      -4.639162      -126.2380
  43   2.0000      -0.986283       -26.8381
  44   2.0000      -0.980096       -26.6698
  45   2.0000      -0.942733       -25.6531
  46   2.0000      -0.940380       -25.5890
  47   2.0000      -0.762141       -20.7389
  48   2.0000      -0.720616       -19.6090
  49   2.0000      -0.706624       -19.2282
  50   2.0000      -0.688261       -18.7285
  51   2.0000      -0.686396       -18.6778
  52   2.0000      -0.666984       -18.1495
  53   2.0000      -0.648023       -17.6336
  54   2.0000      -0.636957       -17.3325
  55   2.0000      -0.596681       -16.2365
  56   2.0000      -0.588202       -16.0058
  57   2.0000      -0.574668       -15.6375
  58   2.0000      -0.572425       -15.5765
  59   2.0000      -0.558182       -15.1889
  60   2.0000      -0.502822       -13.6825
  61   2.0000      -0.495245       -13.4763
  62   2.0000      -0.475934       -12.9508
  63   2.0000      -0.470150       -12.7934
  64   2.0000      -0.455472       -12.3940
  65   2.0000      -0.440609       -11.9896
  66   2.0000      -0.437781       -11.9126
  67   2.0000      -0.432979       -11.7819
  68   2.0000      -0.424647       -11.5552
  69   2.0000      -0.407492       -11.0884
  70   2.0000      -0.398866       -10.8537
  71   2.0000      -0.396260       -10.7828
  72   2.0000      -0.394083       -10.7235
  73   2.0000      -0.389690       -10.6040
  74   2.0000      -0.384041       -10.4503
  75   2.0000      -0.373047       -10.1511
  76   2.0000      -0.365539        -9.9468
  77   2.0000      -0.358739        -9.7618
  78   2.0000      -0.351971        -9.5776
  79   2.0000      -0.350943        -9.5497
  80   2.0000      -0.347838        -9.4652
  81   2.0000      -0.340561        -9.2671
  82   2.0000      -0.336655        -9.1609
  83   2.0000      -0.334605        -9.1051
  84   2.0000      -0.333220        -9.0674
  85   2.0000      -0.326038        -8.8719
  86   2.0000      -0.309747        -8.4286
  87   2.0000      -0.300303        -8.1717
  88   2.0000      -0.292777        -7.9669
  89   2.0000      -0.285475        -7.7682
  90   2.0000      -0.278350        -7.5743
  91   2.0000      -0.274409        -7.4670
  92   2.0000      -0.272089        -7.4039
  93   2.0000      -0.259766        -7.0686
  94   2.0000      -0.255547        -6.9538
  95   2.0000      -0.239275        -6.5110
  96   2.0000      -0.211696        -5.7606
  97   2.0000      -0.204091        -5.5536
  98   2.0000      -0.199357        -5.4248
  99   2.0000      -0.192981        -5.2513
 100   2.0000      -0.190306        -5.1785
 101   0.0000      -0.048148        -1.3102
 102   0.0000      -0.026749        -0.7279
 103   0.0000      -0.000683        -0.0186
 104   0.0000       0.004214         0.1147
 105   0.0000       0.024870         0.6768

MULLIKEN ATOMIC CHARGES
-----------------------
   0 C :   -0.317471
   1 C :    0.005434
   2 O :   -0.353165
   3 P :    0.649740
   4 S :   -0.334984
   5 O :   -0.384327
   6 C :   -0.007249
   7 C :   -0.295191
   8 S :   -0.112224
   9 C :   -0.365633
  10 S :   -0.061153
  11 P :    0.632511
  12 S :   -0.321960
  13 O :   -0.377168
  14 C :   -0.002543
  15 C :   -0.315667
  16 O :   -0.385551
  17 C :   -0.017227
  18 C :   -0.304627
  19 H :    0.124834
  20 H :    0.107867
  21 H :    0.126669
  22 H :    0.106080
  23 H :    0.108068
  24 H :    0.103554
  25 H :    0.108647
  26 H :    0.113392
  27 H :    0.131631
  28 H :    0.109910
  29 H :    0.193309
  30 H :    0.186959
  31 H :    0.104930
  32 H :    0.110142
  33 H :    0.117406
  34 H :    0.112624
  35 H :    0.121131
  36 H :    0.103399
  37 H :    0.114941
  38 H :    0.112818
  39 H :    0.132208
  40 H :    0.117939
Sum of atomic charges:   -0.0000000

LOEWDIN ATOMIC CHARGES
----------------------
   0 C :   -0.366064
   1 C :   -0.108525
   2 O :   -0.232958
   3 P :    0.575633
   4 S :   -0.322271
   5 O :   -0.246050
   6 C :   -0.114257
   7 C :   -0.362394
   8 S :    0.079214
   9 C :   -0.479295
  10 S :    0.106337
  11 P :    0.566066
  12 S :   -0.310183
  13 O :   -0.249670
  14 C :   -0.120073
  15 C :   -0.365599
  16 O :   -0.251554
  17 C :   -0.121269
  18 C :   -0.359961
  19 H :    0.120408
  20 H :    0.127971
  21 H :    0.131220
  22 H :    0.111707
  23 H :    0.119991
  24 H :    0.109783
  25 H :    0.119202
  26 H :    0.124662
  27 H :    0.126153
  28 H :    0.130066
  29 H :    0.130701
  30 H :    0.130877
  31 H :    0.118757
  32 H :    0.108985
  33 H :    0.126047
  34 H :    0.130813
  35 H :    0.120389
  36 H :    0.114235
  37 H :    0.107361
  38 H :    0.132709
  39 H :    0.115845
  40 H :    0.124988

  Mayer bond orders larger than 0.100000
B(  0-C ,  1-C ) :   1.1639 B(  0-C , 19-H ) :   0.9361 B(  0-C , 20-H ) :   0.9374
B(  0-C , 21-H ) :   0.9448 B(  1-C ,  2-O ) :   0.9044 B(  1-C , 22-H ) :   0.9303
B(  1-C , 23-H ) :   0.9289 B(  2-O ,  3-P ) :   1.1415 B(  3-P ,  4-S ) :   1.6132
B(  3-P ,  5-O ) :   1.0884 B(  3-P ,  8-S ) :   0.9348 B(  4-S ,  8-S ) :   0.1157
B(  5-O ,  6-C ) :   0.8985 B(  6-C ,  7-C ) :   1.1698 B(  6-C , 24-H ) :   0.9133
B(  6-C , 25-H ) :   0.9349 B(  7-C , 26-H ) :   0.9464 B(  7-C , 27-H ) :   0.9323
B(  7-C , 28-H ) :   0.9394 B(  8-S ,  9-C ) :   1.0084 B(  9-C , 10-S ) :   1.0046
B(  9-C , 29-H ) :   0.8821 B(  9-C , 30-H ) :   0.8982 B( 10-S , 11-P ) :   0.9690
B( 10-S , 12-S ) :   0.1055 B( 11-P , 12-S ) :   1.6098 B( 11-P , 13-O ) :   1.1130
B( 11-P , 16-O ) :   1.0903 B( 13-O , 14-C ) :   0.9168 B( 14-C , 15-C ) :   1.1605
B( 14-C , 31-H ) :   0.9341 B( 14-C , 32-H ) :   0.9131 B( 15-C , 33-H ) :   0.9465
B( 15-C , 34-H ) :   0.9392 B( 15-C , 35-H ) :   0.9332 B( 16-O , 17-C ) :   0.9089
B( 17-C , 18-C ) :   1.1671 B( 17-C , 36-H ) :   0.9307 B( 17-C , 37-H ) :   0.8963
B( 18-C , 38-H ) :   0.9377 B( 18-C , 39-H ) :   0.9311 B( 18-C , 40-H ) :   0.9443

Dispersion correction           -0.066776472
FINAL SINGLE POINT ENERGY     -2929.516804411102

DIPOLE MOMENT
-------------

Method             : SCF
Type of density    : Electron Density
Multiplicity       :   1
Irrep              :   0
Energy             : -2929.6345062525442700 Eh
Relativity type    :
Basis              : AO
                                X                 Y                 Z
Electronic contribution:     -0.250756689       2.277760302       9.051868376
Nuclear contribution   :     -0.206733399      -2.789963150      -9.870626186
                        -----------------------------------------
Total Dipole Moment    :     -0.457490088      -0.512202848      -0.818757811
                        -----------------------------------------
Magnitude (a.u.)       :      1.068650219
Magnitude (Debye)      :      2.716292990

Rotational constants in cm-1:             0.013519             0.005038             0.004573
Rotational constants in MHz :           405.296701           151.024176           137.090383

                             ****ORCA TERMINATED NORMALLY****
TOTAL RUN TIME: 0 days 0 hours 0 minutes 21 seconds 26 msec
