                         Program Version 6.0.1  -  RELEASE   -
|  1> ! pbe def2-sv(p) def2/J RI DEFGRID1 loosescf d4 GCP(DFT/SV(P)) printgap
|  2> %output
|  3>     printlevel normal
|  4> end
|  5> * xyz 0 1
|  6> C 3.7219923806 -1.0651536147 1.8279436116
|  7> C 2.8122783566 -1.959576765 1.0026198327
|  8> O 2.5453839597 -1.3779970564 -0.2899453711
|  9> C 1.5690419303 -0.5231457731 -0.4239994813
| 10> O 0.8474415658 -0.1293284941 0.481543213
| 11> C 1.3967911152 -0.0390886719 -1.8421160354
| 12> C 0.2440880311 0.9526499574 -1.8784876368
| 13> H 0.1947618808 1.4531862776 -2.8491791195
| 14> C 0.3699661288 2.0122321842 -0.7914098872
| 15> O -0.5568962262 2.4322639933 -0.1396611515
| 16> O 1.6100765839 2.4557471412 -0.7224048551
| 17> C 1.9278919725 3.4784674757 0.2445342209
| 18> C 2.6100200451 2.8648832467 1.4557904779
| 19> S -1.3978118428 0.1616712032 -1.7589533391
| 20> P -1.6931344761 -0.7601632346 0.1296872286
| 21> S -0.8599886957 -2.4864991757 0.5894924437
| 22> O -1.8355396091 0.3273561865 1.2687582032
| 23> C -1.0853255903 0.3830454537 2.4779428156
| 24> O -3.2735973 -0.9702956025 -0.0550972048
| 25> C -3.8042679941 -1.9499914454 -0.9505788144
| 26> H 4.6357220087 -0.8546081844 1.2791978086
| 27> H 3.2207063065 -0.1289690126 2.0612420805
| 28> H 3.9694384937 -1.5701202506 2.7556409214
| 29> H 1.8598658387 -2.1381299253 1.5092816714
| 30> H 3.2906964915 -2.9108020817 0.7705239295
| 31> H 1.1994530006 -0.8909815857 -2.4943920832
| 32> H 2.3231910051 0.4383933614 -2.165385818
| 33> H 2.5933799051 4.1644632564 -0.2808467947
| 34> H 1.0026770724 3.9876927551 0.5281086017
| 35> H 1.9587415598 2.1192438219 1.9092646634
| 36> H 3.5410681668 2.3880879107 1.1618529306
| 37> H 2.8182897987 3.6406657277 2.1849839169
| 38> H -0.5754562572 -0.565123653 2.6581335639
| 39> H -1.7991164648 0.5896479051 3.2726455217
| 40> H -0.3567294405 1.1883677076 2.3968394795
| 41> H -3.7266989662 -1.5999692785 -1.9798373216
| 42> H -4.8461904386 -2.072811716 -0.6654093032
| 43> H -3.2658785792 -2.8933176331 -0.8352403838
| 44> *
| 45>
| 46>                          ****END OF INPUT****

CARTESIAN COORDINATES (ANGSTROEM)
---------------------------------
  C      3.721992   -1.065154    1.827944
  C      2.812278   -1.959577    1.002620
  O      2.545384   -1.377997   -0.289945
  C      1.569042   -0.523146   -0.423999
  O      0.847442   -0.129328    0.481543
  C      1.396791   -0.039089   -1.842116
  C      0.244088    0.952650   -1.878488
  H      0.194762    1.453186   -2.849179
  C      0.369966    2.012232   -0.791410
  O     -0.556896    2.432264   -0.139661
  O      1.610077    2.455747   -0.722405
  C      1.927892    3.478467    0.244534
  C      2.610020    2.864883    1.455790
  S     -1.397812    0.161671   -1.758953
  P     -1.693134   -0.760163    0.129687
  S     -0.859989   -2.486499    0.589492
  O     -1.835540    0.327356    1.268758
  C     -1.085326    0.383045    2.477943
  O     -3.273597   -0.970296   -0.055097
  C     -3.804268   -1.949991   -0.950579
  H      4.635722   -0.854608    1.279198
  H      3.220706   -0.128969    2.061242
  H      3.969438   -1.570120    2.755641
  H      1.859866   -2.138130    1.509282
  H      3.290696   -2.910802    0.770524
  H      1.199453   -0.890982   -2.494392
  H      2.323191    0.438393   -2.165386
  H      2.593380    4.164463   -0.280847
  H      1.002677    3.987693    0.528109
  H      1.958742    2.119244    1.909265
  H      3.541068    2.388088    1.161853
  H      2.818290    3.640666    2.184984
  H     -0.575456   -0.565124    2.658134
  H     -1.799116    0.589648    3.272646
  H     -0.356729    1.188368    2.396839
  H     -3.726699   -1.599969   -1.979837
  H     -4.846190   -2.072812   -0.665409
  H     -3.265879   -2.893318   -0.835240

 Total Charge           Charge          ....    0
 Multiplicity           Mult            ....    1
 Number of Electrons    NEL             ....  174
 Basis Dimension        Dim             ....  316

ORBITAL ENERGIES
----------------

  NO   OCC          E(Eh)            E(eV)
   0   2.0000     -88.029695     -2395.4098
   1   2.0000     -87.966524     -2393.6908
   2   2.0000     -76.415349     -2079.3674
   3   2.0000     -18.816396      -512.0202
   4   2.0000     -18.809289      -511.8268
   5   2.0000     -18.775743      -510.9139
   6   2.0000     -18.770729      -510.7775
   7   2.0000     -18.758829      -510.4537
   8   2.0000     -18.735281      -509.8129
   9   2.0000     -10.026126      -272.8248
  10   2.0000     -10.015843      -272.5449
  11   2.0000      -9.953270      -270.8422
  12   2.0000      -9.951453      -270.7928
  13   2.0000      -9.950979      -270.7799
  14   2.0000      -9.928586      -270.1705
  15   2.0000      -9.928575      -270.1703
  16   2.0000      -9.918888      -269.9067
  17   2.0000      -9.894634      -269.2467
  18   2.0000      -9.893944      -269.2279
  19   2.0000      -7.674568      -208.8356
  20   2.0000      -7.611769      -207.1268
  21   2.0000      -6.411301      -174.4604
  22   2.0000      -5.703065      -155.1883
  23   2.0000      -5.698818      -155.0727
  24   2.0000      -5.691146      -154.8639
  25   2.0000      -5.640800      -153.4940
  26   2.0000      -5.632437      -153.2664
  27   2.0000      -5.631677      -153.2457
  28   2.0000      -4.633789      -126.0918
  29   2.0000      -4.633581      -126.0861
  30   2.0000      -4.631681      -126.0344
  31   2.0000      -1.026293       -27.9269
  32   2.0000      -1.014774       -27.6134
  33   2.0000      -0.968774       -26.3617
  34   2.0000      -0.934251       -25.4223
  35   2.0000      -0.924552       -25.1584
  36   2.0000      -0.917164       -24.9573
  37   2.0000      -0.765261       -20.8238
  38   2.0000      -0.717860       -19.5340
  39   2.0000      -0.708556       -19.2808
  40   2.0000      -0.687204       -18.6998
  41   2.0000      -0.655985       -17.8503
  42   2.0000      -0.624198       -16.9853
  43   2.0000      -0.616092       -16.7647
  44   2.0000      -0.608662       -16.5625
  45   2.0000      -0.602729       -16.4011
  46   2.0000      -0.568630       -15.4732
  47   2.0000      -0.511058       -13.9066
  48   2.0000      -0.507065       -13.7979
  49   2.0000      -0.493618       -13.4320
  50   2.0000      -0.489657       -13.3242
  51   2.0000      -0.464886       -12.6502
  52   2.0000      -0.456859       -12.4318
  53   2.0000      -0.447627       -12.1806
  54   2.0000      -0.441521       -12.0144
  55   2.0000      -0.438141       -11.9224
  56   2.0000      -0.419214       -11.4074
  57   2.0000      -0.414101       -11.2683
  58   2.0000      -0.411488       -11.1971
  59   2.0000      -0.403354       -10.9758
  60   2.0000      -0.397847       -10.8260
  61   2.0000      -0.395125       -10.7519
  62   2.0000      -0.387821       -10.5531
  63   2.0000      -0.384866       -10.4727
  64   2.0000      -0.381184       -10.3725
  65   2.0000      -0.378239       -10.2924
  66   2.0000      -0.365093        -9.9347
  67   2.0000      -0.360563        -9.8114
  68   2.0000      -0.346611        -9.4318
  69   2.0000      -0.341413        -9.2903
  70   2.0000      -0.336958        -9.1691
  71   2.0000      -0.333366        -9.0713
  72   2.0000      -0.329352        -8.9621
  73   2.0000      -0.302284        -8.2256
  74   2.0000      -0.301961        -8.2168
  75   2.0000      -0.299064        -8.1379
  76   2.0000      -0.286554        -7.7975
  77   2.0000      -0.277539        -7.5522
  78   2.0000      -0.271201        -7.3798
  79   2.0000      -0.264351        -7.1933
  80   2.0000      -0.250230        -6.8091
  81   2.0000      -0.247146        -6.7252
  82   2.0000      -0.240170        -6.5354
  83   2.0000      -0.226132        -6.1534
  84   2.0000      -0.215607        -5.8670
  85   2.0000      -0.185231        -5.0404
  86   2.0000      -0.178772        -4.8646
  87   0.0000      -0.048685        -1.3248
  88   0.0000      -0.025633        -0.6975
  89   0.0000      -0.022647        -0.6163
  90   0.0000      -0.006502        -0.1769
  91   0.0000       0.026491         0.7209

MULLIKEN ATOMIC CHARGES
-----------------------
   0 C :   -0.322366
   1 C :   -0.023709
   2 O :   -0.209779
   3 C :    0.146381
   4 O :   -0.233081
   5 C :   -0.060270
   6 C :   -0.300338
   7 H :    0.146187
   8 C :    0.190393
   9 O :   -0.165901
  10 O :   -0.249503
  11 C :   -0.013575
  12 C :   -0.341701
  13 S :   -0.094354
  14 P :    0.638450
  15 S :   -0.369847
  16 O :   -0.347905
  17 C :   -0.099506
  18 O :   -0.373915
  19 C :   -0.104030
  20 H :    0.113555
  21 H :    0.132095
  22 H :    0.117328
  23 H :    0.135632
  24 H :    0.107339
  25 H :    0.135703
  26 H :    0.127259
  27 H :    0.104253
  28 H :    0.117162
  29 H :    0.163541
  30 H :    0.116493
  31 H :    0.114932
  32 H :    0.114505
  33 H :    0.115519
  34 H :    0.126085
  35 H :    0.113433
  36 H :    0.121049
  37 H :    0.112486
Sum of atomic charges:   -0.0000000

LOEWDIN ATOMIC CHARGES
----------------------
   0 C :   -0.358788
   1 C :   -0.110008
   2 O :   -0.032479
   3 C :    0.044867
   4 O :   -0.165381
   5 C :   -0.253680
   6 C :   -0.264089
   7 H :    0.152553
   8 C :    0.008618
   9 O :   -0.148395
  10 O :   -0.066750
  11 C :   -0.109006
  12 C :   -0.358454
  13 S :    0.110906
  14 P :    0.581984
  15 S :   -0.347239
  16 O :   -0.218787
  17 C :   -0.208279
  18 O :   -0.256598
  19 C :   -0.220826
  20 H :    0.124487
  21 H :    0.128053
  22 H :    0.133827
  23 H :    0.121629
  24 H :    0.121477
  25 H :    0.149513
  26 H :    0.149200
  27 H :    0.117923
  28 H :    0.123275
  29 H :    0.130789
  30 H :    0.123633
  31 H :    0.131891
  32 H :    0.105757
  33 H :    0.116755
  34 H :    0.109659
  35 H :    0.105721
  36 H :    0.120374
  37 H :    0.105870

  Mayer bond orders larger than 0.100000
B(  0-C ,  1-C ) :   1.1671 B(  0-C , 20-H ) :   0.9465 B(  0-C , 21-H ) :   0.9384
B(  0-C , 22-H ) :   0.9417 B(  1-C ,  2-O ) :   0.8988 B(  1-C , 23-H ) :   0.9047
B(  1-C , 24-H ) :   0.9380 B(  2-O ,  3-C ) :   1.2968 B(  3-C ,  4-O ) :   1.8498
B(  3-C ,  5-C ) :   1.0113 B(  5-C ,  6-C ) :   1.0310 B(  5-C , 25-H ) :   0.8844
B(  5-C , 26-H ) :   0.8716 B(  6-C ,  7-H ) :   0.8643 B(  6-C ,  8-C ) :   0.8675
B(  6-C , 13-S ) :   1.0591 B(  8-C ,  9-O ) :   2.1056 B(  8-C , 10-O ) :   1.2119
B( 10-O , 11-C ) :   0.9118 B( 11-C , 12-C ) :   1.1767 B( 11-C , 27-H ) :   0.9366
B( 11-C , 28-H ) :   0.9064 B( 12-C , 29-H ) :   0.9220 B( 12-C , 30-H ) :   0.9444
B( 12-C , 31-H ) :   0.9394 B( 13-S , 14-P ) :   0.9581 B( 13-S , 15-S ) :   0.1127
B( 14-P , 15-S ) :   1.5570 B( 14-P , 16-O ) :   1.1481 B( 14-P , 18-O ) :   1.0715
B( 16-O , 17-C ) :   0.9320 B( 17-C , 32-H ) :   0.9312 B( 17-C , 33-H ) :   0.9517
B( 17-C , 34-H ) :   0.9437 B( 18-O , 19-C ) :   0.9449 B( 19-C , 35-H ) :   0.9473
B( 19-C , 36-H ) :   0.9597 B( 19-C , 37-H ) :   0.9284

Dispersion correction           -0.055631264
FINAL SINGLE POINT ENERGY     -1979.006470652700

DIPOLE MOMENT
-------------

Method             : SCF
Type of density    : Electron Density
Multiplicity       :   1
Irrep              :   0
Energy             : -1979.1366032471319159 Eh
Relativity type    :
Basis              : AO
                                X                 Y                 Z
Electronic contribution:    -16.649880164      -4.309640482     -10.571925928
Nuclear contribution   :     18.491026739       4.863333032      10.449888588
                        -----------------------------------------
Total Dipole Moment    :      1.841146575       0.553692551      -0.122037340
                        -----------------------------------------
Magnitude (a.u.)       :      1.926470676
Magnitude (Debye)      :      4.896699311

Rotational constants in cm-1:             0.013369             0.008639             0.007111
Rotational constants in MHz :           400.789562           258.980624           213.190658

                             ****ORCA TERMINATED NORMALLY****
TOTAL RUN TIME: 0 days 0 hours 0 minutes 43 seconds 868 msec
