                         Program Version 6.0.1  -  RELEASE   -
|  1> ! pbe def2-sv(p) def2/J RI DEFGRID1 loosescf d4 GCP(DFT/SV(P)) printgap
|  2> %output
|  3>     printlevel normal
|  4> end
|  5> * xyz 0 1
|  6> C 4.0015843718 -4.1518586212 -0.9475225707
|  7> C 2.6028410814 -3.6134837155 -0.7224545826
|  8> O 2.7019120412 -2.1858322413 -0.5364943009
|  9> C 1.609081319 -1.5210845982 -0.2594713548
| 10> O 0.5105968765 -2.0335565784 -0.1551210205
| 11> C 1.8698397135 -0.0481022302 -0.0536765019
| 12> C 0.9976738434 0.8558128131 -0.9463291455
| 13> H 1.5428599809 1.1447763666 -1.8458156797
| 14> C 0.6117800577 2.0929391021 -0.1480153292
| 15> O -0.4946940397 2.2603566041 0.3150985803
| 16> O 1.6311820128 2.8972367505 0.0051808237
| 17> C 1.443853232 4.1049459821 0.7770671872
| 18> C 0.8744118586 5.2167931836 -0.0880953776
| 19> S -0.543562007 0.108629393 -1.5866180312
| 20> P -1.5869397023 -0.2683130642 0.2005912452
| 21> S -0.8655084735 -0.2483349489 2.0328509547
| 22> O -2.7734277636 0.7674322486 -0.0723380639
| 23> C -3.795152965 1.0048178085 0.8987271054
| 24> O -2.4119538294 -1.6116348334 -0.0988923049
| 25> C -2.1154810428 -2.9151245778 0.3949839963
| 26> H 3.9525430977 -5.2255801898 -1.0940891296
| 27> H 4.4409322467 -3.689499983 -1.8259807968
| 28> H 4.6270252202 -3.9360751805 -0.086690811
| 29> H 2.135558003 -4.0448655348 0.1680597248
| 30> H 1.9509308891 -3.8007829698 -1.5810201416
| 31> H 2.923401827 0.1603876474 -0.2301126511
| 32> H 1.6313125227 0.146173801 0.9976943277
| 33> H 0.7780780241 3.8821796446 1.6154344585
| 34> H 2.4434139316 4.3486403979 1.1360983212
| 35> H 1.5179763559 5.3911440625 -0.9456724199
| 36> H -0.1194047179 4.9470066696 -0.4386572277
| 37> H 0.8047378457 6.1263515986 0.4992078721
| 38> H -4.475523525 0.1539230341 0.9422999549
| 39> H -4.3150171407 1.8984898267 0.5633365316
| 40> H -3.3466846896 1.1717589984 1.8802521167
| 41> H -3.0743640301 -3.4134727161 0.5196362048
| 42> H -1.592081086 -2.843634782 1.3499357682
| 43> H -1.4916734243 -3.4423142703 -0.323267588
| 44> *
| 45>
| 46>                          ****END OF INPUT****

CARTESIAN COORDINATES (ANGSTROEM)
---------------------------------
  C      4.001584   -4.151859   -0.947523
  C      2.602841   -3.613484   -0.722455
  O      2.701912   -2.185832   -0.536494
  C      1.609081   -1.521085   -0.259471
  O      0.510597   -2.033557   -0.155121
  C      1.869840   -0.048102   -0.053677
  C      0.997674    0.855813   -0.946329
  H      1.542860    1.144776   -1.845816
  C      0.611780    2.092939   -0.148015
  O     -0.494694    2.260357    0.315099
  O      1.631182    2.897237    0.005181
  C      1.443853    4.104946    0.777067
  C      0.874412    5.216793   -0.088095
  S     -0.543562    0.108629   -1.586618
  P     -1.586940   -0.268313    0.200591
  S     -0.865508   -0.248335    2.032851
  O     -2.773428    0.767432   -0.072338
  C     -3.795153    1.004818    0.898727
  O     -2.411954   -1.611635   -0.098892
  C     -2.115481   -2.915125    0.394984
  H      3.952543   -5.225580   -1.094089
  H      4.440932   -3.689500   -1.825981
  H      4.627025   -3.936075   -0.086691
  H      2.135558   -4.044866    0.168060
  H      1.950931   -3.800783   -1.581020
  H      2.923402    0.160388   -0.230113
  H      1.631313    0.146174    0.997694
  H      0.778078    3.882180    1.615434
  H      2.443414    4.348640    1.136098
  H      1.517976    5.391144   -0.945672
  H     -0.119405    4.947007   -0.438657
  H      0.804738    6.126352    0.499208
  H     -4.475524    0.153923    0.942300
  H     -4.315017    1.898490    0.563337
  H     -3.346685    1.171759    1.880252
  H     -3.074364   -3.413473    0.519636
  H     -1.592081   -2.843635    1.349936
  H     -1.491673   -3.442314   -0.323268

 Total Charge           Charge          ....    0
 Multiplicity           Mult            ....    1
 Number of Electrons    NEL             ....  174
 Basis Dimension        Dim             ....  316

ORBITAL ENERGIES
----------------

  NO   OCC          E(Eh)            E(eV)
   0   2.0000     -88.024530     -2395.2692
   1   2.0000     -87.961858     -2393.5638
   2   2.0000     -76.408360     -2079.1772
   3   2.0000     -18.812568      -511.9160
   4   2.0000     -18.810957      -511.8722
   5   2.0000     -18.767152      -510.6802
   6   2.0000     -18.759665      -510.4764
   7   2.0000     -18.746153      -510.1087
   8   2.0000     -18.743218      -510.0289
   9   2.0000     -10.014740      -272.5149
  10   2.0000     -10.014563      -272.5101
  11   2.0000      -9.955124      -270.8927
  12   2.0000      -9.953597      -270.8511
  13   2.0000      -9.949536      -270.7406
  14   2.0000      -9.921517      -269.9782
  15   2.0000      -9.918703      -269.9016
  16   2.0000      -9.910873      -269.6886
  17   2.0000      -9.894895      -269.2538
  18   2.0000      -9.890569      -269.1361
  19   2.0000      -7.669872      -208.7078
  20   2.0000      -7.607173      -207.0017
  21   2.0000      -6.403828      -174.2570
  22   2.0000      -5.698239      -155.0570
  23   2.0000      -5.694880      -154.9656
  24   2.0000      -5.685682      -154.7153
  25   2.0000      -5.636393      -153.3741
  26   2.0000      -5.627965      -153.1447
  27   2.0000      -5.626748      -153.1116
  28   2.0000      -4.626218      -125.8858
  29   2.0000      -4.625891      -125.8769
  30   2.0000      -4.624619      -125.8423
  31   2.0000      -1.020953       -27.7815
  32   2.0000      -1.020027       -27.7563
  33   2.0000      -0.957529       -26.0557
  34   2.0000      -0.923865       -25.1397
  35   2.0000      -0.922327       -25.0978
  36   2.0000      -0.912374       -24.8270
  37   2.0000      -0.760640       -20.6981
  38   2.0000      -0.719601       -19.5813
  39   2.0000      -0.708131       -19.2692
  40   2.0000      -0.681909       -18.5557
  41   2.0000      -0.650262       -17.6945
  42   2.0000      -0.620517       -16.8851
  43   2.0000      -0.609900       -16.5962
  44   2.0000      -0.606529       -16.5045
  45   2.0000      -0.592633       -16.1264
  46   2.0000      -0.560992       -15.2654
  47   2.0000      -0.518214       -14.1013
  48   2.0000      -0.506277       -13.7765
  49   2.0000      -0.489868       -13.3300
  50   2.0000      -0.478169       -13.0116
  51   2.0000      -0.456045       -12.4096
  52   2.0000      -0.452128       -12.3030
  53   2.0000      -0.449273       -12.2253
  54   2.0000      -0.440527       -11.9874
  55   2.0000      -0.430695       -11.7198
  56   2.0000      -0.420412       -11.4400
  57   2.0000      -0.412235       -11.2175
  58   2.0000      -0.404219       -10.9994
  59   2.0000      -0.401132       -10.9154
  60   2.0000      -0.389960       -10.6114
  61   2.0000      -0.389232       -10.5915
  62   2.0000      -0.383745       -10.4422
  63   2.0000      -0.377938       -10.2842
  64   2.0000      -0.369143       -10.0449
  65   2.0000      -0.365335        -9.9413
  66   2.0000      -0.363227        -9.8839
  67   2.0000      -0.355870        -9.6837
  68   2.0000      -0.346865        -9.4387
  69   2.0000      -0.339833        -9.2473
  70   2.0000      -0.337709        -9.1895
  71   2.0000      -0.332435        -9.0460
  72   2.0000      -0.319386        -8.6909
  73   2.0000      -0.308694        -8.4000
  74   2.0000      -0.302608        -8.2344
  75   2.0000      -0.294211        -8.0059
  76   2.0000      -0.279986        -7.6188
  77   2.0000      -0.273077        -7.4308
  78   2.0000      -0.267578        -7.2812
  79   2.0000      -0.262575        -7.1450
  80   2.0000      -0.252142        -6.8611
  81   2.0000      -0.246743        -6.7142
  82   2.0000      -0.233760        -6.3609
  83   2.0000      -0.224280        -6.1030
  84   2.0000      -0.192136        -5.2283
  85   2.0000      -0.183520        -4.9938
  86   2.0000      -0.174198        -4.7402
  87   0.0000      -0.034518        -0.9393
  88   0.0000      -0.033004        -0.8981
  89   0.0000      -0.021174        -0.5762
  90   0.0000       0.013347         0.3632
  91   0.0000       0.036027         0.9803

MULLIKEN ATOMIC CHARGES
-----------------------
   0 C :   -0.271880
   1 C :   -0.034851
   2 O :   -0.219802
   3 C :    0.123331
   4 O :   -0.200304
   5 C :   -0.073487
   6 C :   -0.309537
   7 H :    0.139646
   8 C :    0.202294
   9 O :   -0.167758
  10 O :   -0.231369
  11 C :   -0.008191
  12 C :   -0.309615
  13 S :   -0.062354
  14 P :    0.666484
  15 S :   -0.367540
  16 O :   -0.372209
  17 C :   -0.089772
  18 O :   -0.396231
  19 C :   -0.085181
  20 H :    0.113914
  21 H :    0.116507
  22 H :    0.117898
  23 H :    0.111402
  24 H :    0.110793
  25 H :    0.107484
  26 H :    0.143477
  27 H :    0.118285
  28 H :    0.104706
  29 H :    0.114181
  30 H :    0.134769
  31 H :    0.116364
  32 H :    0.103286
  33 H :    0.115884
  34 H :    0.113781
  35 H :    0.106534
  36 H :    0.110105
  37 H :    0.108955
Sum of atomic charges:    0.0000000

LOEWDIN ATOMIC CHARGES
----------------------
   0 C :   -0.350166
   1 C :   -0.106473
   2 O :   -0.051292
   3 C :    0.033046
   4 O :   -0.159205
   5 C :   -0.256403
   6 C :   -0.261271
   7 H :    0.144236
   8 C :    0.013396
   9 O :   -0.144857
  10 O :   -0.052331
  11 C :   -0.107075
  12 C :   -0.356098
  13 S :    0.126360
  14 P :    0.603978
  15 S :   -0.338402
  16 O :   -0.252900
  17 C :   -0.213130
  18 O :   -0.259688
  19 C :   -0.216149
  20 H :    0.132051
  21 H :    0.127585
  22 H :    0.128183
  23 H :    0.119252
  24 H :    0.118851
  25 H :    0.137911
  26 H :    0.147974
  27 H :    0.125303
  28 H :    0.119163
  29 H :    0.125142
  30 H :    0.133736
  31 H :    0.132594
  32 H :    0.106998
  33 H :    0.117795
  34 H :    0.108354
  35 H :    0.110572
  36 H :    0.104862
  37 H :    0.108099

  Mayer bond orders larger than 0.100000
B(  0-C ,  1-C ) :   1.1527 B(  0-C , 20-H ) :   0.9435 B(  0-C , 21-H ) :   0.9495
B(  0-C , 22-H ) :   0.9499 B(  1-C ,  2-O ) :   0.8989 B(  1-C , 23-H ) :   0.9295
B(  1-C , 24-H ) :   0.9323 B(  2-O ,  3-C ) :   1.2624 B(  3-C ,  4-O ) :   1.9293
B(  3-C ,  5-C ) :   1.0454 B(  5-C ,  6-C ) :   1.0104 B(  5-C , 25-H ) :   0.8916
B(  5-C , 26-H ) :   0.8584 B(  6-C ,  7-H ) :   0.8784 B(  6-C ,  8-C ) :   0.8865
B(  6-C , 13-S ) :   1.0848 B(  8-C ,  9-O ) :   2.0312 B(  8-C , 10-O ) :   1.2430
B( 10-O , 11-C ) :   0.9037 B( 11-C , 12-C ) :   1.1753 B( 11-C , 27-H ) :   0.9144
B( 11-C , 28-H ) :   0.9369 B( 12-C , 29-H ) :   0.9482 B( 12-C , 30-H ) :   0.9450
B( 12-C , 31-H ) :   0.9435 B( 13-S , 14-P ) :   0.9234 B( 13-S , 15-S ) :   0.1134
B( 14-P , 15-S ) :   1.5435 B( 14-P , 16-O ) :   1.1006 B( 14-P , 18-O ) :   1.0909
B( 16-O , 17-C ) :   0.9426 B( 17-C , 32-H ) :   0.9507 B( 17-C , 33-H ) :   0.9606
B( 17-C , 34-H ) :   0.9342 B( 18-O , 19-C ) :   0.9366 B( 19-C , 35-H ) :   0.9550
B( 19-C , 36-H ) :   0.9306 B( 19-C , 37-H ) :   0.9498

Dispersion correction           -0.052677166
FINAL SINGLE POINT ENERGY     -1979.000264243961

DIPOLE MOMENT
-------------

Method             : SCF
Type of density    : Electron Density
Multiplicity       :   1
Irrep              :   0
Energy             : -1979.1303499389291574 Eh
Relativity type    :
Basis              : AO
                                X                 Y                 Z
Electronic contribution:     -9.708709251       0.719470141      -1.407151680
Nuclear contribution   :     11.141427300      -0.716818900       1.020048434
                        -----------------------------------------
Total Dipole Moment    :      1.432718049       0.002651241      -0.387103245
                        -----------------------------------------
Magnitude (a.u.)       :      1.484094660
Magnitude (Debye)      :      3.772268838

Rotational constants in cm-1:             0.011510             0.008002             0.005462
Rotational constants in MHz :           345.063299           239.891039           163.749336

                             ****ORCA TERMINATED NORMALLY****
TOTAL RUN TIME: 0 days 0 hours 0 minutes 37 seconds 860 msec
