                         Program Version 6.0.0  -   RELEASE  -
|  1> ! r2scan-3c def2/J RI DEFGRID2 scfconv6 printgap
|  2> %output
|  3>     printlevel normal
|  4> end
|  5> * xyz 0 1
|  6> C 5.8195886371 -1.1151760531 0.9462926984
|  7> C 4.4602735589 -1.4407395777 0.3610289538
|  8> O 3.609487009 -0.2915064375 0.5479452674
|  9> P 2.2808894082 -0.0940048456 -0.2989538692
| 10> S 2.4811290918 -0.3344867555 -2.2390777778
| 11> O 1.7937131629 1.3266113979 0.1962946557
| 12> C 2.0847145544 2.5349425929 -0.5341842336
| 13> C 3.5555785891 2.8848906555 -0.4600577759
| 14> S 0.8975554148 -1.3666427518 0.6592177835
| 15> C -0.3248022717 -1.3757836329 -0.6797290693
| 16> S -1.09524437 0.2437573185 -0.9742817984
| 17> P -2.7220483758 0.0249677534 0.3870687093
| 18> S -3.9767417494 1.5222896913 0.4961624043
| 19> O -2.0420162353 -0.4425347253 1.7427366405
| 20> C -1.8094278116 0.4712298613 2.8292173931
| 21> C -0.774415005 1.5240680386 2.4867425651
| 22> O -3.3529739133 -1.3850304319 0.0089755164
| 23> C -4.4519482124 -1.4945964075 -0.9132301928
| 24> C -4.0351232525 -1.1981368147 -2.3404118967
| 25> H 6.2637623102 -0.2746375403 0.4207693015
| 26> H 5.7178084863 -0.8593483754 1.9968253529
| 27> H 6.4662523905 -1.980807408 0.8472436694
| 28> H 4.0000889167 -2.2919290078 0.8699955749
| 29> H 4.5250693728 -1.6564105271 -0.7109104195
| 30> H 1.7661748789 2.3980158152 -1.57268864
| 31> H 1.4598798215 3.2893918093 -0.0545738266
| 32> H 3.8755649322 2.9418368863 0.5769257482
| 33> H 4.1409212417 2.1194547726 -0.9685201758
| 34> H 3.7249312729 3.8404214775 -0.9463134306
| 35> H -1.0878124279 -2.0994385434 -0.404233617
| 36> H 0.1745936285 -1.6484498896 -1.6092525359
| 37> H -2.7603214273 0.9459540854 3.0908757598
| 38> H -1.4755856037 -0.172522194 3.6439566313
| 39> H -0.6136898469 2.1631758582 3.3490613927
| 40> H 0.1684832738 1.0621911364 2.2035566413
| 41> H -1.1309437852 2.1344229229 1.6562538197
| 42> H -4.7897192621 -2.5254000572 -0.7969776676
| 43> H -5.2416525933 -0.8068169365 -0.5948517612
| 44> H -3.7242649289 -0.157494791 -2.4291999332
| 45> H -3.2093144012 -1.8384365897 -2.6404416674
| 46> H -4.8786497242 -1.3696703421 -3.0014540657
| 47> *
| 48>
| 49>                          ****END OF INPUT****

CARTESIAN COORDINATES (ANGSTROEM)
---------------------------------
  C      5.819589   -1.115176    0.946293
  C      4.460274   -1.440740    0.361029
  O      3.609487   -0.291506    0.547945
  P      2.280889   -0.094005   -0.298954
  S      2.481129   -0.334487   -2.239078
  O      1.793713    1.326611    0.196295
  C      2.084715    2.534943   -0.534184
  C      3.555579    2.884891   -0.460058
  S      0.897555   -1.366643    0.659218
  C     -0.324802   -1.375784   -0.679729
  S     -1.095244    0.243757   -0.974282
  P     -2.722048    0.024968    0.387069
  S     -3.976742    1.522290    0.496162
  O     -2.042016   -0.442535    1.742737
  C     -1.809428    0.471230    2.829217
  C     -0.774415    1.524068    2.486743
  O     -3.352974   -1.385030    0.008976
  C     -4.451948   -1.494596   -0.913230
  C     -4.035123   -1.198137   -2.340412
  H      6.263762   -0.274638    0.420769
  H      5.717808   -0.859348    1.996825
  H      6.466252   -1.980807    0.847244
  H      4.000089   -2.291929    0.869996
  H      4.525069   -1.656411   -0.710910
  H      1.766175    2.398016   -1.572689
  H      1.459880    3.289392   -0.054574
  H      3.875565    2.941837    0.576926
  H      4.140921    2.119455   -0.968520
  H      3.724931    3.840421   -0.946313
  H     -1.087812   -2.099439   -0.404234
  H      0.174594   -1.648450   -1.609253
  H     -2.760321    0.945954    3.090876
  H     -1.475586   -0.172522    3.643957
  H     -0.613690    2.163176    3.349061
  H      0.168483    1.062191    2.203557
  H     -1.130944    2.134423    1.656254
  H     -4.789719   -2.525400   -0.796978
  H     -5.241653   -0.806817   -0.594852
  H     -3.724265   -0.157495   -2.429200
  H     -3.209314   -1.838437   -2.640442
  H     -4.878650   -1.369670   -3.001454

 Total Charge           Charge          ....    0
 Multiplicity           Mult            ....    1
 Number of Electrons    NEL             ....  202
 Basis Dimension        Dim             ....  539

ORBITAL ENERGIES
----------------

  NO   OCC          E(Eh)            E(eV)
   0   2.0000     -88.578049     -2410.3313
   1   2.0000     -88.573429     -2410.2055
   2   2.0000     -88.525580     -2408.9035
   3   2.0000     -88.522753     -2408.8266
   4   2.0000     -76.917445     -2093.0301
   5   2.0000     -76.913561     -2092.9244
   6   2.0000     -18.997287      -516.9425
   7   2.0000     -18.993552      -516.8408
   8   2.0000     -18.990378      -516.7544
   9   2.0000     -18.987640      -516.6800
  10   2.0000     -10.107775      -275.0465
  11   2.0000     -10.102850      -274.9125
  12   2.0000     -10.098791      -274.8021
  13   2.0000     -10.098251      -274.7874
  14   2.0000     -10.094368      -274.6817
  15   2.0000     -10.036991      -273.1204
  16   2.0000     -10.030188      -272.9353
  17   2.0000     -10.027990      -272.8755
  18   2.0000     -10.018894      -272.6280
  19   2.0000      -7.872443      -214.2201
  20   2.0000      -7.867334      -214.0811
  21   2.0000      -7.820268      -212.8003
  22   2.0000      -7.817370      -212.7214
  23   2.0000      -6.596134      -179.4899
  24   2.0000      -6.592001      -179.3775
  25   2.0000      -5.819245      -158.3497
  26   2.0000      -5.816321      -158.2701
  27   2.0000      -5.814576      -158.2227
  28   2.0000      -5.811030      -158.1262
  29   2.0000      -5.809605      -158.0874
  30   2.0000      -5.804331      -157.9439
  31   2.0000      -5.767824      -156.9505
  32   2.0000      -5.765019      -156.8741
  33   2.0000      -5.760569      -156.7530
  34   2.0000      -5.760356      -156.7473
  35   2.0000      -5.757579      -156.6717
  36   2.0000      -5.757468      -156.6687
  37   2.0000      -4.741487      -129.0224
  38   2.0000      -4.741063      -129.0109
  39   2.0000      -4.739969      -128.9811
  40   2.0000      -4.737298      -128.9084
  41   2.0000      -4.737198      -128.9057
  42   2.0000      -4.735660      -128.8638
  43   2.0000      -1.054314       -28.6893
  44   2.0000      -1.050298       -28.5801
  45   2.0000      -1.015505       -27.6333
  46   2.0000      -1.009108       -27.4592
  47   2.0000      -0.802114       -21.8266
  48   2.0000      -0.760487       -20.6939
  49   2.0000      -0.749438       -20.3932
  50   2.0000      -0.735465       -20.0130
  51   2.0000      -0.724446       -19.7132
  52   2.0000      -0.712810       -19.3965
  53   2.0000      -0.690505       -18.7896
  54   2.0000      -0.670634       -18.2489
  55   2.0000      -0.633699       -17.2438
  56   2.0000      -0.627371       -17.0716
  57   2.0000      -0.603502       -16.4221
  58   2.0000      -0.600982       -16.3536
  59   2.0000      -0.593287       -16.1442
  60   2.0000      -0.531231       -14.4555
  61   2.0000      -0.518647       -14.1131
  62   2.0000      -0.500371       -13.6158
  63   2.0000      -0.484269       -13.1776
  64   2.0000      -0.479322       -13.0430
  65   2.0000      -0.464583       -12.6419
  66   2.0000      -0.463127       -12.6023
  67   2.0000      -0.455375       -12.3914
  68   2.0000      -0.439230       -11.9521
  69   2.0000      -0.437584       -11.9073
  70   2.0000      -0.425651       -11.5825
  71   2.0000      -0.416698       -11.3389
  72   2.0000      -0.413306       -11.2466
  73   2.0000      -0.406009       -11.0481
  74   2.0000      -0.399555       -10.8725
  75   2.0000      -0.392569       -10.6823
  76   2.0000      -0.385536       -10.4910
  77   2.0000      -0.376416       -10.2428
  78   2.0000      -0.368088       -10.0162
  79   2.0000      -0.365160        -9.9365
  80   2.0000      -0.363815        -9.8999
  81   2.0000      -0.361378        -9.8336
  82   2.0000      -0.357215        -9.7203
  83   2.0000      -0.348840        -9.4924
  84   2.0000      -0.344271        -9.3681
  85   2.0000      -0.334420        -9.1000
  86   2.0000      -0.329412        -8.9638
  87   2.0000      -0.319904        -8.7050
  88   2.0000      -0.314205        -8.5499
  89   2.0000      -0.303495        -8.2585
  90   2.0000      -0.300737        -8.1835
  91   2.0000      -0.293278        -7.9805
  92   2.0000      -0.283911        -7.7256
  93   2.0000      -0.280043        -7.6204
  94   2.0000      -0.270938        -7.3726
  95   2.0000      -0.245208        -6.6724
  96   2.0000      -0.230701        -6.2777
  97   2.0000      -0.226012        -6.1501
  98   2.0000      -0.221563        -6.0290
  99   2.0000      -0.220177        -5.9913
 100   2.0000      -0.217448        -5.9171
 101   0.0000      -0.045302        -1.2327
 102   0.0000      -0.026934        -0.7329
 103   0.0000      -0.011551        -0.3143
 104   0.0000       0.004780         0.1301
 105   0.0000       0.008874         0.2415

MULLIKEN ATOMIC CHARGES
-----------------------
   0 C :   -0.439097
   1 C :   -0.155472
   2 O :   -0.285175
   3 P :    0.678186
   4 S :   -0.482502
   5 O :   -0.270081
   6 C :   -0.147145
   7 C :   -0.443152
   8 S :   -0.123434
   9 C :   -0.239582
  10 S :   -0.129251
  11 P :    0.670174
  12 S :   -0.452730
  13 O :   -0.292434
  14 C :   -0.140208
  15 C :   -0.456351
  16 O :   -0.314676
  17 C :   -0.157505
  18 C :   -0.428089
  19 H :    0.155212
  20 H :    0.154461
  21 H :    0.147839
  22 H :    0.152282
  23 H :    0.170678
  24 H :    0.174078
  25 H :    0.155594
  26 H :    0.155966
  27 H :    0.167153
  28 H :    0.148493
  29 H :    0.206945
  30 H :    0.219061
  31 H :    0.165863
  32 H :    0.148203
  33 H :    0.143978
  34 H :    0.178734
  35 H :    0.169999
  36 H :    0.148892
  37 H :    0.173147
  38 H :    0.175559
  39 H :    0.148924
  40 H :    0.147464
Sum of atomic charges:   -0.0000000

LOEWDIN ATOMIC CHARGES
----------------------
   0 C :   -0.385218
   1 C :    0.020216
   2 O :   -0.663473
   3 P :    0.370518
   4 S :   -0.131967
   5 O :   -0.674684
   6 C :    0.021333
   7 C :   -0.398951
   8 S :    0.168936
   9 C :   -0.414764
  10 S :    0.165650
  11 P :    0.375384
  12 S :   -0.108678
  13 O :   -0.665155
  14 C :    0.021475
  15 C :   -0.410000
  16 O :   -0.678196
  17 C :    0.021200
  18 C :   -0.403764
  19 H :    0.160306
  20 H :    0.160348
  21 H :    0.160512
  22 H :    0.172161
  23 H :    0.180709
  24 H :    0.181748
  25 H :    0.182019
  26 H :    0.160707
  27 H :    0.164776
  28 H :    0.160241
  29 H :    0.195802
  30 H :    0.192833
  31 H :    0.178904
  32 H :    0.180935
  33 H :    0.157439
  34 H :    0.171363
  35 H :    0.165798
  36 H :    0.179528
  37 H :    0.180599
  38 H :    0.166604
  39 H :    0.157554
  40 H :    0.159252

  Mayer bond orders larger than 0.100000
B(  0-C ,  1-C ) :   0.9578 B(  0-C , 19-H ) :   0.9711 B(  0-C , 20-H ) :   0.9715
B(  0-C , 21-H ) :   0.9641 B(  1-C ,  2-O ) :   0.7785 B(  1-C , 22-H ) :   0.9460
B(  1-C , 23-H ) :   0.9513 B(  2-O ,  3-P ) :   1.0913 B(  3-P ,  4-S ) :   1.7419
B(  3-P ,  5-O ) :   1.1601 B(  3-P ,  8-S ) :   1.0768 B(  5-O ,  6-C ) :   0.7856
B(  6-C ,  7-C ) :   0.9247 B(  6-C , 24-H ) :   0.9634 B(  6-C , 25-H ) :   0.9607
B(  7-C , 26-H ) :   0.9717 B(  7-C , 27-H ) :   0.9601 B(  7-C , 28-H ) :   0.9621
B(  8-S ,  9-C ) :   0.9232 B(  9-C , 10-S ) :   0.8958 B(  9-C , 29-H ) :   0.9125
B(  9-C , 30-H ) :   0.9103 B( 10-S , 11-P ) :   1.0641 B( 11-P , 12-S ) :   1.8244
B( 11-P , 13-O ) :   1.0944 B( 11-P , 16-O ) :   1.0713 B( 13-O , 14-C ) :   0.7997
B( 14-C , 15-C ) :   0.9242 B( 14-C , 31-H ) :   0.9634 B( 14-C , 32-H ) :   0.9610
B( 15-C , 33-H ) :   0.9616 B( 15-C , 34-H ) :   0.9579 B( 15-C , 35-H ) :   0.9607
B( 16-O , 17-C ) :   0.8167 B( 17-C , 18-C ) :   0.9261 B( 17-C , 36-H ) :   0.9600
B( 17-C , 37-H ) :   0.9664 B( 18-C , 38-H ) :   0.9616 B( 18-C , 39-H ) :   0.9680
B( 18-C , 40-H ) :   0.9605

Dispersion correction           -0.021319776
FINAL SINGLE POINT ENERGY     -2932.465034280328

DIPOLE MOMENT
-------------

Method             : SCF
Type of density    : Electron Density
Multiplicity       :   1
Irrep              :   0
Energy             : -2932.4902667870628648 Eh
Relativity type    :
Basis              : AO
                                X                 Y                 Z
Electronic contribution:    -12.052104724      -3.596585906      -2.249381488
Nuclear contribution   :     12.988151792       3.062886893       2.762941263
                        -----------------------------------------
Total Dipole Moment    :      0.936047067      -0.533699013       0.513559774
                        -----------------------------------------
Magnitude (a.u.)       :      1.193634111
Magnitude (Debye)      :      3.033976795

Rotational constants in cm-1:             0.013750             0.004395             0.004192
Rotational constants in MHz :           412.215798           131.765083           125.664967

                             ****ORCA TERMINATED NORMALLY****
TOTAL RUN TIME: 0 days 0 hours 1 minutes 23 seconds 194 msec
