                         Program Version 6.0.0  -   RELEASE  -
|  1> ! r2scan-3c def2/J RI DEFGRID2 scfconv6 printgap
|  2> %output
|  3>     printlevel normal
|  4> end
|  5> %cpcm
|  6>     smd true
|  7>     smdsolvent "water"
|  8> end
|  9> * xyz 0 1
| 10> C 5.8195886371 -1.1151760531 0.9462926984
| 11> C 4.4602735589 -1.4407395777 0.3610289538
| 12> O 3.609487009 -0.2915064375 0.5479452674
| 13> P 2.2808894082 -0.0940048456 -0.2989538692
| 14> S 2.4811290918 -0.3344867555 -2.2390777778
| 15> O 1.7937131629 1.3266113979 0.1962946557
| 16> C 2.0847145544 2.5349425929 -0.5341842336
| 17> C 3.5555785891 2.8848906555 -0.4600577759
| 18> S 0.8975554148 -1.3666427518 0.6592177835
| 19> C -0.3248022717 -1.3757836329 -0.6797290693
| 20> S -1.09524437 0.2437573185 -0.9742817984
| 21> P -2.7220483758 0.0249677534 0.3870687093
| 22> S -3.9767417494 1.5222896913 0.4961624043
| 23> O -2.0420162353 -0.4425347253 1.7427366405
| 24> C -1.8094278116 0.4712298613 2.8292173931
| 25> C -0.774415005 1.5240680386 2.4867425651
| 26> O -3.3529739133 -1.3850304319 0.0089755164
| 27> C -4.4519482124 -1.4945964075 -0.9132301928
| 28> C -4.0351232525 -1.1981368147 -2.3404118967
| 29> H 6.2637623102 -0.2746375403 0.4207693015
| 30> H 5.7178084863 -0.8593483754 1.9968253529
| 31> H 6.4662523905 -1.980807408 0.8472436694
| 32> H 4.0000889167 -2.2919290078 0.8699955749
| 33> H 4.5250693728 -1.6564105271 -0.7109104195
| 34> H 1.7661748789 2.3980158152 -1.57268864
| 35> H 1.4598798215 3.2893918093 -0.0545738266
| 36> H 3.8755649322 2.9418368863 0.5769257482
| 37> H 4.1409212417 2.1194547726 -0.9685201758
| 38> H 3.7249312729 3.8404214775 -0.9463134306
| 39> H -1.0878124279 -2.0994385434 -0.404233617
| 40> H 0.1745936285 -1.6484498896 -1.6092525359
| 41> H -2.7603214273 0.9459540854 3.0908757598
| 42> H -1.4755856037 -0.172522194 3.6439566313
| 43> H -0.6136898469 2.1631758582 3.3490613927
| 44> H 0.1684832738 1.0621911364 2.2035566413
| 45> H -1.1309437852 2.1344229229 1.6562538197
| 46> H -4.7897192621 -2.5254000572 -0.7969776676
| 47> H -5.2416525933 -0.8068169365 -0.5948517612
| 48> H -3.7242649289 -0.157494791 -2.4291999332
| 49> H -3.2093144012 -1.8384365897 -2.6404416674
| 50> H -4.8786497242 -1.3696703421 -3.0014540657
| 51> *
| 52>
| 53>                          ****END OF INPUT****

CARTESIAN COORDINATES (ANGSTROEM)
---------------------------------
  C      5.819589   -1.115176    0.946293
  C      4.460274   -1.440740    0.361029
  O      3.609487   -0.291506    0.547945
  P      2.280889   -0.094005   -0.298954
  S      2.481129   -0.334487   -2.239078
  O      1.793713    1.326611    0.196295
  C      2.084715    2.534943   -0.534184
  C      3.555579    2.884891   -0.460058
  S      0.897555   -1.366643    0.659218
  C     -0.324802   -1.375784   -0.679729
  S     -1.095244    0.243757   -0.974282
  P     -2.722048    0.024968    0.387069
  S     -3.976742    1.522290    0.496162
  O     -2.042016   -0.442535    1.742737
  C     -1.809428    0.471230    2.829217
  C     -0.774415    1.524068    2.486743
  O     -3.352974   -1.385030    0.008976
  C     -4.451948   -1.494596   -0.913230
  C     -4.035123   -1.198137   -2.340412
  H      6.263762   -0.274638    0.420769
  H      5.717808   -0.859348    1.996825
  H      6.466252   -1.980807    0.847244
  H      4.000089   -2.291929    0.869996
  H      4.525069   -1.656411   -0.710910
  H      1.766175    2.398016   -1.572689
  H      1.459880    3.289392   -0.054574
  H      3.875565    2.941837    0.576926
  H      4.140921    2.119455   -0.968520
  H      3.724931    3.840421   -0.946313
  H     -1.087812   -2.099439   -0.404234
  H      0.174594   -1.648450   -1.609253
  H     -2.760321    0.945954    3.090876
  H     -1.475586   -0.172522    3.643957
  H     -0.613690    2.163176    3.349061
  H      0.168483    1.062191    2.203557
  H     -1.130944    2.134423    1.656254
  H     -4.789719   -2.525400   -0.796978
  H     -5.241653   -0.806817   -0.594852
  H     -3.724265   -0.157495   -2.429200
  H     -3.209314   -1.838437   -2.640442
  H     -4.878650   -1.369670   -3.001454

 Total Charge           Charge          ....    0
 Multiplicity           Mult            ....    1
 Number of Electrons    NEL             ....  202
 Basis Dimension        Dim             ....  539

ORBITAL ENERGIES
----------------

  NO   OCC          E(Eh)            E(eV)
   0   2.0000     -88.579677     -2410.3756
   1   2.0000     -88.577227     -2410.3089
   2   2.0000     -88.532113     -2409.0813
   3   2.0000     -88.530243     -2409.0304
   4   2.0000     -76.919912     -2093.0972
   5   2.0000     -76.919880     -2093.0963
   6   2.0000     -18.996713      -516.9268
   7   2.0000     -18.994626      -516.8701
   8   2.0000     -18.993079      -516.8280
   9   2.0000     -18.992753      -516.8191
  10   2.0000     -10.105585      -274.9869
  11   2.0000     -10.090675      -274.5812
  12   2.0000     -10.090013      -274.5632
  13   2.0000     -10.089764      -274.5564
  14   2.0000     -10.089754      -274.5562
  15   2.0000     -10.019856      -272.6541
  16   2.0000     -10.018937      -272.6291
  17   2.0000     -10.018136      -272.6074
  18   2.0000     -10.015700      -272.5410
  19   2.0000      -7.874050      -214.2638
  20   2.0000      -7.871214      -214.1866
  21   2.0000      -7.827066      -212.9853
  22   2.0000      -7.825213      -212.9349
  23   2.0000      -6.598651      -179.5584
  24   2.0000      -6.598396      -179.5515
  25   2.0000      -5.820840      -158.3931
  26   2.0000      -5.818437      -158.3277
  27   2.0000      -5.817923      -158.3137
  28   2.0000      -5.814883      -158.2310
  29   2.0000      -5.811244      -158.1320
  30   2.0000      -5.808252      -158.0506
  31   2.0000      -5.774625      -157.1355
  32   2.0000      -5.772712      -157.0835
  33   2.0000      -5.767315      -156.9366
  34   2.0000      -5.767152      -156.9322
  35   2.0000      -5.765494      -156.8871
  36   2.0000      -5.765328      -156.8825
  37   2.0000      -4.743967      -129.0899
  38   2.0000      -4.743661      -129.0816
  39   2.0000      -4.743595      -129.0798
  40   2.0000      -4.743582      -129.0794
  41   2.0000      -4.742546      -129.0512
  42   2.0000      -4.742112      -129.0394
  43   2.0000      -1.054345       -28.6902
  44   2.0000      -1.053913       -28.6784
  45   2.0000      -1.014867       -27.6159
  46   2.0000      -1.011989       -27.5376
  47   2.0000      -0.802544       -21.8383
  48   2.0000      -0.756439       -20.5837
  49   2.0000      -0.744190       -20.2504
  50   2.0000      -0.724825       -19.7235
  51   2.0000      -0.718815       -19.5599
  52   2.0000      -0.712794       -19.3961
  53   2.0000      -0.693751       -18.8779
  54   2.0000      -0.675594       -18.3839
  55   2.0000      -0.630882       -17.1672
  56   2.0000      -0.624231       -16.9862
  57   2.0000      -0.597225       -16.2513
  58   2.0000      -0.593876       -16.1602
  59   2.0000      -0.590632       -16.0719
  60   2.0000      -0.525918       -14.3109
  61   2.0000      -0.516221       -14.0471
  62   2.0000      -0.496371       -13.5069
  63   2.0000      -0.483155       -13.1473
  64   2.0000      -0.478486       -13.0203
  65   2.0000      -0.462982       -12.5984
  66   2.0000      -0.459154       -12.4942
  67   2.0000      -0.446694       -12.1552
  68   2.0000      -0.437662       -11.9094
  69   2.0000      -0.433697       -11.8015
  70   2.0000      -0.421819       -11.4783
  71   2.0000      -0.413144       -11.2422
  72   2.0000      -0.409835       -11.1522
  73   2.0000      -0.405191       -11.0258
  74   2.0000      -0.396373       -10.7859
  75   2.0000      -0.387972       -10.5572
  76   2.0000      -0.383520       -10.4361
  77   2.0000      -0.364363        -9.9148
  78   2.0000      -0.364101        -9.9077
  79   2.0000      -0.360567        -9.8115
  80   2.0000      -0.354528        -9.6472
  81   2.0000      -0.353506        -9.6194
  82   2.0000      -0.348650        -9.4872
  83   2.0000      -0.344158        -9.3650
  84   2.0000      -0.341607        -9.2956
  85   2.0000      -0.334333        -9.0977
  86   2.0000      -0.324867        -8.8401
  87   2.0000      -0.313645        -8.5347
  88   2.0000      -0.310816        -8.4577
  89   2.0000      -0.301277        -8.1982
  90   2.0000      -0.299275        -8.1437
  91   2.0000      -0.291222        -7.9245
  92   2.0000      -0.282276        -7.6811
  93   2.0000      -0.278924        -7.5899
  94   2.0000      -0.272454        -7.4139
  95   2.0000      -0.248431        -6.7602
  96   2.0000      -0.237546        -6.4639
  97   2.0000      -0.232016        -6.3135
  98   2.0000      -0.231418        -6.2972
  99   2.0000      -0.226792        -6.1713
 100   2.0000      -0.222095        -6.0435
 101   0.0000      -0.048356        -1.3158
 102   0.0000      -0.032522        -0.8850
 103   0.0000      -0.015098        -0.4108
 104   0.0000      -0.000689        -0.0188
 105   0.0000       0.007939         0.2160

MULLIKEN ATOMIC CHARGES
-----------------------
   0 C :   -0.482713
   1 C :   -0.145860
   2 O :   -0.311304
   3 P :    0.707853
   4 S :   -0.528955
   5 O :   -0.294765
   6 C :   -0.143490
   7 C :   -0.484470
   8 S :   -0.128341
   9 C :   -0.246635
  10 S :   -0.152450
  11 P :    0.698188
  12 S :   -0.503837
  13 O :   -0.313796
  14 C :   -0.140997
  15 C :   -0.487163
  16 O :   -0.335108
  17 C :   -0.151229
  18 C :   -0.468336
  19 H :    0.166280
  20 H :    0.166198
  21 H :    0.169825
  22 H :    0.171899
  23 H :    0.172147
  24 H :    0.176950
  25 H :    0.179517
  26 H :    0.170421
  27 H :    0.167970
  28 H :    0.172607
  29 H :    0.237943
  30 H :    0.237011
  31 H :    0.173601
  32 H :    0.176126
  33 H :    0.171355
  34 H :    0.174598
  35 H :    0.169412
  36 H :    0.175224
  37 H :    0.176408
  38 H :    0.168238
  39 H :    0.168649
  40 H :    0.171033
Sum of atomic charges:   -0.0000000

LOEWDIN ATOMIC CHARGES
----------------------
   0 C :   -0.389038
   1 C :    0.025254
   2 O :   -0.675630
   3 P :    0.374756
   4 S :   -0.161078
   5 O :   -0.687773
   6 C :    0.024312
   7 C :   -0.402143
   8 S :    0.167592
   9 C :   -0.405657
  10 S :    0.154344
  11 P :    0.380365
  12 S :   -0.144663
  13 O :   -0.676175
  14 C :    0.025463
  15 C :   -0.412483
  16 O :   -0.685953
  17 C :    0.026634
  18 C :   -0.407191
  19 H :    0.162671
  20 H :    0.163446
  21 H :    0.169106
  22 H :    0.180041
  23 H :    0.181792
  24 H :    0.182366
  25 H :    0.191344
  26 H :    0.164377
  27 H :    0.162815
  28 H :    0.169133
  29 H :    0.206718
  30 H :    0.198718
  31 H :    0.181669
  32 H :    0.191818
  33 H :    0.167298
  34 H :    0.168629
  35 H :    0.162709
  36 H :    0.190952
  37 H :    0.181270
  38 H :    0.161368
  39 H :    0.163162
  40 H :    0.167662

  Mayer bond orders larger than 0.100000
B(  0-C ,  1-C ) :   0.9527 B(  0-C , 19-H ) :   0.9690 B(  0-C , 20-H ) :   0.9690
B(  0-C , 21-H ) :   0.9582 B(  1-C ,  2-O ) :   0.7717 B(  1-C , 22-H ) :   0.9373
B(  1-C , 23-H ) :   0.9479 B(  2-O ,  3-P ) :   1.0984 B(  3-P ,  4-S ) :   1.7012
B(  3-P ,  5-O ) :   1.1649 B(  3-P ,  8-S ) :   1.0925 B(  5-O ,  6-C ) :   0.7735
B(  6-C ,  7-C ) :   0.9152 B(  6-C , 24-H ) :   0.9594 B(  6-C , 25-H ) :   0.9512
B(  7-C , 26-H ) :   0.9705 B(  7-C , 27-H ) :   0.9593 B(  7-C , 28-H ) :   0.9563
B(  8-S ,  9-C ) :   0.9181 B(  9-C , 10-S ) :   0.8922 B(  9-C , 29-H ) :   0.9020
B(  9-C , 30-H ) :   0.9048 B( 10-S , 11-P ) :   1.0728 B( 11-P , 12-S ) :   1.7927
B( 11-P , 13-O ) :   1.0988 B( 11-P , 16-O ) :   1.0806 B( 13-O , 14-C ) :   0.7896
B( 14-C , 15-C ) :   0.9121 B( 14-C , 31-H ) :   0.9603 B( 14-C , 32-H ) :   0.9515
B( 15-C , 33-H ) :   0.9562 B( 15-C , 34-H ) :   0.9588 B( 15-C , 35-H ) :   0.9628
B( 16-O , 17-C ) :   0.8055 B( 17-C , 18-C ) :   0.9161 B( 17-C , 36-H ) :   0.9496
B( 17-C , 37-H ) :   0.9642 B( 18-C , 38-H ) :   0.9637 B( 18-C , 39-H ) :   0.9651
B( 18-C , 40-H ) :   0.9555

Dispersion correction           -0.021319776
FINAL SINGLE POINT ENERGY     -2932.472939883503

DIPOLE MOMENT
-------------

Method             : SCF
Type of density    : Electron Density
Multiplicity       :   1
Irrep              :   0
Energy             : -2932.4981723902378690 Eh
Relativity type    :
Basis              : AO
                                X                 Y                 Z
Electronic contribution:    -11.877135014      -3.929433275      -2.100036712
Nuclear contribution   :     12.988151792       3.062886893       2.762941263
                        -----------------------------------------
Total Dipole Moment    :      1.111016778      -0.866546382       0.662904550
                        -----------------------------------------
Magnitude (a.u.)       :      1.557145900
Magnitude (Debye)      :      3.957950335

Rotational constants in cm-1:             0.013750             0.004395             0.004192
Rotational constants in MHz :           412.215798           131.765083           125.664967

                             ****ORCA TERMINATED NORMALLY****
TOTAL RUN TIME: 0 days 0 hours 1 minutes 48 seconds 260 msec
