                         Program Version 6.0.0  -   RELEASE  -
|  1> ! pbe def2-sv(p) def2/J RI DEFGRID1 loosescf d4 GCP(DFT/SV(P)) printgap
|  2> %output
|  3>     printlevel normal
|  4> end
|  5> * xyz 0 1
|  6> C -1.4455893365 0.0144150951 -0.0005317312
|  7> C 0.0514394913 -0.0877684718 2.3685e-06
|  8> O 0.6598248061 -1.1344064111 0.0004954347
|  9> O 0.7200028488 1.0653359371 1.34693e-05
| 10> H -1.7783473965 0.5529471549 -0.884785304
| 11> H -1.8748334624 -0.9825551219 -0.0025971296
| 12> H -1.7788519232 0.5492406658 0.8858016089
| 13> H 0.142380812 1.8508348264 -0.0001892455
| 14> *
| 15>
| 16>                          ****END OF INPUT****

CARTESIAN COORDINATES (ANGSTROEM)
---------------------------------
  C     -1.445589    0.014415   -0.000532
  C      0.051439   -0.087768    0.000002
  O      0.659825   -1.134406    0.000495
  O      0.720003    1.065336    0.000013
  H     -1.778347    0.552947   -0.884785
  H     -1.874833   -0.982555   -0.002597
  H     -1.778852    0.549241    0.885802
  H      0.142381    1.850835   -0.000189

 Total Charge           Charge          ....    0
 Multiplicity           Mult            ....    1
 Number of Electrons    NEL             ....   32
 Basis Dimension        Dim             ....   64

ORBITAL ENERGIES
----------------

  NO   OCC          E(Eh)            E(eV)
   0   2.0000     -18.801759      -511.6219
   1   2.0000     -18.729499      -509.6556
   2   2.0000     -10.016246      -272.5559
   3   2.0000      -9.908430      -269.6221
   4   2.0000      -1.005195       -27.3528
   5   2.0000      -0.912746       -24.8371
   6   2.0000      -0.684070       -18.6145
   7   2.0000      -0.572383       -15.5753
   8   2.0000      -0.460410       -12.5284
   9   2.0000      -0.428424       -11.6580
  10   2.0000      -0.407715       -11.0945
  11   2.0000      -0.360880        -9.8200
  12   2.0000      -0.354680        -9.6513
  13   2.0000      -0.322454        -8.7744
  14   2.0000      -0.270006        -7.3472
  15   2.0000      -0.217243        -5.9115
  16   0.0000      -0.023121        -0.6292
  17   0.0000       0.000466         0.0127
  18   0.0000       0.063281         1.7220
  19   0.0000       0.096470         2.6251
  20   0.0000       0.100311         2.7296

MULLIKEN ATOMIC CHARGES
-----------------------
   0 C :   -0.338293
   1 C :    0.090241
   2 O :   -0.178532
   3 O :   -0.286158
   4 H :    0.131157
   5 H :    0.136822
   6 H :    0.131351
   7 H :    0.313411
Sum of atomic charges:   -0.0000000

LOEWDIN ATOMIC CHARGES
----------------------
   0 C :   -0.382735
   1 C :    0.016838
   2 O :   -0.150061
   3 O :   -0.208701
   4 H :    0.140069
   5 H :    0.146736
   6 H :    0.140204
   7 H :    0.297651

  Mayer bond orders larger than 0.100000
B(  0-C ,  1-C ) :   1.0655 B(  0-C ,  4-H ) :   0.9285 B(  0-C ,  5-H ) :   0.9383
B(  0-C ,  6-H ) :   0.9285 B(  1-C ,  2-O ) :   2.1525 B(  1-C ,  3-O ) :   1.2057
B(  3-O ,  7-H ) :   0.8314

Dispersion correction           -0.003886301
FINAL SINGLE POINT ENERGY      -228.598144763738

DIPOLE MOMENT
-------------

Method             : SCF
Type of density    : Electron Density
Multiplicity       :   1
Irrep              :   0
Energy             :  -228.6315790352675208 Eh
Relativity type    :
Basis              : AO
                                X                 Y                 Z
Electronic contribution:      3.757753670      -0.665696209       0.001349849
Nuclear contribution   :     -4.942141927       1.847616763      -0.001653083
                        -----------------------------------------
Total Dipole Moment    :     -1.184388257       1.181920554      -0.000303235
                        -----------------------------------------
Magnitude (a.u.)       :      1.673233944
Magnitude (Debye)      :      4.253022692

Rotational constants in cm-1:             0.370847             0.324717             0.178933
Rotational constants in MHz :         11117.706899          9734.760119          5364.277162

                             ****ORCA TERMINATED NORMALLY****
TOTAL RUN TIME: 0 days 0 hours 0 minutes 5 seconds 513 msec
