                         Program Version 6.0.0  -   RELEASE  -
|  1> ! r2scan-3c def2/J RI DEFGRID2 scfconv6 printgap
|  2> %output
|  3>     printlevel normal
|  4> end
|  5> * xyz 0 1
|  6> C 3.6234535575 0.2352484101 -2.6923675212
|  7> C 2.1518267368 0.4707838008 -2.428410599
|  8> O 1.6117921907 -0.4671416306 -1.478639256
|  9> P 2.0907193713 -0.5143545376 0.0333534555
| 10> S 2.6124321509 1.1711613797 0.8952419697
| 11> O 3.2634943608 -1.5854058076 -0.0720772037
| 12> C 4.2383881847 -1.773586109 0.966715926
| 13> C 3.62948735 -2.3448227932 2.231338687
| 14> S 0.5074114121 -1.6162109295 0.8811988809
| 15> C -0.3027885723 -0.3278635875 1.8995805357
| 16> S -2.0935461318 -0.2724525658 1.6645054678
| 17> P -2.2074613265 0.6877878321 -0.2305185819
| 18> S -0.6118411401 1.7333367865 -0.7155927411
| 19> O -3.5568448356 1.4990303805 -0.1525658452
| 20> C -3.6611574965 2.6773057286 0.6746233994
| 21> C -4.8518342283 3.4791366566 0.1896636724
| 22> O -2.7208849123 -0.350031834 -1.3037962523
| 23> C -1.902965054 -1.374607533 -1.8996823753
| 24> C -2.1848115277 -2.720047645 -1.2590621212
| 25> H 3.9535545891 0.8934293093 -3.4899441344
| 26> H 4.2006221882 0.4515902324 -1.7940357355
| 27> H 3.790859998 -0.7995690782 -2.9797161315
| 28> H 1.5474753043 0.3121914393 -3.3230135317
| 29> H 1.9753532534 1.4828297143 -2.0478344345
| 30> H 4.9631832435 -2.4576497445 0.5233818295
| 31> H 4.7124345554 -0.8085902596 1.1733246563
| 32> H 2.9698125767 -1.6090046736 2.6895644589
| 33> H 3.0562900386 -3.2402472055 2.0047061788
| 34> H 4.4218274558 -2.589614972 2.9314189578
| 35> H 0.1407419437 0.6396795163 1.6510915107
| 36> H -0.1529694669 -0.574355094 2.9472612509
| 37> H -3.7925695005 2.355433045 1.7113317223
| 38> H -2.7317136708 3.2519768975 0.5911400727
| 39> H -4.6994823052 3.7871600716 -0.8408994903
| 40> H -5.7509847569 2.8728863116 0.2457789272
| 41> H -4.9682595303 4.3586098451 0.8143675325
| 42> H -2.1834443035 -1.3744719446 -2.955088191
| 43> H -0.845459638 -1.1013539265 -1.8121012527
| 44> H -1.6249527861 -3.4866936617 -1.7848622883
| 45> H -1.8827141756 -2.7213806236 -0.2140134916
| 46> H -3.2466480748 -2.9402069233 -1.319901231
| 47> *
| 48>
| 49>                          ****END OF INPUT****

CARTESIAN COORDINATES (ANGSTROEM)
---------------------------------
  C      3.623454    0.235248   -2.692368
  C      2.151827    0.470784   -2.428411
  O      1.611792   -0.467142   -1.478639
  P      2.090719   -0.514355    0.033353
  S      2.612432    1.171161    0.895242
  O      3.263494   -1.585406   -0.072077
  C      4.238388   -1.773586    0.966716
  C      3.629487   -2.344823    2.231339
  S      0.507411   -1.616211    0.881199
  C     -0.302789   -0.327864    1.899581
  S     -2.093546   -0.272453    1.664505
  P     -2.207461    0.687788   -0.230519
  S     -0.611841    1.733337   -0.715593
  O     -3.556845    1.499030   -0.152566
  C     -3.661157    2.677306    0.674623
  C     -4.851834    3.479137    0.189664
  O     -2.720885   -0.350032   -1.303796
  C     -1.902965   -1.374608   -1.899682
  C     -2.184812   -2.720048   -1.259062
  H      3.953555    0.893429   -3.489944
  H      4.200622    0.451590   -1.794036
  H      3.790860   -0.799569   -2.979716
  H      1.547475    0.312191   -3.323014
  H      1.975353    1.482830   -2.047834
  H      4.963183   -2.457650    0.523382
  H      4.712435   -0.808590    1.173325
  H      2.969813   -1.609005    2.689564
  H      3.056290   -3.240247    2.004706
  H      4.421827   -2.589615    2.931419
  H      0.140742    0.639680    1.651092
  H     -0.152969   -0.574355    2.947261
  H     -3.792570    2.355433    1.711332
  H     -2.731714    3.251977    0.591140
  H     -4.699482    3.787160   -0.840899
  H     -5.750985    2.872886    0.245779
  H     -4.968260    4.358610    0.814368
  H     -2.183444   -1.374472   -2.955088
  H     -0.845460   -1.101354   -1.812101
  H     -1.624953   -3.486694   -1.784862
  H     -1.882714   -2.721381   -0.214013
  H     -3.246648   -2.940207   -1.319901

 Total Charge           Charge          ....    0
 Multiplicity           Mult            ....    1
 Number of Electrons    NEL             ....  202
 Basis Dimension        Dim             ....  539

ORBITAL ENERGIES
----------------

  NO   OCC          E(Eh)            E(eV)
   0   2.0000     -88.578938     -2410.3554
   1   2.0000     -88.574995     -2410.2482
   2   2.0000     -88.520316     -2408.7603
   3   2.0000     -88.515394     -2408.6263
   4   2.0000     -76.912995     -2092.9090
   5   2.0000     -76.911368     -2092.8647
   6   2.0000     -18.989847      -516.7400
   7   2.0000     -18.989262      -516.7241
   8   2.0000     -18.986576      -516.6510
   9   2.0000     -18.985388      -516.6187
  10   2.0000     -10.106859      -275.0216
  11   2.0000     -10.097252      -274.7602
  12   2.0000     -10.096852      -274.7493
  13   2.0000     -10.092952      -274.6432
  14   2.0000     -10.092579      -274.6330
  15   2.0000     -10.030331      -272.9392
  16   2.0000     -10.028234      -272.8821
  17   2.0000     -10.025213      -272.7999
  18   2.0000     -10.022956      -272.7385
  19   2.0000      -7.873134      -214.2389
  20   2.0000      -7.869641      -214.1438
  21   2.0000      -7.814964      -212.6560
  22   2.0000      -7.810155      -212.5251
  23   2.0000      -6.591397      -179.3610
  24   2.0000      -6.589921      -179.3209
  25   2.0000      -5.820109      -158.3732
  26   2.0000      -5.816677      -158.2798
  27   2.0000      -5.816387      -158.2719
  28   2.0000      -5.813587      -158.1957
  29   2.0000      -5.810489      -158.1115
  30   2.0000      -5.806715      -158.0087
  31   2.0000      -5.762649      -156.8097
  32   2.0000      -5.757843      -156.6789
  33   2.0000      -5.755435      -156.6134
  34   2.0000      -5.754764      -156.5951
  35   2.0000      -5.750474      -156.4783
  36   2.0000      -5.750093      -156.4680
  37   2.0000      -4.736617      -128.8899
  38   2.0000      -4.736227      -128.8793
  39   2.0000      -4.735500      -128.8595
  40   2.0000      -4.735282      -128.8536
  41   2.0000      -4.735102      -128.8487
  42   2.0000      -4.733507      -128.8053
  43   2.0000      -1.050867       -28.5955
  44   2.0000      -1.047156       -28.4946
  45   2.0000      -1.007544       -27.4167
  46   2.0000      -1.007210       -27.4076
  47   2.0000      -0.798897       -21.7391
  48   2.0000      -0.758093       -20.6288
  49   2.0000      -0.749002       -20.3814
  50   2.0000      -0.729293       -19.8451
  51   2.0000      -0.726453       -19.7678
  52   2.0000      -0.711471       -19.3601
  53   2.0000      -0.683394       -18.5961
  54   2.0000      -0.664304       -18.0766
  55   2.0000      -0.633436       -17.2367
  56   2.0000      -0.624283       -16.9876
  57   2.0000      -0.603193       -16.4137
  58   2.0000      -0.595267       -16.1980
  59   2.0000      -0.590416       -16.0660
  60   2.0000      -0.528498       -14.3812
  61   2.0000      -0.515082       -14.0161
  62   2.0000      -0.492767       -13.4089
  63   2.0000      -0.488760       -13.2998
  64   2.0000      -0.468856       -12.7582
  65   2.0000      -0.465008       -12.6535
  66   2.0000      -0.456832       -12.4310
  67   2.0000      -0.455126       -12.3846
  68   2.0000      -0.444425       -12.0934
  69   2.0000      -0.432441       -11.7673
  70   2.0000      -0.422648       -11.5008
  71   2.0000      -0.413037       -11.2393
  72   2.0000      -0.408866       -11.1258
  73   2.0000      -0.404967       -11.0197
  74   2.0000      -0.397351       -10.8125
  75   2.0000      -0.389162       -10.5896
  76   2.0000      -0.381738       -10.3876
  77   2.0000      -0.371807       -10.1174
  78   2.0000      -0.368726       -10.0336
  79   2.0000      -0.361739        -9.8434
  80   2.0000      -0.360179        -9.8010
  81   2.0000      -0.355843        -9.6830
  82   2.0000      -0.351916        -9.5761
  83   2.0000      -0.350956        -9.5500
  84   2.0000      -0.346118        -9.4184
  85   2.0000      -0.329525        -8.9668
  86   2.0000      -0.323376        -8.7995
  87   2.0000      -0.315786        -8.5930
  88   2.0000      -0.307889        -8.3781
  89   2.0000      -0.305181        -8.3044
  90   2.0000      -0.295887        -8.0515
  91   2.0000      -0.284559        -7.7432
  92   2.0000      -0.280929        -7.6445
  93   2.0000      -0.279301        -7.6002
  94   2.0000      -0.271745        -7.3946
  95   2.0000      -0.248530        -6.7629
  96   2.0000      -0.232031        -6.3139
  97   2.0000      -0.229024        -6.2321
  98   2.0000      -0.216891        -5.9019
  99   2.0000      -0.212561        -5.7841
 100   2.0000      -0.202348        -5.5062
 101   0.0000      -0.046781        -1.2730
 102   0.0000      -0.037017        -1.0073
 103   0.0000      -0.011970        -0.3257
 104   0.0000       0.007637         0.2078
 105   0.0000       0.017471         0.4754

MULLIKEN ATOMIC CHARGES
-----------------------
   0 C :   -0.448838
   1 C :   -0.153253
   2 O :   -0.291736
   3 P :    0.662914
   4 S :   -0.461545
   5 O :   -0.289761
   6 C :   -0.156073
   7 C :   -0.442016
   8 S :   -0.141836
   9 C :   -0.206942
  10 S :   -0.152875
  11 P :    0.689856
  12 S :   -0.423400
  13 O :   -0.306340
  14 C :   -0.146645
  15 C :   -0.438614
  16 O :   -0.285491
  17 C :   -0.152203
  18 C :   -0.425696
  19 H :    0.147258
  20 H :    0.168770
  21 H :    0.155773
  22 H :    0.152308
  23 H :    0.177321
  24 H :    0.147680
  25 H :    0.172026
  26 H :    0.169555
  27 H :    0.156633
  28 H :    0.147361
  29 H :    0.217902
  30 H :    0.192787
  31 H :    0.151193
  32 H :    0.168782
  33 H :    0.158709
  34 H :    0.153557
  35 H :    0.145544
  36 H :    0.148846
  37 H :    0.181665
  38 H :    0.146572
  39 H :    0.159244
  40 H :    0.151008
Sum of atomic charges:   -0.0000000

LOEWDIN ATOMIC CHARGES
----------------------
   0 C :   -0.400606
   1 C :    0.011860
   2 O :   -0.693600
   3 P :    0.373889
   4 S :   -0.122015
   5 O :   -0.668780
   6 C :    0.018312
   7 C :   -0.407404
   8 S :    0.158688
   9 C :   -0.415648
  10 S :    0.136510
  11 P :    0.379398
  12 S :   -0.084818
  13 O :   -0.652364
  14 C :    0.020467
  15 C :   -0.384751
  16 O :   -0.643286
  17 C :    0.023083
  18 C :   -0.403139
  19 H :    0.159422
  20 H :    0.164998
  21 H :    0.161064
  22 H :    0.181657
  23 H :    0.182849
  24 H :    0.179207
  25 H :    0.179255
  26 H :    0.162683
  27 H :    0.161092
  28 H :    0.158336
  29 H :    0.202646
  30 H :    0.178612
  31 H :    0.171632
  32 H :    0.180303
  33 H :    0.162007
  34 H :    0.160101
  35 H :    0.159479
  36 H :    0.177748
  37 H :    0.190999
  38 H :    0.160162
  39 H :    0.161843
  40 H :    0.158106

  Mayer bond orders larger than 0.100000
B(  0-C ,  1-C ) :   0.9132 B(  0-C , 19-H ) :   0.9601 B(  0-C , 20-H ) :   0.9616
B(  0-C , 21-H ) :   0.9713 B(  1-C ,  2-O ) :   0.8152 B(  1-C , 22-H ) :   0.9604
B(  1-C , 23-H ) :   0.9640 B(  2-O ,  3-P ) :   1.1627 B(  3-P ,  4-S ) :   1.7500
B(  3-P ,  5-O ) :   1.0550 B(  3-P ,  8-S ) :   1.1133 B(  5-O ,  6-C ) :   0.8231
B(  6-C ,  7-C ) :   0.9192 B(  6-C , 24-H ) :   0.9581 B(  6-C , 25-H ) :   0.9681
B(  7-C , 26-H ) :   0.9673 B(  7-C , 27-H ) :   0.9667 B(  7-C , 28-H ) :   0.9595
B(  8-S ,  9-C ) :   0.8790 B(  9-C , 10-S ) :   0.9240 B(  9-C , 29-H ) :   0.9015
B(  9-C , 30-H ) :   0.9128 B( 10-S , 11-P ) :   1.0080 B( 11-P , 12-S ) :   1.7735
B( 11-P , 13-O ) :   1.1412 B( 11-P , 16-O ) :   1.1597 B( 13-O , 14-C ) :   0.7815
B( 14-C , 15-C ) :   0.9612 B( 14-C , 31-H ) :   0.9440 B( 14-C , 32-H ) :   0.9522
B( 15-C , 33-H ) :   0.9713 B( 15-C , 34-H ) :   0.9719 B( 15-C , 35-H ) :   0.9645
B( 16-O , 17-C ) :   0.7566 B( 17-C , 18-C ) :   0.9490 B( 17-C , 36-H ) :   0.9643
B( 17-C , 37-H ) :   0.9557 B( 18-C , 38-H ) :   0.9687 B( 18-C , 39-H ) :   0.9551
B( 18-C , 40-H ) :   0.9734

Dispersion correction           -0.021840075
FINAL SINGLE POINT ENERGY     -2932.461333074508

DIPOLE MOMENT
-------------

Method             : SCF
Type of density    : Electron Density
Multiplicity       :   1
Irrep              :   0
Energy             : -2932.4861028700697716 Eh
Relativity type    :
Basis              : AO
                                X                 Y                 Z
Electronic contribution:     -3.603490322       2.597983234       4.927224247
Nuclear contribution   :      3.686277304      -3.291233312      -4.898969713
                        -----------------------------------------
Total Dipole Moment    :      0.082786982      -0.693250078       0.028254534
                        -----------------------------------------
Magnitude (a.u.)       :      0.698747217
Magnitude (Debye)      :      1.776074280

Rotational constants in cm-1:             0.012677             0.004910             0.004752
Rotational constants in MHz :           380.044448           147.185774           142.473408

                             ****ORCA TERMINATED NORMALLY****
TOTAL RUN TIME: 0 days 0 hours 1 minutes 19 seconds 270 msec
