                         Program Version 6.0.0  -   RELEASE  -
|  1> ! r2scan-3c def2/J RI DEFGRID2 scfconv6 printgap
|  2> %output
|  3>     printlevel normal
|  4> end
|  5> %cpcm
|  6>     smd true
|  7>     smdsolvent "water"
|  8> end
|  9> * xyz 0 1
| 10> C 3.6234535575 0.2352484101 -2.6923675212
| 11> C 2.1518267368 0.4707838008 -2.428410599
| 12> O 1.6117921907 -0.4671416306 -1.478639256
| 13> P 2.0907193713 -0.5143545376 0.0333534555
| 14> S 2.6124321509 1.1711613797 0.8952419697
| 15> O 3.2634943608 -1.5854058076 -0.0720772037
| 16> C 4.2383881847 -1.773586109 0.966715926
| 17> C 3.62948735 -2.3448227932 2.231338687
| 18> S 0.5074114121 -1.6162109295 0.8811988809
| 19> C -0.3027885723 -0.3278635875 1.8995805357
| 20> S -2.0935461318 -0.2724525658 1.6645054678
| 21> P -2.2074613265 0.6877878321 -0.2305185819
| 22> S -0.6118411401 1.7333367865 -0.7155927411
| 23> O -3.5568448356 1.4990303805 -0.1525658452
| 24> C -3.6611574965 2.6773057286 0.6746233994
| 25> C -4.8518342283 3.4791366566 0.1896636724
| 26> O -2.7208849123 -0.350031834 -1.3037962523
| 27> C -1.902965054 -1.374607533 -1.8996823753
| 28> C -2.1848115277 -2.720047645 -1.2590621212
| 29> H 3.9535545891 0.8934293093 -3.4899441344
| 30> H 4.2006221882 0.4515902324 -1.7940357355
| 31> H 3.790859998 -0.7995690782 -2.9797161315
| 32> H 1.5474753043 0.3121914393 -3.3230135317
| 33> H 1.9753532534 1.4828297143 -2.0478344345
| 34> H 4.9631832435 -2.4576497445 0.5233818295
| 35> H 4.7124345554 -0.8085902596 1.1733246563
| 36> H 2.9698125767 -1.6090046736 2.6895644589
| 37> H 3.0562900386 -3.2402472055 2.0047061788
| 38> H 4.4218274558 -2.589614972 2.9314189578
| 39> H 0.1407419437 0.6396795163 1.6510915107
| 40> H -0.1529694669 -0.574355094 2.9472612509
| 41> H -3.7925695005 2.355433045 1.7113317223
| 42> H -2.7317136708 3.2519768975 0.5911400727
| 43> H -4.6994823052 3.7871600716 -0.8408994903
| 44> H -5.7509847569 2.8728863116 0.2457789272
| 45> H -4.9682595303 4.3586098451 0.8143675325
| 46> H -2.1834443035 -1.3744719446 -2.955088191
| 47> H -0.845459638 -1.1013539265 -1.8121012527
| 48> H -1.6249527861 -3.4866936617 -1.7848622883
| 49> H -1.8827141756 -2.7213806236 -0.2140134916
| 50> H -3.2466480748 -2.9402069233 -1.319901231
| 51> *
| 52>
| 53>                          ****END OF INPUT****

CARTESIAN COORDINATES (ANGSTROEM)
---------------------------------
  C      3.623454    0.235248   -2.692368
  C      2.151827    0.470784   -2.428411
  O      1.611792   -0.467142   -1.478639
  P      2.090719   -0.514355    0.033353
  S      2.612432    1.171161    0.895242
  O      3.263494   -1.585406   -0.072077
  C      4.238388   -1.773586    0.966716
  C      3.629487   -2.344823    2.231339
  S      0.507411   -1.616211    0.881199
  C     -0.302789   -0.327864    1.899581
  S     -2.093546   -0.272453    1.664505
  P     -2.207461    0.687788   -0.230519
  S     -0.611841    1.733337   -0.715593
  O     -3.556845    1.499030   -0.152566
  C     -3.661157    2.677306    0.674623
  C     -4.851834    3.479137    0.189664
  O     -2.720885   -0.350032   -1.303796
  C     -1.902965   -1.374608   -1.899682
  C     -2.184812   -2.720048   -1.259062
  H      3.953555    0.893429   -3.489944
  H      4.200622    0.451590   -1.794036
  H      3.790860   -0.799569   -2.979716
  H      1.547475    0.312191   -3.323014
  H      1.975353    1.482830   -2.047834
  H      4.963183   -2.457650    0.523382
  H      4.712435   -0.808590    1.173325
  H      2.969813   -1.609005    2.689564
  H      3.056290   -3.240247    2.004706
  H      4.421827   -2.589615    2.931419
  H      0.140742    0.639680    1.651092
  H     -0.152969   -0.574355    2.947261
  H     -3.792570    2.355433    1.711332
  H     -2.731714    3.251977    0.591140
  H     -4.699482    3.787160   -0.840899
  H     -5.750985    2.872886    0.245779
  H     -4.968260    4.358610    0.814368
  H     -2.183444   -1.374472   -2.955088
  H     -0.845460   -1.101354   -1.812101
  H     -1.624953   -3.486694   -1.784862
  H     -1.882714   -2.721381   -0.214013
  H     -3.246648   -2.940207   -1.319901

 Total Charge           Charge          ....    0
 Multiplicity           Mult            ....    1
 Number of Electrons    NEL             ....  202
 Basis Dimension        Dim             ....  539

ORBITAL ENERGIES
----------------

  NO   OCC          E(Eh)            E(eV)
   0   2.0000     -88.583047     -2410.4673
   1   2.0000     -88.577097     -2410.3053
   2   2.0000     -88.527362     -2408.9520
   3   2.0000     -88.525132     -2408.8913
   4   2.0000     -76.918871     -2093.0689
   5   2.0000     -76.917782     -2093.0393
   6   2.0000     -18.996110      -516.9104
   7   2.0000     -18.994589      -516.8691
   8   2.0000     -18.991850      -516.7945
   9   2.0000     -18.989022      -516.7176
  10   2.0000     -10.105554      -274.9861
  11   2.0000     -10.090980      -274.5895
  12   2.0000     -10.090101      -274.5656
  13   2.0000     -10.088124      -274.5118
  14   2.0000     -10.087868      -274.5049
  15   2.0000     -10.019730      -272.6507
  16   2.0000     -10.017864      -272.5999
  17   2.0000     -10.017523      -272.5907
  18   2.0000     -10.017122      -272.5797
  19   2.0000      -7.877175      -214.3488
  20   2.0000      -7.871712      -214.2002
  21   2.0000      -7.822325      -212.8563
  22   2.0000      -7.820107      -212.7959
  23   2.0000      -6.597559      -179.5287
  24   2.0000      -6.596242      -179.4929
  25   2.0000      -5.824168      -158.4837
  26   2.0000      -5.820733      -158.3902
  27   2.0000      -5.818485      -158.3290
  28   2.0000      -5.815679      -158.2527
  29   2.0000      -5.814519      -158.2211
  30   2.0000      -5.808748      -158.0641
  31   2.0000      -5.769941      -157.0081
  32   2.0000      -5.767727      -156.9478
  33   2.0000      -5.762773      -156.8130
  34   2.0000      -5.762158      -156.7963
  35   2.0000      -5.760366      -156.7475
  36   2.0000      -5.760132      -156.7412
  37   2.0000      -4.742905      -129.0610
  38   2.0000      -4.742755      -129.0569
  39   2.0000      -4.741446      -129.0213
  40   2.0000      -4.741150      -129.0133
  41   2.0000      -4.741048      -129.0105
  42   2.0000      -4.740412      -128.9932
  43   2.0000      -1.057976       -28.7890
  44   2.0000      -1.049973       -28.5712
  45   2.0000      -1.013851       -27.5883
  46   2.0000      -1.009501       -27.4699
  47   2.0000      -0.800281       -21.7768
  48   2.0000      -0.757321       -20.6077
  49   2.0000      -0.745757       -20.2931
  50   2.0000      -0.722331       -19.6556
  51   2.0000      -0.721342       -19.6287
  52   2.0000      -0.711365       -19.3572
  53   2.0000      -0.688442       -18.7335
  54   2.0000      -0.670651       -18.2493
  55   2.0000      -0.633316       -17.2334
  56   2.0000      -0.623114       -16.9558
  57   2.0000      -0.597972       -16.2716
  58   2.0000      -0.593596       -16.1526
  59   2.0000      -0.587263       -15.9802
  60   2.0000      -0.528597       -14.3839
  61   2.0000      -0.512716       -13.9517
  62   2.0000      -0.495377       -13.4799
  63   2.0000      -0.486798       -13.2465
  64   2.0000      -0.470740       -12.8095
  65   2.0000      -0.465493       -12.6667
  66   2.0000      -0.454434       -12.3658
  67   2.0000      -0.452490       -12.3129
  68   2.0000      -0.442379       -12.0377
  69   2.0000      -0.429332       -11.6827
  70   2.0000      -0.421963       -11.4822
  71   2.0000      -0.414085       -11.2678
  72   2.0000      -0.406476       -11.0608
  73   2.0000      -0.402947       -10.9647
  74   2.0000      -0.396579       -10.7915
  75   2.0000      -0.388415       -10.5693
  76   2.0000      -0.380813       -10.3624
  77   2.0000      -0.366540        -9.9741
  78   2.0000      -0.362988        -9.8774
  79   2.0000      -0.355831        -9.6826
  80   2.0000      -0.354528        -9.6472
  81   2.0000      -0.350133        -9.5276
  82   2.0000      -0.349102        -9.4996
  83   2.0000      -0.346482        -9.4283
  84   2.0000      -0.344230        -9.3670
  85   2.0000      -0.328950        -8.9512
  86   2.0000      -0.321793        -8.7564
  87   2.0000      -0.315795        -8.5932
  88   2.0000      -0.306306        -8.3350
  89   2.0000      -0.303457        -8.2575
  90   2.0000      -0.296684        -8.0732
  91   2.0000      -0.285373        -7.7654
  92   2.0000      -0.282991        -7.7006
  93   2.0000      -0.280339        -7.6284
  94   2.0000      -0.275637        -7.5005
  95   2.0000      -0.251726        -6.8498
  96   2.0000      -0.239093        -6.5060
  97   2.0000      -0.236225        -6.4280
  98   2.0000      -0.224273        -6.1028
  99   2.0000      -0.219751        -5.9797
 100   2.0000      -0.212140        -5.7726
 101   0.0000      -0.051334        -1.3969
 102   0.0000      -0.041648        -1.1333
 103   0.0000      -0.015311        -0.4166
 104   0.0000       0.002137         0.0582
 105   0.0000       0.013366         0.3637

MULLIKEN ATOMIC CHARGES
-----------------------
   0 C :   -0.491743
   1 C :   -0.150751
   2 O :   -0.313962
   3 P :    0.706125
   4 S :   -0.517063
   5 O :   -0.318605
   6 C :   -0.158100
   7 C :   -0.476190
   8 S :   -0.140838
   9 C :   -0.204762
  10 S :   -0.154404
  11 P :    0.703735
  12 S :   -0.466979
  13 O :   -0.336630
  14 C :   -0.138578
  15 C :   -0.480814
  16 O :   -0.316881
  17 C :   -0.139205
  18 C :   -0.468596
  19 H :    0.171605
  20 H :    0.169908
  21 H :    0.169488
  22 H :    0.177842
  23 H :    0.176130
  24 H :    0.173901
  25 H :    0.177348
  26 H :    0.171100
  27 H :    0.166464
  28 H :    0.171623
  29 H :    0.211875
  30 H :    0.234541
  31 H :    0.171300
  32 H :    0.171822
  33 H :    0.166398
  34 H :    0.166112
  35 H :    0.169785
  36 H :    0.175449
  37 H :    0.174841
  38 H :    0.172085
  39 H :    0.159249
  40 H :    0.165376
Sum of atomic charges:   -0.0000000

LOEWDIN ATOMIC CHARGES
----------------------
   0 C :   -0.403555
   1 C :    0.014013
   2 O :   -0.704436
   3 P :    0.379691
   4 S :   -0.155309
   5 O :   -0.681514
   6 C :    0.023315
   7 C :   -0.410074
   8 S :    0.162256
   9 C :   -0.408300
  10 S :    0.141913
  11 P :    0.378832
  12 S :   -0.112390
  13 O :   -0.672319
  14 C :    0.024896
  15 C :   -0.388601
  16 O :   -0.662373
  17 C :    0.026763
  18 C :   -0.406634
  19 H :    0.168442
  20 H :    0.163046
  21 H :    0.164519
  22 H :    0.191024
  23 H :    0.181702
  24 H :    0.190171
  25 H :    0.180990
  26 H :    0.160808
  27 H :    0.163382
  28 H :    0.167173
  29 H :    0.200366
  30 H :    0.195202
  31 H :    0.180084
  32 H :    0.181698
  33 H :    0.162949
  34 H :    0.163422
  35 H :    0.169130
  36 H :    0.188648
  37 H :    0.189517
  38 H :    0.169465
  39 H :    0.159764
  40 H :    0.162325

  Mayer bond orders larger than 0.100000
B(  0-C ,  1-C ) :   0.9072 B(  0-C , 19-H ) :   0.9540 B(  0-C , 20-H ) :   0.9615
B(  0-C , 21-H ) :   0.9697 B(  1-C ,  2-O ) :   0.8011 B(  1-C , 22-H ) :   0.9495
B(  1-C , 23-H ) :   0.9611 B(  2-O ,  3-P ) :   1.1669 B(  3-P ,  4-S ) :   1.6952
B(  3-P ,  5-O ) :   1.0621 B(  3-P ,  8-S ) :   1.1324 B(  5-O ,  6-C ) :   0.8108
B(  6-C ,  7-C ) :   0.9075 B(  6-C , 24-H ) :   0.9485 B(  6-C , 25-H ) :   0.9663
B(  7-C , 26-H ) :   0.9665 B(  7-C , 27-H ) :   0.9646 B(  7-C , 28-H ) :   0.9544
B(  8-S ,  9-C ) :   0.8754 B(  9-C , 10-S ) :   0.9183 B(  9-C , 29-H ) :   0.9056
B(  9-C , 30-H ) :   0.8972 B( 10-S , 11-P ) :   1.0306 B( 11-P , 12-S ) :   1.7508
B( 11-P , 13-O ) :   1.1388 B( 11-P , 16-O ) :   1.1548 B( 13-O , 14-C ) :   0.7749
B( 14-C , 15-C ) :   0.9560 B( 14-C , 31-H ) :   0.9349 B( 14-C , 32-H ) :   0.9478
B( 15-C , 33-H ) :   0.9696 B( 15-C , 34-H ) :   0.9693 B( 15-C , 35-H ) :   0.9583
B( 16-O , 17-C ) :   0.7494 B( 17-C , 18-C ) :   0.9414 B( 17-C , 36-H ) :   0.9539
B( 17-C , 37-H ) :   0.9517 B( 18-C , 38-H ) :   0.9631 B( 18-C , 39-H ) :   0.9557
B( 18-C , 40-H ) :   0.9712

Dispersion correction           -0.021840075
FINAL SINGLE POINT ENERGY     -2932.468217254682

DIPOLE MOMENT
-------------

Method             : SCF
Type of density    : Electron Density
Multiplicity       :   1
Irrep              :   0
Energy             : -2932.4929870502433005 Eh
Relativity type    :
Basis              : AO
                                X                 Y                 Z
Electronic contribution:     -3.491250166       2.232727956       5.131773693
Nuclear contribution   :      3.686277304      -3.291233312      -4.898969713
                        -----------------------------------------
Total Dipole Moment    :      0.195027138      -1.058505356       0.232803980
                        -----------------------------------------
Magnitude (a.u.)       :      1.101211545
Magnitude (Debye)      :      2.799057301

Rotational constants in cm-1:             0.012677             0.004910             0.004752
Rotational constants in MHz :           380.044448           147.185774           142.473408

                             ****ORCA TERMINATED NORMALLY****
TOTAL RUN TIME: 0 days 0 hours 1 minutes 48 seconds 730 msec
