                         Program Version 6.0.0  -   RELEASE  -
|  1> ! pbe def2-sv(p) def2/J RI DEFGRID1 loosescf d4 GCP(DFT/SV(P)) printgap
|  2> %output
|  3>     printlevel normal
|  4> end
|  5> * xyz 0 1
|  6> C -0.0023408825 -1.8217267029 0.1640357127
|  7> C -7.2009e-05 -0.4444742982 -0.447111907
|  8> Cl 1.4500159049 0.4815878973 0.056706574
|  9> Cl -1.4489574353 0.4832665502 0.0566369505
| 10> H -0.889603343 -2.3572258958 -0.1626275825
| 11> H 0.8838752238 -2.3588720914 -0.1625753832
| 12> H -0.0023948824 -1.7606864675 1.248852091
| 13> H -0.0003549298 -0.456344087 -1.5371846816
| 14> *
| 15>
| 16>                          ****END OF INPUT****

CARTESIAN COORDINATES (ANGSTROEM)
---------------------------------
  C     -0.002341   -1.821727    0.164036
  C     -0.000072   -0.444474   -0.447112
  Cl     1.450016    0.481588    0.056707
  Cl    -1.448957    0.483267    0.056637
  H     -0.889603   -2.357226   -0.162628
  H      0.883875   -2.358872   -0.162575
  H     -0.002395   -1.760686    1.248852
  H     -0.000355   -0.456344   -1.537185

 Total Charge           Charge          ....    0
 Multiplicity           Mult            ....    1
 Number of Electrons    NEL             ....   50
 Basis Dimension        Dim             ....   72

ORBITAL ENERGIES
----------------

  NO   OCC          E(Eh)            E(eV)
   0   2.0000    -100.633617     -2738.3799
   1   2.0000    -100.633528     -2738.3775
   2   2.0000     -10.007940      -272.3299
   3   2.0000      -9.905874      -269.5525
   4   2.0000      -9.169945      -249.5269
   5   2.0000      -9.169866      -249.5247
   6   2.0000      -7.001632      -190.5241
   7   2.0000      -7.001557      -190.5220
   8   2.0000      -6.989636      -190.1977
   9   2.0000      -6.989563      -190.1957
  10   2.0000      -6.989288      -190.1882
  11   2.0000      -6.989216      -190.1862
  12   2.0000      -0.824217       -22.4281
  13   2.0000      -0.739144       -20.1131
  14   2.0000      -0.674686       -18.3591
  15   2.0000      -0.551091       -14.9959
  16   2.0000      -0.445145       -12.1130
  17   2.0000      -0.425238       -11.5713
  18   2.0000      -0.397899       -10.8274
  19   2.0000      -0.352972        -9.6049
  20   2.0000      -0.352612        -9.5951
  21   2.0000      -0.281830        -7.6690
  22   2.0000      -0.269565        -7.3352
  23   2.0000      -0.256543        -6.9809
  24   2.0000      -0.251187        -6.8351
  25   0.0000      -0.017294        -0.4706
  26   0.0000       0.003499         0.0952
  27   0.0000       0.043330         1.1791
  28   0.0000       0.073814         2.0086
  29   0.0000       0.102121         2.7789

MULLIKEN ATOMIC CHARGES
-----------------------
   0 C :   -0.207037
   1 C :   -0.155381
   2 Cl:   -0.093644
   3 Cl:   -0.093799
   4 H :    0.125761
   5 H :    0.125634
   6 H :    0.128923
   7 H :    0.169542
Sum of atomic charges:   -0.0000000

LOEWDIN ATOMIC CHARGES
----------------------
   0 C :   -0.368799
   1 C :   -0.263068
   2 Cl:    0.050019
   3 Cl:    0.049977
   4 H :    0.134039
   5 H :    0.133979
   6 H :    0.133719
   7 H :    0.130135

  Mayer bond orders larger than 0.100000
B(  0-C ,  1-C ) :   1.0863 B(  0-C ,  4-H ) :   0.9314 B(  0-C ,  5-H ) :   0.9314
B(  0-C ,  6-H ) :   0.9397 B(  1-C ,  2-Cl) :   1.0400 B(  1-C ,  3-Cl) :   1.0400
B(  1-C ,  7-H ) :   0.9103

Dispersion correction           -0.006431511
FINAL SINGLE POINT ENERGY      -998.149860767213

DIPOLE MOMENT
-------------

Method             : SCF
Type of density    : Electron Density
Multiplicity       :   1
Irrep              :   0
Energy             :  -998.1736449235193049 Eh
Relativity type    :
Basis              : AO
                                X                 Y                 Z
Electronic contribution:      0.008909832       7.097282703       0.440545320
Nuclear contribution   :     -0.009374470      -7.799522269      -0.727733989
                        -----------------------------------------
Total Dipole Moment    :     -0.000464637      -0.702239566      -0.287188669
                        -----------------------------------------
Magnitude (a.u.)       :      0.758694903
Magnitude (Debye)      :      1.928449186

Rotational constants in cm-1:             0.210091             0.107020             0.075311
Rotational constants in MHz :          6298.362448          3208.373477          2257.769288

                             ****ORCA TERMINATED NORMALLY****
TOTAL RUN TIME: 0 days 0 hours 0 minutes 4 seconds 61 msec
