                         Program Version 6.0.0  -   RELEASE  -
|  1> ! r2scan-3c def2/J RI DEFGRID2 scfconv6 printgap
|  2> %output
|  3>     printlevel normal
|  4> end
|  5> * xyz 0 1
|  6> C 5.2431191287 -2.409136078 -1.483566959
|  7> C 4.2016506371 -1.3163304967 -1.6147374358
|  8> O 3.2599225477 -1.4702336599 -0.533149414
|  9> P 2.3021047107 -0.2873515183 -0.0871244558
| 10> S 3.1776191183 1.4486612756 0.1924607483
| 11> O 1.5725261679 -0.9224512304 1.1664524887
| 12> C 2.0265014351 -0.678965734 2.5146490735
| 13> C 3.3500386002 -1.3618741142 2.7838733741
| 14> S 0.7645732598 -0.3332565232 -1.5341046304
| 15> C 0.0562152216 1.2867937818 -1.1271668958
| 16> S -0.6824728827 1.3404902842 0.524615598
| 17> P -2.5665252206 0.4311887764 0.0757090939
| 18> S -3.0877325095 0.5268019914 -1.8166702673
| 19> O -3.564823495 1.134951684 1.0754890394
| 20> C -4.1578981469 2.4149895018 0.7783070459
| 21> C -5.5294868811 2.4599559824 1.4218229231
| 22> O -2.594021962 -0.9645480179 0.8146413331
| 23> C -1.7085532381 -2.0731315593 0.5809882815
| 24> C -1.9422467389 -2.7301009648 -0.7651023497
| 25> H 5.7830495321 -2.303711115 -0.5469488171
| 26> H 4.7616753086 -3.3822863322 -1.5052168208
| 27> H 5.9424372325 -2.3347953261 -2.3097719394
| 28> H 3.6541075827 -1.3974004496 -2.557501647
| 29> H 4.6522985043 -0.3203697014 -1.5467203138
| 30> H 2.1067583443 0.4028227631 2.6626019316
| 31> H 1.2256796856 -1.0777780606 3.1385439064
| 32> H 3.2792960136 -2.421506663 2.5534454012
| 33> H 4.1255225763 -0.9164652207 2.1616898974
| 34> H 3.6174263122 -1.2329716591 3.8279545599
| 35> H -0.7113761765 1.4883234463 -1.8757547234
| 36> H 0.8444558659 2.0384917054 -1.1430243182
| 37> H -3.5018173956 3.1892691685 1.1843857657
| 38> H -4.2264881754 2.5326558324 -0.3092325279
| 39> H -5.4413393261 2.2942939607 2.4914888768
| 40> H -5.9760567144 3.4323578338 1.2419612051
| 41> H -6.1657612659 1.6881295621 0.9977316301
| 42> H -0.6720185409 -1.7349383664 0.6760055045
| 43> H -1.9411964606 -2.7579278567 1.3990375026
| 44> H -1.6662674466 -2.0566699745 -1.5746783574
| 45> H -1.333491833 -3.6259058799 -0.8345041816
| 46> H -2.9905539899 -2.9960268813 -0.8750715496
| 47> *
| 48>
| 49>                          ****END OF INPUT****

CARTESIAN COORDINATES (ANGSTROEM)
---------------------------------
  C      5.243119   -2.409136   -1.483567
  C      4.201651   -1.316330   -1.614737
  O      3.259923   -1.470234   -0.533149
  P      2.302105   -0.287352   -0.087124
  S      3.177619    1.448661    0.192461
  O      1.572526   -0.922451    1.166452
  C      2.026501   -0.678966    2.514649
  C      3.350039   -1.361874    2.783873
  S      0.764573   -0.333257   -1.534105
  C      0.056215    1.286794   -1.127167
  S     -0.682473    1.340490    0.524616
  P     -2.566525    0.431189    0.075709
  S     -3.087733    0.526802   -1.816670
  O     -3.564823    1.134952    1.075489
  C     -4.157898    2.414990    0.778307
  C     -5.529487    2.459956    1.421823
  O     -2.594022   -0.964548    0.814641
  C     -1.708553   -2.073132    0.580988
  C     -1.942247   -2.730101   -0.765102
  H      5.783050   -2.303711   -0.546949
  H      4.761675   -3.382286   -1.505217
  H      5.942437   -2.334795   -2.309772
  H      3.654108   -1.397400   -2.557502
  H      4.652299   -0.320370   -1.546720
  H      2.106758    0.402823    2.662602
  H      1.225680   -1.077778    3.138544
  H      3.279296   -2.421507    2.553445
  H      4.125523   -0.916465    2.161690
  H      3.617426   -1.232972    3.827955
  H     -0.711376    1.488323   -1.875755
  H      0.844456    2.038492   -1.143024
  H     -3.501817    3.189269    1.184386
  H     -4.226488    2.532656   -0.309233
  H     -5.441339    2.294294    2.491489
  H     -5.976057    3.432358    1.241961
  H     -6.165761    1.688130    0.997732
  H     -0.672019   -1.734938    0.676006
  H     -1.941196   -2.757928    1.399038
  H     -1.666267   -2.056670   -1.574678
  H     -1.333492   -3.625906   -0.834504
  H     -2.990554   -2.996027   -0.875072

 Total Charge           Charge          ....    0
 Multiplicity           Mult            ....    1
 Number of Electrons    NEL             ....  202
 Basis Dimension        Dim             ....  539

ORBITAL ENERGIES
----------------

  NO   OCC          E(Eh)            E(eV)
   0   2.0000     -88.578554     -2410.3450
   1   2.0000     -88.575023     -2410.2489
   2   2.0000     -88.525627     -2408.9048
   3   2.0000     -88.520836     -2408.7744
   4   2.0000     -76.918207     -2093.0508
   5   2.0000     -76.913054     -2092.9106
   6   2.0000     -18.998312      -516.9703
   7   2.0000     -18.995794      -516.9018
   8   2.0000     -18.989114      -516.7201
   9   2.0000     -18.988546      -516.7046
  10   2.0000     -10.103568      -274.9321
  11   2.0000     -10.103237      -274.9231
  12   2.0000     -10.101275      -274.8697
  13   2.0000     -10.095357      -274.7086
  14   2.0000     -10.093899      -274.6690
  15   2.0000     -10.037509      -273.1345
  16   2.0000     -10.032302      -272.9928
  17   2.0000     -10.029247      -272.9097
  18   2.0000     -10.019780      -272.6521
  19   2.0000      -7.872889      -214.2322
  20   2.0000      -7.868941      -214.1248
  21   2.0000      -7.820329      -212.8020
  22   2.0000      -7.815701      -212.6760
  23   2.0000      -6.596927      -179.5115
  24   2.0000      -6.591478      -179.3632
  25   2.0000      -5.819667      -158.3612
  26   2.0000      -5.816737      -158.2815
  27   2.0000      -5.815846      -158.2572
  28   2.0000      -5.812705      -158.1717
  29   2.0000      -5.810120      -158.1014
  30   2.0000      -5.806219      -157.9953
  31   2.0000      -5.767932      -156.9534
  32   2.0000      -5.763312      -156.8277
  33   2.0000      -5.760603      -156.7540
  34   2.0000      -5.760396      -156.7483
  35   2.0000      -5.755974      -156.6280
  36   2.0000      -5.755735      -156.6215
  37   2.0000      -4.742281      -129.0440
  38   2.0000      -4.741899      -129.0336
  39   2.0000      -4.740707      -129.0012
  40   2.0000      -4.736853      -128.8963
  41   2.0000      -4.736662      -128.8911
  42   2.0000      -4.735087      -128.8483
  43   2.0000      -1.055871       -28.7317
  44   2.0000      -1.050931       -28.5973
  45   2.0000      -1.017038       -27.6750
  46   2.0000      -1.007527       -27.4162
  47   2.0000      -0.801805       -21.8182
  48   2.0000      -0.761841       -20.7308
  49   2.0000      -0.752415       -20.4742
  50   2.0000      -0.737160       -20.0591
  51   2.0000      -0.725183       -19.7332
  52   2.0000      -0.711345       -19.3567
  53   2.0000      -0.685912       -18.6646
  54   2.0000      -0.670339       -18.2408
  55   2.0000      -0.634209       -17.2577
  56   2.0000      -0.625843       -17.0300
  57   2.0000      -0.604664       -16.4537
  58   2.0000      -0.596851       -16.2411
  59   2.0000      -0.593206       -16.1420
  60   2.0000      -0.534886       -14.5550
  61   2.0000      -0.524448       -14.2709
  62   2.0000      -0.501671       -13.6512
  63   2.0000      -0.488790       -13.3006
  64   2.0000      -0.478309       -13.0155
  65   2.0000      -0.463266       -12.6061
  66   2.0000      -0.456596       -12.4246
  67   2.0000      -0.455731       -12.4011
  68   2.0000      -0.445446       -12.1212
  69   2.0000      -0.433027       -11.7833
  70   2.0000      -0.426626       -11.6091
  71   2.0000      -0.419489       -11.4149
  72   2.0000      -0.413402       -11.2492
  73   2.0000      -0.400970       -10.9110
  74   2.0000      -0.393030       -10.6949
  75   2.0000      -0.391483       -10.6528
  76   2.0000      -0.383327       -10.4308
  77   2.0000      -0.377347       -10.2681
  78   2.0000      -0.373674       -10.1682
  79   2.0000      -0.366494        -9.9728
  80   2.0000      -0.364874        -9.9287
  81   2.0000      -0.362037        -9.8515
  82   2.0000      -0.354087        -9.6352
  83   2.0000      -0.350602        -9.5404
  84   2.0000      -0.347469        -9.4551
  85   2.0000      -0.335141        -9.1197
  86   2.0000      -0.325578        -8.8594
  87   2.0000      -0.319943        -8.7061
  88   2.0000      -0.313117        -8.5203
  89   2.0000      -0.306697        -8.3456
  90   2.0000      -0.302461        -8.2304
  91   2.0000      -0.294154        -8.0043
  92   2.0000      -0.281458        -7.6589
  93   2.0000      -0.280608        -7.6357
  94   2.0000      -0.271983        -7.4010
  95   2.0000      -0.251198        -6.8354
  96   2.0000      -0.232616        -6.3298
  97   2.0000      -0.229629        -6.2485
  98   2.0000      -0.219853        -5.9825
  99   2.0000      -0.218245        -5.9388
 100   2.0000      -0.213995        -5.8231
 101   0.0000      -0.049680        -1.3519
 102   0.0000      -0.028897        -0.7863
 103   0.0000      -0.005024        -0.1367
 104   0.0000      -0.001660        -0.0452
 105   0.0000       0.013775         0.3748

MULLIKEN ATOMIC CHARGES
-----------------------
   0 C :   -0.438995
   1 C :   -0.156255
   2 O :   -0.285465
   3 P :    0.687132
   4 S :   -0.479819
   5 O :   -0.275020
   6 C :   -0.147828
   7 C :   -0.442118
   8 S :   -0.145826
   9 C :   -0.236713
  10 S :   -0.142351
  11 P :    0.699143
  12 S :   -0.473054
  13 O :   -0.307244
  14 C :   -0.136636
  15 C :   -0.442624
  16 O :   -0.274641
  17 C :   -0.163340
  18 C :   -0.420827
  19 H :    0.154940
  20 H :    0.154430
  21 H :    0.148395
  22 H :    0.153361
  23 H :    0.171038
  24 H :    0.175124
  25 H :    0.152453
  26 H :    0.155452
  27 H :    0.168446
  28 H :    0.148465
  29 H :    0.215009
  30 H :    0.217103
  31 H :    0.150612
  32 H :    0.167282
  33 H :    0.153150
  34 H :    0.145224
  35 H :    0.159094
  36 H :    0.177985
  37 H :    0.146864
  38 H :    0.170734
  39 H :    0.144819
  40 H :    0.152500
Sum of atomic charges:   -0.0000000

LOEWDIN ATOMIC CHARGES
----------------------
   0 C :   -0.384984
   1 C :    0.021164
   2 O :   -0.663726
   3 P :    0.370843
   4 S :   -0.130546
   5 O :   -0.688857
   6 C :    0.019497
   7 C :   -0.398901
   8 S :    0.158609
   9 C :   -0.425899
  10 S :    0.157263
  11 P :    0.389267
  12 S :   -0.133722
  13 O :   -0.654322
  14 C :    0.021439
  15 C :   -0.385868
  16 O :   -0.643439
  17 C :    0.023284
  18 C :   -0.410013
  19 H :    0.160178
  20 H :    0.160368
  21 H :    0.160790
  22 H :    0.172725
  23 H :    0.180887
  24 H :    0.182211
  25 H :    0.180532
  26 H :    0.160674
  27 H :    0.165410
  28 H :    0.160287
  29 H :    0.194531
  30 H :    0.190723
  31 H :    0.171773
  32 H :    0.180976
  33 H :    0.159577
  34 H :    0.159202
  35 H :    0.161665
  36 H :    0.191170
  37 H :    0.179670
  38 H :    0.165791
  39 H :    0.158761
  40 H :    0.161009

  Mayer bond orders larger than 0.100000
B(  0-C ,  1-C ) :   0.9579 B(  0-C , 19-H ) :   0.9711 B(  0-C , 20-H ) :   0.9714
B(  0-C , 21-H ) :   0.9639 B(  1-C ,  2-O ) :   0.7774 B(  1-C , 22-H ) :   0.9455
B(  1-C , 23-H ) :   0.9517 B(  2-O ,  3-P ) :   1.0970 B(  3-P ,  4-S ) :   1.7482
B(  3-P ,  5-O ) :   1.1529 B(  3-P ,  8-S ) :   1.0649 B(  5-O ,  6-C ) :   0.7880
B(  6-C ,  7-C ) :   0.9263 B(  6-C , 24-H ) :   0.9634 B(  6-C , 25-H ) :   0.9604
B(  7-C , 26-H ) :   0.9711 B(  7-C , 27-H ) :   0.9596 B(  7-C , 28-H ) :   0.9620
B(  8-S ,  9-C ) :   0.9108 B(  9-C , 10-S ) :   0.9186 B(  9-C , 29-H ) :   0.8972
B(  9-C , 30-H ) :   0.9090 B( 10-S , 11-P ) :   1.0231 B( 11-P , 12-S ) :   1.7448
B( 11-P , 13-O ) :   1.1384 B( 11-P , 16-O ) :   1.1625 B( 13-O , 14-C ) :   0.7721
B( 14-C , 15-C ) :   0.9628 B( 14-C , 31-H ) :   0.9482 B( 14-C , 32-H ) :   0.9522
B( 15-C , 33-H ) :   0.9719 B( 15-C , 34-H ) :   0.9652 B( 15-C , 35-H ) :   0.9712
B( 16-O , 17-C ) :   0.8001 B( 17-C , 18-C ) :   0.9293 B( 17-C , 36-H ) :   0.9521
B( 17-C , 37-H ) :   0.9640 B( 18-C , 38-H ) :   0.9519 B( 18-C , 39-H ) :   0.9660
B( 18-C , 40-H ) :   0.9683

Dispersion correction           -0.020910522
FINAL SINGLE POINT ENERGY     -2932.466450541863

DIPOLE MOMENT
-------------

Method             : SCF
Type of density    : Electron Density
Multiplicity       :   1
Irrep              :   0
Energy             : -2932.4920927290418149 Eh
Relativity type    :
Basis              : AO
                                X                 Y                 Z
Electronic contribution:     -4.597119492      10.313268943      -6.283600198
Nuclear contribution   :      5.246186941     -11.029626820       6.931580040
                        -----------------------------------------
Total Dipole Moment    :      0.649067449      -0.716357877       0.647979842
                        -----------------------------------------
Magnitude (a.u.)       :      1.163759011
Magnitude (Debye)      :      2.958040328

Rotational constants in cm-1:             0.014139             0.004236             0.004101
Rotational constants in MHz :           423.868016           126.986705           122.956077

                             ****ORCA TERMINATED NORMALLY****
TOTAL RUN TIME: 0 days 0 hours 1 minutes 17 seconds 328 msec
