                         Program Version 6.0.0  -   RELEASE  -
|  1> ! r2scan-3c def2/J RI DEFGRID2 scfconv6 printgap
|  2> %output
|  3>     printlevel normal
|  4> end
|  5> %cpcm
|  6>     smd true
|  7>     smdsolvent "water"
|  8> end
|  9> * xyz 0 1
| 10> C 5.2431191287 -2.409136078 -1.483566959
| 11> C 4.2016506371 -1.3163304967 -1.6147374358
| 12> O 3.2599225477 -1.4702336599 -0.533149414
| 13> P 2.3021047107 -0.2873515183 -0.0871244558
| 14> S 3.1776191183 1.4486612756 0.1924607483
| 15> O 1.5725261679 -0.9224512304 1.1664524887
| 16> C 2.0265014351 -0.678965734 2.5146490735
| 17> C 3.3500386002 -1.3618741142 2.7838733741
| 18> S 0.7645732598 -0.3332565232 -1.5341046304
| 19> C 0.0562152216 1.2867937818 -1.1271668958
| 20> S -0.6824728827 1.3404902842 0.524615598
| 21> P -2.5665252206 0.4311887764 0.0757090939
| 22> S -3.0877325095 0.5268019914 -1.8166702673
| 23> O -3.564823495 1.134951684 1.0754890394
| 24> C -4.1578981469 2.4149895018 0.7783070459
| 25> C -5.5294868811 2.4599559824 1.4218229231
| 26> O -2.594021962 -0.9645480179 0.8146413331
| 27> C -1.7085532381 -2.0731315593 0.5809882815
| 28> C -1.9422467389 -2.7301009648 -0.7651023497
| 29> H 5.7830495321 -2.303711115 -0.5469488171
| 30> H 4.7616753086 -3.3822863322 -1.5052168208
| 31> H 5.9424372325 -2.3347953261 -2.3097719394
| 32> H 3.6541075827 -1.3974004496 -2.557501647
| 33> H 4.6522985043 -0.3203697014 -1.5467203138
| 34> H 2.1067583443 0.4028227631 2.6626019316
| 35> H 1.2256796856 -1.0777780606 3.1385439064
| 36> H 3.2792960136 -2.421506663 2.5534454012
| 37> H 4.1255225763 -0.9164652207 2.1616898974
| 38> H 3.6174263122 -1.2329716591 3.8279545599
| 39> H -0.7113761765 1.4883234463 -1.8757547234
| 40> H 0.8444558659 2.0384917054 -1.1430243182
| 41> H -3.5018173956 3.1892691685 1.1843857657
| 42> H -4.2264881754 2.5326558324 -0.3092325279
| 43> H -5.4413393261 2.2942939607 2.4914888768
| 44> H -5.9760567144 3.4323578338 1.2419612051
| 45> H -6.1657612659 1.6881295621 0.9977316301
| 46> H -0.6720185409 -1.7349383664 0.6760055045
| 47> H -1.9411964606 -2.7579278567 1.3990375026
| 48> H -1.6662674466 -2.0566699745 -1.5746783574
| 49> H -1.333491833 -3.6259058799 -0.8345041816
| 50> H -2.9905539899 -2.9960268813 -0.8750715496
| 51> *
| 52>
| 53>                          ****END OF INPUT****

CARTESIAN COORDINATES (ANGSTROEM)
---------------------------------
  C      5.243119   -2.409136   -1.483567
  C      4.201651   -1.316330   -1.614737
  O      3.259923   -1.470234   -0.533149
  P      2.302105   -0.287352   -0.087124
  S      3.177619    1.448661    0.192461
  O      1.572526   -0.922451    1.166452
  C      2.026501   -0.678966    2.514649
  C      3.350039   -1.361874    2.783873
  S      0.764573   -0.333257   -1.534105
  C      0.056215    1.286794   -1.127167
  S     -0.682473    1.340490    0.524616
  P     -2.566525    0.431189    0.075709
  S     -3.087733    0.526802   -1.816670
  O     -3.564823    1.134952    1.075489
  C     -4.157898    2.414990    0.778307
  C     -5.529487    2.459956    1.421823
  O     -2.594022   -0.964548    0.814641
  C     -1.708553   -2.073132    0.580988
  C     -1.942247   -2.730101   -0.765102
  H      5.783050   -2.303711   -0.546949
  H      4.761675   -3.382286   -1.505217
  H      5.942437   -2.334795   -2.309772
  H      3.654108   -1.397400   -2.557502
  H      4.652299   -0.320370   -1.546720
  H      2.106758    0.402823    2.662602
  H      1.225680   -1.077778    3.138544
  H      3.279296   -2.421507    2.553445
  H      4.125523   -0.916465    2.161690
  H      3.617426   -1.232972    3.827955
  H     -0.711376    1.488323   -1.875755
  H      0.844456    2.038492   -1.143024
  H     -3.501817    3.189269    1.184386
  H     -4.226488    2.532656   -0.309233
  H     -5.441339    2.294294    2.491489
  H     -5.976057    3.432358    1.241961
  H     -6.165761    1.688130    0.997732
  H     -0.672019   -1.734938    0.676006
  H     -1.941196   -2.757928    1.399038
  H     -1.666267   -2.056670   -1.574678
  H     -1.333492   -3.625906   -0.834504
  H     -2.990554   -2.996027   -0.875072

 Total Charge           Charge          ....    0
 Multiplicity           Mult            ....    1
 Number of Electrons    NEL             ....  202
 Basis Dimension        Dim             ....  539

ORBITAL ENERGIES
----------------

  NO   OCC          E(Eh)            E(eV)
   0   2.0000     -88.581119     -2410.4148
   1   2.0000     -88.580789     -2410.4058
   2   2.0000     -88.530923     -2409.0489
   3   2.0000     -88.530262     -2409.0309
   4   2.0000     -76.921282     -2093.1345
   5   2.0000     -76.920423     -2093.1111
   6   2.0000     -18.997412      -516.9459
   7   2.0000     -18.996449      -516.9197
   8   2.0000     -18.995869      -516.9039
   9   2.0000     -18.994857      -516.8763
  10   2.0000     -10.104431      -274.9555
  11   2.0000     -10.091140      -274.5939
  12   2.0000     -10.090377      -274.5731
  13   2.0000     -10.090068      -274.5647
  14   2.0000     -10.089835      -274.5584
  15   2.0000     -10.020007      -272.6583
  16   2.0000     -10.019267      -272.6381
  17   2.0000     -10.019024      -272.6315
  18   2.0000     -10.016349      -272.5587
  19   2.0000      -7.875495      -214.3031
  20   2.0000      -7.874712      -214.2818
  21   2.0000      -7.826031      -212.9571
  22   2.0000      -7.825244      -212.9357
  23   2.0000      -6.599812      -179.5900
  24   2.0000      -6.599169      -179.5725
  25   2.0000      -5.822258      -158.4317
  26   2.0000      -5.821628      -158.4145
  27   2.0000      -5.819346      -158.3524
  28   2.0000      -5.818474      -158.3287
  29   2.0000      -5.812735      -158.1726
  30   2.0000      -5.811992      -158.1523
  31   2.0000      -5.773587      -157.1073
  32   2.0000      -5.772783      -157.0854
  33   2.0000      -5.766292      -156.9088
  34   2.0000      -5.766086      -156.9032
  35   2.0000      -5.765511      -156.8875
  36   2.0000      -5.765329      -156.8826
  37   2.0000      -4.745168      -129.1226
  38   2.0000      -4.744986      -129.1176
  39   2.0000      -4.744468      -129.1035
  40   2.0000      -4.744131      -129.0944
  41   2.0000      -4.743458      -129.0761
  42   2.0000      -4.743048      -129.0649
  43   2.0000      -1.058170       -28.7943
  44   2.0000      -1.054667       -28.6989
  45   2.0000      -1.015087       -27.6219
  46   2.0000      -1.013824       -27.5876
  47   2.0000      -0.804460       -21.8905
  48   2.0000      -0.758883       -20.6503
  49   2.0000      -0.747290       -20.3348
  50   2.0000      -0.725116       -19.7314
  51   2.0000      -0.720847       -19.6152
  52   2.0000      -0.711388       -19.3579
  53   2.0000      -0.689880       -18.7726
  54   2.0000      -0.676215       -18.4007
  55   2.0000      -0.630152       -17.1473
  56   2.0000      -0.624701       -16.9990
  57   2.0000      -0.598166       -16.2769
  58   2.0000      -0.592037       -16.1101
  59   2.0000      -0.589747       -16.0478
  60   2.0000      -0.531527       -14.4636
  61   2.0000      -0.522297       -14.2124
  62   2.0000      -0.496628       -13.5139
  63   2.0000      -0.490370       -13.3436
  64   2.0000      -0.477634       -12.9971
  65   2.0000      -0.458720       -12.4824
  66   2.0000      -0.455536       -12.3958
  67   2.0000      -0.447728       -12.1833
  68   2.0000      -0.444442       -12.0939
  69   2.0000      -0.432417       -11.7667
  70   2.0000      -0.426111       -11.5951
  71   2.0000      -0.418081       -11.3766
  72   2.0000      -0.408736       -11.1223
  73   2.0000      -0.398202       -10.8356
  74   2.0000      -0.392445       -10.6790
  75   2.0000      -0.385659       -10.4943
  76   2.0000      -0.383957       -10.4480
  77   2.0000      -0.371676       -10.1138
  78   2.0000      -0.363472        -9.8906
  79   2.0000      -0.357677        -9.7329
  80   2.0000      -0.354561        -9.6481
  81   2.0000      -0.351550        -9.5662
  82   2.0000      -0.351153        -9.5554
  83   2.0000      -0.348118        -9.4728
  84   2.0000      -0.344559        -9.3759
  85   2.0000      -0.331245        -9.0136
  86   2.0000      -0.322450        -8.7743
  87   2.0000      -0.314263        -8.5515
  88   2.0000      -0.312811        -8.5120
  89   2.0000      -0.306286        -8.3345
  90   2.0000      -0.299703        -8.1553
  91   2.0000      -0.290165        -7.8958
  92   2.0000      -0.283034        -7.7017
  93   2.0000      -0.279858        -7.6153
  94   2.0000      -0.276109        -7.5133
  95   2.0000      -0.254371        -6.9218
  96   2.0000      -0.238862        -6.4998
  97   2.0000      -0.237216        -6.4550
  98   2.0000      -0.227313        -6.1855
  99   2.0000      -0.224960        -6.1215
 100   2.0000      -0.222369        -6.0510
 101   0.0000      -0.055320        -1.5053
 102   0.0000      -0.034973        -0.9517
 103   0.0000      -0.010854        -0.2953
 104   0.0000      -0.005247        -0.1428
 105   0.0000       0.011579         0.3151

MULLIKEN ATOMIC CHARGES
-----------------------
   0 C :   -0.482489
   1 C :   -0.147062
   2 O :   -0.310632
   3 P :    0.720053
   4 S :   -0.527026
   5 O :   -0.295207
   6 C :   -0.141310
   7 C :   -0.484238
   8 S :   -0.151331
   9 C :   -0.246219
  10 S :   -0.150144
  11 P :    0.718050
  12 S :   -0.508763
  13 O :   -0.336028
  14 C :   -0.130422
  15 C :   -0.484024
  16 O :   -0.306034
  17 C :   -0.149884
  18 C :   -0.467471
  19 H :    0.166378
  20 H :    0.166428
  21 H :    0.170073
  22 H :    0.172197
  23 H :    0.172582
  24 H :    0.176989
  25 H :    0.178685
  26 H :    0.170313
  27 H :    0.168188
  28 H :    0.172637
  29 H :    0.228163
  30 H :    0.238149
  31 H :    0.172437
  32 H :    0.169662
  33 H :    0.165882
  34 H :    0.169453
  35 H :    0.166253
  36 H :    0.176556
  37 H :    0.176450
  38 H :    0.165206
  39 H :    0.172605
  40 H :    0.164897
Sum of atomic charges:   -0.0000000

LOEWDIN ATOMIC CHARGES
----------------------
   0 C :   -0.388791
   1 C :    0.026021
   2 O :   -0.674722
   3 P :    0.375719
   4 S :   -0.160204
   5 O :   -0.695991
   6 C :    0.023967
   7 C :   -0.402134
   8 S :    0.155674
   9 C :   -0.420440
  10 S :    0.154870
  11 P :    0.390025
  12 S :   -0.159256
  13 O :   -0.671929
  14 C :    0.025974
  15 C :   -0.389927
  16 O :   -0.660396
  17 C :    0.028735
  18 C :   -0.414494
  19 H :    0.162769
  20 H :    0.163591
  21 H :    0.169219
  22 H :    0.180235
  23 H :    0.181922
  24 H :    0.182533
  25 H :    0.191110
  26 H :    0.164464
  27 H :    0.162912
  28 H :    0.169206
  29 H :    0.198767
  30 H :    0.196907
  31 H :    0.180808
  32 H :    0.182299
  33 H :    0.163031
  34 H :    0.168813
  35 H :    0.162359
  36 H :    0.191566
  37 H :    0.192033
  38 H :    0.161041
  39 H :    0.168925
  40 H :    0.162788

  Mayer bond orders larger than 0.100000
B(  0-C ,  1-C ) :   0.9532 B(  0-C , 19-H ) :   0.9687 B(  0-C , 20-H ) :   0.9688
B(  0-C , 21-H ) :   0.9582 B(  1-C ,  2-O ) :   0.7704 B(  1-C , 22-H ) :   0.9369
B(  1-C , 23-H ) :   0.9484 B(  2-O ,  3-P ) :   1.1051 B(  3-P ,  4-S ) :   1.7074
B(  3-P ,  5-O ) :   1.1625 B(  3-P ,  8-S ) :   1.0753 B(  5-O ,  6-C ) :   0.7758
B(  6-C ,  7-C ) :   0.9167 B(  6-C , 24-H ) :   0.9596 B(  6-C , 25-H ) :   0.9503
B(  7-C , 26-H ) :   0.9701 B(  7-C , 27-H ) :   0.9591 B(  7-C , 28-H ) :   0.9561
B(  8-S ,  9-C ) :   0.9067 B(  9-C , 10-S ) :   0.9106 B(  9-C , 29-H ) :   0.8949
B(  9-C , 30-H ) :   0.9029 B( 10-S , 11-P ) :   1.0377 B( 11-P , 12-S ) :   1.7253
B( 11-P , 13-O ) :   1.1396 B( 11-P , 16-O ) :   1.1613 B( 13-O , 14-C ) :   0.7643
B( 14-C , 15-C ) :   0.9569 B( 14-C , 31-H ) :   0.9389 B( 14-C , 32-H ) :   0.9485
B( 15-C , 33-H ) :   0.9692 B( 15-C , 34-H ) :   0.9590 B( 15-C , 35-H ) :   0.9696
B( 16-O , 17-C ) :   0.7928 B( 17-C , 18-C ) :   0.9131 B( 17-C , 36-H ) :   0.9493
B( 17-C , 37-H ) :   0.9542 B( 18-C , 38-H ) :   0.9542 B( 18-C , 39-H ) :   0.9600
B( 18-C , 40-H ) :   0.9690

Dispersion correction           -0.020910522
FINAL SINGLE POINT ENERGY     -2932.472951456923

DIPOLE MOMENT
-------------

Method             : SCF
Type of density    : Electron Density
Multiplicity       :   1
Irrep              :   0
Energy             : -2932.4985936441021295 Eh
Relativity type    :
Basis              : AO
                                X                 Y                 Z
Electronic contribution:     -4.368189212      10.178613524      -6.145160511
Nuclear contribution   :      5.246186941     -11.029626820       6.931580040
                        -----------------------------------------
Total Dipole Moment    :      0.877997730      -0.851013296       0.786419528
                        -----------------------------------------
Magnitude (a.u.)       :      1.453808556
Magnitude (Debye)      :      3.695287681

Rotational constants in cm-1:             0.014139             0.004236             0.004101
Rotational constants in MHz :           423.868016           126.986705           122.956077

                             ****ORCA TERMINATED NORMALLY****
TOTAL RUN TIME: 0 days 0 hours 1 minutes 45 seconds 413 msec
