                         Program Version 6.0.0  -   RELEASE  -
|  1> ! pbe def2-sv(p) def2/J RI DEFGRID1 loosescf d4 GCP(DFT/SV(P)) printgap
|  2> %output
|  3>     printlevel normal
|  4> end
|  5> * xyz 0 1
|  6> C 2.9859876553 1.7832909404 -1.8970896289
|  7> C 3.3977161193 1.6261440772 -0.4469290298
|  8> O 2.2900341264 1.1499080303 0.3604188455
|  9> P 2.0807579612 -0.3431695193 0.8203495809
| 10> S 0.5403915101 -0.4227489644 2.025757899
| 11> O 3.514066455 -0.6882346058 1.4124462815
| 12> C 4.0289958704 -2.0145022072 1.6367708764
| 13> C 3.1212345307 -2.8536926063 2.5109464431
| 14> S 1.9820656308 -1.6006153386 -0.9036666413
| 15> C 0.2206884367 -1.4334319051 -1.2253309408
| 16> S -0.2253258889 0.2990316788 -1.6130403097
| 17> P -2.1383382918 0.3855131296 -0.740817865
| 18> S -2.6929443654 -1.1019606254 0.418314369
| 19> O -3.0092325095 0.5263078045 -2.0564457387
| 20> C -4.4176377656 0.2238921421 -2.0842490383
| 21> C -5.2207572778 1.2348267236 -1.2936135552
| 22> O -2.228800513 1.8728430264 -0.1821168345
| 23> C -1.4911426514 2.4028375976 0.9302560934
| 24> C -2.1507878465 2.0654193161 2.2524346342
| 25> H 2.103603187 2.4129594088 -1.9712137637
| 26> H 3.8021923889 2.242165111 -2.445908494
| 27> H 2.7559392071 0.8185237212 -2.3420374858
| 28> H 3.6549967296 2.5888122006 -0.0023618612
| 29> H 4.2371396115 0.9369563203 -0.3420067198
| 30> H 4.1788645585 -2.4913130204 0.6643374532
| 31> H 4.9921631268 -1.8360411317 2.1181335664
| 32> H 3.5925404293 -3.8111264615 2.7078643055
| 33> H 2.925737706 -2.346983702 3.453213841
| 34> H 2.1688555076 -3.0241541977 2.010416058
| 35> H -0.351585934 -1.7459616134 -0.346508721
| 36> H 0.0039358156 -2.0644194784 -2.0836282607
| 37> H -4.6678583034 0.2435608125 -3.1455805294
| 38> H -4.5634255835 -0.7840875087 -1.682540255
| 39> H -5.0054379836 2.2413618335 -1.6423425522
| 40> H -6.2798939399 1.0274062844 -1.4093070161
| 41> H -4.9578378919 1.1649996642 -0.2385596397
| 42> H -0.4643602126 2.023721722 0.9035198738
| 43> H -1.4857179447 3.4799696785 0.7521911791
| 44> H -1.6156451398 2.5629486087 3.0548122303
| 45> H -3.1875908697 2.3905732532 2.2507164403
| 46> H -2.1146933051 0.9918147731 2.4291070235
| 47> *
| 48>
| 49>                          ****END OF INPUT****

CARTESIAN COORDINATES (ANGSTROEM)
---------------------------------
  C      2.985988    1.783291   -1.897090
  C      3.397716    1.626144   -0.446929
  O      2.290034    1.149908    0.360419
  P      2.080758   -0.343170    0.820350
  S      0.540392   -0.422749    2.025758
  O      3.514066   -0.688235    1.412446
  C      4.028996   -2.014502    1.636771
  C      3.121235   -2.853693    2.510946
  S      1.982066   -1.600615   -0.903667
  C      0.220688   -1.433432   -1.225331
  S     -0.225326    0.299032   -1.613040
  P     -2.138338    0.385513   -0.740818
  S     -2.692944   -1.101961    0.418314
  O     -3.009233    0.526308   -2.056446
  C     -4.417638    0.223892   -2.084249
  C     -5.220757    1.234827   -1.293614
  O     -2.228801    1.872843   -0.182117
  C     -1.491143    2.402838    0.930256
  C     -2.150788    2.065419    2.252435
  H      2.103603    2.412959   -1.971214
  H      3.802192    2.242165   -2.445908
  H      2.755939    0.818524   -2.342037
  H      3.654997    2.588812   -0.002362
  H      4.237140    0.936956   -0.342007
  H      4.178865   -2.491313    0.664337
  H      4.992163   -1.836041    2.118134
  H      3.592540   -3.811126    2.707864
  H      2.925738   -2.346984    3.453214
  H      2.168856   -3.024154    2.010416
  H     -0.351586   -1.745962   -0.346509
  H      0.003936   -2.064419   -2.083628
  H     -4.667858    0.243561   -3.145581
  H     -4.563426   -0.784088   -1.682540
  H     -5.005438    2.241362   -1.642343
  H     -6.279894    1.027406   -1.409307
  H     -4.957838    1.165000   -0.238560
  H     -0.464360    2.023722    0.903520
  H     -1.485718    3.479970    0.752191
  H     -1.615645    2.562949    3.054812
  H     -3.187591    2.390573    2.250716
  H     -2.114693    0.991815    2.429107

 Total Charge           Charge          ....    0
 Multiplicity           Mult            ....    1
 Number of Electrons    NEL             ....  202
 Basis Dimension        Dim             ....  334

ORBITAL ENERGIES
----------------

  NO   OCC          E(Eh)            E(eV)
   0   2.0000     -88.050328     -2395.9712
   1   2.0000     -88.038310     -2395.6442
   2   2.0000     -87.982641     -2394.1294
   3   2.0000     -87.981576     -2394.1004
   4   2.0000     -76.428471     -2079.7244
   5   2.0000     -76.420285     -2079.5017
   6   2.0000     -18.798121      -511.5229
   7   2.0000     -18.792246      -511.3630
   8   2.0000     -18.784977      -511.1652
   9   2.0000     -18.779964      -511.0288
  10   2.0000      -9.962180      -271.0847
  11   2.0000      -9.957004      -270.9439
  12   2.0000      -9.954198      -270.8675
  13   2.0000      -9.944514      -270.6040
  14   2.0000      -9.939652      -270.4717
  15   2.0000      -9.885146      -268.9885
  16   2.0000      -9.884860      -268.9807
  17   2.0000      -9.877619      -268.7837
  18   2.0000      -9.868052      -268.5233
  19   2.0000      -7.695055      -209.3931
  20   2.0000      -7.683310      -209.0735
  21   2.0000      -7.627460      -207.5537
  22   2.0000      -7.626498      -207.5276
  23   2.0000      -6.425369      -174.8432
  24   2.0000      -6.417844      -174.6384
  25   2.0000      -5.722818      -155.7258
  26   2.0000      -5.719394      -155.6326
  27   2.0000      -5.712390      -155.4420
  28   2.0000      -5.711207      -155.4098
  29   2.0000      -5.707914      -155.3202
  30   2.0000      -5.700114      -155.1080
  31   2.0000      -5.656266      -153.9148
  32   2.0000      -5.655602      -153.8968
  33   2.0000      -5.648286      -153.6977
  34   2.0000      -5.647526      -153.6770
  35   2.0000      -5.646894      -153.6598
  36   2.0000      -5.646666      -153.6536
  37   2.0000      -4.648234      -126.4849
  38   2.0000      -4.647452      -126.4636
  39   2.0000      -4.645339      -126.4061
  40   2.0000      -4.640186      -126.2659
  41   2.0000      -4.639608      -126.2502
  42   2.0000      -4.638546      -126.2213
  43   2.0000      -0.991054       -26.9680
  44   2.0000      -0.978352       -26.6223
  45   2.0000      -0.946646       -25.7596
  46   2.0000      -0.936231       -25.4761
  47   2.0000      -0.763671       -20.7805
  48   2.0000      -0.720948       -19.6180
  49   2.0000      -0.708381       -19.2760
  50   2.0000      -0.692243       -18.8369
  51   2.0000      -0.676822       -18.4173
  52   2.0000      -0.672455       -18.2984
  53   2.0000      -0.650264       -17.6946
  54   2.0000      -0.633940       -17.2504
  55   2.0000      -0.593536       -16.1509
  56   2.0000      -0.589007       -16.0277
  57   2.0000      -0.579344       -15.7647
  58   2.0000      -0.564629       -15.3643
  59   2.0000      -0.559702       -15.2303
  60   2.0000      -0.506319       -13.7777
  61   2.0000      -0.489836       -13.3291
  62   2.0000      -0.474348       -12.9077
  63   2.0000      -0.464399       -12.6369
  64   2.0000      -0.451914       -12.2972
  65   2.0000      -0.443753       -12.0751
  66   2.0000      -0.442119       -12.0307
  67   2.0000      -0.432761       -11.7760
  68   2.0000      -0.428466       -11.6592
  69   2.0000      -0.415427       -11.3043
  70   2.0000      -0.407289       -11.0829
  71   2.0000      -0.397604       -10.8194
  72   2.0000      -0.395403       -10.7595
  73   2.0000      -0.385635       -10.4937
  74   2.0000      -0.384143       -10.4531
  75   2.0000      -0.365205        -9.9377
  76   2.0000      -0.358853        -9.7649
  77   2.0000      -0.356892        -9.7115
  78   2.0000      -0.350453        -9.5363
  79   2.0000      -0.346961        -9.4413
  80   2.0000      -0.345365        -9.3979
  81   2.0000      -0.342575        -9.3219
  82   2.0000      -0.335749        -9.1362
  83   2.0000      -0.332916        -9.0591
  84   2.0000      -0.324322        -8.8253
  85   2.0000      -0.318201        -8.6587
  86   2.0000      -0.308210        -8.3868
  87   2.0000      -0.299742        -8.1564
  88   2.0000      -0.294822        -8.0225
  89   2.0000      -0.286396        -7.7932
  90   2.0000      -0.280355        -7.6289
  91   2.0000      -0.277765        -7.5584
  92   2.0000      -0.267518        -7.2795
  93   2.0000      -0.263526        -7.1709
  94   2.0000      -0.255719        -6.9585
  95   2.0000      -0.235240        -6.4012
  96   2.0000      -0.221155        -6.0179
  97   2.0000      -0.210261        -5.7215
  98   2.0000      -0.197583        -5.3765
  99   2.0000      -0.195361        -5.3160
 100   2.0000      -0.186725        -5.0811
 101   0.0000      -0.045185        -1.2296
 102   0.0000      -0.033229        -0.9042
 103   0.0000      -0.011738        -0.3194
 104   0.0000       0.011286         0.3071
 105   0.0000       0.018258         0.4968

MULLIKEN ATOMIC CHARGES
-----------------------
   0 C :   -0.294360
   1 C :   -0.011385
   2 O :   -0.347360
   3 P :    0.603131
   4 S :   -0.296496
   5 O :   -0.378464
   6 C :   -0.013555
   7 C :   -0.308674
   8 S :   -0.132835
   9 C :   -0.339973
  10 S :   -0.107668
  11 P :    0.632493
  12 S :   -0.320388
  13 O :   -0.368790
  14 C :   -0.004667
  15 C :   -0.306443
  16 O :   -0.374759
  17 C :   -0.021142
  18 C :   -0.304017
  19 H :    0.125445
  20 H :    0.108894
  21 H :    0.122240
  22 H :    0.110461
  23 H :    0.101219
  24 H :    0.114086
  25 H :    0.110085
  26 H :    0.111982
  27 H :    0.128244
  28 H :    0.129766
  29 H :    0.214916
  30 H :    0.181801
  31 H :    0.102036
  32 H :    0.108612
  33 H :    0.115365
  34 H :    0.108552
  35 H :    0.125607
  36 H :    0.124796
  37 H :    0.097048
  38 H :    0.106007
  39 H :    0.107773
  40 H :    0.140419
Sum of atomic charges:    0.0000000

LOEWDIN ATOMIC CHARGES
----------------------
   0 C :   -0.365679
   1 C :   -0.111337
   2 O :   -0.233631
   3 P :    0.563849
   4 S :   -0.286381
   5 O :   -0.244855
   6 C :   -0.115255
   7 C :   -0.368352
   8 S :    0.067152
   9 C :   -0.476373
  10 S :    0.084841
  11 P :    0.568941
  12 S :   -0.298871
  13 O :   -0.247233
  14 C :   -0.118730
  15 C :   -0.364946
  16 O :   -0.240713
  17 C :   -0.120920
  18 C :   -0.364749
  19 H :    0.127399
  20 H :    0.128887
  21 H :    0.115094
  22 H :    0.122109
  23 H :    0.108408
  24 H :    0.107498
  25 H :    0.121728
  26 H :    0.130515
  27 H :    0.131504
  28 H :    0.122891
  29 H :    0.124148
  30 H :    0.135026
  31 H :    0.117231
  32 H :    0.108192
  33 H :    0.125847
  34 H :    0.128566
  35 H :    0.123103
  36 H :    0.106883
  37 H :    0.114546
  38 H :    0.128986
  39 H :    0.121258
  40 H :    0.123422

  Mayer bond orders larger than 0.100000
B(  0-C ,  1-C ) :   1.1677 B(  0-C , 19-H ) :   0.9432 B(  0-C , 20-H ) :   0.9380
B(  0-C , 21-H ) :   0.9323 B(  1-C ,  2-O ) :   0.8970 B(  1-C , 22-H ) :   0.9352
B(  1-C , 23-H ) :   0.9192 B(  2-O ,  3-P ) :   1.1279 B(  3-P ,  4-S ) :   1.6527
B(  3-P ,  5-O ) :   1.0890 B(  3-P ,  8-S ) :   0.9211 B(  4-S ,  8-S ) :   0.1085
B(  5-O ,  6-C ) :   0.9100 B(  6-C ,  7-C ) :   1.1670 B(  6-C , 24-H ) :   0.9258
B(  6-C , 25-H ) :   0.9330 B(  7-C , 26-H ) :   0.9350 B(  7-C , 27-H ) :   0.9430
B(  7-C , 28-H ) :   0.9322 B(  8-S ,  9-C ) :   1.0124 B(  9-C , 10-S ) :   0.9954
B(  9-C , 29-H ) :   0.8453 B(  9-C , 30-H ) :   0.9085 B( 10-S , 11-P ) :   0.9593
B( 10-S , 12-S ) :   0.1186 B( 11-P , 12-S ) :   1.6084 B( 11-P , 13-O ) :   1.1265
B( 11-P , 16-O ) :   1.1170 B( 13-O , 14-C ) :   0.9146 B( 14-C , 15-C ) :   1.1633
B( 14-C , 31-H ) :   0.9348 B( 14-C , 32-H ) :   0.9143 B( 15-C , 33-H ) :   0.9464
B( 15-C , 34-H ) :   0.9387 B( 15-C , 35-H ) :   0.9356 B( 16-O , 17-C ) :   0.9028
B( 17-C , 18-C ) :   1.1703 B( 17-C , 36-H ) :   0.9043 B( 17-C , 37-H ) :   0.9353
B( 18-C , 38-H ) :   0.9392 B( 18-C , 39-H ) :   0.9463 B( 18-C , 40-H ) :   0.9310

Dispersion correction           -0.066764435
FINAL SINGLE POINT ENERGY     -2929.518475108224

DIPOLE MOMENT
-------------

Method             : SCF
Type of density    : Electron Density
Multiplicity       :   1
Irrep              :   0
Energy             : -2929.6365190684618938 Eh
Relativity type    :
Basis              : AO
                                X                 Y                 Z
Electronic contribution:      1.383969112      -6.421665409      -3.100512527
Nuclear contribution   :     -0.189595993       6.673896525       2.449999087
                        -----------------------------------------
Total Dipole Moment    :      1.194373119       0.252231116      -0.650513440
                        -----------------------------------------
Magnitude (a.u.)       :      1.383226452
Magnitude (Debye)      :      3.515882230

Rotational constants in cm-1:             0.013370             0.004905             0.004719
Rotational constants in MHz :           400.834777           147.048955           141.481307

                             ****ORCA TERMINATED NORMALLY****
TOTAL RUN TIME: 0 days 0 hours 0 minutes 21 seconds 335 msec
