                         Program Version 6.0.1  -  RELEASE   -
|  1> ! pbe def2-sv(p) def2/J RI DEFGRID1 loosescf d4 GCP(DFT/SV(P)) printgap
|  2> %output
|  3>     printlevel normal
|  4> end
|  5> * xyz 0 1
|  6> C 4.655527402 -3.4603209934 -1.8714545669
|  7> C 3.7628239432 -3.6330979998 -0.6526935974
|  8> O 3.4115428294 -2.3563624829 -0.0851698247
|  9> C 2.3616850465 -1.7209493947 -0.5679573058
| 10> O 1.6406852742 -2.1436619156 -1.4435766545
| 11> C 2.1769175777 -0.3806935677 0.1194220499
| 12> C 0.7594150723 0.1263981634 -0.0825066006
| 13> H 0.4774023951 0.0120624869 -1.1381340162
| 14> C 0.5417170207 1.5777422375 0.289620489
| 15> O -0.502805325 1.9586003359 0.7825734101
| 16> O 1.5524461715 2.3402815735 -0.0148891182
| 17> C 1.4499252847 3.7588704156 0.2470842311
| 18> C 1.8441937805 4.0731980898 1.6804442829
| 19> S -0.4333007235 -0.8641445914 0.8936641915
| 20> P -2.2110388232 0.0649126025 0.2151592919
| 21> S -2.1947738806 0.9525731435 -1.5410709223
| 22> O -3.1946712984 -1.2028909365 0.2317320825
| 23> C -3.031064064 -2.2670405052 -0.7073486298
| 24> O -2.9410940981 0.7813977837 1.4241696965
| 25> C -3.1931874225 2.1849342697 1.5284878288
| 26> H 5.5377859221 -2.8825731995 -1.6103950709
| 27> H 4.9609498369 -4.436347851 -2.2337619485
| 28> H 4.1138847315 -2.9452725324 -2.661578573
| 29> H 4.2832710949 -4.1538860375 0.1509875662
| 30> H 2.8429157374 -4.1618430604 -0.9175690077
| 31> H 2.8784299473 0.3289641134 -0.3250662762
| 32> H 2.4139259929 -0.4920654608 1.1770124871
| 33> H 2.1389282328 4.2108104014 -0.466016733
| 34> H 0.4247027754 4.0773528008 0.0414220679
| 35> H 1.8049322543 5.1466607574 1.8324870445
| 36> H 1.1567248068 3.5945339931 2.3739693807
| 37> H 2.8519979222 3.7202583847 1.8794260957
| 38> H -3.0508684862 -1.8740582595 -1.7259155564
| 39> H -3.8717301031 -2.9354083273 -0.5411400324
| 40> H -2.0878055797 -2.7880980997 -0.5348677733
| 41> H -4.2024867113 2.2815256965 1.9227725802
| 42> H -3.1202229908 2.6596052163 0.548590852
| 43> H -2.465200038 2.6269166975 2.2056305714
| 44> *
| 45>
| 46>                          ****END OF INPUT****

CARTESIAN COORDINATES (ANGSTROEM)
---------------------------------
  C      4.655527   -3.460321   -1.871455
  C      3.762824   -3.633098   -0.652694
  O      3.411543   -2.356362   -0.085170
  C      2.361685   -1.720949   -0.567957
  O      1.640685   -2.143662   -1.443577
  C      2.176918   -0.380694    0.119422
  C      0.759415    0.126398   -0.082507
  H      0.477402    0.012062   -1.138134
  C      0.541717    1.577742    0.289620
  O     -0.502805    1.958600    0.782573
  O      1.552446    2.340282   -0.014889
  C      1.449925    3.758870    0.247084
  C      1.844194    4.073198    1.680444
  S     -0.433301   -0.864145    0.893664
  P     -2.211039    0.064913    0.215159
  S     -2.194774    0.952573   -1.541071
  O     -3.194671   -1.202891    0.231732
  C     -3.031064   -2.267041   -0.707349
  O     -2.941094    0.781398    1.424170
  C     -3.193187    2.184934    1.528488
  H      5.537786   -2.882573   -1.610395
  H      4.960950   -4.436348   -2.233762
  H      4.113885   -2.945273   -2.661579
  H      4.283271   -4.153886    0.150988
  H      2.842916   -4.161843   -0.917569
  H      2.878430    0.328964   -0.325066
  H      2.413926   -0.492065    1.177012
  H      2.138928    4.210810   -0.466017
  H      0.424703    4.077353    0.041422
  H      1.804932    5.146661    1.832487
  H      1.156725    3.594534    2.373969
  H      2.851998    3.720258    1.879426
  H     -3.050868   -1.874058   -1.725916
  H     -3.871730   -2.935408   -0.541140
  H     -2.087806   -2.788098   -0.534868
  H     -4.202487    2.281526    1.922773
  H     -3.120223    2.659605    0.548591
  H     -2.465200    2.626917    2.205631

 Total Charge           Charge          ....    0
 Multiplicity           Mult            ....    1
 Number of Electrons    NEL             ....  174
 Basis Dimension        Dim             ....  316

ORBITAL ENERGIES
----------------

  NO   OCC          E(Eh)            E(eV)
   0   2.0000     -88.030393     -2395.4288
   1   2.0000     -87.968761     -2393.7517
   2   2.0000     -76.413606     -2079.3199
   3   2.0000     -18.826032      -512.2824
   4   2.0000     -18.808484      -511.8049
   5   2.0000     -18.775529      -510.9081
   6   2.0000     -18.767831      -510.6987
   7   2.0000     -18.755068      -510.3513
   8   2.0000     -18.746331      -510.1136
   9   2.0000     -10.027577      -272.8642
  10   2.0000     -10.016973      -272.5757
  11   2.0000      -9.962809      -271.1018
  12   2.0000      -9.953307      -270.8432
  13   2.0000      -9.944075      -270.5920
  14   2.0000      -9.929462      -270.1944
  15   2.0000      -9.924381      -270.0561
  16   2.0000      -9.919496      -269.9232
  17   2.0000      -9.899256      -269.3724
  18   2.0000      -9.892230      -269.1813
  19   2.0000      -7.675467      -208.8601
  20   2.0000      -7.613886      -207.1844
  21   2.0000      -6.409451      -174.4100
  22   2.0000      -5.703362      -155.1964
  23   2.0000      -5.700281      -155.1125
  24   2.0000      -5.692156      -154.8914
  25   2.0000      -5.642949      -153.5525
  26   2.0000      -5.634741      -153.3291
  27   2.0000      -5.633647      -153.2993
  28   2.0000      -4.631730      -126.0358
  29   2.0000      -4.631651      -126.0336
  30   2.0000      -4.630068      -125.9905
  31   2.0000      -1.034095       -28.1391
  32   2.0000      -1.016837       -27.6695
  33   2.0000      -0.967784       -26.3347
  34   2.0000      -0.936092       -25.4723
  35   2.0000      -0.923143       -25.1200
  36   2.0000      -0.921990       -25.0886
  37   2.0000      -0.765471       -20.8295
  38   2.0000      -0.719553       -19.5800
  39   2.0000      -0.713149       -19.4058
  40   2.0000      -0.686865       -18.6905
  41   2.0000      -0.654111       -17.7993
  42   2.0000      -0.630352       -17.1527
  43   2.0000      -0.617024       -16.7901
  44   2.0000      -0.605573       -16.4785
  45   2.0000      -0.601449       -16.3663
  46   2.0000      -0.568993       -15.4831
  47   2.0000      -0.512241       -13.9388
  48   2.0000      -0.504150       -13.7186
  49   2.0000      -0.498981       -13.5780
  50   2.0000      -0.481111       -13.0917
  51   2.0000      -0.468255       -12.7419
  52   2.0000      -0.457130       -12.4391
  53   2.0000      -0.453795       -12.3484
  54   2.0000      -0.440609       -11.9896
  55   2.0000      -0.431419       -11.7395
  56   2.0000      -0.429832       -11.6963
  57   2.0000      -0.415275       -11.3002
  58   2.0000      -0.411822       -11.2062
  59   2.0000      -0.406758       -11.0684
  60   2.0000      -0.398265       -10.8373
  61   2.0000      -0.395223       -10.7546
  62   2.0000      -0.390474       -10.6253
  63   2.0000      -0.382215       -10.4006
  64   2.0000      -0.379268       -10.3204
  65   2.0000      -0.370275       -10.0757
  66   2.0000      -0.366189        -9.9645
  67   2.0000      -0.359973        -9.7954
  68   2.0000      -0.351070        -9.5531
  69   2.0000      -0.344075        -9.3628
  70   2.0000      -0.339325        -9.2335
  71   2.0000      -0.335483        -9.1290
  72   2.0000      -0.329778        -8.9737
  73   2.0000      -0.311236        -8.4692
  74   2.0000      -0.302882        -8.2418
  75   2.0000      -0.299693        -8.1551
  76   2.0000      -0.289317        -7.8727
  77   2.0000      -0.282413        -7.6849
  78   2.0000      -0.274488        -7.4692
  79   2.0000      -0.267093        -7.2680
  80   2.0000      -0.256658        -6.9840
  81   2.0000      -0.242520        -6.5993
  82   2.0000      -0.238971        -6.5027
  83   2.0000      -0.232371        -6.3231
  84   2.0000      -0.211127        -5.7450
  85   2.0000      -0.191276        -5.2049
  86   2.0000      -0.182723        -4.9722
  87   0.0000      -0.046191        -1.2569
  88   0.0000      -0.031712        -0.8629
  89   0.0000      -0.023831        -0.6485
  90   0.0000       0.014032         0.3818
  91   0.0000       0.031266         0.8508

MULLIKEN ATOMIC CHARGES
-----------------------
   0 C :   -0.305939
   1 C :   -0.013108
   2 O :   -0.231051
   3 C :    0.136031
   4 O :   -0.194129
   5 C :   -0.125281
   6 C :   -0.316343
   7 H :    0.169230
   8 C :    0.245338
   9 O :   -0.193802
  10 O :   -0.221675
  11 C :   -0.011192
  12 C :   -0.309645
  13 S :   -0.098936
  14 P :    0.629920
  15 S :   -0.356716
  16 O :   -0.373728
  17 C :   -0.100697
  18 O :   -0.367648
  19 C :   -0.083888
  20 H :    0.114199
  21 H :    0.116043
  22 H :    0.128120
  23 H :    0.105387
  24 H :    0.113657
  25 H :    0.138091
  26 H :    0.117593
  27 H :    0.110522
  28 H :    0.119998
  29 H :    0.119907
  30 H :    0.131279
  31 H :    0.117314
  32 H :    0.113115
  33 H :    0.118136
  34 H :    0.113681
  35 H :    0.117301
  36 H :    0.115034
  37 H :    0.113884
Sum of atomic charges:    0.0000000

LOEWDIN ATOMIC CHARGES
----------------------
   0 C :   -0.356042
   1 C :   -0.110048
   2 O :   -0.060355
   3 C :    0.031915
   4 O :   -0.157196
   5 C :   -0.255709
   6 C :   -0.269218
   7 H :    0.151529
   8 C :    0.026465
   9 O :   -0.157376
  10 O :   -0.036815
  11 C :   -0.105023
  12 C :   -0.355659
  13 S :    0.101148
  14 P :    0.588764
  15 S :   -0.343042
  16 O :   -0.258984
  17 C :   -0.222154
  18 O :   -0.238068
  19 C :   -0.207303
  20 H :    0.124864
  21 H :    0.132199
  22 H :    0.131064
  23 H :    0.119127
  24 H :    0.122266
  25 H :    0.154168
  26 H :    0.139836
  27 H :    0.122145
  28 H :    0.125830
  29 H :    0.134484
  30 H :    0.131808
  31 H :    0.126572
  32 H :    0.108428
  33 H :    0.118554
  34 H :    0.105341
  35 H :    0.116227
  36 H :    0.108636
  37 H :    0.111622

  Mayer bond orders larger than 0.100000
B(  0-C ,  1-C ) :   1.1744 B(  0-C , 20-H ) :   0.9488 B(  0-C , 21-H ) :   0.9441
B(  0-C , 22-H ) :   0.9462 B(  1-C ,  2-O ) :   0.9130 B(  1-C , 23-H ) :   0.9370
B(  1-C , 24-H ) :   0.9144 B(  2-O ,  3-C ) :   1.2414 B(  3-C ,  4-O ) :   2.0417
B(  3-C ,  5-C ) :   0.9950 B(  5-C ,  6-C ) :   1.0903 B(  5-C , 25-H ) :   0.8706
B(  5-C , 26-H ) :   0.9009 B(  6-C ,  7-H ) :   0.8223 B(  6-C ,  8-C ) :   0.9082
B(  6-C , 13-S ) :   1.0255 B(  8-C ,  9-O ) :   1.9500 B(  8-C , 10-O ) :   1.2796
B( 10-O , 11-C ) :   0.8989 B( 11-C , 12-C ) :   1.1746 B( 11-C , 27-H ) :   0.9363
B( 11-C , 28-H ) :   0.9159 B( 12-C , 29-H ) :   0.9430 B( 12-C , 30-H ) :   0.9451
B( 12-C , 31-H ) :   0.9478 B( 13-S , 14-P ) :   0.9349 B( 13-S , 15-S ) :   0.1160
B( 14-P , 15-S ) :   1.5720 B( 14-P , 16-O ) :   1.0885 B( 14-P , 18-O ) :   1.1400
B( 16-O , 17-C ) :   0.9448 B( 17-C , 32-H ) :   0.9369 B( 17-C , 33-H ) :   0.9593
B( 17-C , 34-H ) :   0.9404 B( 18-O , 19-C ) :   0.9277 B( 19-C , 35-H ) :   0.9546
B( 19-C , 36-H ) :   0.9336 B( 19-C , 37-H ) :   0.9543

Dispersion correction           -0.049689127
FINAL SINGLE POINT ENERGY     -1979.016975406897

DIPOLE MOMENT
-------------

Method             : SCF
Type of density    : Electron Density
Multiplicity       :   1
Irrep              :   0
Energy             : -1979.1490457274107939 Eh
Relativity type    :
Basis              : AO
                                X                 Y                 Z
Electronic contribution:    -16.112794147      -1.350759066       0.754828855
Nuclear contribution   :     18.082192859       1.796370999      -0.181028842
                        -----------------------------------------
Total Dipole Moment    :      1.969398711       0.445611932       0.573800013
                        -----------------------------------------
Magnitude (a.u.)       :      2.099130232
Magnitude (Debye)      :      5.335565027

Rotational constants in cm-1:             0.011714             0.006641             0.004805
Rotational constants in MHz :           351.177406           199.089056           144.050950

                             ****ORCA TERMINATED NORMALLY****
TOTAL RUN TIME: 0 days 0 hours 0 minutes 37 seconds 69 msec
