                         Program Version 6.0.0  -   RELEASE  -
|  1> ! pbe def2-sv(p) def2/J RI DEFGRID1 loosescf d4 GCP(DFT/SV(P)) printgap
|  2> %output
|  3>     printlevel normal
|  4> end
|  5> * xyz 0 1
|  6> C 4.7521049035 -1.3169913367 -1.1549575405
|  7> C 4.7465867656 0.0690471347 -0.5435134968
|  8> O 3.5971526251 0.2860742118 0.293443716
|  9> P 2.1196140257 0.39300486 -0.2912471294
| 10> S 2.0301967198 1.337494338 -2.0120296731
| 11> O 1.3708742299 1.0252964689 0.9527873838
| 12> C 1.492313423 2.4308386628 1.2610476437
| 13> C 0.6819837685 2.6955340492 2.5116554134
| 14> S 1.3842363621 -1.5678709944 -0.2060593534
| 15> C 0.1216223945 -1.5081759443 -1.5273056409
| 16> S -1.5372246925 -1.8678433857 -0.9168635919
| 17> P -1.8761493719 -0.0709395226 0.1711305284
| 18> S -1.3174043341 1.5747516012 -0.7349355116
| 19> O -1.2269518916 -0.2208988239 1.5938369213
| 20> C -1.1571926223 -1.4268264898 2.3979054246
| 21> C -2.5100693175 -2.0594267187 2.6368886384
| 22> O -3.4316511315 -0.1375615626 0.4792301796
| 23> C -4.4110606909 0.0934439847 -0.5520444442
| 24> C -5.7314327588 0.4079798168 0.1215234118
| 25> H 4.6283393581 -2.0718771043 -0.3826403793
| 26> H 3.9372033477 -1.4081035011 -1.8718832195
| 27> H 5.693357987 -1.4769276107 -1.6708169903
| 28> H 4.7515073366 0.8343614743 -1.3262830632
| 29> H 5.5914233782 0.217996334 0.130173369
| 30> H 2.550582454 2.6651013051 1.4048922357
| 31> H 1.1092651567 3.0003832385 0.4071070892
| 32> H 0.7342933258 3.7519122831 2.7538063548
| 33> H -0.3546704519 2.4160272827 2.3388450398
| 34> H 1.0726413348 2.1100486951 3.3386615844
| 35> H 0.3532173173 -2.2863423967 -2.2497078785
| 36> H 0.146341635 -0.5173106054 -1.9896580646
| 37> H -0.4769894238 -2.1267068928 1.9038795564
| 38> H -0.7058149993 -1.0735947072 3.3261943848
| 39> H -2.9166626092 -2.4493276202 1.7061803238
| 40> H -2.3939893541 -2.877613226 3.3410716839
| 41> H -3.2014511094 -1.3272320728 3.0454986467
| 42> H -4.0709954198 0.925648443 -1.1779089531
| 43> H -4.4788551811 -0.8095626615 -1.1643670614
| 44> H -5.633644716 1.2987673331 0.735675127
| 45> H -6.4865358532 0.5785692623 -0.6386763928
| 46> H -6.0347260571 -0.4234153563 0.7507815753
| 47> *
| 48>
| 49>                          ****END OF INPUT****

CARTESIAN COORDINATES (ANGSTROEM)
---------------------------------
  C      4.752105   -1.316991   -1.154958
  C      4.746587    0.069047   -0.543513
  O      3.597153    0.286074    0.293444
  P      2.119614    0.393005   -0.291247
  S      2.030197    1.337494   -2.012030
  O      1.370874    1.025296    0.952787
  C      1.492313    2.430839    1.261048
  C      0.681984    2.695534    2.511655
  S      1.384236   -1.567871   -0.206059
  C      0.121622   -1.508176   -1.527306
  S     -1.537225   -1.867843   -0.916864
  P     -1.876149   -0.070940    0.171131
  S     -1.317404    1.574752   -0.734936
  O     -1.226952   -0.220899    1.593837
  C     -1.157193   -1.426826    2.397905
  C     -2.510069   -2.059427    2.636889
  O     -3.431651   -0.137562    0.479230
  C     -4.411061    0.093444   -0.552044
  C     -5.731433    0.407980    0.121523
  H      4.628339   -2.071877   -0.382640
  H      3.937203   -1.408104   -1.871883
  H      5.693358   -1.476928   -1.670817
  H      4.751507    0.834361   -1.326283
  H      5.591423    0.217996    0.130173
  H      2.550582    2.665101    1.404892
  H      1.109265    3.000383    0.407107
  H      0.734293    3.751912    2.753806
  H     -0.354670    2.416027    2.338845
  H      1.072641    2.110049    3.338662
  H      0.353217   -2.286342   -2.249708
  H      0.146342   -0.517311   -1.989658
  H     -0.476989   -2.126707    1.903880
  H     -0.705815   -1.073595    3.326194
  H     -2.916663   -2.449328    1.706180
  H     -2.393989   -2.877613    3.341072
  H     -3.201451   -1.327232    3.045499
  H     -4.070995    0.925648   -1.177909
  H     -4.478855   -0.809563   -1.164367
  H     -5.633645    1.298767    0.735675
  H     -6.486536    0.578569   -0.638676
  H     -6.034726   -0.423415    0.750782

 Total Charge           Charge          ....    0
 Multiplicity           Mult            ....    1
 Number of Electrons    NEL             ....  202
 Basis Dimension        Dim             ....  334

ORBITAL ENERGIES
----------------

  NO   OCC          E(Eh)            E(eV)
   0   2.0000     -88.045816     -2395.8485
   1   2.0000     -88.043849     -2395.7949
   2   2.0000     -87.980079     -2394.0597
   3   2.0000     -87.978162     -2394.0075
   4   2.0000     -76.424236     -2079.6092
   5   2.0000     -76.419499     -2079.4803
   6   2.0000     -18.793544      -511.3983
   7   2.0000     -18.791301      -511.3373
   8   2.0000     -18.787478      -511.2333
   9   2.0000     -18.777681      -510.9667
  10   2.0000      -9.956541      -270.9313
  11   2.0000      -9.953782      -270.8562
  12   2.0000      -9.952508      -270.8215
  13   2.0000      -9.947373      -270.6818
  14   2.0000      -9.938603      -270.4431
  15   2.0000      -9.888625      -269.0832
  16   2.0000      -9.887294      -269.0469
  17   2.0000      -9.881078      -268.8778
  18   2.0000      -9.872872      -268.6545
  19   2.0000      -7.690908      -209.2802
  20   2.0000      -7.688992      -209.2281
  21   2.0000      -7.625046      -207.4880
  22   2.0000      -7.623097      -207.4350
  23   2.0000      -6.421624      -174.7413
  24   2.0000      -6.417258      -174.6225
  25   2.0000      -5.718737      -155.6147
  26   2.0000      -5.716816      -155.5625
  27   2.0000      -5.715203      -155.5186
  28   2.0000      -5.713508      -155.4725
  29   2.0000      -5.708159      -155.3269
  30   2.0000      -5.705913      -155.2658
  31   2.0000      -5.653914      -153.8508
  32   2.0000      -5.652073      -153.8007
  33   2.0000      -5.645848      -153.6313
  34   2.0000      -5.645091      -153.6107
  35   2.0000      -5.643668      -153.5720
  36   2.0000      -5.643214      -153.5597
  37   2.0000      -4.644374      -126.3799
  38   2.0000      -4.643631      -126.3596
  39   2.0000      -4.641676      -126.3064
  40   2.0000      -4.639619      -126.2505
  41   2.0000      -4.638826      -126.2289
  42   2.0000      -4.638052      -126.2078
  43   2.0000      -0.987357       -26.8674
  44   2.0000      -0.979187       -26.6450
  45   2.0000      -0.945719       -25.7343
  46   2.0000      -0.935270       -25.4500
  47   2.0000      -0.763703       -20.7814
  48   2.0000      -0.720543       -19.6070
  49   2.0000      -0.707848       -19.2615
  50   2.0000      -0.692591       -18.8464
  51   2.0000      -0.681872       -18.5547
  52   2.0000      -0.672381       -18.2964
  53   2.0000      -0.646206       -17.5842
  54   2.0000      -0.630070       -17.1451
  55   2.0000      -0.595609       -16.2073
  56   2.0000      -0.590579       -16.0705
  57   2.0000      -0.569159       -15.4876
  58   2.0000      -0.566285       -15.4094
  59   2.0000      -0.555630       -15.1195
  60   2.0000      -0.503607       -13.7039
  61   2.0000      -0.495485       -13.4828
  62   2.0000      -0.476113       -12.9557
  63   2.0000      -0.466357       -12.6902
  64   2.0000      -0.451583       -12.2882
  65   2.0000      -0.445860       -12.1325
  66   2.0000      -0.436169       -11.8688
  67   2.0000      -0.434649       -11.8274
  68   2.0000      -0.425674       -11.5832
  69   2.0000      -0.418367       -11.3843
  70   2.0000      -0.410241       -11.1632
  71   2.0000      -0.401122       -10.9151
  72   2.0000      -0.387016       -10.5313
  73   2.0000      -0.384882       -10.4732
  74   2.0000      -0.377570       -10.2742
  75   2.0000      -0.366786        -9.9808
  76   2.0000      -0.362948        -9.8763
  77   2.0000      -0.356606        -9.7037
  78   2.0000      -0.351004        -9.5513
  79   2.0000      -0.349481        -9.5099
  80   2.0000      -0.348645        -9.4871
  81   2.0000      -0.343615        -9.3502
  82   2.0000      -0.337214        -9.1760
  83   2.0000      -0.333869        -9.0850
  84   2.0000      -0.323368        -8.7993
  85   2.0000      -0.314725        -8.5641
  86   2.0000      -0.309668        -8.4265
  87   2.0000      -0.298814        -8.1311
  88   2.0000      -0.294073        -8.0021
  89   2.0000      -0.290382        -7.9017
  90   2.0000      -0.278986        -7.5916
  91   2.0000      -0.272550        -7.4165
  92   2.0000      -0.263298        -7.1647
  93   2.0000      -0.260138        -7.0787
  94   2.0000      -0.256823        -6.9885
  95   2.0000      -0.240010        -6.5310
  96   2.0000      -0.221146        -6.0177
  97   2.0000      -0.212051        -5.7702
  98   2.0000      -0.201098        -5.4722
  99   2.0000      -0.191469        -5.2101
 100   2.0000      -0.182007        -4.9527
 101   0.0000      -0.042607        -1.1594
 102   0.0000      -0.031044        -0.8448
 103   0.0000      -0.008919        -0.2427
 104   0.0000       0.013349         0.3632
 105   0.0000       0.023167         0.6304

MULLIKEN ATOMIC CHARGES
-----------------------
   0 C :   -0.311492
   1 C :   -0.001380
   2 O :   -0.379460
   3 P :    0.613428
   4 S :   -0.319023
   5 O :   -0.357074
   6 C :   -0.002137
   7 C :   -0.280083
   8 S :   -0.095715
   9 C :   -0.350913
  10 S :   -0.119479
  11 P :    0.597635
  12 S :   -0.297787
  13 O :   -0.346525
  14 C :   -0.001574
  15 C :   -0.307062
  16 O :   -0.377950
  17 C :   -0.012046
  18 C :   -0.280659
  19 H :    0.115453
  20 H :    0.120305
  21 H :    0.111196
  22 H :    0.109744
  23 H :    0.101882
  24 H :    0.094710
  25 H :    0.113183
  26 H :    0.103633
  27 H :    0.126895
  28 H :    0.104486
  29 H :    0.183169
  30 H :    0.211707
  31 H :    0.115915
  32 H :    0.108503
  33 H :    0.116499
  34 H :    0.113020
  35 H :    0.121505
  36 H :    0.107238
  37 H :    0.101637
  38 H :    0.121581
  39 H :    0.112907
  40 H :    0.114126
Sum of atomic charges:   -0.0000000

LOEWDIN ATOMIC CHARGES
----------------------
   0 C :   -0.369186
   1 C :   -0.120844
   2 O :   -0.248888
   3 P :    0.568183
   4 S :   -0.311979
   5 O :   -0.236148
   6 C :   -0.117070
   7 C :   -0.352415
   8 S :    0.090601
   9 C :   -0.476805
  10 S :    0.062340
  11 P :    0.563557
  12 S :   -0.293633
  13 O :   -0.223136
  14 C :   -0.113285
  15 C :   -0.367056
  16 O :   -0.246219
  17 C :   -0.121949
  18 C :   -0.350293
  19 H :    0.123095
  20 H :    0.119383
  21 H :    0.129889
  22 H :    0.109388
  23 H :    0.116977
  24 H :    0.106144
  25 H :    0.110792
  26 H :    0.127193
  27 H :    0.127833
  28 H :    0.121318
  29 H :    0.137446
  30 H :    0.128163
  31 H :    0.103819
  32 H :    0.122427
  33 H :    0.117132
  34 H :    0.131198
  35 H :    0.127839
  36 H :    0.109396
  37 H :    0.108405
  38 H :    0.129613
  39 H :    0.131347
  40 H :    0.125429

  Mayer bond orders larger than 0.100000
B(  0-C ,  1-C ) :   1.1655 B(  0-C , 19-H ) :   0.9449 B(  0-C , 20-H ) :   0.9365
B(  0-C , 21-H ) :   0.9385 B(  1-C ,  2-O ) :   0.9131 B(  1-C , 22-H ) :   0.9130
B(  1-C , 23-H ) :   0.9338 B(  2-O ,  3-P ) :   1.0957 B(  3-P ,  4-S ) :   1.6089
B(  3-P ,  5-O ) :   1.1461 B(  3-P ,  8-S ) :   0.9610 B(  4-S ,  8-S ) :   0.1160
B(  5-O ,  6-C ) :   0.8947 B(  6-C ,  7-C ) :   1.1660 B(  6-C , 24-H ) :   0.9264
B(  6-C , 25-H ) :   0.9152 B(  7-C , 26-H ) :   0.9412 B(  7-C , 27-H ) :   0.9415
B(  7-C , 28-H ) :   0.9504 B(  8-S ,  9-C ) :   0.9922 B(  9-C , 10-S ) :   1.0066
B(  9-C , 29-H ) :   0.9109 B(  9-C , 30-H ) :   0.8461 B( 10-S , 11-P ) :   0.9325
B( 10-S , 12-S ) :   0.1051 B( 11-P , 12-S ) :   1.6456 B( 11-P , 13-O ) :   1.1513
B( 11-P , 16-O ) :   1.0863 B( 13-O , 14-C ) :   0.8961 B( 14-C , 15-C ) :   1.1692
B( 14-C , 31-H ) :   0.9104 B( 14-C , 32-H ) :   0.9346 B( 15-C , 33-H ) :   0.9387
B( 15-C , 34-H ) :   0.9358 B( 15-C , 35-H ) :   0.9428 B( 16-O , 17-C ) :   0.9036
B( 17-C , 18-C ) :   1.1604 B( 17-C , 36-H ) :   0.9064 B( 17-C , 37-H ) :   0.9296
B( 18-C , 38-H ) :   0.9507 B( 18-C , 39-H ) :   0.9418 B( 18-C , 40-H ) :   0.9515

Dispersion correction           -0.067382510
FINAL SINGLE POINT ENERGY     -2929.520262056008

DIPOLE MOMENT
-------------

Method             : SCF
Type of density    : Electron Density
Multiplicity       :   1
Irrep              :   0
Energy             : -2929.6385380057745351 Eh
Relativity type    :
Basis              : AO
                                X                 Y                 Z
Electronic contribution:      5.772971214       0.239064311     -11.323395786
Nuclear contribution   :     -6.032842294      -1.242829432      12.193444343
                        -----------------------------------------
Total Dipole Moment    :     -0.259871080      -1.003765121       0.870048557
                        -----------------------------------------
Magnitude (a.u.)       :      1.353536807
Magnitude (Debye)      :      3.440417148

Rotational constants in cm-1:             0.013131             0.005188             0.004960
Rotational constants in MHz :           393.643841           155.539069           148.690194

                             ****ORCA TERMINATED NORMALLY****
TOTAL RUN TIME: 0 days 0 hours 0 minutes 21 seconds 430 msec
