                         Program Version 6.0.0  -   RELEASE  -
|  1> ! pbe def2-sv(p) def2/J RI DEFGRID1 loosescf d4 GCP(DFT/SV(P)) printgap
|  2> %output
|  3>     printlevel normal
|  4> end
|  5> * xyz 0 1
|  6> C -0.6608424118 1.0343235206 7.54411e-05
|  7> C 0.6608365913 1.0343256143 -7.47056e-05
|  8> Cl 1.6110464897 -0.4056994864 1.64901e-05
|  9> Cl -1.6110441732 -0.4057017312 -1.65866e-05
| 10> H -1.2358986907 1.9448418939 0.0002772691
| 11> H 1.2358865712 1.9448294888 -0.0002826396
| 12> *
| 13>
| 14>                          ****END OF INPUT****

CARTESIAN COORDINATES (ANGSTROEM)
---------------------------------
  C     -0.660842    1.034324    0.000075
  C      0.660837    1.034326   -0.000075
  Cl     1.611046   -0.405699    0.000016
  Cl    -1.611044   -0.405702   -0.000017
  H     -1.235899    1.944842    0.000277
  H      1.235887    1.944829   -0.000283

 Total Charge           Charge          ....    0
 Multiplicity           Mult            ....    1
 Number of Electrons    NEL             ....   48
 Basis Dimension        Dim             ....   68

ORBITAL ENERGIES
----------------

  NO   OCC          E(Eh)            E(eV)
   0   2.0000    -100.648963     -2738.7975
   1   2.0000    -100.648902     -2738.7959
   2   2.0000      -9.954953      -270.8880
   3   2.0000      -9.954343      -270.8714
   4   2.0000      -9.184682      -249.9279
   5   2.0000      -9.184630      -249.9265
   6   2.0000      -7.016160      -190.9194
   7   2.0000      -7.016146      -190.9190
   8   2.0000      -7.004892      -190.6128
   9   2.0000      -7.004884      -190.6126
  10   2.0000      -7.003746      -190.5816
  11   2.0000      -7.003717      -190.5808
  12   2.0000      -0.822259       -22.3748
  13   2.0000      -0.779064       -21.1994
  14   2.0000      -0.665074       -18.0976
  15   2.0000      -0.519794       -14.1443
  16   2.0000      -0.464833       -12.6488
  17   2.0000      -0.421317       -11.4646
  18   2.0000      -0.367385        -9.9971
  19   2.0000      -0.351374        -9.5614
  20   2.0000      -0.299362        -8.1461
  21   2.0000      -0.281077        -7.6485
  22   2.0000      -0.266156        -7.2425
  23   2.0000      -0.221096        -6.0163
  24   0.0000      -0.042680        -1.1614
  25   0.0000      -0.009351        -0.2545
  26   0.0000       0.046718         1.2713
  27   0.0000       0.047820         1.3013
  28   0.0000       0.140994         3.8366

MULLIKEN ATOMIC CHARGES
-----------------------
   0 C :   -0.076039
   1 C :   -0.076036
   2 Cl:   -0.058106
   3 Cl:   -0.058104
   4 H :    0.134145
   5 H :    0.134140
Sum of atomic charges:    0.0000000

LOEWDIN ATOMIC CHARGES
----------------------
   0 C :   -0.270039
   1 C :   -0.270039
   2 Cl:    0.131146
   3 Cl:    0.131149
   4 H :    0.138892
   5 H :    0.138891

  Mayer bond orders larger than 0.100000
B(  0-C ,  1-C ) :   1.8687 B(  0-C ,  3-Cl) :   1.1086 B(  0-C ,  4-H ) :   0.9165
B(  1-C ,  2-Cl) :   1.1086 B(  1-C ,  5-H ) :   0.9165

Dispersion correction           -0.005266735
FINAL SINGLE POINT ENERGY      -996.941175886427

DIPOLE MOMENT
-------------

Method             : SCF
Type of density    : Electron Density
Multiplicity       :   1
Irrep              :   0
Energy             :  -996.9547840426872654 Eh
Relativity type    :
Basis              : AO
                                X                 Y                 Z
Electronic contribution:      0.000007700      -4.084844721       0.000002956
Nuclear contribution   :     -0.000014479       4.738272768      -0.000004909
                        -----------------------------------------
Total Dipole Moment    :     -0.000006779       0.653428047      -0.000001952
                        -----------------------------------------
Magnitude (a.u.)       :      0.653428047
Magnitude (Debye)      :      1.660882102

Rotational constants in cm-1:             0.374653             0.085310             0.069488
Rotational constants in MHz :         11231.825212          2557.535294          2083.185037

                             ****ORCA TERMINATED NORMALLY****
TOTAL RUN TIME: 0 days 0 hours 0 minutes 4 seconds 13 msec
