                         Program Version 6.0.0  -   RELEASE  -
|  1> ! pbe def2-sv(p) def2/J RI DEFGRID1 loosescf d4 GCP(DFT/SV(P)) printgap
|  2> %output
|  3>     printlevel normal
|  4> end
|  5> * xyz 0 1
|  6> C 2.1982051107 2.4891037257 -0.4678859028
|  7> C 2.0745181628 1.1760525269 -1.2140433442
|  8> O 2.7532369258 0.0989634491 -0.5524194263
|  9> P 2.3533369994 -0.5713628578 0.8362940471
| 10> S 2.5767154673 0.4758849249 2.4755646028
| 11> O 3.3298999906 -1.8053849698 0.8582349336
| 12> C 3.7233175195 -2.6048990704 -0.2839217582
| 13> C 2.5542496368 -3.323539607 -0.9233790923
| 14> S 0.3901989024 -1.3725777719 0.5705228199
| 15> C -0.5270638945 -0.3094408799 1.7072869262
| 16> S -1.0082790625 1.2917875297 1.0036823462
| 17> P -2.2288694729 0.6055146542 -0.6028647132
| 18> S -1.3823975571 -0.0372187881 -2.2560445382
| 19> O -3.2471673932 1.8086594298 -0.7928133633
| 20> C -2.8870735085 3.2001433372 -0.8560933668
| 21> C -1.7852494814 3.4763444974 -1.858436963
| 22> O -3.1825306035 -0.4472974379 0.0951849071
| 23> C -3.5247375455 -1.7373662572 -0.4521814421
| 24> C -2.9872383094 -2.8477446566 0.4284892879
| 25> H 1.7932722558 3.2878556532 -1.0814118947
| 26> H 1.6516044228 2.452896884 0.4728924688
| 27> H 3.2431950014 2.6977534293 -0.2523839542
| 28> H 2.5646355207 1.2277718703 -2.1883833347
| 29> H 1.0260048666 0.8969560531 -1.3623792764
| 30> H 4.223516079 -1.9525480091 -1.001839656
| 31> H 4.4402629348 -3.3075100806 0.1436267632
| 32> H 2.0201928756 -3.91403343 -0.1830854334
| 33> H 1.8616624488 -2.6105651862 -1.3692671167
| 34> H 2.9261621818 -3.9805133522 -1.7035890558
| 35> H 0.107380123 -0.07332143 2.5643570708
| 36> H -1.4195124712 -0.8520727545 2.0074186664
| 37> H -3.8183862285 3.6944576727 -1.1380708691
| 38> H -2.5861888188 3.5198246644 0.1458313089
| 39> H -0.8656486189 2.9837957721 -1.5438556107
| 40> H -2.0619779142 3.099658053 -2.8403892172
| 41> H -1.6117418805 4.5459072601 -1.9180258692
| 42> H -4.6153051099 -1.7542023779 -0.4917739213
| 43> H -3.1196036469 -1.8126396018 -1.4669192911
| 44> H -1.8985325873 -2.8382884803 0.4275482084
| 45> H -3.347924592 -2.7298170543 1.4468233157
| 46> H -3.3298152333 -3.8008455465 0.0389653239
| 47> *
| 48>
| 49>                          ****END OF INPUT****

CARTESIAN COORDINATES (ANGSTROEM)
---------------------------------
  C      2.198205    2.489104   -0.467886
  C      2.074518    1.176053   -1.214043
  O      2.753237    0.098963   -0.552419
  P      2.353337   -0.571363    0.836294
  S      2.576715    0.475885    2.475565
  O      3.329900   -1.805385    0.858235
  C      3.723318   -2.604899   -0.283922
  C      2.554250   -3.323540   -0.923379
  S      0.390199   -1.372578    0.570523
  C     -0.527064   -0.309441    1.707287
  S     -1.008279    1.291788    1.003682
  P     -2.228869    0.605515   -0.602865
  S     -1.382398   -0.037219   -2.256045
  O     -3.247167    1.808659   -0.792813
  C     -2.887074    3.200143   -0.856093
  C     -1.785249    3.476344   -1.858437
  O     -3.182531   -0.447297    0.095185
  C     -3.524738   -1.737366   -0.452181
  C     -2.987238   -2.847745    0.428489
  H      1.793272    3.287856   -1.081412
  H      1.651604    2.452897    0.472892
  H      3.243195    2.697753   -0.252384
  H      2.564636    1.227772   -2.188383
  H      1.026005    0.896956   -1.362379
  H      4.223516   -1.952548   -1.001840
  H      4.440263   -3.307510    0.143627
  H      2.020193   -3.914033   -0.183085
  H      1.861662   -2.610565   -1.369267
  H      2.926162   -3.980513   -1.703589
  H      0.107380   -0.073321    2.564357
  H     -1.419512   -0.852073    2.007419
  H     -3.818386    3.694458   -1.138071
  H     -2.586189    3.519825    0.145831
  H     -0.865649    2.983796   -1.543856
  H     -2.061978    3.099658   -2.840389
  H     -1.611742    4.545907   -1.918026
  H     -4.615305   -1.754202   -0.491774
  H     -3.119604   -1.812640   -1.466919
  H     -1.898533   -2.838288    0.427548
  H     -3.347925   -2.729817    1.446823
  H     -3.329815   -3.800846    0.038965

 Total Charge           Charge          ....    0
 Multiplicity           Mult            ....    1
 Number of Electrons    NEL             ....  202
 Basis Dimension        Dim             ....  334

ORBITAL ENERGIES
----------------

  NO   OCC          E(Eh)            E(eV)
   0   2.0000     -88.046458     -2395.8659
   1   2.0000     -88.043804     -2395.7937
   2   2.0000     -87.988846     -2394.2982
   3   2.0000     -87.983434     -2394.1510
   4   2.0000     -76.431804     -2079.8151
   5   2.0000     -76.426277     -2079.6647
   6   2.0000     -18.797129      -511.4959
   7   2.0000     -18.791792      -511.3506
   8   2.0000     -18.790748      -511.3222
   9   2.0000     -18.790190      -511.3071
  10   2.0000      -9.961294      -271.0606
  11   2.0000      -9.957603      -270.9602
  12   2.0000      -9.956990      -270.9435
  13   2.0000      -9.955009      -270.8896
  14   2.0000      -9.944258      -270.5970
  15   2.0000      -9.890895      -269.1449
  16   2.0000      -9.890782      -269.1419
  17   2.0000      -9.889397      -269.1042
  18   2.0000      -9.873461      -268.6705
  19   2.0000      -7.691191      -209.2880
  20   2.0000      -7.687977      -209.2005
  21   2.0000      -7.633549      -207.7194
  22   2.0000      -7.628611      -207.5851
  23   2.0000      -6.428852      -174.9380
  24   2.0000      -6.423415      -174.7900
  25   2.0000      -5.719132      -155.6255
  26   2.0000      -5.715941      -155.5387
  27   2.0000      -5.715709      -155.5323
  28   2.0000      -5.712458      -155.4439
  29   2.0000      -5.708157      -155.3268
  30   2.0000      -5.705059      -155.2425
  31   2.0000      -5.662366      -154.0808
  32   2.0000      -5.657676      -153.9532
  33   2.0000      -5.654265      -153.8604
  34   2.0000      -5.653744      -153.8462
  35   2.0000      -5.649079      -153.7193
  36   2.0000      -5.648738      -153.7100
  37   2.0000      -4.651509      -126.5740
  38   2.0000      -4.650931      -126.5583
  39   2.0000      -4.648995      -126.5056
  40   2.0000      -4.646246      -126.4308
  41   2.0000      -4.645208      -126.4025
  42   2.0000      -4.643695      -126.3614
  43   2.0000      -0.990134       -26.9429
  44   2.0000      -0.986444       -26.8425
  45   2.0000      -0.949335       -25.8327
  46   2.0000      -0.941047       -25.6072
  47   2.0000      -0.764877       -20.8134
  48   2.0000      -0.724413       -19.7123
  49   2.0000      -0.714030       -19.4297
  50   2.0000      -0.691985       -18.8299
  51   2.0000      -0.687487       -18.7075
  52   2.0000      -0.675363       -18.3776
  53   2.0000      -0.655419       -17.8349
  54   2.0000      -0.639913       -17.4129
  55   2.0000      -0.599447       -16.3118
  56   2.0000      -0.591711       -16.1013
  57   2.0000      -0.578498       -15.7417
  58   2.0000      -0.577307       -15.7093
  59   2.0000      -0.565653       -15.3922
  60   2.0000      -0.505447       -13.7539
  61   2.0000      -0.494292       -13.4504
  62   2.0000      -0.475096       -12.9280
  63   2.0000      -0.471216       -12.8224
  64   2.0000      -0.461057       -12.5460
  65   2.0000      -0.446957       -12.1623
  66   2.0000      -0.441403       -12.0112
  67   2.0000      -0.438251       -11.9254
  68   2.0000      -0.425444       -11.5769
  69   2.0000      -0.422567       -11.4986
  70   2.0000      -0.419146       -11.4055
  71   2.0000      -0.400900       -10.9091
  72   2.0000      -0.399287       -10.8652
  73   2.0000      -0.389666       -10.6033
  74   2.0000      -0.385631       -10.4935
  75   2.0000      -0.379787       -10.3345
  76   2.0000      -0.365189        -9.9373
  77   2.0000      -0.358046        -9.7429
  78   2.0000      -0.354715        -9.6523
  79   2.0000      -0.352052        -9.5798
  80   2.0000      -0.349728        -9.5166
  81   2.0000      -0.347237        -9.4488
  82   2.0000      -0.343853        -9.3567
  83   2.0000      -0.337991        -9.1972
  84   2.0000      -0.331543        -9.0218
  85   2.0000      -0.324262        -8.8236
  86   2.0000      -0.310560        -8.4508
  87   2.0000      -0.301518        -8.2047
  88   2.0000      -0.294302        -8.0084
  89   2.0000      -0.291166        -7.9230
  90   2.0000      -0.287794        -7.8313
  91   2.0000      -0.281560        -7.6616
  92   2.0000      -0.274732        -7.4758
  93   2.0000      -0.264056        -7.1853
  94   2.0000      -0.255557        -6.9541
  95   2.0000      -0.246204        -6.6995
  96   2.0000      -0.218969        -5.9584
  97   2.0000      -0.205240        -5.5849
  98   2.0000      -0.203020        -5.5244
  99   2.0000      -0.201703        -5.4886
 100   2.0000      -0.192043        -5.2257
 101   0.0000      -0.051226        -1.3939
 102   0.0000      -0.029779        -0.8103
 103   0.0000      -0.022041        -0.5998
 104   0.0000      -0.003820        -0.1039
 105   0.0000       0.006537         0.1779

MULLIKEN ATOMIC CHARGES
-----------------------
   0 C :   -0.314269
   1 C :   -0.037213
   2 O :   -0.382130
   3 P :    0.632495
   4 S :   -0.313604
   5 O :   -0.361493
   6 C :    0.005607
   7 C :   -0.338755
   8 S :   -0.124476
   9 C :   -0.338996
  10 S :   -0.112887
  11 P :    0.600955
  12 S :   -0.315554
  13 O :   -0.363109
  14 C :   -0.011471
  15 C :   -0.331461
  16 O :   -0.366283
  17 C :   -0.009610
  18 C :   -0.316592
  19 H :    0.111052
  20 H :    0.133369
  21 H :    0.113786
  22 H :    0.098996
  23 H :    0.137798
  24 H :    0.112996
  25 H :    0.111186
  26 H :    0.127288
  27 H :    0.139813
  28 H :    0.118600
  29 H :    0.195786
  30 H :    0.191504
  31 H :    0.113498
  32 H :    0.117281
  33 H :    0.137578
  34 H :    0.129910
  35 H :    0.114794
  36 H :    0.107670
  37 H :    0.116375
  38 H :    0.133452
  39 H :    0.120847
  40 H :    0.115266
Sum of atomic charges:    0.0000000

LOEWDIN ATOMIC CHARGES
----------------------
   0 C :   -0.371867
   1 C :   -0.123837
   2 O :   -0.242563
   3 P :    0.571015
   4 S :   -0.301087
   5 O :   -0.236161
   6 C :   -0.108775
   7 C :   -0.372905
   8 S :    0.084546
   9 C :   -0.481947
  10 S :    0.082123
  11 P :    0.568796
  12 S :   -0.306150
  13 O :   -0.242964
  14 C :   -0.115246
  15 C :   -0.371489
  16 O :   -0.239239
  17 C :   -0.118987
  18 C :   -0.362204
  19 H :    0.126328
  20 H :    0.114702
  21 H :    0.125709
  22 H :    0.117500
  23 H :    0.098677
  24 H :    0.116080
  25 H :    0.123110
  26 H :    0.127818
  27 H :    0.121772
  28 H :    0.134355
  29 H :    0.130267
  30 H :    0.133131
  31 H :    0.123812
  32 H :    0.109753
  33 H :    0.119915
  34 H :    0.131310
  35 H :    0.131451
  36 H :    0.118854
  37 H :    0.107894
  38 H :    0.117402
  39 H :    0.125411
  40 H :    0.133689

  Mayer bond orders larger than 0.100000
B(  0-C ,  1-C ) :   1.1678 B(  0-C , 19-H ) :   0.9326 B(  0-C , 20-H ) :   0.9276
B(  0-C , 21-H ) :   0.9422 B(  1-C ,  2-O ) :   0.9042 B(  1-C , 22-H ) :   0.9347
B(  1-C , 23-H ) :   0.8933 B(  2-O ,  3-P ) :   1.0836 B(  3-P ,  4-S ) :   1.6460
B(  3-P ,  5-O ) :   1.1451 B(  3-P ,  8-S ) :   0.9277 B(  4-S ,  8-S ) :   0.1103
B(  4-S , 29-H ) :   0.1086 B(  5-O ,  6-C ) :   0.8999 B(  6-C ,  7-C ) :   1.1700
B(  6-C , 24-H ) :   0.9267 B(  6-C , 25-H ) :   0.9336 B(  7-C , 26-H ) :   0.9422
B(  7-C , 27-H ) :   0.9310 B(  7-C , 28-H ) :   0.9351 B(  8-S ,  9-C ) :   1.0255
B(  9-C , 10-S ) :   0.9996 B(  9-C , 29-H ) :   0.8579 B(  9-C , 30-H ) :   0.8921
B( 10-S , 11-P ) :   0.9455 B( 10-S , 12-S ) :   0.1080 B( 11-P , 12-S ) :   1.6191
B( 11-P , 13-O ) :   1.1219 B( 11-P , 16-O ) :   1.1210 B( 13-O , 14-C ) :   0.9192
B( 14-C , 15-C ) :   1.1626 B( 14-C , 31-H ) :   0.9339 B( 14-C , 32-H ) :   0.9229
B( 15-C , 33-H ) :   0.9297 B( 15-C , 34-H ) :   0.9394 B( 15-C , 35-H ) :   0.9344
B( 16-O , 17-C ) :   0.9023 B( 17-C , 18-C ) :   1.1670 B( 17-C , 36-H ) :   0.9320
B( 17-C , 37-H ) :   0.8973 B( 18-C , 38-H ) :   0.9305 B( 18-C , 39-H ) :   0.9436
B( 18-C , 40-H ) :   0.9374

Dispersion correction           -0.067104073
FINAL SINGLE POINT ENERGY     -2929.514708942272

DIPOLE MOMENT
-------------

Method             : SCF
Type of density    : Electron Density
Multiplicity       :   1
Irrep              :   0
Energy             : -2929.6333942522401230 Eh
Relativity type    :
Basis              : AO
                                X                 Y                 Z
Electronic contribution:      2.037225902       0.865911044      10.037512211
Nuclear contribution   :     -2.775619402      -1.190066407     -10.861925824
                        -----------------------------------------
Total Dipole Moment    :     -0.738393500      -0.324155362      -0.824413613
                        -----------------------------------------
Magnitude (a.u.)       :      1.153238686
Magnitude (Debye)      :      2.931299785

Rotational constants in cm-1:             0.011104             0.005693             0.004910
Rotational constants in MHz :           332.904096           170.663143           147.200887

                             ****ORCA TERMINATED NORMALLY****
TOTAL RUN TIME: 0 days 0 hours 0 minutes 21 seconds 814 msec
