                         Program Version 6.0.0  -   RELEASE  -
|  1> ! pbe def2-sv(p) def2/J RI DEFGRID1 loosescf d4 GCP(DFT/SV(P)) printgap
|  2> %output
|  3>     printlevel normal
|  4> end
|  5> * xyz 0 1
|  6> C 3.9262472086 -1.4474415471 -2.5685554194
|  7> C 4.5169348896 -1.3699673214 -1.1759518342
|  8> O 3.5055493155 -1.3013690678 -0.153180682
|  9> P 2.514878601 -0.0663169332 -0.0022560822
| 10> S 3.2849777625 1.7049233216 -0.2976793051
| 11> O 1.9980935143 -0.2464063113 1.4755896977
| 12> C 1.5007041491 -1.5097715185 1.9863117289
| 13> C 0.5304604998 -1.210399234 3.1099422223
| 14> S 0.8634226721 -0.5844247655 -1.2541967512
| 15> C 0.1220983717 1.0624039925 -1.2603549233
| 16> S -0.6166705246 1.5130246692 0.3338804038
| 17> P -2.3582887144 0.3487020559 0.0953815011
| 18> S -3.2118338089 0.366931422 -1.674540337
| 19> O -3.3114764477 0.7695679471 1.2973051193
| 20> C -4.2797332744 1.8265078576 1.1795779421
| 21> C -3.6240604001 3.1841535369 1.0309944988
| 22> O -1.8312502531 -1.0587337424 0.5900007784
| 23> C -2.5421223286 -2.2885967146 0.3099397269
| 24> C -1.5296337432 -3.3997059731 0.1229925083
| 25> H 4.7219495515 -1.6263415369 -3.2845413777
| 26> H 3.1980025838 -2.2523374663 -2.6284835037
| 27> H 3.4342571755 -0.5084508207 -2.8177039762
| 28> H 5.1619298264 -0.4913636578 -1.0803991308
| 29> H 5.0764623967 -2.2719834165 -0.9241899091
| 30> H 1.0153429608 -2.0502942949 1.1685729112
| 31> H 2.3621884746 -2.0810069718 2.3371246812
| 32> H -0.3393361691 -0.6817969265 2.7269831572
| 33> H 0.2111483113 -2.1427221295 3.5648319345
| 34> H 1.0127701157 -0.589729544 3.8596587611
| 35> H -0.6497034587 1.0662113502 -2.0308115425
| 36> H 0.8961548553 1.802307905 -1.466400102
| 37> H -4.9202350316 1.6127286084 0.3179791584
| 38> H -4.8587219335 1.7558279437 2.101245954
| 39> H -3.101800425 3.2434684669 0.0766209004
| 40> H -4.3846087736 3.9576391049 1.063997254
| 41> H -2.9065548419 3.3478490409 1.8313762491
| 42> H -3.2040304409 -2.4842586216 1.156072663
| 43> H -3.143328868 -2.1456603322 -0.5945052629
| 44> H -0.8523635652 -3.1525672884 -0.6911558919
| 45> H -0.9565895906 -3.5427621516 1.0344441282
| 46> H -2.0551659162 -4.318348231 -0.1170803853
| 47> *
| 48>
| 49>                          ****END OF INPUT****

CARTESIAN COORDINATES (ANGSTROEM)
---------------------------------
  C      3.926247   -1.447442   -2.568555
  C      4.516935   -1.369967   -1.175952
  O      3.505549   -1.301369   -0.153181
  P      2.514879   -0.066317   -0.002256
  S      3.284978    1.704923   -0.297679
  O      1.998094   -0.246406    1.475590
  C      1.500704   -1.509772    1.986312
  C      0.530460   -1.210399    3.109942
  S      0.863423   -0.584425   -1.254197
  C      0.122098    1.062404   -1.260355
  S     -0.616671    1.513025    0.333880
  P     -2.358289    0.348702    0.095382
  S     -3.211834    0.366931   -1.674540
  O     -3.311476    0.769568    1.297305
  C     -4.279733    1.826508    1.179578
  C     -3.624060    3.184154    1.030994
  O     -1.831250   -1.058734    0.590001
  C     -2.542122   -2.288597    0.309940
  C     -1.529634   -3.399706    0.122993
  H      4.721950   -1.626342   -3.284541
  H      3.198003   -2.252337   -2.628484
  H      3.434257   -0.508451   -2.817704
  H      5.161930   -0.491364   -1.080399
  H      5.076462   -2.271983   -0.924190
  H      1.015343   -2.050294    1.168573
  H      2.362188   -2.081007    2.337125
  H     -0.339336   -0.681797    2.726983
  H      0.211148   -2.142722    3.564832
  H      1.012770   -0.589730    3.859659
  H     -0.649703    1.066211   -2.030812
  H      0.896155    1.802308   -1.466400
  H     -4.920235    1.612729    0.317979
  H     -4.858722    1.755828    2.101246
  H     -3.101800    3.243468    0.076621
  H     -4.384609    3.957639    1.063997
  H     -2.906555    3.347849    1.831376
  H     -3.204030   -2.484259    1.156073
  H     -3.143329   -2.145660   -0.594505
  H     -0.852364   -3.152567   -0.691156
  H     -0.956590   -3.542762    1.034444
  H     -2.055166   -4.318348   -0.117080

 Total Charge           Charge          ....    0
 Multiplicity           Mult            ....    1
 Number of Electrons    NEL             ....  202
 Basis Dimension        Dim             ....  334

ORBITAL ENERGIES
----------------

  NO   OCC          E(Eh)            E(eV)
   0   2.0000     -88.044135     -2395.8027
   1   2.0000     -88.041696     -2395.7363
   2   2.0000     -87.991567     -2394.3723
   3   2.0000     -87.987015     -2394.2484
   4   2.0000     -76.429180     -2079.7437
   5   2.0000     -76.425974     -2079.6565
   6   2.0000     -18.796623      -511.4821
   7   2.0000     -18.795919      -511.4630
   8   2.0000     -18.795022      -511.4385
   9   2.0000     -18.789048      -511.2760
  10   2.0000      -9.955305      -270.8976
  11   2.0000      -9.955219      -270.8953
  12   2.0000      -9.954612      -270.8788
  13   2.0000      -9.951979      -270.8071
  14   2.0000      -9.951742      -270.8007
  15   2.0000      -9.890510      -269.1345
  16   2.0000      -9.885412      -268.9957
  17   2.0000      -9.885230      -268.9908
  18   2.0000      -9.881239      -268.8822
  19   2.0000      -7.689321      -209.2371
  20   2.0000      -7.686483      -209.1598
  21   2.0000      -7.636469      -207.7989
  22   2.0000      -7.632312      -207.6858
  23   2.0000      -6.426994      -174.8874
  24   2.0000      -6.423541      -174.7934
  25   2.0000      -5.717164      -155.5719
  26   2.0000      -5.714191      -155.4910
  27   2.0000      -5.713980      -155.4853
  28   2.0000      -5.711098      -155.4069
  29   2.0000      -5.706131      -155.2717
  30   2.0000      -5.703540      -155.2012
  31   2.0000      -5.665191      -154.1577
  32   2.0000      -5.661232      -154.0500
  33   2.0000      -5.657120      -153.9381
  34   2.0000      -5.656804      -153.9295
  35   2.0000      -5.652853      -153.8220
  36   2.0000      -5.652507      -153.8125
  37   2.0000      -4.649528      -126.5201
  38   2.0000      -4.648677      -126.4969
  39   2.0000      -4.647479      -126.4643
  40   2.0000      -4.646457      -126.4365
  41   2.0000      -4.645168      -126.4014
  42   2.0000      -4.643833      -126.3651
  43   2.0000      -0.990454       -26.9516
  44   2.0000      -0.988354       -26.8945
  45   2.0000      -0.949233       -25.8299
  46   2.0000      -0.944286       -25.6953
  47   2.0000      -0.765886       -20.8408
  48   2.0000      -0.723893       -19.6981
  49   2.0000      -0.711520       -19.3614
  50   2.0000      -0.689810       -18.7707
  51   2.0000      -0.689210       -18.7544
  52   2.0000      -0.677717       -18.4416
  53   2.0000      -0.651220       -17.7206
  54   2.0000      -0.639116       -17.3912
  55   2.0000      -0.603244       -16.4151
  56   2.0000      -0.591710       -16.1013
  57   2.0000      -0.575400       -15.6574
  58   2.0000      -0.569270       -15.4906
  59   2.0000      -0.557324       -15.1656
  60   2.0000      -0.508753       -13.8439
  61   2.0000      -0.502686       -13.6788
  62   2.0000      -0.476647       -12.9702
  63   2.0000      -0.474288       -12.9060
  64   2.0000      -0.461449       -12.5567
  65   2.0000      -0.445263       -12.1162
  66   2.0000      -0.440867       -11.9966
  67   2.0000      -0.437600       -11.9077
  68   2.0000      -0.432086       -11.7577
  69   2.0000      -0.422945       -11.5089
  70   2.0000      -0.411669       -11.2021
  71   2.0000      -0.396832       -10.7984
  72   2.0000      -0.390904       -10.6370
  73   2.0000      -0.387220       -10.5368
  74   2.0000      -0.380612       -10.3570
  75   2.0000      -0.375072       -10.2062
  76   2.0000      -0.364348        -9.9144
  77   2.0000      -0.360573        -9.8117
  78   2.0000      -0.357979        -9.7411
  79   2.0000      -0.353895        -9.6300
  80   2.0000      -0.351218        -9.5571
  81   2.0000      -0.343796        -9.3552
  82   2.0000      -0.342061        -9.3079
  83   2.0000      -0.338920        -9.2225
  84   2.0000      -0.337369        -9.1803
  85   2.0000      -0.320023        -8.7083
  86   2.0000      -0.311619        -8.4796
  87   2.0000      -0.300942        -8.1890
  88   2.0000      -0.299096        -8.1388
  89   2.0000      -0.295899        -8.0518
  90   2.0000      -0.290416        -7.9026
  91   2.0000      -0.279900        -7.6165
  92   2.0000      -0.268722        -7.3123
  93   2.0000      -0.265883        -7.2351
  94   2.0000      -0.259529        -7.0621
  95   2.0000      -0.235717        -6.4142
  96   2.0000      -0.220443        -5.9986
  97   2.0000      -0.213855        -5.8193
  98   2.0000      -0.206302        -5.6138
  99   2.0000      -0.205016        -5.5788
 100   2.0000      -0.201497        -5.4830
 101   0.0000      -0.044701        -1.2164
 102   0.0000      -0.025700        -0.6993
 103   0.0000      -0.005809        -0.1581
 104   0.0000      -0.000948        -0.0258
 105   0.0000       0.012964         0.3528

MULLIKEN ATOMIC CHARGES
-----------------------
   0 C :   -0.317980
   1 C :    0.000310
   2 O :   -0.385699
   3 P :    0.600622
   4 S :   -0.312309
   5 O :   -0.352504
   6 C :   -0.019661
   7 C :   -0.287633
   8 S :   -0.089433
   9 C :   -0.381852
  10 S :   -0.051322
  11 P :    0.612430
  12 S :   -0.335324
  13 O :   -0.377718
  14 C :   -0.004114
  15 C :   -0.320244
  16 O :   -0.364484
  17 C :   -0.013286
  18 C :   -0.294139
  19 H :    0.114485
  20 H :    0.116617
  21 H :    0.129559
  22 H :    0.113913
  23 H :    0.104924
  24 H :    0.110625
  25 H :    0.104910
  26 H :    0.130057
  27 H :    0.102744
  28 H :    0.117428
  29 H :    0.191931
  30 H :    0.196425
  31 H :    0.112283
  32 H :    0.106036
  33 H :    0.129262
  34 H :    0.114947
  35 H :    0.120999
  36 H :    0.104597
  37 H :    0.109070
  38 H :    0.129488
  39 H :    0.121693
  40 H :    0.112349
Sum of atomic charges:   -0.0000000

LOEWDIN ATOMIC CHARGES
----------------------
   0 C :   -0.370889
   1 C :   -0.115189
   2 O :   -0.250123
   3 P :    0.571278
   4 S :   -0.308595
   5 O :   -0.234409
   6 C :   -0.113998
   7 C :   -0.354980
   8 S :    0.080470
   9 C :   -0.490953
  10 S :    0.108162
  11 P :    0.572164
  12 S :   -0.323814
  13 O :   -0.246522
  14 C :   -0.118932
  15 C :   -0.369750
  16 O :   -0.239328
  17 C :   -0.117080
  18 C :   -0.354636
  19 H :    0.131832
  20 H :    0.122929
  21 H :    0.122248
  22 H :    0.113905
  23 H :    0.118762
  24 H :    0.104151
  25 H :    0.114234
  26 H :    0.124164
  27 H :    0.125687
  28 H :    0.128578
  29 H :    0.128230
  30 H :    0.129279
  31 H :    0.111127
  32 H :    0.119121
  33 H :    0.122234
  34 H :    0.132120
  35 H :    0.125719
  36 H :    0.114428
  37 H :    0.107900
  38 H :    0.126441
  39 H :    0.122950
  40 H :    0.131087

  Mayer bond orders larger than 0.100000
B(  0-C ,  1-C ) :   1.1660 B(  0-C , 19-H ) :   0.9368 B(  0-C , 20-H ) :   0.9438
B(  0-C , 21-H ) :   0.9345 B(  1-C ,  2-O ) :   0.9067 B(  1-C , 22-H ) :   0.9197
B(  1-C , 23-H ) :   0.9345 B(  2-O ,  3-P ) :   1.0873 B(  3-P ,  4-S ) :   1.6358
B(  3-P ,  5-O ) :   1.1457 B(  3-P ,  8-S ) :   0.9462 B(  4-S ,  8-S ) :   0.1084
B(  5-O ,  6-C ) :   0.8862 B(  6-C ,  7-C ) :   1.1683 B(  6-C , 24-H ) :   0.9043
B(  6-C , 25-H ) :   0.9320 B(  7-C , 26-H ) :   0.9367 B(  7-C , 27-H ) :   0.9394
B(  7-C , 28-H ) :   0.9470 B(  8-S ,  9-C ) :   1.0057 B(  9-C , 10-S ) :   1.0019
B(  9-C , 29-H ) :   0.8687 B(  9-C , 30-H ) :   0.8698 B( 10-S , 11-P ) :   0.9771
B( 10-S , 12-S ) :   0.1077 B( 11-P , 12-S ) :   1.5934 B( 11-P , 13-O ) :   1.1095
B( 11-P , 16-O ) :   1.1153 B( 13-O , 14-C ) :   0.9078 B( 14-C , 15-C ) :   1.1644
B( 14-C , 31-H ) :   0.9165 B( 14-C , 32-H ) :   0.9335 B( 15-C , 33-H ) :   0.9348
B( 15-C , 34-H ) :   0.9377 B( 15-C , 35-H ) :   0.9447 B( 16-O , 17-C ) :   0.8955
B( 17-C , 18-C ) :   1.1687 B( 17-C , 36-H ) :   0.9324 B( 17-C , 37-H ) :   0.9031
B( 18-C , 38-H ) :   0.9423 B( 18-C , 39-H ) :   0.9411 B( 18-C , 40-H ) :   0.9387

Dispersion correction           -0.065623010
FINAL SINGLE POINT ENERGY     -2929.525609112932

DIPOLE MOMENT
-------------

Method             : SCF
Type of density    : Electron Density
Multiplicity       :   1
Irrep              :   0
Energy             : -2929.6452801109135180 Eh
Relativity type    :
Basis              : AO
                                X                 Y                 Z
Electronic contribution:      3.738813303      11.732257241      -4.790619711
Nuclear contribution   :     -4.161298793     -13.081969773       5.305233278
                        -----------------------------------------
Total Dipole Moment    :     -0.422485489      -1.349712532       0.514613567
                        -----------------------------------------
Magnitude (a.u.)       :      1.505006655
Magnitude (Debye)      :      3.825422905

Rotational constants in cm-1:             0.012458             0.004941             0.004676
Rotational constants in MHz :           373.486220           148.117679           140.196370

                             ****ORCA TERMINATED NORMALLY****
TOTAL RUN TIME: 0 days 0 hours 0 minutes 21 seconds 525 msec
