                         Program Version 6.0.0  -   RELEASE  -
|  1> ! pbe def2-sv(p) def2/J RI DEFGRID1 loosescf d4 GCP(DFT/SV(P)) printgap
|  2> %output
|  3>     printlevel normal
|  4> end
|  5> * xyz 0 1
|  6> C 5.0269391471 -1.4734253312 -1.2868791986
|  7> C 4.2499746876 -0.4160932545 -2.0429502773
|  8> O 2.9289116589 -0.2219245789 -1.4979801815
|  9> P 2.69922673 0.4095140115 -0.0581449675
| 10> S 3.9747705338 1.7806419886 0.512623518
| 11> O 2.6602126162 -0.9024506433 0.85026351
| 12> C 2.8197405857 -0.8479793469 2.2764878767
| 13> C 1.6199122865 -0.2187117751 2.95433526
| 14> S 0.6922356784 1.0073375612 -0.3107596526
| 15> C -0.0397794821 -0.6333786426 -0.6649125287
| 16> S -1.2593099533 -1.1317950685 0.5723831655
| 17> P -2.944608671 -0.0699585116 -0.189314414
| 18> S -2.7911905505 0.5004052438 -2.0662612571
| 19> O -3.2901385865 1.0691629055 0.8543216718
| 20> C -2.4978882285 2.2611633375 1.0141063519
| 21> C -1.6797716407 2.1853056822 2.2882583218
| 22> O -4.1867629266 -0.9762995004 0.1673338772
| 23> C -4.6841643905 -1.9824010012 -0.7339954823
| 24> C -3.7239970125 -3.1458143708 -0.8836808511
| 25> H 5.9692279755 -1.6563953389 -1.7938036884
| 26> H 5.2322359188 -1.1280369799 -0.2745292216
| 27> H 4.4576946731 -2.3978568055 -1.2366225238
| 28> H 4.063395353 -0.7092066089 -3.0770009128
| 29> H 4.778010352 0.5423243773 -2.0172755233
| 30> H 2.9478474192 -1.8910582782 2.5683259813
| 31> H 3.7283883115 -0.2800923206 2.501066976
| 32> H 1.747462058 -0.2656147221 4.0309196977
| 33> H 1.5369809901 0.8263799077 2.6553599429
| 34> H 0.7089993144 -0.7456720263 2.6770317716
| 35> H 0.7479679199 -1.3803239487 -0.6661164079
| 36> H -0.5312649918 -0.5612805435 -1.6359270759
| 37> H -1.854776794 2.3983762946 0.1373657447
| 38> H -3.221068442 3.0781017745 1.0581870891
| 39> H -1.1486744609 3.1217638697 2.424651058
| 40> H -2.333394863 2.0110665549 3.1378387628
| 41> H -0.9566131218 1.3765754756 2.2280974508
| 42> H -5.6255634199 -2.2943483855 -0.2796276466
| 43> H -4.8786210205 -1.5152626312 -1.7049299196
| 44> H -2.8273022696 -2.8249699213 -1.4119002495
| 45> H -3.4405751328 -3.5285309879 0.0934324368
| 46> H -4.2040967926 -3.9340555027 -1.4548614561
| 47> *
| 48>
| 49>                          ****END OF INPUT****

CARTESIAN COORDINATES (ANGSTROEM)
---------------------------------
  C      5.026939   -1.473425   -1.286879
  C      4.249975   -0.416093   -2.042950
  O      2.928912   -0.221925   -1.497980
  P      2.699227    0.409514   -0.058145
  S      3.974771    1.780642    0.512624
  O      2.660213   -0.902451    0.850264
  C      2.819741   -0.847979    2.276488
  C      1.619912   -0.218712    2.954335
  S      0.692236    1.007338   -0.310760
  C     -0.039779   -0.633379   -0.664913
  S     -1.259310   -1.131795    0.572383
  P     -2.944609   -0.069959   -0.189314
  S     -2.791191    0.500405   -2.066261
  O     -3.290139    1.069163    0.854322
  C     -2.497888    2.261163    1.014106
  C     -1.679772    2.185306    2.288258
  O     -4.186763   -0.976300    0.167334
  C     -4.684164   -1.982401   -0.733995
  C     -3.723997   -3.145814   -0.883681
  H      5.969228   -1.656395   -1.793804
  H      5.232236   -1.128037   -0.274529
  H      4.457695   -2.397857   -1.236623
  H      4.063395   -0.709207   -3.077001
  H      4.778010    0.542324   -2.017276
  H      2.947847   -1.891058    2.568326
  H      3.728388   -0.280092    2.501067
  H      1.747462   -0.265615    4.030920
  H      1.536981    0.826380    2.655360
  H      0.708999   -0.745672    2.677032
  H      0.747968   -1.380324   -0.666116
  H     -0.531265   -0.561281   -1.635927
  H     -1.854777    2.398376    0.137366
  H     -3.221068    3.078102    1.058187
  H     -1.148674    3.121764    2.424651
  H     -2.333395    2.011067    3.137839
  H     -0.956613    1.376575    2.228097
  H     -5.625563   -2.294348   -0.279628
  H     -4.878621   -1.515263   -1.704930
  H     -2.827302   -2.824970   -1.411900
  H     -3.440575   -3.528531    0.093432
  H     -4.204097   -3.934056   -1.454861

 Total Charge           Charge          ....    0
 Multiplicity           Mult            ....    1
 Number of Electrons    NEL             ....  202
 Basis Dimension        Dim             ....  334

ORBITAL ENERGIES
----------------

  NO   OCC          E(Eh)            E(eV)
   0   2.0000     -88.051293     -2395.9975
   1   2.0000     -88.043755     -2395.7924
   2   2.0000     -87.995294     -2394.4737
   3   2.0000     -87.992066     -2394.3858
   4   2.0000     -76.431881     -2079.8172
   5   2.0000     -76.429447     -2079.7510
   6   2.0000     -18.797463      -511.5050
   7   2.0000     -18.795552      -511.4530
   8   2.0000     -18.793104      -511.3864
   9   2.0000     -18.790456      -511.3143
  10   2.0000      -9.957417      -270.9551
  11   2.0000      -9.956845      -270.9395
  12   2.0000      -9.955370      -270.8994
  13   2.0000      -9.954460      -270.8746
  14   2.0000      -9.952551      -270.8227
  15   2.0000      -9.888072      -269.0681
  16   2.0000      -9.886942      -269.0374
  17   2.0000      -9.885448      -268.9967
  18   2.0000      -9.880842      -268.8714
  19   2.0000      -7.695801      -209.4134
  20   2.0000      -7.688817      -209.2233
  21   2.0000      -7.640153      -207.8991
  22   2.0000      -7.637180      -207.8182
  23   2.0000      -6.429293      -174.9500
  24   2.0000      -6.427228      -174.8938
  25   2.0000      -5.723536      -155.7453
  26   2.0000      -5.720286      -155.6569
  27   2.0000      -5.717042      -155.5686
  28   2.0000      -5.713203      -155.4642
  29   2.0000      -5.713019      -155.4591
  30   2.0000      -5.705554      -155.2560
  31   2.0000      -5.668933      -154.2595
  32   2.0000      -5.666206      -154.1853
  33   2.0000      -5.660830      -154.0390
  34   2.0000      -5.660444      -154.0285
  35   2.0000      -5.657742      -153.9550
  36   2.0000      -5.657310      -153.9432
  37   2.0000      -4.651499      -126.5737
  38   2.0000      -4.651258      -126.5672
  39   2.0000      -4.649843      -126.5287
  40   2.0000      -4.649564      -126.5211
  41   2.0000      -4.649163      -126.5101
  42   2.0000      -4.647728      -126.4711
  43   2.0000      -0.992766       -27.0145
  44   2.0000      -0.990312       -26.9478
  45   2.0000      -0.949112       -25.8266
  46   2.0000      -0.947582       -25.7850
  47   2.0000      -0.765678       -20.8352
  48   2.0000      -0.725606       -19.7447
  49   2.0000      -0.713199       -19.4071
  50   2.0000      -0.689997       -18.7758
  51   2.0000      -0.685862       -18.6632
  52   2.0000      -0.678286       -18.4571
  53   2.0000      -0.657846       -17.9009
  54   2.0000      -0.642367       -17.4797
  55   2.0000      -0.606427       -16.5017
  56   2.0000      -0.599142       -16.3035
  57   2.0000      -0.575206       -15.6522
  58   2.0000      -0.567393       -15.4395
  59   2.0000      -0.565192       -15.3796
  60   2.0000      -0.501786       -13.6543
  61   2.0000      -0.496824       -13.5193
  62   2.0000      -0.477111       -12.9828
  63   2.0000      -0.473730       -12.8909
  64   2.0000      -0.461274       -12.5519
  65   2.0000      -0.450787       -12.2665
  66   2.0000      -0.444528       -12.0962
  67   2.0000      -0.440772       -11.9940
  68   2.0000      -0.426183       -11.5970
  69   2.0000      -0.423890       -11.5346
  70   2.0000      -0.410897       -11.1811
  71   2.0000      -0.399366       -10.8673
  72   2.0000      -0.396703       -10.7948
  73   2.0000      -0.396264       -10.7829
  74   2.0000      -0.390686       -10.6311
  75   2.0000      -0.378959       -10.3120
  76   2.0000      -0.366891        -9.9836
  77   2.0000      -0.360406        -9.8071
  78   2.0000      -0.356308        -9.6956
  79   2.0000      -0.351816        -9.5734
  80   2.0000      -0.350870        -9.5477
  81   2.0000      -0.347177        -9.4472
  82   2.0000      -0.342959        -9.3324
  83   2.0000      -0.335965        -9.1421
  84   2.0000      -0.335269        -9.1231
  85   2.0000      -0.324527        -8.8308
  86   2.0000      -0.317751        -8.6464
  87   2.0000      -0.301542        -8.2054
  88   2.0000      -0.297660        -8.0997
  89   2.0000      -0.292763        -7.9665
  90   2.0000      -0.289924        -7.8892
  91   2.0000      -0.276101        -7.5131
  92   2.0000      -0.273290        -7.4366
  93   2.0000      -0.269837        -7.3426
  94   2.0000      -0.262436        -7.1412
  95   2.0000      -0.235974        -6.4212
  96   2.0000      -0.223188        -6.0733
  97   2.0000      -0.214843        -5.8462
  98   2.0000      -0.211889        -5.7658
  99   2.0000      -0.210208        -5.7200
 100   2.0000      -0.204300        -5.5593
 101   0.0000      -0.047712        -1.2983
 102   0.0000      -0.037035        -1.0078
 103   0.0000      -0.024921        -0.6781
 104   0.0000       0.006212         0.1690
 105   0.0000       0.008742         0.2379

MULLIKEN ATOMIC CHARGES
-----------------------
   0 C :   -0.307793
   1 C :   -0.005041
   2 O :   -0.378764
   3 P :    0.600136
   4 S :   -0.316809
   5 O :   -0.381560
   6 C :   -0.000025
   7 C :   -0.343728
   8 S :   -0.068632
   9 C :   -0.354681
  10 S :   -0.103360
  11 P :    0.590368
  12 S :   -0.317758
  13 O :   -0.351543
  14 C :   -0.016943
  15 C :   -0.309558
  16 O :   -0.356624
  17 C :   -0.001011
  18 C :   -0.314625
  19 H :    0.113534
  20 H :    0.123289
  21 H :    0.114950
  22 H :    0.107807
  23 H :    0.115002
  24 H :    0.104937
  25 H :    0.111062
  26 H :    0.113232
  27 H :    0.136892
  28 H :    0.132264
  29 H :    0.191869
  30 H :    0.201268
  31 H :    0.112551
  32 H :    0.111135
  33 H :    0.111740
  34 H :    0.112483
  35 H :    0.143237
  36 H :    0.109766
  37 H :    0.114536
  38 H :    0.122690
  39 H :    0.119280
  40 H :    0.114429
Sum of atomic charges:   -0.0000000

LOEWDIN ATOMIC CHARGES
----------------------
   0 C :   -0.365479
   1 C :   -0.115402
   2 O :   -0.249767
   3 P :    0.567853
   4 S :   -0.316739
   5 O :   -0.247772
   6 C :   -0.120771
   7 C :   -0.373007
   8 S :    0.096701
   9 C :   -0.480760
  10 S :    0.089271
  11 P :    0.569083
  12 S :   -0.306117
  13 O :   -0.235044
  14 C :   -0.116676
  15 C :   -0.364608
  16 O :   -0.232239
  17 C :   -0.115624
  18 C :   -0.369126
  19 H :    0.131149
  20 H :    0.122689
  21 H :    0.125376
  22 H :    0.120202
  23 H :    0.113142
  24 H :    0.118523
  25 H :    0.109998
  26 H :    0.131781
  27 H :    0.122985
  28 H :    0.118260
  29 H :    0.134492
  30 H :    0.126918
  31 H :    0.102909
  32 H :    0.121410
  33 H :    0.131325
  34 H :    0.125558
  35 H :    0.119509
  36 H :    0.121204
  37 H :    0.112514
  38 H :    0.119719
  39 H :    0.125065
  40 H :    0.131495

  Mayer bond orders larger than 0.100000
B(  0-C ,  1-C ) :   1.1621 B(  0-C , 19-H ) :   0.9382 B(  0-C , 20-H ) :   0.9363
B(  0-C , 21-H ) :   0.9464 B(  1-C ,  2-O ) :   0.9078 B(  1-C , 22-H ) :   0.9354
B(  1-C , 23-H ) :   0.9191 B(  2-O ,  3-P ) :   1.0988 B(  3-P ,  4-S ) :   1.6344
B(  3-P ,  5-O ) :   1.0604 B(  3-P ,  8-S ) :   0.9954 B(  5-O ,  6-C ) :   0.9091
B(  6-C ,  7-C ) :   1.1634 B(  6-C , 24-H ) :   0.9329 B(  6-C , 25-H ) :   0.9136
B(  7-C , 26-H ) :   0.9360 B(  7-C , 27-H ) :   0.9304 B(  7-C , 28-H ) :   0.9325
B(  8-S ,  9-C ) :   0.9699 B(  9-C , 10-S ) :   1.0123 B(  9-C , 29-H ) :   0.8865
B(  9-C , 30-H ) :   0.8603 B( 10-S , 11-P ) :   0.9284 B( 10-S , 12-S ) :   0.1233
B( 11-P , 12-S ) :   1.6087 B( 11-P , 13-O ) :   1.1380 B( 11-P , 16-O ) :   1.1371
B( 13-O , 14-C ) :   0.9030 B( 14-C , 15-C ) :   1.1658 B( 14-C , 31-H ) :   0.9036
B( 14-C , 32-H ) :   0.9347 B( 15-C , 33-H ) :   0.9399 B( 15-C , 34-H ) :   0.9447
B( 15-C , 35-H ) :   0.9273 B( 16-O , 17-C ) :   0.9090 B( 17-C , 18-C ) :   1.1648
B( 17-C , 36-H ) :   0.9342 B( 17-C , 37-H ) :   0.9176 B( 18-C , 38-H ) :   0.9383
B( 18-C , 39-H ) :   0.9440 B( 18-C , 40-H ) :   0.9377

Dispersion correction           -0.064051409
FINAL SINGLE POINT ENERGY     -2929.520940513452

DIPOLE MOMENT
-------------

Method             : SCF
Type of density    : Electron Density
Multiplicity       :   1
Irrep              :   0
Energy             : -2929.6424138087181746 Eh
Relativity type    :
Basis              : AO
                                X                 Y                 Z
Electronic contribution:     -4.732921912      10.007271613      -7.303413242
Nuclear contribution   :      4.766977695     -11.412232277       7.731594095
                        -----------------------------------------
Total Dipole Moment    :      0.034055783      -1.404960664       0.428180853
                        -----------------------------------------
Magnitude (a.u.)       :      1.469153875
Magnitude (Debye)      :      3.734292380

Rotational constants in cm-1:             0.013191             0.004218             0.003936
Rotational constants in MHz :           395.455779           126.440527           117.996355

                             ****ORCA TERMINATED NORMALLY****
TOTAL RUN TIME: 0 days 0 hours 0 minutes 20 seconds 835 msec
