                         Program Version 6.0.0  -   RELEASE  -
|  1> ! pbe def2-sv(p) def2/J RI DEFGRID1 loosescf d4 GCP(DFT/SV(P)) printgap
|  2> %output
|  3>     printlevel normal
|  4> end
|  5> * xyz 0 1
|  6> C 5.2940817183 0.6297303227 -0.6342858567
|  7> C 4.6211200985 0.1661146866 0.6422460034
|  8> O 3.4854918466 -0.6822532194 0.380714319
|  9> P 2.1155865033 -0.1592933061 -0.2284516203
| 10> S 2.0163929358 0.200636682 -2.1563819539
| 11> O 1.7829175568 1.0829990932 0.7130323114
| 12> C 1.2730053472 2.3512960606 0.2761820929
| 13> C 2.2849327166 3.4354169512 0.5888749951
| 14> S 1.0150002585 -1.8089067118 0.4708801329
| 15> C -0.1939770186 -2.0405744159 -0.8807225178
| 16> S -1.8912476275 -2.0612005937 -0.2801058662
| 17> P -2.0704363162 0.0366767535 0.0466054127
| 18> S -1.5161603101 1.1817540337 -1.4409871267
| 19> O -1.1957317745 0.3850217787 1.3136216221
| 20> C -1.3672747087 -0.2499000124 2.6065440477
| 21> C -2.1816987739 0.6329929289 3.5288398249
| 22> O -3.548916143 0.1826510374 0.6009712527
| 23> C -4.7155351713 -0.408430367 -0.0045787977
| 24> C -4.875003109 -0.0278193265 -1.4610248794
| 25> H 5.5840746744 -0.2260641693 -1.2386292407
| 26> H 4.6129646598 1.2449128214 -1.2208572664
| 27> H 6.1763663206 1.2116642195 -0.3868395076
| 28> H 4.2903694476 1.016578692 1.2442510134
| 29> H 5.2831374167 -0.4692355642 1.2331850149
| 30> H 1.0623185587 2.3047949216 -0.7978934686
| 31> H 0.3336825456 2.5064880245 0.8113997783
| 32> H 3.1947227341 3.2775392108 0.0139864093
| 33> H 1.8615869826 4.3983226293 0.3222565067
| 34> H 2.5249938625 3.4286973346 1.6485744414
| 35> H -0.0155166936 -3.013244898 -1.3316515989
| 36> H -0.0652517218 -1.2375347183 -1.6138353103
| 37> H -1.8430092165 -1.2240173759 2.4639518618
| 38> H -0.3505178667 -0.3940323619 2.9786388775
| 39> H -2.2642057381 0.1502104253 4.497538201
| 40> H -1.6974614783 1.5981326285 3.6493823038
| 41> H -3.175559944 0.7892514266 3.1179844271
| 42> H -4.6421931995 -1.493722105 0.1053398427
| 43> H -5.5398311497 -0.0260434121 0.5998669692
| 44> H -4.0476476481 -0.4269677172 -2.0463256139
| 45> H -5.8059061741 -0.4358002297 -1.8412344597
| 46> H -4.8824713307 1.053875673 -1.573032361
| 47> *
| 48>
| 49>                          ****END OF INPUT****

CARTESIAN COORDINATES (ANGSTROEM)
---------------------------------
  C      5.294082    0.629730   -0.634286
  C      4.621120    0.166115    0.642246
  O      3.485492   -0.682253    0.380714
  P      2.115587   -0.159293   -0.228452
  S      2.016393    0.200637   -2.156382
  O      1.782918    1.082999    0.713032
  C      1.273005    2.351296    0.276182
  C      2.284933    3.435417    0.588875
  S      1.015000   -1.808907    0.470880
  C     -0.193977   -2.040574   -0.880723
  S     -1.891248   -2.061201   -0.280106
  P     -2.070436    0.036677    0.046605
  S     -1.516160    1.181754   -1.440987
  O     -1.195732    0.385022    1.313622
  C     -1.367275   -0.249900    2.606544
  C     -2.181699    0.632993    3.528840
  O     -3.548916    0.182651    0.600971
  C     -4.715535   -0.408430   -0.004579
  C     -4.875003   -0.027819   -1.461025
  H      5.584075   -0.226064   -1.238629
  H      4.612965    1.244913   -1.220857
  H      6.176366    1.211664   -0.386840
  H      4.290369    1.016579    1.244251
  H      5.283137   -0.469236    1.233185
  H      1.062319    2.304795   -0.797893
  H      0.333683    2.506488    0.811400
  H      3.194723    3.277539    0.013986
  H      1.861587    4.398323    0.322257
  H      2.524994    3.428697    1.648574
  H     -0.015517   -3.013245   -1.331652
  H     -0.065252   -1.237535   -1.613835
  H     -1.843009   -1.224017    2.463952
  H     -0.350518   -0.394032    2.978639
  H     -2.264206    0.150210    4.497538
  H     -1.697461    1.598133    3.649382
  H     -3.175560    0.789251    3.117984
  H     -4.642193   -1.493722    0.105340
  H     -5.539831   -0.026043    0.599867
  H     -4.047648   -0.426968   -2.046326
  H     -5.805906   -0.435800   -1.841234
  H     -4.882471    1.053876   -1.573032

 Total Charge           Charge          ....    0
 Multiplicity           Mult            ....    1
 Number of Electrons    NEL             ....  202
 Basis Dimension        Dim             ....  334

ORBITAL ENERGIES
----------------

  NO   OCC          E(Eh)            E(eV)
   0   2.0000     -88.046632     -2395.8707
   1   2.0000     -88.036537     -2395.5960
   2   2.0000     -87.980826     -2394.0800
   3   2.0000     -87.980308     -2394.0659
   4   2.0000     -76.427175     -2079.6892
   5   2.0000     -76.420487     -2079.5072
   6   2.0000     -18.799918      -511.5718
   7   2.0000     -18.792338      -511.3655
   8   2.0000     -18.786292      -511.2010
   9   2.0000     -18.784273      -511.1461
  10   2.0000      -9.963647      -271.1246
  11   2.0000      -9.952903      -270.8323
  12   2.0000      -9.952440      -270.8197
  13   2.0000      -9.952364      -270.8176
  14   2.0000      -9.935057      -270.3466
  15   2.0000      -9.886648      -269.0294
  16   2.0000      -9.885720      -269.0041
  17   2.0000      -9.880850      -268.8716
  18   2.0000      -9.880260      -268.8555
  19   2.0000      -7.691677      -209.3012
  20   2.0000      -7.681905      -209.0353
  21   2.0000      -7.625704      -207.5060
  22   2.0000      -7.625410      -207.4980
  23   2.0000      -6.424444      -174.8180
  24   2.0000      -6.418063      -174.6444
  25   2.0000      -5.719385      -155.6324
  26   2.0000      -5.716032      -155.5411
  27   2.0000      -5.709887      -155.3739
  28   2.0000      -5.708997      -155.3497
  29   2.0000      -5.706423      -155.2797
  30   2.0000      -5.698662      -155.0685
  31   2.0000      -5.654580      -153.8689
  32   2.0000      -5.654465      -153.8658
  33   2.0000      -5.646624      -153.6525
  34   2.0000      -5.645864      -153.6318
  35   2.0000      -5.645601      -153.6246
  36   2.0000      -5.645546      -153.6231
  37   2.0000      -4.647388      -126.4619
  38   2.0000      -4.646515      -126.4381
  39   2.0000      -4.644281      -126.3773
  40   2.0000      -4.640739      -126.2809
  41   2.0000      -4.639405      -126.2446
  42   2.0000      -4.638848      -126.2295
  43   2.0000      -0.991880       -26.9904
  44   2.0000      -0.980097       -26.6698
  45   2.0000      -0.948102       -25.7992
  46   2.0000      -0.936258       -25.4769
  47   2.0000      -0.761818       -20.7301
  48   2.0000      -0.722172       -19.6513
  49   2.0000      -0.710072       -19.3220
  50   2.0000      -0.693525       -18.8718
  51   2.0000      -0.682048       -18.5595
  52   2.0000      -0.672772       -18.3071
  53   2.0000      -0.650361       -17.6972
  54   2.0000      -0.632559       -17.2128
  55   2.0000      -0.594653       -16.1813
  56   2.0000      -0.588892       -16.0246
  57   2.0000      -0.575156       -15.6508
  58   2.0000      -0.569173       -15.4880
  59   2.0000      -0.561821       -15.2879
  60   2.0000      -0.505073       -13.7437
  61   2.0000      -0.491149       -13.3649
  62   2.0000      -0.477153       -12.9840
  63   2.0000      -0.469912       -12.7870
  64   2.0000      -0.456451       -12.4207
  65   2.0000      -0.449057       -12.2195
  66   2.0000      -0.438901       -11.9431
  67   2.0000      -0.434139       -11.8135
  68   2.0000      -0.424734       -11.5576
  69   2.0000      -0.413859       -11.2617
  70   2.0000      -0.407641       -11.0925
  71   2.0000      -0.401573       -10.9274
  72   2.0000      -0.391837       -10.6624
  73   2.0000      -0.388412       -10.5692
  74   2.0000      -0.380124       -10.3437
  75   2.0000      -0.369022       -10.0416
  76   2.0000      -0.359618        -9.7857
  77   2.0000      -0.358051        -9.7431
  78   2.0000      -0.349353        -9.5064
  79   2.0000      -0.348038        -9.4706
  80   2.0000      -0.345054        -9.3894
  81   2.0000      -0.344515        -9.3747
  82   2.0000      -0.341563        -9.2944
  83   2.0000      -0.336346        -9.1524
  84   2.0000      -0.334346        -9.0980
  85   2.0000      -0.321270        -8.7422
  86   2.0000      -0.309614        -8.4250
  87   2.0000      -0.300670        -8.1816
  88   2.0000      -0.289805        -7.8860
  89   2.0000      -0.288116        -7.8400
  90   2.0000      -0.282515        -7.6876
  91   2.0000      -0.279221        -7.5980
  92   2.0000      -0.270120        -7.3503
  93   2.0000      -0.263087        -7.1590
  94   2.0000      -0.257085        -6.9956
  95   2.0000      -0.236631        -6.4391
  96   2.0000      -0.217470        -5.9177
  97   2.0000      -0.211871        -5.7653
  98   2.0000      -0.199024        -5.4157
  99   2.0000      -0.192286        -5.2324
 100   2.0000      -0.184151        -5.0110
 101   0.0000      -0.038044        -1.0352
 102   0.0000      -0.027568        -0.7502
 103   0.0000      -0.015663        -0.4262
 104   0.0000       0.012374         0.3367
 105   0.0000       0.020276         0.5517

MULLIKEN ATOMIC CHARGES
-----------------------
   0 C :   -0.315696
   1 C :   -0.014569
   2 O :   -0.377755
   3 P :    0.640001
   4 S :   -0.315065
   5 O :   -0.380742
   6 C :   -0.027302
   7 C :   -0.291330
   8 S :   -0.096256
   9 C :   -0.356428
  10 S :   -0.116174
  11 P :    0.584213
  12 S :   -0.294268
  13 O :   -0.349405
  14 C :   -0.009537
  15 C :   -0.282691
  16 O :   -0.377712
  17 C :   -0.017167
  18 C :   -0.308882
  19 H :    0.121884
  20 H :    0.135277
  21 H :    0.107644
  22 H :    0.108530
  23 H :    0.106824
  24 H :    0.131744
  25 H :    0.108990
  26 H :    0.111905
  27 H :    0.112917
  28 H :    0.109606
  29 H :    0.186285
  30 H :    0.214154
  31 H :    0.096504
  32 H :    0.111220
  33 H :    0.108903
  34 H :    0.117150
  35 H :    0.118344
  36 H :    0.116924
  37 H :    0.111049
  38 H :    0.130147
  39 H :    0.112674
  40 H :    0.128091
Sum of atomic charges:    0.0000000

LOEWDIN ATOMIC CHARGES
----------------------
   0 C :   -0.367067
   1 C :   -0.114376
   2 O :   -0.248608
   3 P :    0.566770
   4 S :   -0.298245
   5 O :   -0.243178
   6 C :   -0.127778
   7 C :   -0.357744
   8 S :    0.084621
   9 C :   -0.479227
  10 S :    0.064064
  11 P :    0.562807
  12 S :   -0.287463
  13 O :   -0.229192
  14 C :   -0.120273
  15 C :   -0.358251
  16 O :   -0.244612
  17 C :   -0.114879
  18 C :   -0.369120
  19 H :    0.130262
  20 H :    0.120859
  21 H :    0.128095
  22 H :    0.109663
  23 H :    0.120134
  24 H :    0.106036
  25 H :    0.111672
  26 H :    0.120674
  27 H :    0.131418
  28 H :    0.121068
  29 H :    0.138345
  30 H :    0.126055
  31 H :    0.102051
  32 H :    0.117828
  33 H :    0.129252
  34 H :    0.126885
  35 H :    0.125206
  36 H :    0.108791
  37 H :    0.121915
  38 H :    0.123217
  39 H :    0.130873
  40 H :    0.131448

  Mayer bond orders larger than 0.100000
B(  0-C ,  1-C ) :   1.1637 B(  0-C , 19-H ) :   0.9450 B(  0-C , 20-H ) :   0.9300
B(  0-C , 21-H ) :   0.9377 B(  1-C ,  2-O ) :   0.9167 B(  1-C , 22-H ) :   0.9225
B(  1-C , 23-H ) :   0.9354 B(  2-O ,  3-P ) :   1.1083 B(  3-P ,  4-S ) :   1.6301
B(  3-P ,  5-O ) :   1.1002 B(  3-P ,  8-S ) :   0.9625 B(  4-S ,  8-S ) :   0.1156
B(  5-O ,  6-C ) :   0.9025 B(  6-C ,  7-C ) :   1.1519 B(  6-C , 24-H ) :   0.8977
B(  6-C , 25-H ) :   0.9258 B(  7-C , 26-H ) :   0.9423 B(  7-C , 27-H ) :   0.9416
B(  7-C , 28-H ) :   0.9469 B(  8-S ,  9-C ) :   0.9960 B(  9-C , 10-S ) :   1.0020
B(  9-C , 29-H ) :   0.9115 B(  9-C , 30-H ) :   0.8404 B( 10-S , 11-P ) :   0.9410
B( 10-S , 12-S ) :   0.1058 B( 11-P , 12-S ) :   1.6652 B( 11-P , 13-O ) :   1.1297
B( 11-P , 16-O ) :   1.0805 B( 13-O , 14-C ) :   0.8832 B( 14-C , 15-C ) :   1.1631
B( 14-C , 31-H ) :   0.9117 B( 14-C , 32-H ) :   0.9297 B( 15-C , 33-H ) :   0.9406
B( 15-C , 34-H ) :   0.9483 B( 15-C , 35-H ) :   0.9425 B( 16-O , 17-C ) :   0.9105
B( 17-C , 18-C ) :   1.1669 B( 17-C , 36-H ) :   0.9256 B( 17-C , 37-H ) :   0.9331
B( 18-C , 38-H ) :   0.9311 B( 18-C , 39-H ) :   0.9346 B( 18-C , 40-H ) :   0.9428

Dispersion correction           -0.067043657
FINAL SINGLE POINT ENERGY     -2929.517224169570

DIPOLE MOMENT
-------------

Method             : SCF
Type of density    : Electron Density
Multiplicity       :   1
Irrep              :   0
Energy             : -2929.6366486670399354 Eh
Relativity type    :
Basis              : AO
                                X                 Y                 Z
Electronic contribution:     -1.075019590     -13.434066503      -8.833888054
Nuclear contribution   :      0.536178760      13.362034009      10.284094747
                        -----------------------------------------
Total Dipole Moment    :     -0.538840830      -0.072032494       1.450206693
                        -----------------------------------------
Magnitude (a.u.)       :      1.548753555
Magnitude (Debye)      :      3.936618688

Rotational constants in cm-1:             0.013268             0.005056             0.004934
Rotational constants in MHz :           397.769664           151.579199           147.931635

                             ****ORCA TERMINATED NORMALLY****
TOTAL RUN TIME: 0 days 0 hours 0 minutes 21 seconds 522 msec
