                         Program Version 6.0.1  -  RELEASE   -
|  1> ! r2scan-3c def2/J RI DEFGRID2 scfconv6 printgap
|  2> %output
|  3>     printlevel normal
|  4> end
|  5> * xyz 0 1
|  6> C 2.802517784 -4.2717520666 0.7820614857
|  7> C 2.3368289533 -3.3939697756 -0.3681463309
|  8> O 2.5424799754 -1.9989915009 -0.0741112767
|  9> C 1.6339094503 -1.3645057148 0.6287997933
| 10> O 0.617832223 -1.8729504467 1.0631873996
| 11> C 1.971470119 0.0982408289 0.8094698937
| 12> C 0.8629020924 0.9442537558 0.193431061
| 13> H 0.6976032348 0.6637318278 -0.8557501037
| 14> C 1.1754856358 2.4340965003 0.2549123266
| 15> O 2.154850241 2.8888568316 0.7950535949
| 16> O 0.2429877971 3.1333145021 -0.3527199786
| 17> C 0.3904625649 4.5686115245 -0.3998223616
| 18> C 1.2328564821 4.987466625 -1.593661937
| 19> S -0.7408375657 0.7010085519 1.0406061604
| 20> P -1.5904959554 -0.781352745 -0.2365168875
| 21> S -0.6161738369 -1.2184614845 -1.8767049597
| 22> O -2.0358738595 -2.0436857726 0.5907945763
| 23> C -2.6051473267 -1.9492070274 1.9104466444
| 24> O -3.0375210054 -0.1412852991 -0.526909349
| 25> C -3.1672324653 1.0508336446 -1.3055827087
| 26> H 2.6999164608 -5.3140839153 0.4991993254
| 27> H 3.843292269 -4.0622700954 1.013199575
| 28> H 2.1961524395 -4.0843748158 1.6653195152
| 29> H 1.2739189251 -3.5507185013 -0.5772497091
| 30> H 2.9243084923 -3.5672708517 -1.2696103435
| 31> H 2.9182067418 0.3184498618 0.3172310764
| 32> H 2.0519228886 0.3270537582 1.8736687941
| 33> H -0.6295225515 4.9436307258 -0.4803673326
| 34> H 0.848719311 4.9004886391 0.5355035316
| 35> H 0.8035605516 4.5956348095 -2.5116745473
| 36> H 1.2636462294 6.0706215112 -1.6466526931
| 37> H 2.2473889516 4.6104290415 -1.4875258104
| 38> H -2.9382269569 -2.9565925661 2.1458429191
| 39> H -3.4408626338 -1.2516638833 1.9121563434
| 40> H -1.8353356446 -1.6263728925 2.6106786858
| 41> H -4.2360169689 1.2133678166 -1.4162051447
| 42> H -2.6979521795 0.9128845097 -2.2809897304
| 43> H -2.7004959127 1.8890574558 -0.7865331137
| 44> *
| 45>
| 46>                          ****END OF INPUT****

CARTESIAN COORDINATES (ANGSTROEM)
---------------------------------
  C      2.802518   -4.271752    0.782061
  C      2.336829   -3.393970   -0.368146
  O      2.542480   -1.998992   -0.074111
  C      1.633909   -1.364506    0.628800
  O      0.617832   -1.872950    1.063187
  C      1.971470    0.098241    0.809470
  C      0.862902    0.944254    0.193431
  H      0.697603    0.663732   -0.855750
  C      1.175486    2.434097    0.254912
  O      2.154850    2.888857    0.795054
  O      0.242988    3.133315   -0.352720
  C      0.390463    4.568612   -0.399822
  C      1.232856    4.987467   -1.593662
  S     -0.740838    0.701009    1.040606
  P     -1.590496   -0.781353   -0.236517
  S     -0.616174   -1.218461   -1.876705
  O     -2.035874   -2.043686    0.590795
  C     -2.605147   -1.949207    1.910447
  O     -3.037521   -0.141285   -0.526909
  C     -3.167232    1.050834   -1.305583
  H      2.699916   -5.314084    0.499199
  H      3.843292   -4.062270    1.013200
  H      2.196152   -4.084375    1.665320
  H      1.273919   -3.550719   -0.577250
  H      2.924308   -3.567271   -1.269610
  H      2.918207    0.318450    0.317231
  H      2.051923    0.327054    1.873669
  H     -0.629523    4.943631   -0.480367
  H      0.848719    4.900489    0.535504
  H      0.803561    4.595635   -2.511675
  H      1.263646    6.070622   -1.646653
  H      2.247389    4.610429   -1.487526
  H     -2.938227   -2.956593    2.145843
  H     -3.440863   -1.251664    1.912156
  H     -1.835336   -1.626373    2.610679
  H     -4.236017    1.213368   -1.416205
  H     -2.697952    0.912885   -2.280990
  H     -2.700496    1.889057   -0.786533

 Total Charge           Charge          ....    0
 Multiplicity           Mult            ....    1
 Number of Electrons    NEL             ....  174
 Basis Dimension        Dim             ....  510

ORBITAL ENERGIES
----------------

  NO   OCC          E(Eh)            E(eV)
   0   2.0000     -88.571538     -2410.1541
   1   2.0000     -88.516600     -2408.6591
   2   2.0000     -76.909378     -2092.8106
   3   2.0000     -19.009199      -517.2666
   4   2.0000     -19.000447      -517.0284
   5   2.0000     -18.987580      -516.6783
   6   2.0000     -18.982149      -516.5305
   7   2.0000     -18.945441      -515.5317
   8   2.0000     -18.928294      -515.0651
   9   2.0000     -10.169633      -276.7298
  10   2.0000     -10.156935      -276.3842
  11   2.0000     -10.101104      -274.8650
  12   2.0000     -10.094225      -274.6778
  13   2.0000     -10.092364      -274.6272
  14   2.0000     -10.087576      -274.4969
  15   2.0000     -10.084071      -274.4015
  16   2.0000     -10.051929      -273.5269
  17   2.0000     -10.035558      -273.0814
  18   2.0000     -10.026384      -272.8318
  19   2.0000      -7.865720      -214.0371
  20   2.0000      -7.811542      -212.5629
  21   2.0000      -6.587695      -179.2603
  22   2.0000      -5.812792      -158.1741
  23   2.0000      -5.809851      -158.0941
  24   2.0000      -5.802374      -157.8906
  25   2.0000      -5.759361      -156.7202
  26   2.0000      -5.751994      -156.5197
  27   2.0000      -5.751162      -156.4971
  28   2.0000      -4.733242      -128.7980
  29   2.0000      -4.732797      -128.7860
  30   2.0000      -4.731300      -128.7452
  31   2.0000      -1.088416       -29.6173
  32   2.0000      -1.076912       -29.3043
  33   2.0000      -1.044035       -28.4096
  34   2.0000      -1.001332       -27.2476
  35   2.0000      -0.994985       -27.0749
  36   2.0000      -0.979468       -26.6527
  37   2.0000      -0.807623       -21.9765
  38   2.0000      -0.754761       -20.5381
  39   2.0000      -0.745457       -20.2849
  40   2.0000      -0.727393       -19.7934
  41   2.0000      -0.693875       -18.8813
  42   2.0000      -0.668332       -18.1862
  43   2.0000      -0.661371       -17.9968
  44   2.0000      -0.650172       -17.6921
  45   2.0000      -0.630226       -17.1493
  46   2.0000      -0.596755       -16.2385
  47   2.0000      -0.536318       -14.5940
  48   2.0000      -0.531282       -14.4569
  49   2.0000      -0.521540       -14.1918
  50   2.0000      -0.498580       -13.5671
  51   2.0000      -0.487985       -13.2787
  52   2.0000      -0.477434       -12.9916
  53   2.0000      -0.470605       -12.8058
  54   2.0000      -0.454290       -12.3619
  55   2.0000      -0.451832       -12.2950
  56   2.0000      -0.444782       -12.1031
  57   2.0000      -0.441196       -12.0055
  58   2.0000      -0.432510       -11.7692
  59   2.0000      -0.427153       -11.6234
  60   2.0000      -0.421480       -11.4691
  61   2.0000      -0.415741       -11.3129
  62   2.0000      -0.410043       -11.1578
  63   2.0000      -0.397852       -10.8261
  64   2.0000      -0.395177       -10.7533
  65   2.0000      -0.385608       -10.4929
  66   2.0000      -0.381867       -10.3911
  67   2.0000      -0.368329       -10.0227
  68   2.0000      -0.363573        -9.8933
  69   2.0000      -0.353367        -9.6156
  70   2.0000      -0.352123        -9.5817
  71   2.0000      -0.341788        -9.3005
  72   2.0000      -0.335130        -9.1194
  73   2.0000      -0.324316        -8.8251
  74   2.0000      -0.318681        -8.6718
  75   2.0000      -0.313896        -8.5416
  76   2.0000      -0.305996        -8.3266
  77   2.0000      -0.305446        -8.3116
  78   2.0000      -0.285837        -7.7780
  79   2.0000      -0.285531        -7.7697
  80   2.0000      -0.276257        -7.5173
  81   2.0000      -0.269762        -7.3406
  82   2.0000      -0.254014        -6.9121
  83   2.0000      -0.248699        -6.7675
  84   2.0000      -0.222788        -6.0624
  85   2.0000      -0.216766        -5.8985
  86   2.0000      -0.207675        -5.6511
  87   0.0000      -0.047466        -1.2916
  88   0.0000      -0.038033        -1.0349
  89   0.0000      -0.021648        -0.5891
  90   0.0000       0.018469         0.5026
  91   0.0000       0.030980         0.8430

MULLIKEN ATOMIC CHARGES
-----------------------
   0 C :   -0.480381
   1 C :   -0.139033
   2 O :   -0.162997
   3 C :    0.442059
   4 O :   -0.416677
   5 C :   -0.452664
   6 C :    0.055203
   7 H :    0.223717
   8 C :    0.237420
   9 O :   -0.402272
  10 O :   -0.156509
  11 C :   -0.135620
  12 C :   -0.464183
  13 S :   -0.181918
  14 P :    0.790383
  15 S :   -0.476674
  16 O :   -0.306450
  17 C :   -0.308792
  18 O :   -0.336590
  19 C :   -0.299143
  20 H :    0.148685
  21 H :    0.151371
  22 H :    0.173985
  23 H :    0.184408
  24 H :    0.150572
  25 H :    0.183565
  26 H :    0.198322
  27 H :    0.152376
  28 H :    0.168149
  29 H :    0.156083
  30 H :    0.149640
  31 H :    0.172356
  32 H :    0.155823
  33 H :    0.163662
  34 H :    0.179928
  35 H :    0.149269
  36 H :    0.171344
  37 H :    0.161583
Sum of atomic charges:    0.0000000

LOEWDIN ATOMIC CHARGES
----------------------
   0 C :   -0.390371
   1 C :    0.027079
   2 O :   -0.574167
   3 C :    0.352048
   4 O :   -0.471355
   5 C :   -0.200555
   6 C :   -0.186436
   7 H :    0.214628
   8 C :    0.346455
   9 O :   -0.416580
  10 O :   -0.593108
  11 C :    0.033519
  12 C :   -0.387631
  13 S :    0.227455
  14 P :    0.408176
  15 S :   -0.093918
  16 O :   -0.639534
  17 C :   -0.050597
  18 O :   -0.688178
  19 C :   -0.065912
  20 H :    0.159804
  21 H :    0.156868
  22 H :    0.165354
  23 H :    0.194498
  24 H :    0.179824
  25 H :    0.194541
  26 H :    0.194399
  27 H :    0.179407
  28 H :    0.188818
  29 H :    0.159219
  30 H :    0.160511
  31 H :    0.165306
  32 H :    0.181600
  33 H :    0.170335
  34 H :    0.178007
  35 H :    0.175403
  36 H :    0.174391
  37 H :    0.170697

  Mayer bond orders larger than 0.100000
B(  0-C ,  1-C ) :   0.9245 B(  0-C , 20-H ) :   0.9653 B(  0-C , 21-H ) :   0.9720
B(  0-C , 22-H ) :   0.9733 B(  1-C ,  2-O ) :   0.8100 B(  1-C , 23-H ) :   0.9679
B(  1-C , 24-H ) :   0.9603 B(  2-O ,  3-C ) :   1.0912 B(  3-C ,  4-O ) :   1.7333
B(  3-C ,  5-C ) :   0.8995 B(  5-C ,  6-C ) :   0.9069 B(  5-C , 25-H ) :   0.9757
B(  5-C , 26-H ) :   0.9739 B(  6-C ,  7-H ) :   0.8639 B(  6-C ,  8-C ) :   0.9922
B(  6-C , 13-S ) :   0.7935 B(  8-C ,  9-O ) :   1.8937 B(  8-C , 10-O ) :   1.0902
B( 10-O , 11-C ) :   0.7947 B( 11-C , 12-C ) :   0.9389 B( 11-C , 27-H ) :   0.9623
B( 11-C , 28-H ) :   0.9676 B( 12-C , 29-H ) :   0.9733 B( 12-C , 30-H ) :   0.9641
B( 12-C , 31-H ) :   0.9703 B( 13-S , 14-P ) :   0.9962 B( 14-P , 15-S ) :   1.7296
B( 14-P , 16-O ) :   1.2051 B( 14-P , 18-O ) :   1.0380 B( 16-O , 17-C ) :   0.7932
B( 17-C , 32-H ) :   0.9651 B( 17-C , 33-H ) :   0.9627 B( 17-C , 34-H ) :   0.9552
B( 18-O , 19-C ) :   0.8352 B( 19-C , 35-H ) :   0.9681 B( 19-C , 36-H ) :   0.9599
B( 19-C , 37-H ) :   0.9528

Dispersion correction           -0.017255092
FINAL SINGLE POINT ENERGY     -1981.449600867623

DIPOLE MOMENT
-------------

Method             : SCF
Type of density    : Electron Density
Multiplicity       :   1
Irrep              :   0
Energy             : -1981.4700043738962449 Eh
Relativity type    :
Basis              : AO
                                X                 Y                 Z
Electronic contribution:     -6.739069562      -3.847698273       0.685283882
Nuclear contribution   :      6.430717494       4.495317762      -0.436341606
                        -----------------------------------------
Total Dipole Moment    :     -0.308352067       0.647619488       0.248942276
                        -----------------------------------------
Magnitude (a.u.)       :      0.759252432
Magnitude (Debye)      :      1.929866314

Rotational constants in cm-1:             0.011693             0.007619             0.005610
Rotational constants in MHz :           350.548111           228.405328           168.171329

                             ****ORCA TERMINATED NORMALLY****
TOTAL RUN TIME: 0 days 0 hours 1 minutes 14 seconds 980 msec
