                         Program Version 6.0.1  -  RELEASE   -
|  1> ! r2scan-3c def2/J RI DEFGRID2 scfconv6 printgap
|  2> %output
|  3>     printlevel normal
|  4> end
|  5> %cpcm
|  6>     smd true
|  7>     smdsolvent "water"
|  8> end
|  9> * xyz 0 1
| 10> C 2.802517784 -4.2717520666 0.7820614857
| 11> C 2.3368289533 -3.3939697756 -0.3681463309
| 12> O 2.5424799754 -1.9989915009 -0.0741112767
| 13> C 1.6339094503 -1.3645057148 0.6287997933
| 14> O 0.617832223 -1.8729504467 1.0631873996
| 15> C 1.971470119 0.0982408289 0.8094698937
| 16> C 0.8629020924 0.9442537558 0.193431061
| 17> H 0.6976032348 0.6637318278 -0.8557501037
| 18> C 1.1754856358 2.4340965003 0.2549123266
| 19> O 2.154850241 2.8888568316 0.7950535949
| 20> O 0.2429877971 3.1333145021 -0.3527199786
| 21> C 0.3904625649 4.5686115245 -0.3998223616
| 22> C 1.2328564821 4.987466625 -1.593661937
| 23> S -0.7408375657 0.7010085519 1.0406061604
| 24> P -1.5904959554 -0.781352745 -0.2365168875
| 25> S -0.6161738369 -1.2184614845 -1.8767049597
| 26> O -2.0358738595 -2.0436857726 0.5907945763
| 27> C -2.6051473267 -1.9492070274 1.9104466444
| 28> O -3.0375210054 -0.1412852991 -0.526909349
| 29> C -3.1672324653 1.0508336446 -1.3055827087
| 30> H 2.6999164608 -5.3140839153 0.4991993254
| 31> H 3.843292269 -4.0622700954 1.013199575
| 32> H 2.1961524395 -4.0843748158 1.6653195152
| 33> H 1.2739189251 -3.5507185013 -0.5772497091
| 34> H 2.9243084923 -3.5672708517 -1.2696103435
| 35> H 2.9182067418 0.3184498618 0.3172310764
| 36> H 2.0519228886 0.3270537582 1.8736687941
| 37> H -0.6295225515 4.9436307258 -0.4803673326
| 38> H 0.848719311 4.9004886391 0.5355035316
| 39> H 0.8035605516 4.5956348095 -2.5116745473
| 40> H 1.2636462294 6.0706215112 -1.6466526931
| 41> H 2.2473889516 4.6104290415 -1.4875258104
| 42> H -2.9382269569 -2.9565925661 2.1458429191
| 43> H -3.4408626338 -1.2516638833 1.9121563434
| 44> H -1.8353356446 -1.6263728925 2.6106786858
| 45> H -4.2360169689 1.2133678166 -1.4162051447
| 46> H -2.6979521795 0.9128845097 -2.2809897304
| 47> H -2.7004959127 1.8890574558 -0.7865331137
| 48> *
| 49>
| 50>                          ****END OF INPUT****

CARTESIAN COORDINATES (ANGSTROEM)
---------------------------------
  C      2.802518   -4.271752    0.782061
  C      2.336829   -3.393970   -0.368146
  O      2.542480   -1.998992   -0.074111
  C      1.633909   -1.364506    0.628800
  O      0.617832   -1.872950    1.063187
  C      1.971470    0.098241    0.809470
  C      0.862902    0.944254    0.193431
  H      0.697603    0.663732   -0.855750
  C      1.175486    2.434097    0.254912
  O      2.154850    2.888857    0.795054
  O      0.242988    3.133315   -0.352720
  C      0.390463    4.568612   -0.399822
  C      1.232856    4.987467   -1.593662
  S     -0.740838    0.701009    1.040606
  P     -1.590496   -0.781353   -0.236517
  S     -0.616174   -1.218461   -1.876705
  O     -2.035874   -2.043686    0.590795
  C     -2.605147   -1.949207    1.910447
  O     -3.037521   -0.141285   -0.526909
  C     -3.167232    1.050834   -1.305583
  H      2.699916   -5.314084    0.499199
  H      3.843292   -4.062270    1.013200
  H      2.196152   -4.084375    1.665320
  H      1.273919   -3.550719   -0.577250
  H      2.924308   -3.567271   -1.269610
  H      2.918207    0.318450    0.317231
  H      2.051923    0.327054    1.873669
  H     -0.629523    4.943631   -0.480367
  H      0.848719    4.900489    0.535504
  H      0.803561    4.595635   -2.511675
  H      1.263646    6.070622   -1.646653
  H      2.247389    4.610429   -1.487526
  H     -2.938227   -2.956593    2.145843
  H     -3.440863   -1.251664    1.912156
  H     -1.835336   -1.626373    2.610679
  H     -4.236017    1.213368   -1.416205
  H     -2.697952    0.912885   -2.280990
  H     -2.700496    1.889057   -0.786533

 Total Charge           Charge          ....    0
 Multiplicity           Mult            ....    1
 Number of Electrons    NEL             ....  174
 Basis Dimension        Dim             ....  510

ORBITAL ENERGIES
----------------

  NO   OCC          E(Eh)            E(eV)
   0   2.0000     -88.578741     -2410.3501
   1   2.0000     -88.530120     -2409.0270
   2   2.0000     -76.920115     -2093.1028
   3   2.0000     -19.011310      -517.3241
   4   2.0000     -19.008409      -517.2451
   5   2.0000     -18.998038      -516.9629
   6   2.0000     -18.989980      -516.7436
   7   2.0000     -18.956063      -515.8207
   8   2.0000     -18.942289      -515.4459
   9   2.0000     -10.178048      -276.9588
  10   2.0000     -10.167847      -276.6812
  11   2.0000     -10.097929      -274.7786
  12   2.0000     -10.087943      -274.5069
  13   2.0000     -10.085984      -274.4536
  14   2.0000     -10.085116      -274.4300
  15   2.0000     -10.079065      -274.2653
  16   2.0000     -10.052225      -273.5349
  17   2.0000     -10.019951      -272.6567
  18   2.0000     -10.018934      -272.6290
  19   2.0000      -7.872890      -214.2322
  20   2.0000      -7.825322      -212.9378
  21   2.0000      -6.598543      -179.5555
  22   2.0000      -5.819960      -158.3692
  23   2.0000      -5.817034      -158.2895
  24   2.0000      -5.809534      -158.0855
  25   2.0000      -5.773050      -157.0927
  26   2.0000      -5.765797      -156.8953
  27   2.0000      -5.764956      -156.8724
  28   2.0000      -4.744069      -129.0927
  29   2.0000      -4.743578      -129.0793
  30   2.0000      -4.742239      -129.0429
  31   2.0000      -1.091969       -29.7140
  32   2.0000      -1.085822       -29.5467
  33   2.0000      -1.053319       -28.6623
  34   2.0000      -1.009384       -27.4667
  35   2.0000      -1.003383       -27.3034
  36   2.0000      -0.992186       -26.9988
  37   2.0000      -0.811365       -22.0784
  38   2.0000      -0.751781       -20.4570
  39   2.0000      -0.742184       -20.1959
  40   2.0000      -0.729404       -19.8481
  41   2.0000      -0.695195       -18.9172
  42   2.0000      -0.667075       -18.1520
  43   2.0000      -0.663697       -18.0601
  44   2.0000      -0.653237       -17.7755
  45   2.0000      -0.627748       -17.0819
  46   2.0000      -0.594248       -16.1703
  47   2.0000      -0.538701       -14.6588
  48   2.0000      -0.527446       -14.3525
  49   2.0000      -0.523520       -14.2457
  50   2.0000      -0.501883       -13.6569
  51   2.0000      -0.491799       -13.3825
  52   2.0000      -0.483781       -13.1643
  53   2.0000      -0.470759       -12.8100
  54   2.0000      -0.463009       -12.5991
  55   2.0000      -0.458038       -12.4639
  56   2.0000      -0.448236       -12.1971
  57   2.0000      -0.445507       -12.1229
  58   2.0000      -0.433710       -11.8018
  59   2.0000      -0.427229       -11.6255
  60   2.0000      -0.421684       -11.4746
  61   2.0000      -0.415846       -11.3157
  62   2.0000      -0.409308       -11.1378
  63   2.0000      -0.398718       -10.8497
  64   2.0000      -0.395337       -10.7577
  65   2.0000      -0.383549       -10.4369
  66   2.0000      -0.376794       -10.2531
  67   2.0000      -0.367117        -9.9898
  68   2.0000      -0.358676        -9.7601
  69   2.0000      -0.355119        -9.6633
  70   2.0000      -0.348967        -9.4959
  71   2.0000      -0.340788        -9.2733
  72   2.0000      -0.336100        -9.1458
  73   2.0000      -0.327274        -8.9056
  74   2.0000      -0.318667        -8.6714
  75   2.0000      -0.311901        -8.4873
  76   2.0000      -0.309079        -8.4105
  77   2.0000      -0.307029        -8.3547
  78   2.0000      -0.293274        -7.9804
  79   2.0000      -0.287208        -7.8153
  80   2.0000      -0.283625        -7.7178
  81   2.0000      -0.277802        -7.5594
  82   2.0000      -0.264568        -7.1993
  83   2.0000      -0.261133        -7.1058
  84   2.0000      -0.235885        -6.4188
  85   2.0000      -0.230252        -6.2655
  86   2.0000      -0.219303        -5.9675
  87   0.0000      -0.053684        -1.4608
  88   0.0000      -0.047057        -1.2805
  89   0.0000      -0.030653        -0.8341
  90   0.0000       0.009522         0.2591
  91   0.0000       0.024096         0.6557

MULLIKEN ATOMIC CHARGES
-----------------------
   0 C :   -0.505495
   1 C :   -0.134371
   2 O :   -0.184472
   3 C :    0.458047
   4 O :   -0.465219
   5 C :   -0.484680
   6 C :    0.073934
   7 H :    0.237259
   8 C :    0.272212
   9 O :   -0.463053
  10 O :   -0.171229
  11 C :   -0.139840
  12 C :   -0.493506
  13 S :   -0.183267
  14 P :    0.795029
  15 S :   -0.510921
  16 O :   -0.355237
  17 C :   -0.311483
  18 O :   -0.368878
  19 C :   -0.305533
  20 H :    0.172046
  21 H :    0.166771
  22 H :    0.172008
  23 H :    0.173108
  24 H :    0.177353
  25 H :    0.201655
  26 H :    0.229229
  27 H :    0.179355
  28 H :    0.176000
  29 H :    0.167999
  30 H :    0.172737
  31 H :    0.171176
  32 H :    0.184003
  33 H :    0.186845
  34 H :    0.183090
  35 H :    0.178425
  36 H :    0.176557
  37 H :    0.172345
Sum of atomic charges:    0.0000000

LOEWDIN ATOMIC CHARGES
----------------------
   0 C :   -0.391728
   1 C :    0.029803
   2 O :   -0.580302
   3 C :    0.359737
   4 O :   -0.507927
   5 C :   -0.199597
   6 C :   -0.180538
   7 H :    0.219324
   8 C :    0.357897
   9 O :   -0.458035
  10 O :   -0.592962
  11 C :    0.040111
  12 C :   -0.390293
  13 S :    0.232839
  14 P :    0.404698
  15 S :   -0.122532
  16 O :   -0.669114
  17 C :   -0.043691
  18 O :   -0.702565
  19 C :   -0.060212
  20 H :    0.168544
  21 H :    0.162719
  22 H :    0.163470
  23 H :    0.190414
  24 H :    0.190744
  25 H :    0.202302
  26 H :    0.203133
  27 H :    0.191288
  28 H :    0.191751
  29 H :    0.163128
  30 H :    0.169141
  31 H :    0.163214
  32 H :    0.193142
  33 H :    0.181082
  34 H :    0.180991
  35 H :    0.187946
  36 H :    0.176423
  37 H :    0.175653

  Mayer bond orders larger than 0.100000
B(  0-C ,  1-C ) :   0.9294 B(  0-C , 20-H ) :   0.9595 B(  0-C , 21-H ) :   0.9683
B(  0-C , 22-H ) :   0.9700 B(  1-C ,  2-O ) :   0.7927 B(  1-C , 23-H ) :   0.9637
B(  1-C , 24-H ) :   0.9498 B(  2-O ,  3-C ) :   1.0981 B(  3-C ,  4-O ) :   1.7044
B(  3-C ,  5-C ) :   0.9110 B(  5-C ,  6-C ) :   0.8872 B(  5-C , 25-H ) :   0.9622
B(  5-C , 26-H ) :   0.9677 B(  6-C ,  7-H ) :   0.8480 B(  6-C ,  8-C ) :   1.0046
B(  6-C , 13-S ) :   0.7883 B(  8-C ,  9-O ) :   1.8459 B(  8-C , 10-O ) :   1.1148
B( 10-O , 11-C ) :   0.7774 B( 11-C , 12-C ) :   0.9353 B( 11-C , 27-H ) :   0.9519
B( 11-C , 28-H ) :   0.9626 B( 12-C , 29-H ) :   0.9701 B( 12-C , 30-H ) :   0.9588
B( 12-C , 31-H ) :   0.9685 B( 13-S , 14-P ) :   1.0095 B( 14-P , 15-S ) :   1.7343
B( 14-P , 16-O ) :   1.1950 B( 14-P , 18-O ) :   1.0381 B( 16-O , 17-C ) :   0.7876
B( 17-C , 32-H ) :   0.9540 B( 17-C , 33-H ) :   0.9522 B( 17-C , 34-H ) :   0.9471
B( 18-O , 19-C ) :   0.8272 B( 19-C , 35-H ) :   0.9577 B( 19-C , 36-H ) :   0.9550
B( 19-C , 37-H ) :   0.9476

Dispersion correction           -0.017255092
FINAL SINGLE POINT ENERGY     -1981.461721622728

DIPOLE MOMENT
-------------

Method             : SCF
Type of density    : Electron Density
Multiplicity       :   1
Irrep              :   0
Energy             : -1981.4821251290015880 Eh
Relativity type    :
Basis              : AO
                                X                 Y                 Z
Electronic contribution:     -6.815832832      -3.412069808       0.725253358
Nuclear contribution   :      6.430717494       4.495317762      -0.436341606
                        -----------------------------------------
Total Dipole Moment    :     -0.385115338       1.083247954       0.288911752
                        -----------------------------------------
Magnitude (a.u.)       :      1.185415520
Magnitude (Debye)      :      3.013086797

Rotational constants in cm-1:             0.011693             0.007619             0.005610
Rotational constants in MHz :           350.548111           228.405328           168.171329

                             ****ORCA TERMINATED NORMALLY****
TOTAL RUN TIME: 0 days 0 hours 1 minutes 41 seconds 550 msec
