                         Program Version 6.0.0  -   RELEASE  -
|  1> ! wb97x-v def2-tzvp def2/J RIJCOSX DEFGRID2 scfconv7 GCP(DFT/TZ) printgap
|  2> %output
|  3>     printlevel normal
|  4> end
|  5> %cpcm
|  6>     smd true
|  7>     smdsolvent "water"
|  8> end
|  9> * xyz 0 1
| 10> C -0.7251013140410852 -0.011226233540926632 2.4030671846163993e-06
| 11> O 0.7100715589763777 0.0698824267719725 3.959731725774349e-05
| 12> H -1.0977858159876541 -0.5269072622658307 -0.8939588193107932
| 13> H -1.1055311186026 1.0128354786500375 -0.0001312873350416812
| 14> H -1.0978441976931002 -0.526695903468416 0.8940604394352138
| 15> H 1.045003835891959 -0.8348810100870082 0.00015382817168258872
| 16> *
| 17>
| 18>                          ****END OF INPUT****

CARTESIAN COORDINATES (ANGSTROEM)
---------------------------------
  C     -0.725101   -0.011226    0.000002
  O      0.710072    0.069882    0.000040
  H     -1.097786   -0.526907   -0.893959
  H     -1.105531    1.012835   -0.000131
  H     -1.097844   -0.526696    0.894060
  H      1.045004   -0.834881    0.000154

 Total Charge           Charge          ....    0
 Multiplicity           Mult            ....    1
 Number of Electrons    NEL             ....   18
 Basis Dimension        Dim             ....   86

ORBITAL ENERGIES
----------------

  NO   OCC          E(Eh)            E(eV)
   0   2.0000     -21.672795      -589.7467
   1   2.0000     -12.079292      -328.6942
   2   2.0000      -1.670182       -45.4480
   3   2.0000      -1.198389       -32.6098
   4   2.0000      -1.030127       -28.0312
   5   2.0000      -0.948142       -25.8003
   6   2.0000      -0.933010       -25.3885
   7   2.0000      -0.809616       -22.0308
   8   2.0000      -0.791012       -21.5245
   9   0.0000      -0.130369        -3.5475
  10   0.0000      -0.014169        -0.3856
  11   0.0000       0.044587         1.2133
  12   0.0000       0.062897         1.7115
  13   0.0000       0.063140         1.7181

MULLIKEN ATOMIC CHARGES
-----------------------
   0 C :   -0.177106
   1 O :   -0.569961
   2 H :    0.124270
   3 H :    0.134108
   4 H :    0.124271
   5 H :    0.364419
Sum of atomic charges:   -0.0000000

LOEWDIN ATOMIC CHARGES
----------------------
   0 C :   -0.359935
   1 O :   -0.138099
   2 H :    0.100760
   3 H :    0.109040
   4 H :    0.100760
   5 H :    0.187474

  Mayer bond orders larger than 0.100000
B(  0-C ,  1-O ) :   0.9627 B(  0-C ,  2-H ) :   0.9781 B(  0-C ,  3-H ) :   0.9722
B(  0-C ,  4-H ) :   0.9781 B(  1-O ,  5-H ) :   0.8691

FINAL SINGLE POINT ENERGY      -115.733406933978

DIPOLE MOMENT
-------------

Method             : SCF
Type of density    : Electron Density
Multiplicity       :   1
Irrep              :   0
Energy             :  -115.7372961084780627 Eh
Relativity type    :
Basis              : AO
                                X                 Y                 Z
Electronic contribution:      1.651771707       0.062240192       0.000046805
Nuclear contribution   :     -2.150504011      -0.832302899       0.000024472
                        -----------------------------------------
Total Dipole Moment    :     -0.498732304      -0.770062707       0.000071277
                        -----------------------------------------
Magnitude (a.u.)       :      0.917458712
Magnitude (Debye)      :      2.331994720

Rotational constants in cm-1:             4.228566             0.812370             0.783522
Rotational constants in MHz :        126769.209773         24354.241009         23489.403288

                             ****ORCA TERMINATED NORMALLY****
TOTAL RUN TIME: 0 days 0 hours 0 minutes 14 seconds 129 msec
