                         Program Version 6.0.0  -   RELEASE  -
|  1> ! r2scan-3c def2/J RI DEFGRID2 scfconv6 printgap
|  2> %output
|  3>     printlevel normal
|  4> end
|  5> * xyz 0 1
|  6> C 3.3366413021 -1.6198745274 -2.5688781242
|  7> C 2.0736867289 -1.0500240795 -1.9568914117
|  8> O 2.3823893987 0.0483815499 -1.066108722
|  9> P 2.5332560992 -0.0948220696 0.497570451
| 10> S 3.0097137498 1.6053321249 1.3339189847
| 11> O 3.5905661305 -1.2719349928 0.6457069645
| 12> C 4.3183397404 -1.5104395341 1.8650961451
| 13> C 3.4173773502 -1.9595066444 2.9969449023
| 14> S 0.7011007214 -0.9709656571 1.1550736545
| 15> C -0.2187105882 0.581046368 1.2493297618
| 16> S -0.6140861361 1.2722970185 -0.3884445723
| 17> P -2.5713384188 0.4338998448 -0.5649604656
| 18> S -3.4520799218 0.8080968276 -2.2714129413
| 19> O -3.3424303862 0.8746461525 0.7479689683
| 20> C -4.1735761639 2.0483656411 0.7665699769
| 21> C -3.3537268255 3.3232003977 0.7315975865
| 22> O -2.381989386 -1.081080154 -0.1385772944
| 23> C -1.8426345331 -2.0509264893 -1.0592178014
| 24> C -2.9608362595 -2.8426547444 -1.7074500608
| 25> H 3.8944969891 -0.8327089987 -3.0686678193
| 26> H 3.9634385019 -2.0599876537 -1.7980973839
| 27> H 3.0666214628 -2.3826469303 -3.2925372218
| 28> H 1.5250709913 -1.8156841192 -1.4004002181
| 29> H 1.4264680568 -0.6076976348 -2.7176721988
| 30> H 5.0363321776 -2.2847461991 1.5910962096
| 31> H 4.8470065508 -0.5913187517 2.1351448763
| 32> H 4.0287553247 -2.2564485058 3.8430292469
| 33> H 2.7669900365 -1.141946398 3.303612284
| 34> H 2.8029010917 -2.7994855384 2.6826969427
| 35> H 0.3972199195 1.3217802932 1.7605451442
| 36> H -1.1403103773 0.3799449508 1.7904323551
| 37> H -4.8546798115 2.007450911 -0.0894710638
| 38> H -4.7388578464 1.9569244984 1.6951076589
| 39> H -4.0154916679 4.1785104075 0.8231412496
| 40> H -2.633964274 3.3384408794 1.5463645145
| 41> H -2.8163557884 3.3937530011 -0.2140487148
| 42> H -1.2401779809 -1.5387646598 -1.8172023268
| 43> H -1.2005932466 -2.689366106 -0.4483059202
| 44> H -2.5346032291 -3.6083353317 -2.3474058715
| 45> H -3.5751533475 -3.3098012903 -0.9433870373
| 46> H -3.5859148791 -2.1841451087 -2.3068937082
| 47> *
| 48>
| 49>                          ****END OF INPUT****

CARTESIAN COORDINATES (ANGSTROEM)
---------------------------------
  C      3.336641   -1.619875   -2.568878
  C      2.073687   -1.050024   -1.956891
  O      2.382389    0.048382   -1.066109
  P      2.533256   -0.094822    0.497570
  S      3.009714    1.605332    1.333919
  O      3.590566   -1.271935    0.645707
  C      4.318340   -1.510440    1.865096
  C      3.417377   -1.959507    2.996945
  S      0.701101   -0.970966    1.155074
  C     -0.218711    0.581046    1.249330
  S     -0.614086    1.272297   -0.388445
  P     -2.571338    0.433900   -0.564960
  S     -3.452080    0.808097   -2.271413
  O     -3.342430    0.874646    0.747969
  C     -4.173576    2.048366    0.766570
  C     -3.353727    3.323200    0.731598
  O     -2.381989   -1.081080   -0.138577
  C     -1.842635   -2.050926   -1.059218
  C     -2.960836   -2.842655   -1.707450
  H      3.894497   -0.832709   -3.068668
  H      3.963439   -2.059988   -1.798097
  H      3.066621   -2.382647   -3.292537
  H      1.525071   -1.815684   -1.400400
  H      1.426468   -0.607698   -2.717672
  H      5.036332   -2.284746    1.591096
  H      4.847007   -0.591319    2.135145
  H      4.028755   -2.256449    3.843029
  H      2.766990   -1.141946    3.303612
  H      2.802901   -2.799486    2.682697
  H      0.397220    1.321780    1.760545
  H     -1.140310    0.379945    1.790432
  H     -4.854680    2.007451   -0.089471
  H     -4.738858    1.956924    1.695108
  H     -4.015492    4.178510    0.823141
  H     -2.633964    3.338441    1.546365
  H     -2.816356    3.393753   -0.214049
  H     -1.240178   -1.538765   -1.817202
  H     -1.200593   -2.689366   -0.448306
  H     -2.534603   -3.608335   -2.347406
  H     -3.575153   -3.309801   -0.943387
  H     -3.585915   -2.184145   -2.306894

 Total Charge           Charge          ....    0
 Multiplicity           Mult            ....    1
 Number of Electrons    NEL             ....  202
 Basis Dimension        Dim             ....  539

ORBITAL ENERGIES
----------------

  NO   OCC          E(Eh)            E(eV)
   0   2.0000     -88.578649     -2410.3476
   1   2.0000     -88.574198     -2410.2265
   2   2.0000     -88.524521     -2408.8747
   3   2.0000     -88.523823     -2408.8557
   4   2.0000     -76.918734     -2093.0652
   5   2.0000     -76.915666     -2092.9817
   6   2.0000     -19.001233      -517.0498
   7   2.0000     -18.994267      -516.8603
   8   2.0000     -18.994196      -516.8583
   9   2.0000     -18.993442      -516.8378
  10   2.0000     -10.107074      -275.0275
  11   2.0000     -10.105912      -274.9958
  12   2.0000     -10.104909      -274.9685
  13   2.0000     -10.101949      -274.8880
  14   2.0000     -10.099717      -274.8273
  15   2.0000     -10.034377      -273.0493
  16   2.0000     -10.033841      -273.0347
  17   2.0000     -10.028414      -272.8870
  18   2.0000     -10.027498      -272.8621
  19   2.0000      -7.873131      -214.2388
  20   2.0000      -7.867868      -214.0956
  21   2.0000      -7.819255      -212.7728
  22   2.0000      -7.818449      -212.7508
  23   2.0000      -6.597223      -179.5196
  24   2.0000      -6.594099      -179.4346
  25   2.0000      -5.819848      -158.3661
  26   2.0000      -5.817015      -158.2890
  27   2.0000      -5.815046      -158.2355
  28   2.0000      -5.811502      -158.1390
  29   2.0000      -5.810359      -158.1079
  30   2.0000      -5.805034      -157.9630
  31   2.0000      -5.766947      -156.9266
  32   2.0000      -5.766084      -156.9031
  33   2.0000      -5.759470      -156.7231
  34   2.0000      -5.759278      -156.7179
  35   2.0000      -5.758810      -156.7052
  36   2.0000      -5.758417      -156.6945
  37   2.0000      -4.743102      -129.0664
  38   2.0000      -4.742106      -129.0393
  39   2.0000      -4.740653      -128.9997
  40   2.0000      -4.739448      -128.9669
  41   2.0000      -4.739374      -128.9649
  42   2.0000      -4.737641      -128.9178
  43   2.0000      -1.056687       -28.7539
  44   2.0000      -1.055677       -28.7264
  45   2.0000      -1.016226       -27.6529
  46   2.0000      -1.013804       -27.5870
  47   2.0000      -0.801758       -21.8170
  48   2.0000      -0.761468       -20.7206
  49   2.0000      -0.753565       -20.5056
  50   2.0000      -0.739780       -20.1305
  51   2.0000      -0.729014       -19.8375
  52   2.0000      -0.714799       -19.4507
  53   2.0000      -0.692334       -18.8394
  54   2.0000      -0.671244       -18.2655
  55   2.0000      -0.632284       -17.2053
  56   2.0000      -0.628622       -17.1057
  57   2.0000      -0.612623       -16.6703
  58   2.0000      -0.602097       -16.3839
  59   2.0000      -0.593611       -16.1530
  60   2.0000      -0.531410       -14.4604
  61   2.0000      -0.526900       -14.3377
  62   2.0000      -0.500213       -13.6115
  63   2.0000      -0.494062       -13.4441
  64   2.0000      -0.478811       -13.0291
  65   2.0000      -0.470280       -12.7970
  66   2.0000      -0.466426       -12.6921
  67   2.0000      -0.453202       -12.3323
  68   2.0000      -0.447628       -12.1806
  69   2.0000      -0.442677       -12.0458
  70   2.0000      -0.428414       -11.6577
  71   2.0000      -0.416471       -11.3328
  72   2.0000      -0.412132       -11.2147
  73   2.0000      -0.407246       -11.0817
  74   2.0000      -0.399805       -10.8793
  75   2.0000      -0.391917       -10.6646
  76   2.0000      -0.384834       -10.4719
  77   2.0000      -0.378319       -10.2946
  78   2.0000      -0.374168       -10.1816
  79   2.0000      -0.371434       -10.1072
  80   2.0000      -0.366169        -9.9640
  81   2.0000      -0.363562        -9.8930
  82   2.0000      -0.359413        -9.7801
  83   2.0000      -0.352195        -9.5837
  84   2.0000      -0.345022        -9.3885
  85   2.0000      -0.341763        -9.2998
  86   2.0000      -0.332210        -9.0399
  87   2.0000      -0.316874        -8.6226
  88   2.0000      -0.315649        -8.5892
  89   2.0000      -0.311892        -8.4870
  90   2.0000      -0.307865        -8.3774
  91   2.0000      -0.290929        -7.9166
  92   2.0000      -0.287717        -7.8292
  93   2.0000      -0.282695        -7.6925
  94   2.0000      -0.272430        -7.4132
  95   2.0000      -0.250172        -6.8075
  96   2.0000      -0.234941        -6.3931
  97   2.0000      -0.225635        -6.1398
  98   2.0000      -0.221767        -6.0346
  99   2.0000      -0.220440        -5.9985
 100   2.0000      -0.214537        -5.8378
 101   0.0000      -0.044205        -1.2029
 102   0.0000      -0.028258        -0.7689
 103   0.0000      -0.014590        -0.3970
 104   0.0000       0.002971         0.0809
 105   0.0000       0.007490         0.2038

MULLIKEN ATOMIC CHARGES
-----------------------
   0 C :   -0.465035
   1 C :   -0.109008
   2 O :   -0.261346
   3 P :    0.645414
   4 S :   -0.435848
   5 O :   -0.294812
   6 C :   -0.163199
   7 C :   -0.448352
   8 S :   -0.159178
   9 C :   -0.220223
  10 S :   -0.134902
  11 P :    0.670037
  12 S :   -0.448636
  13 O :   -0.307664
  14 C :   -0.149886
  15 C :   -0.430392
  16 O :   -0.313129
  17 C :   -0.118103
  18 C :   -0.463620
  19 H :    0.160054
  20 H :    0.163796
  21 H :    0.146170
  22 H :    0.154072
  23 H :    0.166040
  24 H :    0.148796
  25 H :    0.175950
  26 H :    0.149370
  27 H :    0.180915
  28 H :    0.153111
  29 H :    0.221295
  30 H :    0.203478
  31 H :    0.172382
  32 H :    0.149222
  33 H :    0.147630
  34 H :    0.150868
  35 H :    0.174974
  36 H :    0.154127
  37 H :    0.160145
  38 H :    0.143045
  39 H :    0.153311
  40 H :    0.179130
Sum of atomic charges:    0.0000000

LOEWDIN ATOMIC CHARGES
----------------------
   0 C :   -0.392394
   1 C :    0.015780
   2 O :   -0.654393
   3 P :    0.378729
   4 S :   -0.098651
   5 O :   -0.670070
   6 C :    0.023141
   7 C :   -0.408323
   8 S :    0.135219
   9 C :   -0.416154
  10 S :    0.162091
  11 P :    0.366794
  12 S :   -0.108521
  13 O :   -0.667813
  14 C :    0.022424
  15 C :   -0.402387
  16 O :   -0.666998
  17 C :    0.009319
  18 C :   -0.397577
  19 H :    0.163099
  20 H :    0.165171
  21 H :    0.158775
  22 H :    0.173856
  23 H :    0.184055
  24 H :    0.179645
  25 H :    0.181381
  26 H :    0.160278
  27 H :    0.166837
  28 H :    0.159661
  29 H :    0.193800
  30 H :    0.195200
  31 H :    0.180783
  32 H :    0.179702
  33 H :    0.159640
  34 H :    0.158535
  35 H :    0.166794
  36 H :    0.176372
  37 H :    0.179936
  38 H :    0.157570
  39 H :    0.159738
  40 H :    0.168957

  Mayer bond orders larger than 0.100000
B(  0-C ,  1-C ) :   0.9427 B(  0-C , 19-H ) :   0.9714 B(  0-C , 20-H ) :   0.9684
B(  0-C , 21-H ) :   0.9648 B(  1-C ,  2-O ) :   0.7416 B(  1-C , 22-H ) :   0.9663
B(  1-C , 23-H ) :   0.9585 B(  2-O ,  3-P ) :   1.1396 B(  3-P ,  4-S ) :   1.8513
B(  3-P ,  5-O ) :   1.0386 B(  3-P ,  8-S ) :   1.0082 B(  5-O ,  6-C ) :   0.8167
B(  6-C ,  7-C ) :   0.9158 B(  6-C , 24-H ) :   0.9613 B(  6-C , 25-H ) :   0.9678
B(  7-C , 26-H ) :   0.9556 B(  7-C , 27-H ) :   0.9630 B(  7-C , 28-H ) :   0.9678
B(  8-S ,  9-C ) :   0.9123 B(  9-C , 10-S ) :   0.8953 B(  9-C , 29-H ) :   0.9060
B(  9-C , 30-H ) :   0.9166 B( 10-S , 11-P ) :   1.0678 B( 11-P , 12-S ) :   1.8200
B( 11-P , 13-O ) :   1.0938 B( 11-P , 16-O ) :   1.0888 B( 13-O , 14-C ) :   0.8095
B( 14-C , 15-C ) :   0.9289 B( 14-C , 31-H ) :   0.9649 B( 14-C , 32-H ) :   0.9594
B( 15-C , 33-H ) :   0.9608 B( 15-C , 34-H ) :   0.9684 B( 15-C , 35-H ) :   0.9608
B( 16-O , 17-C ) :   0.7476 B( 17-C , 18-C ) :   0.9583 B( 17-C , 36-H ) :   0.9581
B( 17-C , 37-H ) :   0.9576 B( 18-C , 38-H ) :   0.9651 B( 18-C , 39-H ) :   0.9774
B( 18-C , 40-H ) :   0.9586

Dispersion correction           -0.021090457
FINAL SINGLE POINT ENERGY     -2932.463157143427

DIPOLE MOMENT
-------------

Method             : SCF
Type of density    : Electron Density
Multiplicity       :   1
Irrep              :   0
Energy             : -2932.4885362781496951 Eh
Relativity type    :
Basis              : AO
                                X                 Y                 Z
Electronic contribution:     -1.104320263      11.561459337      -0.123669136
Nuclear contribution   :      1.379446231     -13.092703833       0.750085181
                        -----------------------------------------
Total Dipole Moment    :      0.275125968      -1.531244495       0.626416045
                        -----------------------------------------
Magnitude (a.u.)       :      1.677140741
Magnitude (Debye)      :      4.262952981

Rotational constants in cm-1:             0.012328             0.004601             0.004133
Rotational constants in MHz :           369.571934           137.943083           123.895526

                             ****ORCA TERMINATED NORMALLY****
TOTAL RUN TIME: 0 days 0 hours 1 minutes 20 seconds 73 msec
