                         Program Version 6.0.0  -   RELEASE  -
|  1> ! r2scan-3c def2/J RI DEFGRID2 scfconv6 printgap
|  2> %output
|  3>     printlevel normal
|  4> end
|  5> %cpcm
|  6>     smd true
|  7>     smdsolvent "water"
|  8> end
|  9> * xyz 0 1
| 10> C 3.3366413021 -1.6198745274 -2.5688781242
| 11> C 2.0736867289 -1.0500240795 -1.9568914117
| 12> O 2.3823893987 0.0483815499 -1.066108722
| 13> P 2.5332560992 -0.0948220696 0.497570451
| 14> S 3.0097137498 1.6053321249 1.3339189847
| 15> O 3.5905661305 -1.2719349928 0.6457069645
| 16> C 4.3183397404 -1.5104395341 1.8650961451
| 17> C 3.4173773502 -1.9595066444 2.9969449023
| 18> S 0.7011007214 -0.9709656571 1.1550736545
| 19> C -0.2187105882 0.581046368 1.2493297618
| 20> S -0.6140861361 1.2722970185 -0.3884445723
| 21> P -2.5713384188 0.4338998448 -0.5649604656
| 22> S -3.4520799218 0.8080968276 -2.2714129413
| 23> O -3.3424303862 0.8746461525 0.7479689683
| 24> C -4.1735761639 2.0483656411 0.7665699769
| 25> C -3.3537268255 3.3232003977 0.7315975865
| 26> O -2.381989386 -1.081080154 -0.1385772944
| 27> C -1.8426345331 -2.0509264893 -1.0592178014
| 28> C -2.9608362595 -2.8426547444 -1.7074500608
| 29> H 3.8944969891 -0.8327089987 -3.0686678193
| 30> H 3.9634385019 -2.0599876537 -1.7980973839
| 31> H 3.0666214628 -2.3826469303 -3.2925372218
| 32> H 1.5250709913 -1.8156841192 -1.4004002181
| 33> H 1.4264680568 -0.6076976348 -2.7176721988
| 34> H 5.0363321776 -2.2847461991 1.5910962096
| 35> H 4.8470065508 -0.5913187517 2.1351448763
| 36> H 4.0287553247 -2.2564485058 3.8430292469
| 37> H 2.7669900365 -1.141946398 3.303612284
| 38> H 2.8029010917 -2.7994855384 2.6826969427
| 39> H 0.3972199195 1.3217802932 1.7605451442
| 40> H -1.1403103773 0.3799449508 1.7904323551
| 41> H -4.8546798115 2.007450911 -0.0894710638
| 42> H -4.7388578464 1.9569244984 1.6951076589
| 43> H -4.0154916679 4.1785104075 0.8231412496
| 44> H -2.633964274 3.3384408794 1.5463645145
| 45> H -2.8163557884 3.3937530011 -0.2140487148
| 46> H -1.2401779809 -1.5387646598 -1.8172023268
| 47> H -1.2005932466 -2.689366106 -0.4483059202
| 48> H -2.5346032291 -3.6083353317 -2.3474058715
| 49> H -3.5751533475 -3.3098012903 -0.9433870373
| 50> H -3.5859148791 -2.1841451087 -2.3068937082
| 51> *
| 52>
| 53>                          ****END OF INPUT****

CARTESIAN COORDINATES (ANGSTROEM)
---------------------------------
  C      3.336641   -1.619875   -2.568878
  C      2.073687   -1.050024   -1.956891
  O      2.382389    0.048382   -1.066109
  P      2.533256   -0.094822    0.497570
  S      3.009714    1.605332    1.333919
  O      3.590566   -1.271935    0.645707
  C      4.318340   -1.510440    1.865096
  C      3.417377   -1.959507    2.996945
  S      0.701101   -0.970966    1.155074
  C     -0.218711    0.581046    1.249330
  S     -0.614086    1.272297   -0.388445
  P     -2.571338    0.433900   -0.564960
  S     -3.452080    0.808097   -2.271413
  O     -3.342430    0.874646    0.747969
  C     -4.173576    2.048366    0.766570
  C     -3.353727    3.323200    0.731598
  O     -2.381989   -1.081080   -0.138577
  C     -1.842635   -2.050926   -1.059218
  C     -2.960836   -2.842655   -1.707450
  H      3.894497   -0.832709   -3.068668
  H      3.963439   -2.059988   -1.798097
  H      3.066621   -2.382647   -3.292537
  H      1.525071   -1.815684   -1.400400
  H      1.426468   -0.607698   -2.717672
  H      5.036332   -2.284746    1.591096
  H      4.847007   -0.591319    2.135145
  H      4.028755   -2.256449    3.843029
  H      2.766990   -1.141946    3.303612
  H      2.802901   -2.799486    2.682697
  H      0.397220    1.321780    1.760545
  H     -1.140310    0.379945    1.790432
  H     -4.854680    2.007451   -0.089471
  H     -4.738858    1.956924    1.695108
  H     -4.015492    4.178510    0.823141
  H     -2.633964    3.338441    1.546365
  H     -2.816356    3.393753   -0.214049
  H     -1.240178   -1.538765   -1.817202
  H     -1.200593   -2.689366   -0.448306
  H     -2.534603   -3.608335   -2.347406
  H     -3.575153   -3.309801   -0.943387
  H     -3.585915   -2.184145   -2.306894

 Total Charge           Charge          ....    0
 Multiplicity           Mult            ....    1
 Number of Electrons    NEL             ....  202
 Basis Dimension        Dim             ....  539

ORBITAL ENERGIES
----------------

  NO   OCC          E(Eh)            E(eV)
   0   2.0000     -88.577572     -2410.3183
   1   2.0000     -88.577276     -2410.3102
   2   2.0000     -88.531926     -2409.0762
   3   2.0000     -88.531638     -2409.0683
   4   2.0000     -76.921148     -2093.1309
   5   2.0000     -76.920670     -2093.1179
   6   2.0000     -18.997959      -516.9607
   7   2.0000     -18.995913      -516.9051
   8   2.0000     -18.995551      -516.8952
   9   2.0000     -18.995217      -516.8861
  10   2.0000     -10.104193      -274.9491
  11   2.0000     -10.092046      -274.6185
  12   2.0000     -10.091481      -274.6032
  13   2.0000     -10.091454      -274.6024
  14   2.0000     -10.090472      -274.5757
  15   2.0000     -10.019060      -272.6325
  16   2.0000     -10.018520      -272.6178
  17   2.0000     -10.018463      -272.6162
  18   2.0000     -10.017154      -272.5806
  19   2.0000      -7.871961      -214.2069
  20   2.0000      -7.871109      -214.1838
  21   2.0000      -7.826892      -212.9806
  22   2.0000      -7.826755      -212.9768
  23   2.0000      -6.599694      -179.5868
  24   2.0000      -6.599150      -179.5720
  25   2.0000      -5.818727      -158.3356
  26   2.0000      -5.818253      -158.3227
  27   2.0000      -5.815881      -158.2582
  28   2.0000      -5.814736      -158.2270
  29   2.0000      -5.809116      -158.0741
  30   2.0000      -5.808306      -158.0520
  31   2.0000      -5.774441      -157.1305
  32   2.0000      -5.774317      -157.1271
  33   2.0000      -5.767175      -156.9328
  34   2.0000      -5.766960      -156.9270
  35   2.0000      -5.766946      -156.9266
  36   2.0000      -5.766859      -156.9242
  37   2.0000      -4.745520      -129.1322
  38   2.0000      -4.744525      -129.1051
  39   2.0000      -4.744458      -129.1033
  40   2.0000      -4.744402      -129.1018
  41   2.0000      -4.743264      -129.0708
  42   2.0000      -4.742791      -129.0579
  43   2.0000      -1.057314       -28.7710
  44   2.0000      -1.055023       -28.7086
  45   2.0000      -1.014502       -27.6060
  46   2.0000      -1.014294       -27.6003
  47   2.0000      -0.800956       -21.7951
  48   2.0000      -0.756370       -20.5819
  49   2.0000      -0.746207       -20.3053
  50   2.0000      -0.726790       -19.7770
  51   2.0000      -0.720143       -19.5961
  52   2.0000      -0.712878       -19.3984
  53   2.0000      -0.694393       -18.8954
  54   2.0000      -0.675322       -18.3765
  55   2.0000      -0.628074       -17.0908
  56   2.0000      -0.623087       -16.9551
  57   2.0000      -0.603588       -16.4245
  58   2.0000      -0.595045       -16.1920
  59   2.0000      -0.589339       -16.0367
  60   2.0000      -0.525973       -14.3125
  61   2.0000      -0.520140       -14.1537
  62   2.0000      -0.492364       -13.3979
  63   2.0000      -0.490548       -13.3485
  64   2.0000      -0.476039       -12.9537
  65   2.0000      -0.463785       -12.6202
  66   2.0000      -0.462785       -12.5930
  67   2.0000      -0.447553       -12.1785
  68   2.0000      -0.437082       -11.8936
  69   2.0000      -0.435814       -11.8591
  70   2.0000      -0.423084       -11.5127
  71   2.0000      -0.411884       -11.2079
  72   2.0000      -0.406139       -11.0516
  73   2.0000      -0.402514       -10.9530
  74   2.0000      -0.394250       -10.7281
  75   2.0000      -0.389860       -10.6086
  76   2.0000      -0.378293       -10.2939
  77   2.0000      -0.371923       -10.1205
  78   2.0000      -0.367044        -9.9878
  79   2.0000      -0.363143        -9.8816
  80   2.0000      -0.354653        -9.6506
  81   2.0000      -0.353413        -9.6168
  82   2.0000      -0.348637        -9.4869
  83   2.0000      -0.344698        -9.3797
  84   2.0000      -0.343081        -9.3357
  85   2.0000      -0.338199        -9.2029
  86   2.0000      -0.326800        -8.8927
  87   2.0000      -0.308654        -8.3989
  88   2.0000      -0.308075        -8.3832
  89   2.0000      -0.304786        -8.2937
  90   2.0000      -0.303072        -8.2470
  91   2.0000      -0.287708        -7.8289
  92   2.0000      -0.285013        -7.7556
  93   2.0000      -0.279351        -7.6015
  94   2.0000      -0.273702        -7.4478
  95   2.0000      -0.251421        -6.8415
  96   2.0000      -0.240584        -6.5466
  97   2.0000      -0.233794        -6.3619
  98   2.0000      -0.230079        -6.2608
  99   2.0000      -0.229148        -6.2354
 100   2.0000      -0.218551        -5.9471
 101   0.0000      -0.046358        -1.2615
 102   0.0000      -0.032960        -0.8969
 103   0.0000      -0.016455        -0.4478
 104   0.0000      -0.001181        -0.0321
 105   0.0000       0.007864         0.2140

MULLIKEN ATOMIC CHARGES
-----------------------
   0 C :   -0.508445
   1 C :   -0.094505
   2 O :   -0.295821
   3 P :    0.659334
   4 S :   -0.497766
   5 O :   -0.310136
   6 C :   -0.156023
   7 C :   -0.485934
   8 S :   -0.146212
   9 C :   -0.226102
  10 S :   -0.168108
  11 P :    0.698806
  12 S :   -0.501030
  13 O :   -0.327300
  14 C :   -0.143381
  15 C :   -0.471611
  16 O :   -0.337409
  17 C :   -0.104640
  18 C :   -0.507717
  19 H :    0.167484
  20 H :    0.169508
  21 H :    0.171134
  22 H :    0.173197
  23 H :    0.181051
  24 H :    0.176704
  25 H :    0.180100
  26 H :    0.173167
  27 H :    0.174665
  28 H :    0.169568
  29 H :    0.233692
  30 H :    0.234388
  31 H :    0.175951
  32 H :    0.175956
  33 H :    0.171417
  34 H :    0.168958
  35 H :    0.167624
  36 H :    0.171402
  37 H :    0.180280
  38 H :    0.170647
  39 H :    0.167134
  40 H :    0.169972
Sum of atomic charges:    0.0000000

LOEWDIN ATOMIC CHARGES
----------------------
   0 C :   -0.395588
   1 C :    0.023420
   2 O :   -0.677604
   3 P :    0.381739
   4 S :   -0.145208
   5 O :   -0.672792
   6 C :    0.028910
   7 C :   -0.410929
   8 S :    0.148933
   9 C :   -0.408838
  10 S :    0.143936
  11 P :    0.372664
  12 S :   -0.145415
  13 O :   -0.675515
  14 C :    0.027752
  15 C :   -0.406396
  16 O :   -0.678774
  17 C :    0.016524
  18 C :   -0.401836
  19 H :    0.163813
  20 H :    0.165414
  21 H :    0.168849
  22 H :    0.182443
  23 H :    0.190645
  24 H :    0.191650
  25 H :    0.182156
  26 H :    0.168906
  27 H :    0.161997
  28 H :    0.164025
  29 H :    0.197591
  30 H :    0.205850
  31 H :    0.181681
  32 H :    0.191199
  33 H :    0.168068
  34 H :    0.163340
  35 H :    0.161426
  36 H :    0.182511
  37 H :    0.189374
  38 H :    0.168048
  39 H :    0.163122
  40 H :    0.162910

  Mayer bond orders larger than 0.100000
B(  0-C ,  1-C ) :   0.9340 B(  0-C , 19-H ) :   0.9704 B(  0-C , 20-H ) :   0.9677
B(  0-C , 21-H ) :   0.9585 B(  1-C ,  2-O ) :   0.7330 B(  1-C , 22-H ) :   0.9561
B(  1-C , 23-H ) :   0.9500 B(  2-O ,  3-P ) :   1.1453 B(  3-P ,  4-S ) :   1.8207
B(  3-P ,  5-O ) :   1.0518 B(  3-P ,  8-S ) :   1.0240 B(  5-O ,  6-C ) :   0.8047
B(  6-C ,  7-C ) :   0.9037 B(  6-C , 24-H ) :   0.9505 B(  6-C , 25-H ) :   0.9669
B(  7-C , 26-H ) :   0.9506 B(  7-C , 27-H ) :   0.9648 B(  7-C , 28-H ) :   0.9647
B(  8-S ,  9-C ) :   0.9075 B(  9-C , 10-S ) :   0.8880 B(  9-C , 29-H ) :   0.9020
B(  9-C , 30-H ) :   0.9076 B( 10-S , 11-P ) :   1.0709 B( 11-P , 12-S ) :   1.7872
B( 11-P , 13-O ) :   1.1038 B( 11-P , 16-O ) :   1.0993 B( 13-O , 14-C ) :   0.7984
B( 14-C , 15-C ) :   0.9180 B( 14-C , 31-H ) :   0.9628 B( 14-C , 32-H ) :   0.9492
B( 15-C , 33-H ) :   0.9557 B( 15-C , 34-H ) :   0.9658 B( 15-C , 35-H ) :   0.9632
B( 16-O , 17-C ) :   0.7348 B( 17-C , 18-C ) :   0.9478 B( 17-C , 36-H ) :   0.9493
B( 17-C , 37-H ) :   0.9479 B( 18-C , 38-H ) :   0.9595 B( 18-C , 39-H ) :   0.9748
B( 18-C , 40-H ) :   0.9635

Dispersion correction           -0.021090457
FINAL SINGLE POINT ENERGY     -2932.473311888244

DIPOLE MOMENT
-------------

Method             : SCF
Type of density    : Electron Density
Multiplicity       :   1
Irrep              :   0
Energy             : -2932.4986910229667956 Eh
Relativity type    :
Basis              : AO
                                X                 Y                 Z
Electronic contribution:     -1.095566528      10.813167271       0.191452413
Nuclear contribution   :      1.379446231     -13.092703833       0.750085181
                        -----------------------------------------
Total Dipole Moment    :      0.283879702      -2.279536562       0.941537594
                        -----------------------------------------
Magnitude (a.u.)       :      2.482613072
Magnitude (Debye)      :      6.310300940

Rotational constants in cm-1:             0.012328             0.004601             0.004133
Rotational constants in MHz :           369.571934           137.943083           123.895526

                             ****ORCA TERMINATED NORMALLY****
TOTAL RUN TIME: 0 days 0 hours 1 minutes 47 seconds 90 msec
