                         Program Version 6.0.0  -   RELEASE  -
|  1> ! pbe def2-sv(p) def2/J RI DEFGRID1 loosescf d4 GCP(DFT/SV(P)) printgap
|  2> %output
|  3>     printlevel normal
|  4> end
|  5> * xyz 0 1
|  6> C 2.7629503048 -2.8202148725 0.5052905708
|  7> C 2.3709909832 -1.7472421906 1.5019600996
|  8> O 1.5410939082 -0.7350485191 0.9043893785
|  9> P 2.1273151564 0.3152069122 -0.1251744474
| 10> S 3.9310533346 0.9583180726 0.2726692692
| 11> O 0.9262805607 1.3592612065 -0.0242900573
| 12> C 1.0913745935 2.6645221975 -0.6257615831
| 13> C 1.5155006192 3.6841484406 0.4114496745
| 14> S 1.9200576955 -0.5047627265 -2.0711027226
| 15> C 0.1118454544 -0.6777959425 -2.2073128722
| 16> S -0.6669653775 -1.6985760789 -0.922470334
| 17> P -1.7827304286 -0.2357141754 0.1059651845
| 18> S -2.1835297608 1.4156951763 -0.8821585289
| 19> O -1.0799009457 -0.1011586506 1.5130862552
| 20> C -1.235834642 1.0711091792 2.3334940499
| 21> C -2.6147459652 1.1349382159 2.9558615901
| 22> O -3.0821077751 -1.058335531 0.5215280575
| 23> C -4.0874610556 -1.4104150392 -0.4474657942
| 24> C -5.2882142083 -1.9509128831 0.3022622455
| 25> H 3.4129876393 -2.3981735657 -0.2608182378
| 26> H 3.2965437209 -3.6109047951 1.0229106166
| 27> H 1.8774208467 -3.2347645856 0.0284625381
| 28> H 3.259638447 -1.2635519549 1.9210606696
| 29> H 1.7518423054 -2.1503539439 2.3048308885
| 30> H 1.8312438936 2.5992410026 -1.4307449566
| 31> H 0.1134275509 2.9095487221 -1.0483468352
| 32> H 0.7870168054 3.729040964 1.2164199099
| 33> H 2.4844035121 3.4153959102 0.8268676103
| 34> H 1.5886327288 4.6584326102 -0.0609547627
| 35> H -0.0390112869 -1.1787136047 -3.1604377603
| 36> H -0.3634937966 0.3062075632 -2.2033339657
| 37> H -0.4500663782 0.9748311927 3.0842076373
| 38> H -1.0457994678 1.9547052013 1.7158622564
| 39> H -2.8231957912 0.2174094581 3.4995374084
| 40> H -2.6652513483 1.98007543 3.6353704173
| 41> H -3.3654970321 1.260392154 2.1764898182
| 42> H -4.3428674373 -0.5151991492 -1.0246504153
| 43> H -3.6683686717 -2.1618375203 -1.1229587759
| 44> H -4.9955369173 -2.8121886936 0.8956402663
| 45> H -5.692508389 -1.1894464336 0.9630857909
| 46> H -6.0497476336 -2.2468714777 -0.4116499166
| 47> *
| 48>
| 49>                          ****END OF INPUT****

CARTESIAN COORDINATES (ANGSTROEM)
---------------------------------
  C      2.762950   -2.820215    0.505291
  C      2.370991   -1.747242    1.501960
  O      1.541094   -0.735049    0.904389
  P      2.127315    0.315207   -0.125174
  S      3.931053    0.958318    0.272669
  O      0.926281    1.359261   -0.024290
  C      1.091375    2.664522   -0.625762
  C      1.515501    3.684148    0.411450
  S      1.920058   -0.504763   -2.071103
  C      0.111845   -0.677796   -2.207313
  S     -0.666965   -1.698576   -0.922470
  P     -1.782730   -0.235714    0.105965
  S     -2.183530    1.415695   -0.882159
  O     -1.079901   -0.101159    1.513086
  C     -1.235835    1.071109    2.333494
  C     -2.614746    1.134938    2.955862
  O     -3.082108   -1.058336    0.521528
  C     -4.087461   -1.410415   -0.447466
  C     -5.288214   -1.950913    0.302262
  H      3.412988   -2.398174   -0.260818
  H      3.296544   -3.610905    1.022911
  H      1.877421   -3.234765    0.028463
  H      3.259638   -1.263552    1.921061
  H      1.751842   -2.150354    2.304831
  H      1.831244    2.599241   -1.430745
  H      0.113428    2.909549   -1.048347
  H      0.787017    3.729041    1.216420
  H      2.484404    3.415396    0.826868
  H      1.588633    4.658433   -0.060955
  H     -0.039011   -1.178714   -3.160438
  H     -0.363494    0.306208   -2.203334
  H     -0.450066    0.974831    3.084208
  H     -1.045799    1.954705    1.715862
  H     -2.823196    0.217409    3.499537
  H     -2.665251    1.980075    3.635370
  H     -3.365497    1.260392    2.176490
  H     -4.342867   -0.515199   -1.024650
  H     -3.668369   -2.161838   -1.122959
  H     -4.995537   -2.812189    0.895640
  H     -5.692508   -1.189446    0.963086
  H     -6.049748   -2.246871   -0.411650

 Total Charge           Charge          ....    0
 Multiplicity           Mult            ....    1
 Number of Electrons    NEL             ....  202
 Basis Dimension        Dim             ....  334

ORBITAL ENERGIES
----------------

  NO   OCC          E(Eh)            E(eV)
   0   2.0000     -88.048741     -2395.9280
   1   2.0000     -88.042619     -2395.7615
   2   2.0000     -87.993822     -2394.4336
   3   2.0000     -87.986609     -2394.2373
   4   2.0000     -76.430022     -2079.7666
   5   2.0000     -76.424843     -2079.6257
   6   2.0000     -18.796041      -511.4663
   7   2.0000     -18.791283      -511.3368
   8   2.0000     -18.790231      -511.3082
   9   2.0000     -18.786134      -511.1967
  10   2.0000      -9.958626      -270.9880
  11   2.0000      -9.953679      -270.8534
  12   2.0000      -9.950922      -270.7784
  13   2.0000      -9.948612      -270.7155
  14   2.0000      -9.946071      -270.6463
  15   2.0000      -9.890592      -269.1367
  16   2.0000      -9.884070      -268.9592
  17   2.0000      -9.879646      -268.8388
  18   2.0000      -9.877603      -268.7832
  19   2.0000      -7.693689      -209.3559
  20   2.0000      -7.687702      -209.1930
  21   2.0000      -7.638586      -207.8565
  22   2.0000      -7.631808      -207.6721
  23   2.0000      -6.427606      -174.9040
  24   2.0000      -6.422405      -174.7625
  25   2.0000      -5.721553      -155.6914
  26   2.0000      -5.718264      -155.6019
  27   2.0000      -5.715884      -155.5371
  28   2.0000      -5.711771      -155.4252
  29   2.0000      -5.710535      -155.3916
  30   2.0000      -5.704852      -155.2369
  31   2.0000      -5.667310      -154.2153
  32   2.0000      -5.660727      -154.0362
  33   2.0000      -5.659482      -154.0023
  34   2.0000      -5.658628      -153.9791
  35   2.0000      -5.652419      -153.8101
  36   2.0000      -5.651968      -153.7979
  37   2.0000      -4.649773      -126.5268
  38   2.0000      -4.649279      -126.5133
  39   2.0000      -4.648503      -126.4922
  40   2.0000      -4.644752      -126.3901
  41   2.0000      -4.644626      -126.3867
  42   2.0000      -4.642637      -126.3326
  43   2.0000      -0.990266       -26.9465
  44   2.0000      -0.985232       -26.8095
  45   2.0000      -0.946842       -25.7649
  46   2.0000      -0.943004       -25.6604
  47   2.0000      -0.763262       -20.7694
  48   2.0000      -0.721926       -19.6446
  49   2.0000      -0.708275       -19.2731
  50   2.0000      -0.689573       -18.7642
  51   2.0000      -0.679799       -18.4983
  52   2.0000      -0.677472       -18.4349
  53   2.0000      -0.654790       -17.8177
  54   2.0000      -0.640452       -17.4276
  55   2.0000      -0.601729       -16.3739
  56   2.0000      -0.593908       -16.1611
  57   2.0000      -0.569052       -15.4847
  58   2.0000      -0.564302       -15.3554
  59   2.0000      -0.559547       -15.2260
  60   2.0000      -0.507036       -13.7971
  61   2.0000      -0.497191       -13.5293
  62   2.0000      -0.479382       -13.0446
  63   2.0000      -0.468069       -12.7368
  64   2.0000      -0.455751       -12.4016
  65   2.0000      -0.445122       -12.1124
  66   2.0000      -0.440919       -11.9980
  67   2.0000      -0.435100       -11.8397
  68   2.0000      -0.427004       -11.6194
  69   2.0000      -0.418267       -11.3816
  70   2.0000      -0.408684       -11.1209
  71   2.0000      -0.396382       -10.7861
  72   2.0000      -0.394261       -10.7284
  73   2.0000      -0.386230       -10.5098
  74   2.0000      -0.385885       -10.5005
  75   2.0000      -0.377323       -10.2675
  76   2.0000      -0.363087        -9.8801
  77   2.0000      -0.359213        -9.7747
  78   2.0000      -0.355193        -9.6653
  79   2.0000      -0.349407        -9.5079
  80   2.0000      -0.345363        -9.3978
  81   2.0000      -0.343983        -9.3603
  82   2.0000      -0.341398        -9.2899
  83   2.0000      -0.332666        -9.0523
  84   2.0000      -0.327948        -8.9239
  85   2.0000      -0.324225        -8.8226
  86   2.0000      -0.314694        -8.5633
  87   2.0000      -0.303985        -8.2719
  88   2.0000      -0.296244        -8.0612
  89   2.0000      -0.295312        -8.0358
  90   2.0000      -0.283603        -7.7172
  91   2.0000      -0.270872        -7.3708
  92   2.0000      -0.267702        -7.2845
  93   2.0000      -0.263873        -7.1803
  94   2.0000      -0.257594        -7.0095
  95   2.0000      -0.231023        -6.2865
  96   2.0000      -0.226207        -6.1554
  97   2.0000      -0.214422        -5.8347
  98   2.0000      -0.207671        -5.6510
  99   2.0000      -0.203909        -5.5486
 100   2.0000      -0.201451        -5.4818
 101   0.0000      -0.041187        -1.1207
 102   0.0000      -0.029388        -0.7997
 103   0.0000      -0.018615        -0.5065
 104   0.0000      -0.000682        -0.0186
 105   0.0000       0.015191         0.4134

MULLIKEN ATOMIC CHARGES
-----------------------
   0 C :   -0.317578
   1 C :   -0.001364
   2 O :   -0.345464
   3 P :    0.583478
   4 S :   -0.317378
   5 O :   -0.369022
   6 C :   -0.022705
   7 C :   -0.288505
   8 S :   -0.089056
   9 C :   -0.353532
  10 S :   -0.086860
  11 P :    0.631952
  12 S :   -0.338676
  13 O :   -0.348939
  14 C :   -0.020972
  15 C :   -0.299858
  16 O :   -0.375900
  17 C :   -0.012106
  18 C :   -0.279730
  19 H :    0.125002
  20 H :    0.110142
  21 H :    0.120346
  22 H :    0.111183
  23 H :    0.104527
  24 H :    0.102053
  25 H :    0.117806
  26 H :    0.113922
  27 H :    0.124792
  28 H :    0.107214
  29 H :    0.181381
  30 H :    0.201303
  31 H :    0.106403
  32 H :    0.127096
  33 H :    0.115804
  34 H :    0.110848
  35 H :    0.120406
  36 H :    0.104565
  37 H :    0.098916
  38 H :    0.117248
  39 H :    0.118932
  40 H :    0.112324
Sum of atomic charges:    0.0000000

LOEWDIN ATOMIC CHARGES
----------------------
   0 C :   -0.369676
   1 C :   -0.118364
   2 O :   -0.227662
   3 P :    0.562519
   4 S :   -0.315977
   5 O :   -0.240622
   6 C :   -0.128647
   7 C :   -0.360704
   8 S :    0.074191
   9 C :   -0.482493
  10 S :    0.099198
  11 P :    0.579517
  12 S :   -0.303976
  13 O :   -0.222790
  14 C :   -0.116570
  15 C :   -0.363771
  16 O :   -0.248841
  17 C :   -0.124195
  18 C :   -0.350132
  19 H :    0.120493
  20 H :    0.129360
  21 H :    0.120945
  22 H :    0.109209
  23 H :    0.118849
  24 H :    0.107161
  25 H :    0.109318
  26 H :    0.121834
  27 H :    0.123394
  28 H :    0.129633
  29 H :    0.139375
  30 H :    0.122842
  31 H :    0.119674
  32 H :    0.109758
  33 H :    0.126136
  34 H :    0.129919
  35 H :    0.121725
  36 H :    0.107580
  37 H :    0.105715
  38 H :    0.127356
  39 H :    0.127687
  40 H :    0.131034

  Mayer bond orders larger than 0.100000
B(  0-C ,  1-C ) :   1.1633 B(  0-C , 19-H ) :   0.9374 B(  0-C , 20-H ) :   0.9385
B(  0-C , 21-H ) :   0.9421 B(  1-C ,  2-O ) :   0.9101 B(  1-C , 22-H ) :   0.9151
B(  1-C , 23-H ) :   0.9324 B(  2-O ,  3-P ) :   1.1158 B(  3-P ,  4-S ) :   1.6409
B(  3-P ,  5-O ) :   1.0826 B(  3-P ,  8-S ) :   0.9734 B(  5-O ,  6-C ) :   0.8922
B(  6-C ,  7-C ) :   1.1712 B(  6-C , 24-H ) :   0.9089 B(  6-C , 25-H ) :   0.9096
B(  7-C , 26-H ) :   0.9466 B(  7-C , 27-H ) :   0.9316 B(  7-C , 28-H ) :   0.9393
B(  8-S ,  9-C ) :   0.9745 B(  9-C , 10-S ) :   1.0115 B(  9-C , 29-H ) :   0.9104
B(  9-C , 30-H ) :   0.8537 B( 10-S , 11-P ) :   0.9733 B( 10-S , 12-S ) :   0.1147
B( 11-P , 12-S ) :   1.5685 B( 11-P , 13-O ) :   1.1580 B( 11-P , 16-O ) :   1.0984
B( 12-S , 30-H ) :   0.1070 B( 13-O , 14-C ) :   0.8997 B( 14-C , 15-C ) :   1.1589
B( 14-C , 31-H ) :   0.9349 B( 14-C , 32-H ) :   0.9080 B( 15-C , 33-H ) :   0.9456
B( 15-C , 34-H ) :   0.9396 B( 15-C , 35-H ) :   0.9371 B( 16-O , 17-C ) :   0.9083
B( 17-C , 18-C ) :   1.1597 B( 17-C , 36-H ) :   0.9127 B( 17-C , 37-H ) :   0.9232
B( 18-C , 38-H ) :   0.9504 B( 18-C , 39-H ) :   0.9518 B( 18-C , 40-H ) :   0.9421

Dispersion correction           -0.068558616
FINAL SINGLE POINT ENERGY     -2929.522710421414

DIPOLE MOMENT
-------------

Method             : SCF
Type of density    : Electron Density
Multiplicity       :   1
Irrep              :   0
Energy             : -2929.6422025140313963 Eh
Relativity type    :
Basis              : AO
                                X                 Y                 Z
Electronic contribution:     13.308143037      -1.649629156     -11.635109136
Nuclear contribution   :    -14.584538469       1.082509712      11.954494201
                        -----------------------------------------
Total Dipole Moment    :     -1.276395432      -0.567119444       0.319385065
                        -----------------------------------------
Magnitude (a.u.)       :      1.432765362
Magnitude (Debye)      :      3.641800131

Rotational constants in cm-1:             0.011900             0.005839             0.005266
Rotational constants in MHz :           356.765394           175.035951           157.856574

                             ****ORCA TERMINATED NORMALLY****
TOTAL RUN TIME: 0 days 0 hours 0 minutes 22 seconds 164 msec
