                         Program Version 6.0.1  -  RELEASE   -
|  1> ! pbe def2-sv(p) def2/J RI DEFGRID1 loosescf d4 GCP(DFT/SV(P)) printgap
|  2> %output
|  3>     printlevel normal
|  4> end
|  5> * xyz 0 1
|  6> C 2.6034094324 -3.7049415029 0.498906055
|  7> C 3.3316683368 -2.3825782451 0.6768964506
|  8> O 3.1346138674 -1.5218866111 -0.4637272209
|  9> C 2.0435940091 -0.803264891 -0.5361505372
| 10> O 1.1796082205 -0.7865450218 0.3266851109
| 11> C 1.9670221085 0.0122224632 -1.7999637386
| 12> C 0.7582093999 0.9309528418 -1.7787704696
| 13> H 0.6607116864 1.4730327883 -2.7226354742
| 14> C 0.7850088576 1.9396207835 -0.6417628816
| 15> O 1.6848356149 2.0114092783 0.1671477938
| 16> O -0.2628590893 2.7269575357 -0.6910970223
| 17> C -0.4504449627 3.7292546455 0.3264264931
| 18> C -1.9315030186 3.8149313248 0.6447438908
| 19> S -0.8211969032 -0.002012037 -1.7098014592
| 20> P -1.2372280039 -0.4973604092 0.3262297872
| 21> S -1.1298315224 -2.3655687135 0.9342099104
| 22> O -0.7863960717 0.6734479176 1.3053396187
| 23> C 0.0128312637 0.476182387 2.4705698613
| 24> O -2.7866110048 -0.0421467576 0.3255565443
| 25> C -3.7624187744 -0.7487762562 -0.437631012
| 26> H 2.9040735799 -4.1769465292 -0.4321757158
| 27> H 2.8467080919 -4.360788846 1.3281310142
| 28> H 1.5257193246 -3.5494821845 0.4868906255
| 29> H 4.4115266116 -2.52418752 0.7177494553
| 30> H 2.9792800739 -1.8647562458 1.5732042226
| 31> H 1.9055277317 -0.6682571789 -2.6510341256
| 32> H 2.8870512943 0.5933301844 -1.8857192263
| 33> H 0.1414252836 3.4512359653 1.2029323545
| 34> H -0.0743554283 4.6717210982 -0.0810856653
| 35> H -2.2910634868 2.8518762903 1.0002443879
| 36> H -2.0917723965 4.5641029749 1.4128482344
| 37> H -2.4875946427 4.0857205879 -0.2476786922
| 38> H -0.4807552444 1.0105768818 3.2798404452
| 39> H 1.0072625841 0.8842141957 2.2848400333
| 40> H 0.0871020513 -0.5866205142 2.707160755
| 41> H -4.7237960208 -0.342366154 -0.1340031148
| 42> H -3.7114512434 -1.8164910693 -0.2136749136
| 43> H -3.5962477965 -0.5877950234 -1.5040155473
| 44> *
| 45>
| 46>                          ****END OF INPUT****

CARTESIAN COORDINATES (ANGSTROEM)
---------------------------------
  C      2.603409   -3.704942    0.498906
  C      3.331668   -2.382578    0.676896
  O      3.134614   -1.521887   -0.463727
  C      2.043594   -0.803265   -0.536151
  O      1.179608   -0.786545    0.326685
  C      1.967022    0.012222   -1.799964
  C      0.758209    0.930953   -1.778770
  H      0.660712    1.473033   -2.722635
  C      0.785009    1.939621   -0.641763
  O      1.684836    2.011409    0.167148
  O     -0.262859    2.726958   -0.691097
  C     -0.450445    3.729255    0.326426
  C     -1.931503    3.814931    0.644744
  S     -0.821197   -0.002012   -1.709801
  P     -1.237228   -0.497360    0.326230
  S     -1.129832   -2.365569    0.934210
  O     -0.786396    0.673448    1.305340
  C      0.012831    0.476182    2.470570
  O     -2.786611   -0.042147    0.325557
  C     -3.762419   -0.748776   -0.437631
  H      2.904074   -4.176947   -0.432176
  H      2.846708   -4.360789    1.328131
  H      1.525719   -3.549482    0.486891
  H      4.411527   -2.524188    0.717749
  H      2.979280   -1.864756    1.573204
  H      1.905528   -0.668257   -2.651034
  H      2.887051    0.593330   -1.885719
  H      0.141425    3.451236    1.202932
  H     -0.074355    4.671721   -0.081086
  H     -2.291063    2.851876    1.000244
  H     -2.091772    4.564103    1.412848
  H     -2.487595    4.085721   -0.247679
  H     -0.480755    1.010577    3.279840
  H      1.007263    0.884214    2.284840
  H      0.087102   -0.586621    2.707161
  H     -4.723796   -0.342366   -0.134003
  H     -3.711451   -1.816491   -0.213675
  H     -3.596248   -0.587795   -1.504016

 Total Charge           Charge          ....    0
 Multiplicity           Mult            ....    1
 Number of Electrons    NEL             ....  174
 Basis Dimension        Dim             ....  316

ORBITAL ENERGIES
----------------

  NO   OCC          E(Eh)            E(eV)
   0   2.0000     -88.032813     -2395.4946
   1   2.0000     -87.967496     -2393.7173
   2   2.0000     -76.419022     -2079.4673
   3   2.0000     -18.813501      -511.9414
   4   2.0000     -18.805920      -511.7351
   5   2.0000     -18.785935      -511.1913
   6   2.0000     -18.768279      -510.7108
   7   2.0000     -18.756253      -510.3836
   8   2.0000     -18.744347      -510.0596
   9   2.0000     -10.023984      -272.7665
  10   2.0000     -10.020963      -272.6843
  11   2.0000      -9.954694      -270.8810
  12   2.0000      -9.951561      -270.7957
  13   2.0000      -9.947372      -270.6818
  14   2.0000      -9.930344      -270.2184
  15   2.0000      -9.928986      -270.1814
  16   2.0000      -9.919814      -269.9319
  17   2.0000      -9.880443      -268.8605
  18   2.0000      -9.880358      -268.8582
  19   2.0000      -7.677674      -208.9201
  20   2.0000      -7.612652      -207.1508
  21   2.0000      -6.414412      -174.5450
  22   2.0000      -5.706248      -155.2749
  23   2.0000      -5.702128      -155.1628
  24   2.0000      -5.694003      -154.9417
  25   2.0000      -5.641840      -153.5223
  26   2.0000      -5.633525      -153.2960
  27   2.0000      -5.632224      -153.2606
  28   2.0000      -4.637160      -126.1835
  29   2.0000      -4.636672      -126.1703
  30   2.0000      -4.634673      -126.1159
  31   2.0000      -1.024140       -27.8683
  32   2.0000      -1.015620       -27.6364
  33   2.0000      -0.972845       -26.4725
  34   2.0000      -0.932736       -25.3810
  35   2.0000      -0.925465       -25.1832
  36   2.0000      -0.921494       -25.0751
  37   2.0000      -0.766259       -20.8510
  38   2.0000      -0.717482       -19.5237
  39   2.0000      -0.701709       -19.0945
  40   2.0000      -0.687772       -18.7152
  41   2.0000      -0.655130       -17.8270
  42   2.0000      -0.623602       -16.9691
  43   2.0000      -0.612509       -16.6672
  44   2.0000      -0.607663       -16.5353
  45   2.0000      -0.598454       -16.2848
  46   2.0000      -0.561940       -15.2912
  47   2.0000      -0.510814       -13.9000
  48   2.0000      -0.504905       -13.7392
  49   2.0000      -0.500371       -13.6158
  50   2.0000      -0.487964       -13.2782
  51   2.0000      -0.469078       -12.7643
  52   2.0000      -0.460918       -12.5422
  53   2.0000      -0.451150       -12.2764
  54   2.0000      -0.442080       -12.0296
  55   2.0000      -0.434069       -11.8116
  56   2.0000      -0.419669       -11.4198
  57   2.0000      -0.417086       -11.3495
  58   2.0000      -0.410775       -11.1777
  59   2.0000      -0.404659       -11.0113
  60   2.0000      -0.396865       -10.7993
  61   2.0000      -0.394090       -10.7237
  62   2.0000      -0.387721       -10.5504
  63   2.0000      -0.383016       -10.4224
  64   2.0000      -0.375976       -10.2308
  65   2.0000      -0.366225        -9.9655
  66   2.0000      -0.355569        -9.6755
  67   2.0000      -0.353143        -9.6095
  68   2.0000      -0.349268        -9.5041
  69   2.0000      -0.339838        -9.2475
  70   2.0000      -0.333245        -9.0681
  71   2.0000      -0.324711        -8.8358
  72   2.0000      -0.319927        -8.7056
  73   2.0000      -0.310060        -8.4372
  74   2.0000      -0.300898        -8.1878
  75   2.0000      -0.296479        -8.0676
  76   2.0000      -0.291823        -7.9409
  77   2.0000      -0.283127        -7.7043
  78   2.0000      -0.267498        -7.2790
  79   2.0000      -0.263534        -7.1711
  80   2.0000      -0.259734        -7.0677
  81   2.0000      -0.246610        -6.7106
  82   2.0000      -0.241534        -6.5725
  83   2.0000      -0.229674        -6.2497
  84   2.0000      -0.212953        -5.7947
  85   2.0000      -0.187857        -5.1118
  86   2.0000      -0.176366        -4.7992
  87   0.0000      -0.048376        -1.3164
  88   0.0000      -0.042715        -1.1623
  89   0.0000      -0.023164        -0.6303
  90   0.0000      -0.007416        -0.2018
  91   0.0000       0.036000         0.9796

MULLIKEN ATOMIC CHARGES
-----------------------
   0 C :   -0.323729
   1 C :   -0.012288
   2 O :   -0.220423
   3 C :    0.156174
   4 O :   -0.215430
   5 C :   -0.048456
   6 C :   -0.304290
   7 H :    0.149876
   8 C :    0.193245
   9 O :   -0.193912
  10 O :   -0.221255
  11 C :   -0.022965
  12 C :   -0.295177
  13 S :   -0.105769
  14 P :    0.637828
  15 S :   -0.323437
  16 O :   -0.381820
  17 C :   -0.106840
  18 O :   -0.380164
  19 C :   -0.108640
  20 H :    0.109381
  21 H :    0.111457
  22 H :    0.152865
  23 H :    0.104114
  24 H :    0.113071
  25 H :    0.126486
  26 H :    0.127571
  27 H :    0.114335
  28 H :    0.102170
  29 H :    0.139024
  30 H :    0.105365
  31 H :    0.110450
  32 H :    0.114159
  33 H :    0.133117
  34 H :    0.121952
  35 H :    0.119429
  36 H :    0.111916
  37 H :    0.110609
Sum of atomic charges:   -0.0000000

LOEWDIN ATOMIC CHARGES
----------------------
   0 C :   -0.363148
   1 C :   -0.105847
   2 O :   -0.042739
   3 C :    0.055882
   4 O :   -0.159754
   5 C :   -0.251025
   6 C :   -0.259594
   7 H :    0.151855
   8 C :    0.009378
   9 O :   -0.158358
  10 O :   -0.048381
  11 C :   -0.105567
  12 C :   -0.355268
  13 S :    0.093718
  14 P :    0.593118
  15 S :   -0.324005
  16 O :   -0.231069
  17 C :   -0.219924
  18 O :   -0.265800
  19 C :   -0.224962
  20 H :    0.123486
  21 H :    0.131423
  22 H :    0.130082
  23 H :    0.118761
  24 H :    0.121680
  25 H :    0.149008
  26 H :    0.151641
  27 H :    0.119172
  28 H :    0.115240
  29 H :    0.132382
  30 H :    0.127268
  31 H :    0.124979
  32 H :    0.114911
  33 H :    0.114416
  34 H :    0.109518
  35 H :    0.119492
  36 H :    0.105729
  37 H :    0.102301

  Mayer bond orders larger than 0.100000
B(  0-C ,  1-C ) :   1.1757 B(  0-C , 20-H ) :   0.9467 B(  0-C , 21-H ) :   0.9419
B(  0-C , 22-H ) :   0.9228 B(  1-C ,  2-O ) :   0.9021 B(  1-C , 23-H ) :   0.9371
B(  1-C , 24-H ) :   0.9172 B(  2-O ,  3-C ) :   1.2741 B(  3-C ,  4-O ) :   1.8675
B(  3-C ,  5-C ) :   1.0156 B(  4-O , 14-P ) :   0.1358 B(  5-C ,  6-C ) :   1.0253
B(  5-C , 25-H ) :   0.8840 B(  5-C , 26-H ) :   0.8756 B(  6-C ,  7-H ) :   0.8765
B(  6-C ,  8-C ) :   0.8954 B(  6-C , 13-S ) :   1.0266 B(  8-C ,  9-O ) :   2.0433
B(  8-C , 10-O ) :   1.2586 B(  9-O , 10-O ) :   0.1010 B( 10-O , 11-C ) :   0.8983
B( 11-C , 12-C ) :   1.1672 B( 11-C , 27-H ) :   0.9143 B( 11-C , 28-H ) :   0.9360
B( 12-C , 29-H ) :   0.9373 B( 12-C , 30-H ) :   0.9431 B( 12-C , 31-H ) :   0.9479
B( 13-S , 14-P ) :   0.9351 B( 14-P , 15-S ) :   1.5925 B( 14-P , 16-O ) :   1.0778
B( 14-P , 18-O ) :   1.0427 B( 16-O , 17-C ) :   0.9202 B( 17-C , 32-H ) :   0.9521
B( 17-C , 33-H ) :   0.9385 B( 17-C , 34-H ) :   0.9274 B( 18-O , 19-C ) :   0.9540
B( 19-C , 35-H ) :   0.9600 B( 19-C , 36-H ) :   0.9309 B( 19-C , 37-H ) :   0.9416

Dispersion correction           -0.056110712
FINAL SINGLE POINT ENERGY     -1979.006319687357

DIPOLE MOMENT
-------------

Method             : SCF
Type of density    : Electron Density
Multiplicity       :   1
Irrep              :   0
Energy             : -1979.1379889637591987 Eh
Relativity type    :
Basis              : AO
                                X                 Y                 Z
Electronic contribution:     -2.228144889      -2.698203392      -5.918526077
Nuclear contribution   :      2.975905769       3.474219374       5.488643432
                        -----------------------------------------
Total Dipole Moment    :      0.747760880       0.776015982      -0.429882645
                        -----------------------------------------
Magnitude (a.u.)       :      1.160235419
Magnitude (Debye)      :      2.949084067

Rotational constants in cm-1:             0.013128             0.009131             0.007069
Rotational constants in MHz :           393.574690           273.741236           211.932346

                             ****ORCA TERMINATED NORMALLY****
TOTAL RUN TIME: 0 days 0 hours 0 minutes 44 seconds 642 msec
