                         Program Version 6.0.1  -  RELEASE   -
|  1> ! pbe def2-sv(p) def2/J RI DEFGRID1 loosescf d4 GCP(DFT/SV(P)) printgap
|  2> %output
|  3>     printlevel normal
|  4> end
|  5> * xyz 0 1
|  6> C 5.8411033327 -2.9468808733 -0.7407302765
|  7> C 4.7616228578 -2.0907577569 -1.374160115
|  8> O 3.5571552796 -2.2403532454 -0.5950736235
|  9> C 2.6301128015 -1.3139442612 -0.6854665552
| 10> O 2.7045603408 -0.3345831796 -1.4011520804
| 11> C 1.4561818936 -1.6024666508 0.2264164143
| 12> C 0.33107217 -0.6439820234 -0.1130956943
| 13> H -0.0716159739 -0.8211652766 -1.1161546599
| 14> C 0.7263421414 0.8146812821 -0.0189373347
| 15> O 0.1646373716 1.6764628763 -0.6634108631
| 16> O 1.6477685269 1.0339756764 0.8912305076
| 17> C 2.0597636587 2.395976013 1.1248447774
| 18> C 1.0623716519 3.1304499431 2.0058853507
| 19> S -1.0573822892 -0.7929437443 1.060749425
| 20> P -2.4713025167 0.3508827871 -0.0511585125
| 21> S -2.4072261379 0.1587063549 -1.9954278932
| 22> O -3.8437429383 -0.1351483668 0.607821884
| 23> C -4.3639681656 -1.4451389422 0.3495612848
| 24> O -2.4156616777 1.8374539871 0.484852664
| 25> C -2.6956206491 2.14803061 1.8668428429
| 26> H 6.7507902201 -2.8661801555 -1.3262664556
| 27> H 6.0373567459 -2.6136066682 0.2738663354
| 28> H 5.5218524128 -3.9840998957 -0.7141154178
| 29> H 4.5424707887 -2.4112228716 -2.3970226725
| 30> H 5.0325982284 -1.0306607827 -1.3939084347
| 31> H 1.7806622028 -1.4611554791 1.2592984758
| 32> H 1.1403786787 -2.6381386581 0.1048643584
| 33> H 3.0303452657 2.297299567 1.6106858183
| 34> H 2.1663623588 2.8936100923 0.1567535687
| 35> H 0.1136099392 3.2293008929 1.4833104035
| 36> H 0.9088254541 2.585358799 2.9332860495
| 37> H 1.445380583 4.1205841135 2.2290005594
| 38> H -3.7959078679 -2.1835736966 0.914076577
| 39> H -4.3092796142 -1.6655080024 -0.7175464461
| 40> H -5.3988269576 -1.4189605186 0.6807121882
| 41> H -3.7498932836 1.9764671941 2.0731709938
| 42> H -2.4459825934 3.2000052858 1.9795449351
| 43> H -2.0815886558 1.5287791688 2.5217378262
| 44> *
| 45>
| 46>                          ****END OF INPUT****

CARTESIAN COORDINATES (ANGSTROEM)
---------------------------------
  C      5.841103   -2.946881   -0.740730
  C      4.761623   -2.090758   -1.374160
  O      3.557155   -2.240353   -0.595074
  C      2.630113   -1.313944   -0.685467
  O      2.704560   -0.334583   -1.401152
  C      1.456182   -1.602467    0.226416
  C      0.331072   -0.643982   -0.113096
  H     -0.071616   -0.821165   -1.116155
  C      0.726342    0.814681   -0.018937
  O      0.164637    1.676463   -0.663411
  O      1.647769    1.033976    0.891231
  C      2.059764    2.395976    1.124845
  C      1.062372    3.130450    2.005885
  S     -1.057382   -0.792944    1.060749
  P     -2.471303    0.350883   -0.051159
  S     -2.407226    0.158706   -1.995428
  O     -3.843743   -0.135148    0.607822
  C     -4.363968   -1.445139    0.349561
  O     -2.415662    1.837454    0.484853
  C     -2.695621    2.148031    1.866843
  H      6.750790   -2.866180   -1.326266
  H      6.037357   -2.613607    0.273866
  H      5.521852   -3.984100   -0.714115
  H      4.542471   -2.411223   -2.397023
  H      5.032598   -1.030661   -1.393908
  H      1.780662   -1.461155    1.259298
  H      1.140379   -2.638139    0.104864
  H      3.030345    2.297300    1.610686
  H      2.166362    2.893610    0.156754
  H      0.113610    3.229301    1.483310
  H      0.908825    2.585359    2.933286
  H      1.445381    4.120584    2.229001
  H     -3.795908   -2.183574    0.914077
  H     -4.309280   -1.665508   -0.717546
  H     -5.398827   -1.418961    0.680712
  H     -3.749893    1.976467    2.073171
  H     -2.445983    3.200005    1.979545
  H     -2.081589    1.528779    2.521738

 Total Charge           Charge          ....    0
 Multiplicity           Mult            ....    1
 Number of Electrons    NEL             ....  174
 Basis Dimension        Dim             ....  316

ORBITAL ENERGIES
----------------

  NO   OCC          E(Eh)            E(eV)
   0   2.0000     -88.041352     -2395.7270
   1   2.0000     -87.974856     -2393.9175
   2   2.0000     -76.419980     -2079.4934
   3   2.0000     -18.810645      -511.8637
   4   2.0000     -18.799183      -511.5518
   5   2.0000     -18.790840      -511.3248
   6   2.0000     -18.788429      -511.2591
   7   2.0000     -18.746649      -510.1223
   8   2.0000     -18.721546      -509.4392
   9   2.0000     -10.018223      -272.6097
  10   2.0000     -10.003673      -272.2138
  11   2.0000      -9.954950      -270.8880
  12   2.0000      -9.946531      -270.6589
  13   2.0000      -9.945670      -270.6354
  14   2.0000      -9.943339      -270.5720
  15   2.0000      -9.937390      -270.4101
  16   2.0000      -9.915375      -269.8111
  17   2.0000      -9.895227      -269.2628
  18   2.0000      -9.884431      -268.9690
  19   2.0000      -7.685706      -209.1387
  20   2.0000      -7.620183      -207.3557
  21   2.0000      -6.417235      -174.6218
  22   2.0000      -5.713206      -155.4642
  23   2.0000      -5.710334      -155.3861
  24   2.0000      -5.703073      -155.1885
  25   2.0000      -5.649366      -153.7271
  26   2.0000      -5.640608      -153.4888
  27   2.0000      -5.640220      -153.4782
  28   2.0000      -4.640114      -126.2639
  29   2.0000      -4.639102      -126.2364
  30   2.0000      -4.637359      -126.1890
  31   2.0000      -1.019319       -27.7371
  32   2.0000      -1.005817       -27.3697
  33   2.0000      -0.984375       -26.7862
  34   2.0000      -0.939308       -25.5599
  35   2.0000      -0.922958       -25.1150
  36   2.0000      -0.904591       -24.6152
  37   2.0000      -0.764541       -20.8042
  38   2.0000      -0.720590       -19.6082
  39   2.0000      -0.702058       -19.1040
  40   2.0000      -0.690547       -18.7907
  41   2.0000      -0.662329       -18.0229
  42   2.0000      -0.636018       -17.3069
  43   2.0000      -0.618048       -16.8179
  44   2.0000      -0.610639       -16.6163
  45   2.0000      -0.594029       -16.1644
  46   2.0000      -0.561548       -15.2805
  47   2.0000      -0.516506       -14.0548
  48   2.0000      -0.512389       -13.9428
  49   2.0000      -0.493178       -13.4201
  50   2.0000      -0.473220       -12.8770
  51   2.0000      -0.471277       -12.8241
  52   2.0000      -0.467089       -12.7101
  53   2.0000      -0.448645       -12.2083
  54   2.0000      -0.434443       -11.8218
  55   2.0000      -0.429079       -11.6758
  56   2.0000      -0.424558       -11.5528
  57   2.0000      -0.421532       -11.4705
  58   2.0000      -0.412942       -11.2367
  59   2.0000      -0.412238       -11.2176
  60   2.0000      -0.399948       -10.8831
  61   2.0000      -0.397808       -10.8249
  62   2.0000      -0.386540       -10.5183
  63   2.0000      -0.383592       -10.4381
  64   2.0000      -0.379320       -10.3218
  65   2.0000      -0.364780        -9.9262
  66   2.0000      -0.356313        -9.6958
  67   2.0000      -0.351619        -9.5680
  68   2.0000      -0.349077        -9.4989
  69   2.0000      -0.342957        -9.3323
  70   2.0000      -0.334414        -9.0999
  71   2.0000      -0.327937        -8.9236
  72   2.0000      -0.321835        -8.7576
  73   2.0000      -0.311109        -8.4657
  74   2.0000      -0.305600        -8.3158
  75   2.0000      -0.300399        -8.1743
  76   2.0000      -0.295177        -8.0322
  77   2.0000      -0.290763        -7.9121
  78   2.0000      -0.269711        -7.3392
  79   2.0000      -0.268295        -7.3007
  80   2.0000      -0.258286        -7.0283
  81   2.0000      -0.248960        -6.7746
  82   2.0000      -0.232412        -6.3243
  83   2.0000      -0.230227        -6.2648
  84   2.0000      -0.215641        -5.8679
  85   2.0000      -0.193800        -5.2736
  86   2.0000      -0.183696        -4.9986
  87   0.0000      -0.044910        -1.2221
  88   0.0000      -0.028561        -0.7772
  89   0.0000      -0.009434        -0.2567
  90   0.0000       0.019262         0.5241
  91   0.0000       0.021423         0.5830

MULLIKEN ATOMIC CHARGES
-----------------------
   0 C :   -0.277329
   1 C :   -0.030693
   2 O :   -0.229347
   3 C :    0.118738
   4 O :   -0.199854
   5 C :   -0.038924
   6 C :   -0.340359
   7 H :    0.156774
   8 C :    0.208231
   9 O :   -0.183223
  10 O :   -0.240428
  11 C :   -0.001884
  12 C :   -0.329397
  13 S :   -0.118502
  14 P :    0.617562
  15 S :   -0.284175
  16 O :   -0.394927
  17 C :   -0.099638
  18 O :   -0.355024
  19 C :   -0.110973
  20 H :    0.114768
  21 H :    0.115856
  22 H :    0.117307
  23 H :    0.110996
  24 H :    0.114949
  25 H :    0.122815
  26 H :    0.120112
  27 H :    0.097054
  28 H :    0.115319
  29 H :    0.148006
  30 H :    0.109483
  31 H :    0.110940
  32 H :    0.113992
  33 H :    0.118922
  34 H :    0.124467
  35 H :    0.128097
  36 H :    0.136326
  37 H :    0.113966
Sum of atomic charges:   -0.0000000

LOEWDIN ATOMIC CHARGES
----------------------
   0 C :   -0.350442
   1 C :   -0.105865
   2 O :   -0.058998
   3 C :    0.040121
   4 O :   -0.152127
   5 C :   -0.255808
   6 C :   -0.265844
   7 H :    0.138345
   8 C :    0.000017
   9 O :   -0.155783
  10 O :   -0.058219
  11 C :   -0.104508
  12 C :   -0.361643
  13 S :    0.087845
  14 P :    0.577335
  15 S :   -0.286832
  16 O :   -0.261000
  17 C :   -0.216290
  18 O :   -0.232130
  19 C :   -0.211162
  20 H :    0.132153
  21 H :    0.127088
  22 H :    0.127749
  23 H :    0.119538
  24 H :    0.120127
  25 H :    0.146559
  26 H :    0.143540
  27 H :    0.115477
  28 H :    0.124778
  29 H :    0.133354
  30 H :    0.122096
  31 H :    0.130016
  32 H :    0.108932
  33 H :    0.111828
  34 H :    0.122062
  35 H :    0.116839
  36 H :    0.124262
  37 H :    0.106591

  Mayer bond orders larger than 0.100000
B(  0-C ,  1-C ) :   1.1564 B(  0-C , 20-H ) :   0.9437 B(  0-C , 21-H ) :   0.9517
B(  0-C , 22-H ) :   0.9482 B(  1-C ,  2-O ) :   0.8999 B(  1-C , 23-H ) :   0.9359
B(  1-C , 24-H ) :   0.9228 B(  2-O ,  3-C ) :   1.2482 B(  3-C ,  4-O ) :   2.0214
B(  3-C ,  5-C ) :   1.0192 B(  5-C ,  6-C ) :   1.0339 B(  5-C , 25-H ) :   0.8693
B(  5-C , 26-H ) :   0.8906 B(  6-C ,  7-H ) :   0.8567 B(  6-C ,  8-C ) :   0.8989
B(  6-C , 13-S ) :   1.0265 B(  8-C ,  9-O ) :   2.0178 B(  8-C , 10-O ) :   1.2257
B( 10-O , 11-C ) :   0.9168 B( 11-C , 12-C ) :   1.1737 B( 11-C , 27-H ) :   0.9390
B( 11-C , 28-H ) :   0.9174 B( 12-C , 29-H ) :   0.9321 B( 12-C , 30-H ) :   0.9465
B( 12-C , 31-H ) :   0.9419 B( 13-S , 14-P ) :   0.9360 B( 13-S , 15-S ) :   0.1155
B( 14-P , 15-S ) :   1.6756 B( 14-P , 16-O ) :   1.0600 B( 14-P , 18-O ) :   1.1218
B( 16-O , 17-C ) :   0.9312 B( 17-C , 32-H ) :   0.9495 B( 17-C , 33-H ) :   0.9317
B( 17-C , 34-H ) :   0.9587 B( 18-O , 19-C ) :   0.9180 B( 19-C , 35-H ) :   0.9480
B( 19-C , 36-H ) :   0.9517 B( 19-C , 37-H ) :   0.9364

Dispersion correction           -0.050549851
FINAL SINGLE POINT ENERGY     -1979.016400761896

DIPOLE MOMENT
-------------

Method             : SCF
Type of density    : Electron Density
Multiplicity       :   1
Irrep              :   0
Energy             : -1979.1483528663925426 Eh
Relativity type    :
Basis              : AO
                                X                 Y                 Z
Electronic contribution:    -16.949675213       0.579603933      -8.170578711
Nuclear contribution   :     17.925394455      -1.452723050       9.965434929
                        -----------------------------------------
Total Dipole Moment    :      0.975719243      -0.873119118       1.794856217
                        -----------------------------------------
Magnitude (a.u.)       :      2.221682668
Magnitude (Debye)      :      5.647068561

Rotational constants in cm-1:             0.015714             0.005581             0.004791
Rotational constants in MHz :           471.104258           167.310967           143.623254

                             ****ORCA TERMINATED NORMALLY****
TOTAL RUN TIME: 0 days 0 hours 0 minutes 28 seconds 175 msec
