                         Program Version 6.0.0  -   RELEASE  -
|  1> ! pbe def2-sv(p) def2/J RI DEFGRID1 loosescf d4 GCP(DFT/SV(P)) printgap
|  2> %output
|  3>     printlevel normal
|  4> end
|  5> * xyz 0 1
|  6> C 1.1784259692 -2.5492552592 -1.7393485121
|  7> C 2.4643542475 -2.6321240619 -0.9417442346
|  8> O 2.5043736366 -1.6431170899 0.1012884547
|  9> P 2.8078357897 -0.1193968951 -0.2109812003
| 10> S 3.9349113885 0.1900461334 -1.7818820611
| 11> O 3.3958150372 0.208584463 1.2293339689
| 12> C 3.5395474072 1.5282969139 1.780384409
| 13> C 4.3192913893 2.4645530843 0.879679674
| 14> S 0.9209845379 0.8819950433 -0.2291307979
| 15> C 0.1912680134 0.0651670005 1.23196779
| 16> S -1.1225294976 -1.0937706679 0.7943547884
| 17> P -2.5461256625 0.3991099007 0.2528213424
| 18> S -2.591972241 1.9796860456 1.4015709384
| 19> O -3.9092069359 -0.4062835814 0.1126486142
| 20> C -4.7962260154 -0.6290041463 1.2246305907
| 21> C -4.1837729846 -1.524332965 2.2819130726
| 22> O -2.2007054902 0.7777210311 -1.2379558249
| 23> C -2.0997537314 -0.1761140866 -2.3228223522
| 24> C -3.4037236988 -0.2651757829 -3.0880305423
| 25> H 1.1226750957 -1.5850274569 -2.2445851284
| 26> H 1.1655527135 -3.3379545121 -2.4844032982
| 27> H 0.3208135218 -2.6599263992 -1.0800301828
| 28> H 3.3325457403 -2.4888371974 -1.5934856947
| 29> H 2.5496783979 -3.5807827757 -0.410582443
| 30> H 2.5432951673 1.9350584904 1.9819685063
| 31> H 4.0621958431 1.3563027811 2.7232023008
| 32> H 5.278797581 2.0254383853 0.6166363862
| 33> H 3.763739281 2.6540961882 -0.0384281317
| 34> H 4.4830119416 3.4062841405 1.3939168903
| 35> H -0.2361155983 0.8475151579 1.8607151661
| 36> H 0.9592518042 -0.5004907177 1.7544128618
| 37> H -5.0638964946 0.3426229808 1.6507030893
| 38> H -5.6741704798 -1.0880739994 0.767972081
| 39> H -3.807049364 -2.4397012677 1.8324337886
| 40> H -3.3617834474 -1.0097159727 2.7768681839
| 41> H -4.9386642581 -1.7701087391 3.0219139304
| 42> H -1.293848966 0.2125683516 -2.948832367
| 43> H -1.8150479248 -1.1502762986 -1.9154920291
| 44> H -3.269769386 -0.9262761022 -3.9385289313
| 45> H -4.1904026296 -0.6561833348 -2.4484819902
| 46> H -3.6954883674 0.71985173 -3.4419022702
| 47> *
| 48>
| 49>                          ****END OF INPUT****

CARTESIAN COORDINATES (ANGSTROEM)
---------------------------------
  C      1.178426   -2.549255   -1.739349
  C      2.464354   -2.632124   -0.941744
  O      2.504374   -1.643117    0.101288
  P      2.807836   -0.119397   -0.210981
  S      3.934911    0.190046   -1.781882
  O      3.395815    0.208584    1.229334
  C      3.539547    1.528297    1.780384
  C      4.319291    2.464553    0.879680
  S      0.920985    0.881995   -0.229131
  C      0.191268    0.065167    1.231968
  S     -1.122529   -1.093771    0.794355
  P     -2.546126    0.399110    0.252821
  S     -2.591972    1.979686    1.401571
  O     -3.909207   -0.406284    0.112649
  C     -4.796226   -0.629004    1.224631
  C     -4.183773   -1.524333    2.281913
  O     -2.200705    0.777721   -1.237956
  C     -2.099754   -0.176114   -2.322822
  C     -3.403724   -0.265176   -3.088031
  H      1.122675   -1.585027   -2.244585
  H      1.165553   -3.337955   -2.484403
  H      0.320814   -2.659926   -1.080030
  H      3.332546   -2.488837   -1.593486
  H      2.549678   -3.580783   -0.410582
  H      2.543295    1.935058    1.981969
  H      4.062196    1.356303    2.723202
  H      5.278798    2.025438    0.616636
  H      3.763739    2.654096   -0.038428
  H      4.483012    3.406284    1.393917
  H     -0.236116    0.847515    1.860715
  H      0.959252   -0.500491    1.754413
  H     -5.063896    0.342623    1.650703
  H     -5.674170   -1.088074    0.767972
  H     -3.807049   -2.439701    1.832434
  H     -3.361783   -1.009716    2.776868
  H     -4.938664   -1.770109    3.021914
  H     -1.293849    0.212568   -2.948832
  H     -1.815048   -1.150276   -1.915492
  H     -3.269769   -0.926276   -3.938529
  H     -4.190403   -0.656183   -2.448482
  H     -3.695488    0.719852   -3.441902

 Total Charge           Charge          ....    0
 Multiplicity           Mult            ....    1
 Number of Electrons    NEL             ....  202
 Basis Dimension        Dim             ....  334

ORBITAL ENERGIES
----------------

  NO   OCC          E(Eh)            E(eV)
   0   2.0000     -88.049617     -2395.9519
   1   2.0000     -88.044574     -2395.8147
   2   2.0000     -87.991953     -2394.3828
   3   2.0000     -87.987349     -2394.2575
   4   2.0000     -76.432385     -2079.8309
   5   2.0000     -76.427645     -2079.7019
   6   2.0000     -18.803041      -511.6568
   7   2.0000     -18.797083      -511.4946
   8   2.0000     -18.792201      -511.3618
   9   2.0000     -18.791805      -511.3510
  10   2.0000      -9.960535      -271.0399
  11   2.0000      -9.958242      -270.9775
  12   2.0000      -9.957490      -270.9571
  13   2.0000      -9.956478      -270.9295
  14   2.0000      -9.951344      -270.7898
  15   2.0000      -9.890606      -269.1371
  16   2.0000      -9.888349      -269.0757
  17   2.0000      -9.883029      -268.9309
  18   2.0000      -9.881586      -268.8916
  19   2.0000      -7.694321      -209.3731
  20   2.0000      -7.689017      -209.2288
  21   2.0000      -7.637196      -207.8187
  22   2.0000      -7.632520      -207.6914
  23   2.0000      -6.430014      -174.9696
  24   2.0000      -6.424757      -174.8265
  25   2.0000      -5.721935      -155.7018
  26   2.0000      -5.718942      -155.6203
  27   2.0000      -5.717077      -155.5696
  28   2.0000      -5.713357      -155.4683
  29   2.0000      -5.711480      -155.4173
  30   2.0000      -5.706126      -155.2716
  31   2.0000      -5.666150      -154.1838
  32   2.0000      -5.661606      -154.0601
  33   2.0000      -5.657745      -153.9551
  34   2.0000      -5.657366      -153.9447
  35   2.0000      -5.652977      -153.8253
  36   2.0000      -5.652697      -153.8177
  37   2.0000      -4.652933      -126.6127
  38   2.0000      -4.651673      -126.5785
  39   2.0000      -4.650239      -126.5394
  40   2.0000      -4.647171      -126.4559
  41   2.0000      -4.647099      -126.4540
  42   2.0000      -4.644891      -126.3939
  43   2.0000      -0.994931       -27.0734
  44   2.0000      -0.990131       -26.9428
  45   2.0000      -0.952446       -25.9174
  46   2.0000      -0.946084       -25.7442
  47   2.0000      -0.766241       -20.8505
  48   2.0000      -0.723976       -19.7004
  49   2.0000      -0.713875       -19.4255
  50   2.0000      -0.695908       -18.9366
  51   2.0000      -0.683488       -18.5987
  52   2.0000      -0.680418       -18.5151
  53   2.0000      -0.657414       -17.8891
  54   2.0000      -0.642258       -17.4767
  55   2.0000      -0.601666       -16.3722
  56   2.0000      -0.596935       -16.2434
  57   2.0000      -0.579643       -15.7729
  58   2.0000      -0.571399       -15.5486
  59   2.0000      -0.564921       -15.3723
  60   2.0000      -0.505183       -13.7467
  61   2.0000      -0.498056       -13.5528
  62   2.0000      -0.481195       -13.0940
  63   2.0000      -0.469400       -12.7730
  64   2.0000      -0.459622       -12.5070
  65   2.0000      -0.452668       -12.3177
  66   2.0000      -0.446225       -12.1424
  67   2.0000      -0.436086       -11.8665
  68   2.0000      -0.431240       -11.7346
  69   2.0000      -0.422864       -11.5067
  70   2.0000      -0.418207       -11.3800
  71   2.0000      -0.404368       -11.0034
  72   2.0000      -0.397813       -10.8250
  73   2.0000      -0.392786       -10.6883
  74   2.0000      -0.384651       -10.4669
  75   2.0000      -0.373470       -10.1626
  76   2.0000      -0.367260        -9.9937
  77   2.0000      -0.364761        -9.9256
  78   2.0000      -0.356492        -9.7006
  79   2.0000      -0.353109        -9.6086
  80   2.0000      -0.349707        -9.5160
  81   2.0000      -0.349132        -9.5004
  82   2.0000      -0.344884        -9.3848
  83   2.0000      -0.342269        -9.3136
  84   2.0000      -0.333536        -9.0760
  85   2.0000      -0.321222        -8.7409
  86   2.0000      -0.317884        -8.6501
  87   2.0000      -0.302617        -8.2346
  88   2.0000      -0.301240        -8.1972
  89   2.0000      -0.297363        -8.0917
  90   2.0000      -0.287878        -7.8336
  91   2.0000      -0.277228        -7.5438
  92   2.0000      -0.273958        -7.4548
  93   2.0000      -0.268773        -7.3137
  94   2.0000      -0.259092        -7.0502
  95   2.0000      -0.238696        -6.4952
  96   2.0000      -0.223968        -6.0945
  97   2.0000      -0.212770        -5.7898
  98   2.0000      -0.208130        -5.6635
  99   2.0000      -0.204642        -5.5686
 100   2.0000      -0.201915        -5.4944
 101   0.0000      -0.043483        -1.1832
 102   0.0000      -0.034092        -0.9277
 103   0.0000      -0.019299        -0.5251
 104   0.0000       0.002700         0.0735
 105   0.0000       0.012034         0.3274

MULLIKEN ATOMIC CHARGES
-----------------------
   0 C :   -0.336322
   1 C :   -0.003623
   2 O :   -0.365110
   3 P :    0.569451
   4 S :   -0.311809
   5 O :   -0.363847
   6 C :   -0.007126
   7 C :   -0.312413
   8 S :   -0.072011
   9 C :   -0.371605
  10 S :   -0.091278
  11 P :    0.599792
  12 S :   -0.307938
  13 O :   -0.380976
  14 C :   -0.001173
  15 C :   -0.320543
  16 O :   -0.348494
  17 C :   -0.025301
  18 C :   -0.286991
  19 H :    0.126804
  20 H :    0.108827
  21 H :    0.132632
  22 H :    0.115270
  23 H :    0.105219
  24 H :    0.108728
  25 H :    0.109006
  26 H :    0.126830
  27 H :    0.127649
  28 H :    0.112097
  29 H :    0.196955
  30 H :    0.197307
  31 H :    0.115954
  32 H :    0.107286
  33 H :    0.117610
  34 H :    0.130170
  35 H :    0.117007
  36 H :    0.120259
  37 H :    0.110128
  38 H :    0.110703
  39 H :    0.119505
  40 H :    0.121372
Sum of atomic charges:   -0.0000000

LOEWDIN ATOMIC CHARGES
----------------------
   0 C :   -0.373671
   1 C :   -0.120601
   2 O :   -0.237877
   3 P :    0.564973
   4 S :   -0.311912
   5 O :   -0.239968
   6 C :   -0.117200
   7 C :   -0.368688
   8 S :    0.079165
   9 C :   -0.485549
  10 S :    0.091421
  11 P :    0.569787
  12 S :   -0.305245
  13 O :   -0.246133
  14 C :   -0.115640
  15 C :   -0.371388
  16 O :   -0.230904
  17 C :   -0.116289
  18 C :   -0.359011
  19 H :    0.121258
  20 H :    0.129345
  21 H :    0.115184
  22 H :    0.109851
  23 H :    0.118749
  24 H :    0.107283
  25 H :    0.121121
  26 H :    0.129834
  27 H :    0.122238
  28 H :    0.130435
  29 H :    0.126437
  30 H :    0.136404
  31 H :    0.114784
  32 H :    0.119562
  33 H :    0.123368
  34 H :    0.122270
  35 H :    0.133135
  36 H :    0.123429
  37 H :    0.105106
  38 H :    0.130232
  39 H :    0.125121
  40 H :    0.129582

  Mayer bond orders larger than 0.100000
B(  0-C ,  1-C ) :   1.1630 B(  0-C , 19-H ) :   0.9365 B(  0-C , 20-H ) :   0.9373
B(  0-C , 21-H ) :   0.9298 B(  1-C ,  2-O ) :   0.9088 B(  1-C , 22-H ) :   0.9100
B(  1-C , 23-H ) :   0.9330 B(  2-O ,  3-P ) :   1.0948 B(  3-P ,  4-S ) :   1.6482
B(  3-P ,  5-O ) :   1.0948 B(  3-P ,  8-S ) :   0.9698 B(  5-O ,  6-C ) :   0.9161
B(  6-C ,  7-C ) :   1.1677 B(  6-C , 24-H ) :   0.9198 B(  6-C , 25-H ) :   0.9334
B(  7-C , 26-H ) :   0.9435 B(  7-C , 27-H ) :   0.9346 B(  7-C , 28-H ) :   0.9354
B(  8-S ,  9-C ) :   0.9659 B(  9-C , 10-S ) :   1.0088 B(  9-C , 29-H ) :   0.8651
B(  9-C , 30-H ) :   0.8866 B( 10-S , 11-P ) :   0.9462 B( 10-S , 12-S ) :   0.1079
B( 11-P , 12-S ) :   1.6381 B( 11-P , 13-O ) :   1.0891 B( 11-P , 16-O ) :   1.1474
B( 13-O , 14-C ) :   0.9024 B( 14-C , 15-C ) :   1.1662 B( 14-C , 31-H ) :   0.9190
B( 14-C , 32-H ) :   0.9339 B( 15-C , 33-H ) :   0.9437 B( 15-C , 34-H ) :   0.9346
B( 15-C , 35-H ) :   0.9367 B( 16-O , 17-C ) :   0.8891 B( 17-C , 18-C ) :   1.1616
B( 17-C , 36-H ) :   0.9325 B( 17-C , 37-H ) :   0.9103 B( 18-C , 38-H ) :   0.9399
B( 18-C , 39-H ) :   0.9418 B( 18-C , 40-H ) :   0.9467

Dispersion correction           -0.064497887
FINAL SINGLE POINT ENERGY     -2929.519278021592

DIPOLE MOMENT
-------------

Method             : SCF
Type of density    : Electron Density
Multiplicity       :   1
Irrep              :   0
Energy             : -2929.6405154756903357 Eh
Relativity type    :
Basis              : AO
                                X                 Y                 Z
Electronic contribution:      6.618167856       8.171569551       2.427777447
Nuclear contribution   :     -7.554589286      -9.416624817      -2.069908902
                        -----------------------------------------
Total Dipole Moment    :     -0.936421430      -1.245055266       0.357868545
                        -----------------------------------------
Magnitude (a.u.)       :      1.598473523
Magnitude (Debye)      :      4.062996804

Rotational constants in cm-1:             0.012697             0.004498             0.004113
Rotational constants in MHz :           380.639661           134.851318           123.304991

                             ****ORCA TERMINATED NORMALLY****
TOTAL RUN TIME: 0 days 0 hours 0 minutes 21 seconds 54 msec
