                         Program Version 6.0.1  -  RELEASE   -
|  1> ! pbe def2-sv(p) def2/J RI DEFGRID1 loosescf d4 GCP(DFT/SV(P)) printgap
|  2> %output
|  3>     printlevel normal
|  4> end
|  5> * xyz 0 1
|  6> C 4.843563349 -3.0065812476 -0.822006377
|  7> C 4.4333940011 -1.544662134 -0.7488773993
|  8> O 3.1423489558 -1.3484569633 -1.3605911919
|  9> C 2.0647470009 -1.4130392768 -0.6155125534
| 10> O 2.0542137844 -1.5967948313 0.5840652714
| 11> C 0.8064800207 -1.1597481791 -1.4271148119
| 12> C 0.4967386023 0.3457357672 -1.3918111997
| 13> H 1.0892442106 0.8913164806 -2.1264451956
| 14> C 0.7462149435 0.9049750022 -0.0089817658
| 15> O -0.0583044883 0.739929671 0.8907140721
| 16> O 1.8620526539 1.5621161343 0.085668364
| 17> C 2.2403345913 2.1286430496 1.3646302691
| 18> C 3.267556165 1.2417532694 2.0466752533
| 19> S -1.259046029 0.6702079567 -1.7672323614
| 20> P -2.2668454329 0.3481067356 0.081169981
| 21> S -2.6883621993 1.7331417338 1.4181940603
| 22> O -3.5778123982 0.0280501391 -0.7992334984
| 23> C -4.8742825676 -0.1256272922 -0.2206160533
| 24> O -1.9846345314 -1.1278591481 0.6457117079
| 25> C -1.3718707807 -1.4311093225 1.8982980639
| 26> H 4.8332199639 -3.3474242913 -1.8533755405
| 27> H 5.8442980267 -3.118371808 -0.41813391
| 28> H 4.1583334658 -3.6185206613 -0.2397461042
| 29> H 5.1088856081 -0.9132490576 -1.3260819174
| 30> H 4.3844919698 -1.2066644421 0.2895469167
| 31> H -0.0155100871 -1.7136438464 -0.9711624343
| 32> H 0.9454128555 -1.4767881442 -2.4582604298
| 33> H 2.6561167259 3.1064199388 1.1193060804
| 34> H 1.3406632695 2.2385255833 1.9754427151
| 35> H 3.5067000198 1.6576707925 3.0195640832
| 36> H 2.8658700856 0.2388065235 2.1801572601
| 37> H 4.1725378616 1.1870120442 1.4480524374
| 38> H -5.0282456202 0.6198475286 0.5632171613
| 39> H -4.9771541094 -1.1269234887 0.1965823222
| 40> H -5.5819071312 0.0263362642 -1.0319808295
| 41> H -1.8766226251 -2.3196102024 2.2711443206
| 42> H -1.5007145535 -0.598204094 2.5909563124
| 43> H -0.3084081512 -1.624650772 1.7537328666
| 44> *
| 45>
| 46>                          ****END OF INPUT****

CARTESIAN COORDINATES (ANGSTROEM)
---------------------------------
  C      4.843563   -3.006581   -0.822006
  C      4.433394   -1.544662   -0.748877
  O      3.142349   -1.348457   -1.360591
  C      2.064747   -1.413039   -0.615513
  O      2.054214   -1.596795    0.584065
  C      0.806480   -1.159748   -1.427115
  C      0.496739    0.345736   -1.391811
  H      1.089244    0.891316   -2.126445
  C      0.746215    0.904975   -0.008982
  O     -0.058304    0.739930    0.890714
  O      1.862053    1.562116    0.085668
  C      2.240335    2.128643    1.364630
  C      3.267556    1.241753    2.046675
  S     -1.259046    0.670208   -1.767232
  P     -2.266845    0.348107    0.081170
  S     -2.688362    1.733142    1.418194
  O     -3.577812    0.028050   -0.799233
  C     -4.874283   -0.125627   -0.220616
  O     -1.984635   -1.127859    0.645712
  C     -1.371871   -1.431109    1.898298
  H      4.833220   -3.347424   -1.853376
  H      5.844298   -3.118372   -0.418134
  H      4.158333   -3.618521   -0.239746
  H      5.108886   -0.913249   -1.326082
  H      4.384492   -1.206664    0.289547
  H     -0.015510   -1.713644   -0.971162
  H      0.945413   -1.476788   -2.458260
  H      2.656117    3.106420    1.119306
  H      1.340663    2.238526    1.975443
  H      3.506700    1.657671    3.019564
  H      2.865870    0.238807    2.180157
  H      4.172538    1.187012    1.448052
  H     -5.028246    0.619848    0.563217
  H     -4.977154   -1.126923    0.196582
  H     -5.581907    0.026336   -1.031981
  H     -1.876623   -2.319610    2.271144
  H     -1.500715   -0.598204    2.590956
  H     -0.308408   -1.624651    1.753733

 Total Charge           Charge          ....    0
 Multiplicity           Mult            ....    1
 Number of Electrons    NEL             ....  174
 Basis Dimension        Dim             ....  316

ORBITAL ENERGIES
----------------

  NO   OCC          E(Eh)            E(eV)
   0   2.0000     -88.032724     -2395.4922
   1   2.0000     -87.958871     -2393.4826
   2   2.0000     -76.412324     -2079.2851
   3   2.0000     -18.828964      -512.3622
   4   2.0000     -18.821847      -512.1685
   5   2.0000     -18.776259      -510.9280
   6   2.0000     -18.768681      -510.7218
   7   2.0000     -18.763064      -510.5689
   8   2.0000     -18.757074      -510.4059
   9   2.0000     -10.033989      -273.0387
  10   2.0000     -10.027130      -272.8521
  11   2.0000      -9.963350      -271.1165
  12   2.0000      -9.960249      -271.0322
  13   2.0000      -9.956098      -270.9192
  14   2.0000      -9.923180      -270.0235
  15   2.0000      -9.922896      -270.0157
  16   2.0000      -9.918353      -269.8921
  17   2.0000      -9.900872      -269.4164
  18   2.0000      -9.895673      -269.2750
  19   2.0000      -7.677729      -208.9216
  20   2.0000      -7.604182      -206.9203
  21   2.0000      -6.407598      -174.3596
  22   2.0000      -5.706262      -155.2753
  23   2.0000      -5.702113      -155.1624
  24   2.0000      -5.694153      -154.9458
  25   2.0000      -5.633407      -153.2928
  26   2.0000      -5.624960      -153.0630
  27   2.0000      -5.623851      -153.0328
  28   2.0000      -4.630534      -126.0032
  29   2.0000      -4.629666      -125.9796
  30   2.0000      -4.627948      -125.9329
  31   2.0000      -1.039786       -28.2940
  32   2.0000      -1.029359       -28.0103
  33   2.0000      -0.962761       -26.1981
  34   2.0000      -0.945595       -25.7309
  35   2.0000      -0.934109       -25.4184
  36   2.0000      -0.918625       -24.9971
  37   2.0000      -0.771863       -21.0035
  38   2.0000      -0.724912       -19.7258
  39   2.0000      -0.716939       -19.5089
  40   2.0000      -0.688636       -18.7388
  41   2.0000      -0.654963       -17.8225
  42   2.0000      -0.626362       -17.0442
  43   2.0000      -0.612453       -16.6657
  44   2.0000      -0.608480       -16.5576
  45   2.0000      -0.606019       -16.4906
  46   2.0000      -0.567814       -15.4510
  47   2.0000      -0.517581       -14.0841
  48   2.0000      -0.515900       -14.0384
  49   2.0000      -0.503604       -13.7038
  50   2.0000      -0.486121       -13.2280
  51   2.0000      -0.470344       -12.7987
  52   2.0000      -0.467579       -12.7235
  53   2.0000      -0.457203       -12.4411
  54   2.0000      -0.448124       -12.1941
  55   2.0000      -0.436235       -11.8706
  56   2.0000      -0.427952       -11.6452
  57   2.0000      -0.421396       -11.4668
  58   2.0000      -0.410856       -11.1800
  59   2.0000      -0.405254       -11.0275
  60   2.0000      -0.402347       -10.9484
  61   2.0000      -0.397421       -10.8144
  62   2.0000      -0.394018       -10.7218
  63   2.0000      -0.384183       -10.4542
  64   2.0000      -0.380899       -10.3648
  65   2.0000      -0.374707       -10.1963
  66   2.0000      -0.370372       -10.0783
  67   2.0000      -0.357416        -9.7258
  68   2.0000      -0.353010        -9.6059
  69   2.0000      -0.349762        -9.5175
  70   2.0000      -0.340670        -9.2701
  71   2.0000      -0.337989        -9.1971
  72   2.0000      -0.329913        -8.9774
  73   2.0000      -0.313363        -8.5270
  74   2.0000      -0.312714        -8.5094
  75   2.0000      -0.298814        -8.1311
  76   2.0000      -0.288512        -7.8508
  77   2.0000      -0.282801        -7.6954
  78   2.0000      -0.277734        -7.5575
  79   2.0000      -0.265215        -7.2169
  80   2.0000      -0.259964        -7.0740
  81   2.0000      -0.255260        -6.9460
  82   2.0000      -0.243257        -6.6194
  83   2.0000      -0.237194        -6.4544
  84   2.0000      -0.213158        -5.8003
  85   2.0000      -0.179401        -4.8818
  86   2.0000      -0.172358        -4.6901
  87   0.0000      -0.057823        -1.5734
  88   0.0000      -0.045928        -1.2498
  89   0.0000      -0.024780        -0.6743
  90   0.0000       0.013817         0.3760
  91   0.0000       0.028390         0.7725

MULLIKEN ATOMIC CHARGES
-----------------------
   0 C :   -0.299149
   1 C :   -0.033800
   2 O :   -0.218924
   3 C :    0.101168
   4 O :   -0.208998
   5 C :   -0.015398
   6 C :   -0.327317
   7 H :    0.138024
   8 C :    0.222332
   9 O :   -0.195509
  10 O :   -0.216490
  11 C :   -0.029124
  12 C :   -0.323187
  13 S :   -0.057642
  14 P :    0.651898
  15 S :   -0.344060
  16 O :   -0.401973
  17 C :   -0.095467
  18 O :   -0.395032
  19 C :   -0.112655
  20 H :    0.119400
  21 H :    0.118053
  22 H :    0.126329
  23 H :    0.109091
  24 H :    0.119851
  25 H :    0.133885
  26 H :    0.113875
  27 H :    0.113369
  28 H :    0.134852
  29 H :    0.118987
  30 H :    0.152565
  31 H :    0.115680
  32 H :    0.113081
  33 H :    0.104368
  34 H :    0.115462
  35 H :    0.111050
  36 H :    0.116659
  37 H :    0.124747
Sum of atomic charges:   -0.0000000

LOEWDIN ATOMIC CHARGES
----------------------
   0 C :   -0.353084
   1 C :   -0.112276
   2 O :   -0.048883
   3 C :    0.029005
   4 O :   -0.165329
   5 C :   -0.243449
   6 C :   -0.262439
   7 H :    0.143072
   8 C :    0.022713
   9 O :   -0.139124
  10 O :   -0.031231
  11 C :   -0.104917
  12 C :   -0.359235
  13 S :    0.125067
  14 P :    0.586628
  15 S :   -0.340688
  16 O :   -0.276219
  17 C :   -0.218177
  18 O :   -0.257713
  19 C :   -0.224477
  20 H :    0.127503
  21 H :    0.133354
  22 H :    0.131245
  23 H :    0.120918
  24 H :    0.121636
  25 H :    0.145070
  26 H :    0.140198
  27 H :    0.122752
  28 H :    0.130847
  29 H :    0.134216
  30 H :    0.136310
  31 H :    0.122019
  32 H :    0.105154
  33 H :    0.108454
  34 H :    0.117332
  35 H :    0.114061
  36 H :    0.109350
  37 H :    0.110340

  Mayer bond orders larger than 0.100000
B(  0-C ,  1-C ) :   1.1742 B(  0-C , 20-H ) :   0.9483 B(  0-C , 21-H ) :   0.9438
B(  0-C , 22-H ) :   0.9470 B(  1-C ,  2-O ) :   0.9046 B(  1-C , 23-H ) :   0.9360
B(  1-C , 24-H ) :   0.9064 B(  2-O ,  3-C ) :   1.2547 B(  3-C ,  4-O ) :   1.9345
B(  3-C ,  5-C ) :   1.0158 B(  5-C ,  6-C ) :   1.0153 B(  5-C , 25-H ) :   0.8751
B(  5-C , 26-H ) :   0.9013 B(  6-C ,  7-H ) :   0.8776 B(  6-C ,  8-C ) :   0.9187
B(  6-C , 13-S ) :   1.0351 B(  8-C ,  9-O ) :   1.8558 B(  8-C , 10-O ) :   1.2743
B(  9-O , 14-P ) :   0.1709 B( 10-O , 11-C ) :   0.8889 B( 11-C , 12-C ) :   1.1781
B( 11-C , 27-H ) :   0.9353 B( 11-C , 28-H ) :   0.9087 B( 12-C , 29-H ) :   0.9396
B( 12-C , 30-H ) :   0.9304 B( 12-C , 31-H ) :   0.9437 B( 13-S , 14-P ) :   0.9140
B( 14-P , 15-S ) :   1.5803 B( 14-P , 16-O ) :   1.0507 B( 14-P , 18-O ) :   1.0637
B( 16-O , 17-C ) :   0.9430 B( 17-C , 32-H ) :   0.9259 B( 17-C , 33-H ) :   0.9532
B( 17-C , 34-H ) :   0.9605 B( 18-O , 19-C ) :   0.9237 B( 19-C , 35-H ) :   0.9533
B( 19-C , 36-H ) :   0.9321 B( 19-C , 37-H ) :   0.9353

Dispersion correction           -0.052599393
FINAL SINGLE POINT ENERGY     -1979.004837624286

DIPOLE MOMENT
-------------

Method             : SCF
Type of density    : Electron Density
Multiplicity       :   1
Irrep              :   0
Energy             : -1979.1381368914535415 Eh
Relativity type    :
Basis              : AO
                                X                 Y                 Z
Electronic contribution:    -20.032456679      10.031798586      -6.810700938
Nuclear contribution   :     22.441656782     -10.818357877       6.489060824
                        -----------------------------------------
Total Dipole Moment    :      2.409200103      -0.786559290      -0.321640114
                        -----------------------------------------
Magnitude (a.u.)       :      2.554676695
Magnitude (Debye)      :      6.493472113

Rotational constants in cm-1:             0.017409             0.006071             0.005481
Rotational constants in MHz :           521.903637           181.996710           164.313297

                             ****ORCA TERMINATED NORMALLY****
TOTAL RUN TIME: 0 days 0 hours 0 minutes 43 seconds 409 msec
