                         Program Version 6.0.0  -   RELEASE  -
|  1> ! r2scan-3c def2/J RI DEFGRID2 scfconv6 printgap
|  2> %output
|  3>     printlevel normal
|  4> end
|  5> * xyz 0 1
|  6> C 5.7282845358 -1.1844345939 -0.1796051547
|  7> C 4.524545808 -1.416221219 0.7131369482
|  8> O 3.69383382 -0.237834004 0.76682027
|  9> P 2.4095522054 -0.0601539087 -0.1569491691
| 10> S 2.6880895968 -0.3640045426 -2.0782331935
| 11> O 1.9446240593 1.3884494392 0.2749789978
| 12> C 2.3433578107 2.580590128 -0.4408518762
| 13> C 1.2360582961 3.0402571342 -1.3675747413
| 14> S 0.971236079 -1.2781898649 0.7837364179
| 15> C -0.191995272 -1.3446156161 -0.6062767799
| 16> S -1.0242321353 0.2353661468 -0.9360556493
| 17> P -2.6500978666 -0.0168317769 0.4164177308
| 18> S -3.9706829342 1.4262664634 0.4770515956
| 19> O -1.9629852361 -0.4174448905 1.7908423154
| 20> C -1.7569041885 0.5408448791 2.8433485848
| 21> C -0.7848569715 1.6353262967 2.4499487538
| 22> O -3.2172053169 -1.4634778342 0.0750052991
| 23> C -4.3060179668 -1.6430123099 -0.8482788671
| 24> C -3.8947679591 -1.3659698075 -2.2810433867
| 25> H 6.2870774299 -0.3188001525 0.1648327259
| 26> H 6.3683922718 -2.0602793934 -0.1515621781
| 27> H 5.4087660392 -1.0117902113 -1.2050402408
| 28> H 4.8236243678 -1.5913566686 1.7481157204
| 29> H 3.9301123985 -2.262408551 0.3573869787
| 30> H 2.5459108005 3.3164291939 0.3386058266
| 31> H 3.2591010715 2.3751495479 -1.0016212398
| 32> H 0.31505111 3.1912600248 -0.8112688108
| 33> H 1.5287796956 3.9727760822 -1.8390166654
| 34> H 1.0540923093 2.2929802279 -2.1373060577
| 35> H -0.9304660608 -2.10352238 -0.3603163087
| 36> H 0.3583335897 -1.5940478621 -1.5137914416
| 37> H -2.7260517744 0.9740172801 3.1099521733
| 38> H -1.3751433905 -0.0591778429 3.670420602
| 39> H -1.1921730049 2.2065675834 1.6152463182
| 40> H -0.6362948823 2.303052377 3.2925708079
| 41> H 0.1737793316 1.2153289557 2.1545399879
| 42> H -4.6013632787 -2.6836247837 -0.7065273799
| 43> H -5.1255264495 -0.9810351256 -0.5511203168
| 44> H -4.7272490334 -1.589643107 -2.9405346463
| 45> H -3.6275533662 -0.3157800779 -2.3953159656
| 46> H -3.0416749907 -1.9787673024 -2.5614749198
| 47> *
| 48>
| 49>                          ****END OF INPUT****

CARTESIAN COORDINATES (ANGSTROEM)
---------------------------------
  C      5.728285   -1.184435   -0.179605
  C      4.524546   -1.416221    0.713137
  O      3.693834   -0.237834    0.766820
  P      2.409552   -0.060154   -0.156949
  S      2.688090   -0.364005   -2.078233
  O      1.944624    1.388449    0.274979
  C      2.343358    2.580590   -0.440852
  C      1.236058    3.040257   -1.367575
  S      0.971236   -1.278190    0.783736
  C     -0.191995   -1.344616   -0.606277
  S     -1.024232    0.235366   -0.936056
  P     -2.650098   -0.016832    0.416418
  S     -3.970683    1.426266    0.477052
  O     -1.962985   -0.417445    1.790842
  C     -1.756904    0.540845    2.843349
  C     -0.784857    1.635326    2.449949
  O     -3.217205   -1.463478    0.075005
  C     -4.306018   -1.643012   -0.848279
  C     -3.894768   -1.365970   -2.281043
  H      6.287077   -0.318800    0.164833
  H      6.368392   -2.060279   -0.151562
  H      5.408766   -1.011790   -1.205040
  H      4.823624   -1.591357    1.748116
  H      3.930112   -2.262409    0.357387
  H      2.545911    3.316429    0.338606
  H      3.259101    2.375150   -1.001621
  H      0.315051    3.191260   -0.811269
  H      1.528780    3.972776   -1.839017
  H      1.054092    2.292980   -2.137306
  H     -0.930466   -2.103522   -0.360316
  H      0.358334   -1.594048   -1.513791
  H     -2.726052    0.974017    3.109952
  H     -1.375143   -0.059178    3.670421
  H     -1.192173    2.206568    1.615246
  H     -0.636295    2.303052    3.292571
  H      0.173779    1.215329    2.154540
  H     -4.601363   -2.683625   -0.706527
  H     -5.125526   -0.981035   -0.551120
  H     -4.727249   -1.589643   -2.940535
  H     -3.627553   -0.315780   -2.395316
  H     -3.041675   -1.978767   -2.561475

 Total Charge           Charge          ....    0
 Multiplicity           Mult            ....    1
 Number of Electrons    NEL             ....  202
 Basis Dimension        Dim             ....  539

ORBITAL ENERGIES
----------------

  NO   OCC          E(Eh)            E(eV)
   0   2.0000     -88.580021     -2410.3849
   1   2.0000     -88.574518     -2410.2352
   2   2.0000     -88.525902     -2408.9122
   3   2.0000     -88.523725     -2408.8530
   4   2.0000     -76.918619     -2093.0620
   5   2.0000     -76.914686     -2092.9550
   6   2.0000     -18.995194      -516.8855
   7   2.0000     -18.992621      -516.8155
   8   2.0000     -18.991335      -516.7805
   9   2.0000     -18.988404      -516.7007
  10   2.0000     -10.108771      -275.0736
  11   2.0000     -10.103407      -274.9277
  12   2.0000     -10.100414      -274.8462
  13   2.0000     -10.098998      -274.8077
  14   2.0000     -10.094977      -274.6983
  15   2.0000     -10.028933      -272.9011
  16   2.0000     -10.028834      -272.8985
  17   2.0000     -10.024311      -272.7754
  18   2.0000     -10.019289      -272.6387
  19   2.0000      -7.874386      -214.2729
  20   2.0000      -7.868582      -214.1150
  21   2.0000      -7.820717      -212.8125
  22   2.0000      -7.818323      -212.7474
  23   2.0000      -6.597006      -179.5137
  24   2.0000      -6.593106      -179.4075
  25   2.0000      -5.821212      -158.4032
  26   2.0000      -5.818204      -158.3214
  27   2.0000      -5.815802      -158.2560
  28   2.0000      -5.812234      -158.1589
  29   2.0000      -5.811577      -158.1410
  30   2.0000      -5.805597      -157.9783
  31   2.0000      -5.768302      -156.9635
  32   2.0000      -5.765979      -156.9003
  33   2.0000      -5.761049      -156.7661
  34   2.0000      -5.760731      -156.7575
  35   2.0000      -5.758523      -156.6974
  36   2.0000      -5.758431      -156.6949
  37   2.0000      -4.742476      -129.0493
  38   2.0000      -4.741896      -129.0336
  39   2.0000      -4.740826      -129.0044
  40   2.0000      -4.738420      -128.9390
  41   2.0000      -4.738295      -128.9356
  42   2.0000      -4.736761      -128.8938
  43   2.0000      -1.052404       -28.6374
  44   2.0000      -1.051026       -28.5999
  45   2.0000      -1.012621       -27.5548
  46   2.0000      -1.009862       -27.4798
  47   2.0000      -0.803290       -21.8586
  48   2.0000      -0.759470       -20.6662
  49   2.0000      -0.749103       -20.3841
  50   2.0000      -0.731135       -19.8952
  51   2.0000      -0.725068       -19.7301
  52   2.0000      -0.713889       -19.4259
  53   2.0000      -0.691942       -18.8287
  54   2.0000      -0.671969       -18.2852
  55   2.0000      -0.631168       -17.1749
  56   2.0000      -0.625027       -17.0079
  57   2.0000      -0.608232       -16.5508
  58   2.0000      -0.601497       -16.3676
  59   2.0000      -0.591820       -16.1042
  60   2.0000      -0.531752       -14.4697
  61   2.0000      -0.519120       -14.1260
  62   2.0000      -0.497969       -13.5504
  63   2.0000      -0.484607       -13.1868
  64   2.0000      -0.480300       -13.0696
  65   2.0000      -0.464040       -12.6272
  66   2.0000      -0.461474       -12.5574
  67   2.0000      -0.453045       -12.3280
  68   2.0000      -0.439375       -11.9560
  69   2.0000      -0.438139       -11.9224
  70   2.0000      -0.423406       -11.5215
  71   2.0000      -0.418856       -11.3976
  72   2.0000      -0.415183       -11.2977
  73   2.0000      -0.406494       -11.0613
  74   2.0000      -0.400908       -10.9093
  75   2.0000      -0.387554       -10.5459
  76   2.0000      -0.386708       -10.5229
  77   2.0000      -0.372219       -10.1286
  78   2.0000      -0.366215        -9.9652
  79   2.0000      -0.365337        -9.9413
  80   2.0000      -0.361628        -9.8404
  81   2.0000      -0.358252        -9.7485
  82   2.0000      -0.354766        -9.6537
  83   2.0000      -0.349491        -9.5101
  84   2.0000      -0.345377        -9.3982
  85   2.0000      -0.334861        -9.1120
  86   2.0000      -0.325324        -8.8525
  87   2.0000      -0.316102        -8.6016
  88   2.0000      -0.314160        -8.5487
  89   2.0000      -0.306706        -8.3459
  90   2.0000      -0.301830        -8.2132
  91   2.0000      -0.295112        -8.0304
  92   2.0000      -0.285126        -7.7587
  93   2.0000      -0.280774        -7.6402
  94   2.0000      -0.270817        -7.3693
  95   2.0000      -0.245700        -6.6858
  96   2.0000      -0.232220        -6.3190
  97   2.0000      -0.224134        -6.0990
  98   2.0000      -0.222546        -6.0558
  99   2.0000      -0.221301        -6.0219
 100   2.0000      -0.218383        -5.9425
 101   0.0000      -0.045952        -1.2504
 102   0.0000      -0.027909        -0.7594
 103   0.0000      -0.014421        -0.3924
 104   0.0000       0.002557         0.0696
 105   0.0000       0.005061         0.1377

MULLIKEN ATOMIC CHARGES
-----------------------
   0 C :   -0.453588
   1 C :   -0.125535
   2 O :   -0.298369
   3 P :    0.642833
   4 S :   -0.473951
   5 O :   -0.265741
   6 C :   -0.108414
   7 C :   -0.471179
   8 S :   -0.108403
   9 C :   -0.248381
  10 S :   -0.117069
  11 P :    0.663020
  12 S :   -0.450669
  13 O :   -0.293075
  14 C :   -0.135973
  15 C :   -0.460775
  16 O :   -0.316098
  17 C :   -0.155344
  18 C :   -0.429951
  19 H :    0.151819
  20 H :    0.145474
  21 H :    0.179923
  22 H :    0.150841
  23 H :    0.152152
  24 H :    0.149928
  25 H :    0.156016
  26 H :    0.162145
  27 H :    0.144668
  28 H :    0.177487
  29 H :    0.211975
  30 H :    0.218979
  31 H :    0.165546
  32 H :    0.148642
  33 H :    0.170170
  34 H :    0.144815
  35 H :    0.181302
  36 H :    0.149124
  37 H :    0.173251
  38 H :    0.147815
  39 H :    0.175799
  40 H :    0.148788
Sum of atomic charges:    0.0000000

LOEWDIN ATOMIC CHARGES
----------------------
   0 C :   -0.400313
   1 C :    0.021857
   2 O :   -0.659755
   3 P :    0.371398
   4 S :   -0.131157
   5 O :   -0.671557
   6 C :    0.026717
   7 C :   -0.403316
   8 S :    0.175868
   9 C :   -0.415492
  10 S :    0.166299
  11 P :    0.375026
  12 S :   -0.108434
  13 O :   -0.666463
  14 C :    0.021337
  15 C :   -0.411569
  16 O :   -0.677759
  17 C :    0.021079
  18 C :   -0.403744
  19 H :    0.158416
  20 H :    0.158484
  21 H :    0.168215
  22 H :    0.178566
  23 H :    0.175829
  24 H :    0.178736
  25 H :    0.177037
  26 H :    0.161702
  27 H :    0.158015
  28 H :    0.166533
  29 H :    0.195253
  30 H :    0.194101
  31 H :    0.178835
  32 H :    0.181311
  33 H :    0.165089
  34 H :    0.157857
  35 H :    0.172350
  36 H :    0.179601
  37 H :    0.180697
  38 H :    0.159433
  39 H :    0.166534
  40 H :    0.157386

  Mayer bond orders larger than 0.100000
B(  0-C ,  1-C ) :   0.9579 B(  0-C , 19-H ) :   0.9748 B(  0-C , 20-H ) :   0.9647
B(  0-C , 21-H ) :   0.9580 B(  1-C ,  2-O ) :   0.7727 B(  1-C , 22-H ) :   0.9631
B(  1-C , 23-H ) :   0.9619 B(  2-O ,  3-P ) :   1.0701 B(  3-P ,  4-S ) :   1.7519
B(  3-P ,  5-O ) :   1.1631 B(  3-P ,  8-S ) :   1.1154 B(  5-O ,  6-C ) :   0.7539
B(  6-C ,  7-C ) :   0.9462 B(  6-C , 24-H ) :   0.9587 B(  6-C , 25-H ) :   0.9654
B(  7-C , 26-H ) :   0.9683 B(  7-C , 27-H ) :   0.9626 B(  7-C , 28-H ) :   0.9633
B(  8-S ,  9-C ) :   0.9131 B(  9-C , 10-S ) :   0.8915 B(  9-C , 29-H ) :   0.9120
B(  9-C , 30-H ) :   0.9086 B( 10-S , 11-P ) :   1.0646 B( 11-P , 12-S ) :   1.8286
B( 11-P , 13-O ) :   1.0945 B( 11-P , 16-O ) :   1.0711 B( 13-O , 14-C ) :   0.8003
B( 14-C , 15-C ) :   0.9187 B( 14-C , 31-H ) :   0.9636 B( 14-C , 32-H ) :   0.9605
B( 15-C , 33-H ) :   0.9614 B( 15-C , 34-H ) :   0.9613 B( 15-C , 35-H ) :   0.9572
B( 16-O , 17-C ) :   0.8163 B( 17-C , 18-C ) :   0.9249 B( 17-C , 36-H ) :   0.9597
B( 17-C , 37-H ) :   0.9661 B( 18-C , 38-H ) :   0.9604 B( 18-C , 39-H ) :   0.9620
B( 18-C , 40-H ) :   0.9681

Dispersion correction           -0.021666314
FINAL SINGLE POINT ENERGY     -2932.463710076887

DIPOLE MOMENT
-------------

Method             : SCF
Type of density    : Electron Density
Multiplicity       :   1
Irrep              :   0
Energy             : -2932.4886433851743277 Eh
Relativity type    :
Basis              : AO
                                X                 Y                 Z
Electronic contribution:     -7.049255747      -3.674525373       2.185010947
Nuclear contribution   :      7.830977465       3.150868477      -1.754695793
                        -----------------------------------------
Total Dipole Moment    :      0.781721718      -0.523656896       0.430315154
                        -----------------------------------------
Magnitude (a.u.)       :      1.034638353
Magnitude (Debye)      :      2.629841697

Rotational constants in cm-1:             0.013597             0.004534             0.004377
Rotational constants in MHz :           407.621365           135.919674           131.228220

                             ****ORCA TERMINATED NORMALLY****
TOTAL RUN TIME: 0 days 0 hours 1 minutes 20 seconds 405 msec
