                         Program Version 6.0.0  -   RELEASE  -
|  1> ! r2scan-3c def2/J RI DEFGRID2 scfconv6 printgap
|  2> %output
|  3>     printlevel normal
|  4> end
|  5> %cpcm
|  6>     smd true
|  7>     smdsolvent "water"
|  8> end
|  9> * xyz 0 1
| 10> C 5.7282845358 -1.1844345939 -0.1796051547
| 11> C 4.524545808 -1.416221219 0.7131369482
| 12> O 3.69383382 -0.237834004 0.76682027
| 13> P 2.4095522054 -0.0601539087 -0.1569491691
| 14> S 2.6880895968 -0.3640045426 -2.0782331935
| 15> O 1.9446240593 1.3884494392 0.2749789978
| 16> C 2.3433578107 2.580590128 -0.4408518762
| 17> C 1.2360582961 3.0402571342 -1.3675747413
| 18> S 0.971236079 -1.2781898649 0.7837364179
| 19> C -0.191995272 -1.3446156161 -0.6062767799
| 20> S -1.0242321353 0.2353661468 -0.9360556493
| 21> P -2.6500978666 -0.0168317769 0.4164177308
| 22> S -3.9706829342 1.4262664634 0.4770515956
| 23> O -1.9629852361 -0.4174448905 1.7908423154
| 24> C -1.7569041885 0.5408448791 2.8433485848
| 25> C -0.7848569715 1.6353262967 2.4499487538
| 26> O -3.2172053169 -1.4634778342 0.0750052991
| 27> C -4.3060179668 -1.6430123099 -0.8482788671
| 28> C -3.8947679591 -1.3659698075 -2.2810433867
| 29> H 6.2870774299 -0.3188001525 0.1648327259
| 30> H 6.3683922718 -2.0602793934 -0.1515621781
| 31> H 5.4087660392 -1.0117902113 -1.2050402408
| 32> H 4.8236243678 -1.5913566686 1.7481157204
| 33> H 3.9301123985 -2.262408551 0.3573869787
| 34> H 2.5459108005 3.3164291939 0.3386058266
| 35> H 3.2591010715 2.3751495479 -1.0016212398
| 36> H 0.31505111 3.1912600248 -0.8112688108
| 37> H 1.5287796956 3.9727760822 -1.8390166654
| 38> H 1.0540923093 2.2929802279 -2.1373060577
| 39> H -0.9304660608 -2.10352238 -0.3603163087
| 40> H 0.3583335897 -1.5940478621 -1.5137914416
| 41> H -2.7260517744 0.9740172801 3.1099521733
| 42> H -1.3751433905 -0.0591778429 3.670420602
| 43> H -1.1921730049 2.2065675834 1.6152463182
| 44> H -0.6362948823 2.303052377 3.2925708079
| 45> H 0.1737793316 1.2153289557 2.1545399879
| 46> H -4.6013632787 -2.6836247837 -0.7065273799
| 47> H -5.1255264495 -0.9810351256 -0.5511203168
| 48> H -4.7272490334 -1.589643107 -2.9405346463
| 49> H -3.6275533662 -0.3157800779 -2.3953159656
| 50> H -3.0416749907 -1.9787673024 -2.5614749198
| 51> *
| 52>
| 53>                          ****END OF INPUT****

CARTESIAN COORDINATES (ANGSTROEM)
---------------------------------
  C      5.728285   -1.184435   -0.179605
  C      4.524546   -1.416221    0.713137
  O      3.693834   -0.237834    0.766820
  P      2.409552   -0.060154   -0.156949
  S      2.688090   -0.364005   -2.078233
  O      1.944624    1.388449    0.274979
  C      2.343358    2.580590   -0.440852
  C      1.236058    3.040257   -1.367575
  S      0.971236   -1.278190    0.783736
  C     -0.191995   -1.344616   -0.606277
  S     -1.024232    0.235366   -0.936056
  P     -2.650098   -0.016832    0.416418
  S     -3.970683    1.426266    0.477052
  O     -1.962985   -0.417445    1.790842
  C     -1.756904    0.540845    2.843349
  C     -0.784857    1.635326    2.449949
  O     -3.217205   -1.463478    0.075005
  C     -4.306018   -1.643012   -0.848279
  C     -3.894768   -1.365970   -2.281043
  H      6.287077   -0.318800    0.164833
  H      6.368392   -2.060279   -0.151562
  H      5.408766   -1.011790   -1.205040
  H      4.823624   -1.591357    1.748116
  H      3.930112   -2.262409    0.357387
  H      2.545911    3.316429    0.338606
  H      3.259101    2.375150   -1.001621
  H      0.315051    3.191260   -0.811269
  H      1.528780    3.972776   -1.839017
  H      1.054092    2.292980   -2.137306
  H     -0.930466   -2.103522   -0.360316
  H      0.358334   -1.594048   -1.513791
  H     -2.726052    0.974017    3.109952
  H     -1.375143   -0.059178    3.670421
  H     -1.192173    2.206568    1.615246
  H     -0.636295    2.303052    3.292571
  H      0.173779    1.215329    2.154540
  H     -4.601363   -2.683625   -0.706527
  H     -5.125526   -0.981035   -0.551120
  H     -4.727249   -1.589643   -2.940535
  H     -3.627553   -0.315780   -2.395316
  H     -3.041675   -1.978767   -2.561475

 Total Charge           Charge          ....    0
 Multiplicity           Mult            ....    1
 Number of Electrons    NEL             ....  202
 Basis Dimension        Dim             ....  539

ORBITAL ENERGIES
----------------

  NO   OCC          E(Eh)            E(eV)
   0   2.0000     -88.580654     -2410.4021
   1   2.0000     -88.576685     -2410.2941
   2   2.0000     -88.532027     -2409.0789
   3   2.0000     -88.529280     -2409.0042
   4   2.0000     -76.920336     -2093.1088
   5   2.0000     -76.919807     -2093.0943
   6   2.0000     -18.994878      -516.8769
   7   2.0000     -18.992996      -516.8257
   8   2.0000     -18.992959      -516.8247
   9   2.0000     -18.992620      -516.8155
  10   2.0000     -10.105425      -274.9826
  11   2.0000     -10.091225      -274.5962
  12   2.0000     -10.090605      -274.5793
  13   2.0000     -10.089769      -274.5566
  14   2.0000     -10.089689      -274.5544
  15   2.0000     -10.018133      -272.6073
  16   2.0000     -10.016832      -272.5718
  17   2.0000     -10.016293      -272.5572
  18   2.0000     -10.015584      -272.5379
  19   2.0000      -7.875010      -214.2899
  20   2.0000      -7.870792      -214.1751
  21   2.0000      -7.826968      -212.9826
  22   2.0000      -7.824356      -212.9115
  23   2.0000      -6.598765      -179.5615
  24   2.0000      -6.598315      -179.5493
  25   2.0000      -5.821834      -158.4202
  26   2.0000      -5.818819      -158.3381
  27   2.0000      -5.818005      -158.3160
  28   2.0000      -5.814420      -158.2184
  29   2.0000      -5.812225      -158.1587
  30   2.0000      -5.807834      -158.0392
  31   2.0000      -5.774529      -157.1329
  32   2.0000      -5.771895      -157.0612
  33   2.0000      -5.767210      -156.9338
  34   2.0000      -5.767063      -156.9297
  35   2.0000      -5.764682      -156.8650
  36   2.0000      -5.764375      -156.8566
  37   2.0000      -4.744204      -129.0964
  38   2.0000      -4.743652      -129.0813
  39   2.0000      -4.743599      -129.0799
  40   2.0000      -4.743516      -129.0776
  41   2.0000      -4.742639      -129.0538
  42   2.0000      -4.742013      -129.0367
  43   2.0000      -1.053722       -28.6732
  44   2.0000      -1.052148       -28.6304
  45   2.0000      -1.011835       -27.5334
  46   2.0000      -1.011712       -27.5301
  47   2.0000      -0.802581       -21.8393
  48   2.0000      -0.755979       -20.5712
  49   2.0000      -0.743658       -20.2360
  50   2.0000      -0.721802       -19.6412
  51   2.0000      -0.718705       -19.5570
  52   2.0000      -0.713146       -19.4057
  53   2.0000      -0.694582       -18.9005
  54   2.0000      -0.675742       -18.3879
  55   2.0000      -0.629812       -17.1380
  56   2.0000      -0.620922       -16.8961
  57   2.0000      -0.600698       -16.3458
  58   2.0000      -0.596504       -16.2317
  59   2.0000      -0.588598       -16.0166
  60   2.0000      -0.525718       -14.3055
  61   2.0000      -0.515887       -14.0380
  62   2.0000      -0.492781       -13.4093
  63   2.0000      -0.482714       -13.1353
  64   2.0000      -0.479133       -13.0379
  65   2.0000      -0.463025       -12.5995
  66   2.0000      -0.456365       -12.4183
  67   2.0000      -0.447191       -12.1687
  68   2.0000      -0.434915       -11.8346
  69   2.0000      -0.433575       -11.7982
  70   2.0000      -0.419578       -11.4173
  71   2.0000      -0.414423       -11.2770
  72   2.0000      -0.412213       -11.2169
  73   2.0000      -0.404636       -11.0107
  74   2.0000      -0.396909       -10.8005
  75   2.0000      -0.385166       -10.4809
  76   2.0000      -0.382396       -10.4055
  77   2.0000      -0.367547       -10.0015
  78   2.0000      -0.360854        -9.8193
  79   2.0000      -0.357458        -9.7269
  80   2.0000      -0.355816        -9.6822
  81   2.0000      -0.353196        -9.6109
  82   2.0000      -0.347642        -9.4598
  83   2.0000      -0.344707        -9.3800
  84   2.0000      -0.341895        -9.3034
  85   2.0000      -0.334755        -9.1092
  86   2.0000      -0.322192        -8.7673
  87   2.0000      -0.310418        -8.4469
  88   2.0000      -0.307943        -8.3796
  89   2.0000      -0.302748        -8.2382
  90   2.0000      -0.299922        -8.1613
  91   2.0000      -0.292958        -7.9718
  92   2.0000      -0.283683        -7.7194
  93   2.0000      -0.279464        -7.6046
  94   2.0000      -0.271807        -7.3962
  95   2.0000      -0.247360        -6.7310
  96   2.0000      -0.237600        -6.4654
  97   2.0000      -0.231937        -6.3113
  98   2.0000      -0.228197        -6.2096
  99   2.0000      -0.226389        -6.1604
 100   2.0000      -0.221816        -6.0359
 101   0.0000      -0.047835        -1.3016
 102   0.0000      -0.032148        -0.8748
 103   0.0000      -0.016657        -0.4533
 104   0.0000      -0.001381        -0.0376
 105   0.0000       0.004631         0.1260

MULLIKEN ATOMIC CHARGES
-----------------------
   0 C :   -0.492002
   1 C :   -0.121800
   2 O :   -0.326627
   3 P :    0.670798
   4 S :   -0.515706
   5 O :   -0.289776
   6 C :   -0.111727
   7 C :   -0.503958
   8 S :   -0.115512
   9 C :   -0.255250
  10 S :   -0.133843
  11 P :    0.691128
  12 S :   -0.502982
  13 O :   -0.314582
  14 C :   -0.138264
  15 C :   -0.491936
  16 O :   -0.336655
  17 C :   -0.149456
  18 C :   -0.470274
  19 H :    0.166678
  20 H :    0.169774
  21 H :    0.171005
  22 H :    0.176483
  23 H :    0.163869
  24 H :    0.175657
  25 H :    0.170286
  26 H :    0.168109
  27 H :    0.169007
  28 H :    0.170594
  29 H :    0.243161
  30 H :    0.235160
  31 H :    0.173750
  32 H :    0.176240
  33 H :    0.171100
  34 H :    0.171892
  35 H :    0.175873
  36 H :    0.175135
  37 H :    0.176171
  38 H :    0.171061
  39 H :    0.168689
  40 H :    0.168729
Sum of atomic charges:    0.0000000

LOEWDIN ATOMIC CHARGES
----------------------
   0 C :   -0.404804
   1 C :    0.026905
   2 O :   -0.673505
   3 P :    0.375894
   4 S :   -0.157215
   5 O :   -0.684251
   6 C :    0.031318
   7 C :   -0.407851
   8 S :    0.173406
   9 C :   -0.406348
  10 S :    0.159193
  11 P :    0.380097
  12 S :   -0.145264
  13 O :   -0.677931
  14 C :    0.025072
  15 C :   -0.414333
  16 O :   -0.685920
  17 C :    0.026343
  18 C :   -0.407225
  19 H :    0.162411
  20 H :    0.167533
  21 H :    0.162575
  22 H :    0.189480
  23 H :    0.180112
  24 H :    0.189352
  25 H :    0.181695
  26 H :    0.162166
  27 H :    0.166401
  28 H :    0.161730
  29 H :    0.206282
  30 H :    0.199538
  31 H :    0.181693
  32 H :    0.191930
  33 H :    0.162614
  34 H :    0.167438
  35 H :    0.169180
  36 H :    0.190861
  37 H :    0.181184
  38 H :    0.167679
  39 H :    0.161406
  40 H :    0.163158

  Mayer bond orders larger than 0.100000
B(  0-C ,  1-C ) :   0.9473 B(  0-C , 19-H ) :   0.9720 B(  0-C , 20-H ) :   0.9597
B(  0-C , 21-H ) :   0.9621 B(  1-C ,  2-O ) :   0.7602 B(  1-C , 22-H ) :   0.9531
B(  1-C , 23-H ) :   0.9553 B(  2-O ,  3-P ) :   1.0733 B(  3-P ,  4-S ) :   1.7188
B(  3-P ,  5-O ) :   1.1673 B(  3-P ,  8-S ) :   1.1268 B(  5-O ,  6-C ) :   0.7426
B(  6-C ,  7-C ) :   0.9335 B(  6-C , 24-H ) :   0.9495 B(  6-C , 25-H ) :   0.9634
B(  7-C , 26-H ) :   0.9666 B(  7-C , 27-H ) :   0.9586 B(  7-C , 28-H ) :   0.9656
B(  8-S ,  9-C ) :   0.9093 B(  9-C , 10-S ) :   0.8894 B(  9-C , 29-H ) :   0.9007
B(  9-C , 30-H ) :   0.9038 B( 10-S , 11-P ) :   1.0758 B( 11-P , 12-S ) :   1.7954
B( 11-P , 13-O ) :   1.0982 B( 11-P , 16-O ) :   1.0797 B( 13-O , 14-C ) :   0.7904
B( 14-C , 15-C ) :   0.9072 B( 14-C , 31-H ) :   0.9604 B( 14-C , 32-H ) :   0.9515
B( 15-C , 33-H ) :   0.9629 B( 15-C , 34-H ) :   0.9560 B( 15-C , 35-H ) :   0.9585
B( 16-O , 17-C ) :   0.8053 B( 17-C , 18-C ) :   0.9151 B( 17-C , 36-H ) :   0.9493
B( 17-C , 37-H ) :   0.9642 B( 18-C , 38-H ) :   0.9554 B( 18-C , 39-H ) :   0.9640
B( 18-C , 40-H ) :   0.9651

Dispersion correction           -0.021666314
FINAL SINGLE POINT ENERGY     -2932.470881228217

DIPOLE MOMENT
-------------

Method             : SCF
Type of density    : Electron Density
Multiplicity       :   1
Irrep              :   0
Energy             : -2932.4958145365039854 Eh
Relativity type    :
Basis              : AO
                                X                 Y                 Z
Electronic contribution:     -6.816662577      -3.997143219       2.348754182
Nuclear contribution   :      7.830977465       3.150868477      -1.754695793
                        -----------------------------------------
Total Dipole Moment    :      1.014314888      -0.846274743       0.594058389
                        -----------------------------------------
Magnitude (a.u.)       :      1.448420174
Magnitude (Debye)      :      3.681591503

Rotational constants in cm-1:             0.013597             0.004534             0.004377
Rotational constants in MHz :           407.621365           135.919674           131.228220

                             ****ORCA TERMINATED NORMALLY****
TOTAL RUN TIME: 0 days 0 hours 1 minutes 54 seconds 650 msec
