                         Program Version 6.0.0  -   RELEASE  -
|  1> ! pbe def2-sv(p) def2/J RI DEFGRID1 loosescf d4 GCP(DFT/SV(P)) printgap
|  2> %output
|  3>     printlevel normal
|  4> end
|  5> * xyz 0 1
|  6> C 4.1184212595 2.4786394506 -0.5204264345
|  7> C 4.6858675123 1.075334529 -0.6031273737
|  8> O 3.6979094921 0.1176692745 -1.0226960262
|  9> P 2.5127580531 -0.3249427673 -0.0751539461
| 10> S 2.9765869529 -0.4105314826 1.8329391551
| 11> O 2.222115579 -1.6791812277 -0.8422620754
| 12> C 1.0413752767 -2.4849321792 -0.7118608572
| 13> C 0.9513093264 -3.1666126348 0.6396050926
| 14> S 0.9001737695 0.982419854 -0.566230381
| 15> C 0.1695821089 1.1779897962 1.080661197
| 16> S -1.0196627252 -0.1230774795 1.5226681972
| 17> P -2.4348785734 0.1593010309 -0.026462679
| 18> S -2.121647835 -0.6233199107 -1.8037911047
| 19> O -2.6016979253 1.7300614142 0.0308634271
| 20> C -2.8841795666 2.5565965725 -1.1205706099
| 21> C -1.7599627693 3.5540838944 -1.3169192258
| 22> O -3.8005095604 -0.3232694999 0.6319958973
| 23> C -4.2504203866 -1.6857187944 0.552801763
| 24> C -3.3427297876 -2.622243787 1.3239826961
| 25> H 3.3988190558 2.5420945874 0.2945017231
| 26> H 4.9245700001 3.1807391712 -0.3334261028
| 27> H 3.6211375973 2.7386519548 -1.4514706902
| 28> H 5.0859585464 0.7630348508 0.3671878714
| 29> H 5.4629768362 0.999428122 -1.364828848
| 30> H 0.1588376637 -1.8652957841 -0.9054494306
| 31> H 1.1390595475 -3.2151182297 -1.5175653562
| 32> H 0.7891309118 -2.436694908 1.4312320819
| 33> H 0.1222529356 -3.8673672153 0.6315449229
| 34> H 1.8730815459 -3.7049173304 0.8456838752
| 35> H -0.3294498743 2.1425438634 1.0996790722
| 36> H 0.959243022 1.1169329001 1.8330101685
| 37> H -2.9970884825 1.9158079001 -2.0011365448
| 38> H -3.8312331102 3.0547850076 -0.9066580485
| 39> H -0.8265962257 3.0316442474 -1.5202805053
| 40> H -1.998371277 4.1942936443 -2.1599546273
| 41> H -1.6393175498 4.1656159724 -0.4271350962
| 42> H -5.2564253212 -1.6569238068 0.9730010944
| 43> H -4.2943064041 -1.9742700557 -0.5025932755
| 44> H -3.2378242257 -2.2872885774 2.3528171633
| 45> H -3.7582885727 -3.6246029031 1.3094550189
| 46> H -2.3558489011 -2.6400428616 0.8611112726
| 47> *
| 48>
| 49>                          ****END OF INPUT****

CARTESIAN COORDINATES (ANGSTROEM)
---------------------------------
  C      4.118421    2.478639   -0.520426
  C      4.685868    1.075335   -0.603127
  O      3.697909    0.117669   -1.022696
  P      2.512758   -0.324943   -0.075154
  S      2.976587   -0.410531    1.832939
  O      2.222116   -1.679181   -0.842262
  C      1.041375   -2.484932   -0.711861
  C      0.951309   -3.166613    0.639605
  S      0.900174    0.982420   -0.566230
  C      0.169582    1.177990    1.080661
  S     -1.019663   -0.123077    1.522668
  P     -2.434879    0.159301   -0.026463
  S     -2.121648   -0.623320   -1.803791
  O     -2.601698    1.730061    0.030863
  C     -2.884180    2.556597   -1.120571
  C     -1.759963    3.554084   -1.316919
  O     -3.800510   -0.323269    0.631996
  C     -4.250420   -1.685719    0.552802
  C     -3.342730   -2.622244    1.323983
  H      3.398819    2.542095    0.294502
  H      4.924570    3.180739   -0.333426
  H      3.621138    2.738652   -1.451471
  H      5.085959    0.763035    0.367188
  H      5.462977    0.999428   -1.364829
  H      0.158838   -1.865296   -0.905449
  H      1.139060   -3.215118   -1.517565
  H      0.789131   -2.436695    1.431232
  H      0.122253   -3.867367    0.631545
  H      1.873082   -3.704917    0.845684
  H     -0.329450    2.142544    1.099679
  H      0.959243    1.116933    1.833010
  H     -2.997088    1.915808   -2.001137
  H     -3.831233    3.054785   -0.906658
  H     -0.826596    3.031644   -1.520281
  H     -1.998371    4.194294   -2.159955
  H     -1.639318    4.165616   -0.427135
  H     -5.256425   -1.656924    0.973001
  H     -4.294306   -1.974270   -0.502593
  H     -3.237824   -2.287289    2.352817
  H     -3.758289   -3.624603    1.309455
  H     -2.355849   -2.640043    0.861111

 Total Charge           Charge          ....    0
 Multiplicity           Mult            ....    1
 Number of Electrons    NEL             ....  202
 Basis Dimension        Dim             ....  334

ORBITAL ENERGIES
----------------

  NO   OCC          E(Eh)            E(eV)
   0   2.0000     -88.046003     -2395.8535
   1   2.0000     -88.045858     -2395.8496
   2   2.0000     -87.991895     -2394.3812
   3   2.0000     -87.991037     -2394.3578
   4   2.0000     -76.431812     -2079.8153
   5   2.0000     -76.427001     -2079.6844
   6   2.0000     -18.799823      -511.5692
   7   2.0000     -18.793717      -511.4030
   8   2.0000     -18.789254      -511.2816
   9   2.0000     -18.785359      -511.1756
  10   2.0000      -9.958183      -270.9759
  11   2.0000      -9.957799      -270.9655
  12   2.0000      -9.955355      -270.8990
  13   2.0000      -9.950635      -270.7705
  14   2.0000      -9.941279      -270.5160
  15   2.0000      -9.891788      -269.1692
  16   2.0000      -9.890178      -269.1254
  17   2.0000      -9.883704      -268.9493
  18   2.0000      -9.872181      -268.6357
  19   2.0000      -7.690960      -209.2817
  20   2.0000      -7.690192      -209.2608
  21   2.0000      -7.636405      -207.7972
  22   2.0000      -7.635873      -207.7827
  23   2.0000      -6.429273      -174.9494
  24   2.0000      -6.424253      -174.8128
  25   2.0000      -5.719000      -155.6219
  26   2.0000      -5.718020      -155.5952
  27   2.0000      -5.715455      -155.5254
  28   2.0000      -5.714697      -155.5048
  29   2.0000      -5.707795      -155.3170
  30   2.0000      -5.707317      -155.3040
  31   2.0000      -5.665163      -154.1569
  32   2.0000      -5.664646      -154.1429
  33   2.0000      -5.657177      -153.9396
  34   2.0000      -5.656641      -153.9250
  35   2.0000      -5.656496      -153.9211
  36   2.0000      -5.656201      -153.9131
  37   2.0000      -4.651937      -126.5856
  38   2.0000      -4.651053      -126.5616
  39   2.0000      -4.649621      -126.5226
  40   2.0000      -4.646486      -126.4373
  41   2.0000      -4.646296      -126.4322
  42   2.0000      -4.644759      -126.3903
  43   2.0000      -0.991801       -26.9883
  44   2.0000      -0.986521       -26.8446
  45   2.0000      -0.951502       -25.8917
  46   2.0000      -0.941078       -25.6080
  47   2.0000      -0.765326       -20.8256
  48   2.0000      -0.724445       -19.7131
  49   2.0000      -0.710876       -19.3439
  50   2.0000      -0.691484       -18.8162
  51   2.0000      -0.680973       -18.5302
  52   2.0000      -0.674420       -18.3519
  53   2.0000      -0.655713       -17.8429
  54   2.0000      -0.642208       -17.4754
  55   2.0000      -0.604141       -16.4395
  56   2.0000      -0.595739       -16.2109
  57   2.0000      -0.577980       -15.7276
  58   2.0000      -0.566356       -15.4113
  59   2.0000      -0.562646       -15.3104
  60   2.0000      -0.506404       -13.7799
  61   2.0000      -0.492318       -13.3966
  62   2.0000      -0.476389       -12.9632
  63   2.0000      -0.468170       -12.7396
  64   2.0000      -0.458173       -12.4675
  65   2.0000      -0.446104       -12.1391
  66   2.0000      -0.440913       -11.9978
  67   2.0000      -0.434357       -11.8195
  68   2.0000      -0.425244       -11.5715
  69   2.0000      -0.417018       -11.3476
  70   2.0000      -0.413868       -11.2619
  71   2.0000      -0.404374       -11.0036
  72   2.0000      -0.395373       -10.7587
  73   2.0000      -0.394377       -10.7315
  74   2.0000      -0.382295       -10.4028
  75   2.0000      -0.378403       -10.2969
  76   2.0000      -0.370310       -10.0767
  77   2.0000      -0.362599        -9.8668
  78   2.0000      -0.359428        -9.7805
  79   2.0000      -0.353497        -9.6191
  80   2.0000      -0.347433        -9.4541
  81   2.0000      -0.343547        -9.3484
  82   2.0000      -0.339795        -9.2463
  83   2.0000      -0.337186        -9.1753
  84   2.0000      -0.332045        -9.0354
  85   2.0000      -0.320059        -8.7092
  86   2.0000      -0.309130        -8.4118
  87   2.0000      -0.302230        -8.2241
  88   2.0000      -0.295616        -8.0441
  89   2.0000      -0.290610        -7.9079
  90   2.0000      -0.285020        -7.7558
  91   2.0000      -0.278036        -7.5657
  92   2.0000      -0.268373        -7.3028
  93   2.0000      -0.265635        -7.2283
  94   2.0000      -0.258009        -7.0208
  95   2.0000      -0.245711        -6.6861
  96   2.0000      -0.221847        -6.0368
  97   2.0000      -0.211344        -5.7510
  98   2.0000      -0.209244        -5.6938
  99   2.0000      -0.204593        -5.5673
 100   2.0000      -0.197849        -5.3837
 101   0.0000      -0.051780        -1.4090
 102   0.0000      -0.031064        -0.8453
 103   0.0000      -0.021062        -0.5731
 104   0.0000      -0.003600        -0.0980
 105   0.0000       0.009363         0.2548

MULLIKEN ATOMIC CHARGES
-----------------------
   0 C :   -0.309290
   1 C :   -0.004300
   2 O :   -0.356059
   3 P :    0.614044
   4 S :   -0.330846
   5 O :   -0.350800
   6 C :   -0.036029
   7 C :   -0.316500
   8 S :   -0.100868
   9 C :   -0.356532
  10 S :   -0.089021
  11 P :    0.604990
  12 S :   -0.316592
  13 O :   -0.373325
  14 C :   -0.008128
  15 C :   -0.310880
  16 O :   -0.364336
  17 C :    0.001650
  18 C :   -0.344955
  19 H :    0.117578
  20 H :    0.111837
  21 H :    0.117451
  22 H :    0.114255
  23 H :    0.107595
  24 H :    0.135846
  25 H :    0.103048
  26 H :    0.132377
  27 H :    0.111868
  28 H :    0.114433
  29 H :    0.193169
  30 H :    0.193476
  31 H :    0.114626
  32 H :    0.109430
  33 H :    0.133320
  34 H :    0.115951
  35 H :    0.118982
  36 H :    0.108237
  37 H :    0.110886
  38 H :    0.126412
  39 H :    0.118397
  40 H :    0.138603
Sum of atomic charges:   -0.0000000

LOEWDIN ATOMIC CHARGES
----------------------
   0 C :   -0.368040
   1 C :   -0.119078
   2 O :   -0.232948
   3 P :    0.573727
   4 S :   -0.308604
   5 O :   -0.228098
   6 C :   -0.124009
   7 C :   -0.371095
   8 S :    0.089118
   9 C :   -0.483865
  10 S :    0.096781
  11 P :    0.568183
  12 S :   -0.306753
  13 O :   -0.241339
  14 C :   -0.115995
  15 C :   -0.359665
  16 O :   -0.243839
  17 C :   -0.119833
  18 C :   -0.372509
  19 H :    0.118039
  20 H :    0.130091
  21 H :    0.124766
  22 H :    0.110394
  23 H :    0.120046
  24 H :    0.098564
  25 H :    0.119694
  26 H :    0.113668
  27 H :    0.126743
  28 H :    0.125640
  29 H :    0.133112
  30 H :    0.127128
  31 H :    0.109137
  32 H :    0.119017
  33 H :    0.121147
  34 H :    0.133563
  35 H :    0.124969
  36 H :    0.120394
  37 H :    0.109941
  38 H :    0.127344
  39 H :    0.133843
  40 H :    0.120623

  Mayer bond orders larger than 0.100000
B(  0-C ,  1-C ) :   1.1633 B(  0-C , 19-H ) :   0.9387 B(  0-C , 20-H ) :   0.9386
B(  0-C , 21-H ) :   0.9450 B(  1-C ,  2-O ) :   0.9130 B(  1-C , 22-H ) :   0.9142
B(  1-C , 23-H ) :   0.9339 B(  2-O ,  3-P ) :   1.1331 B(  3-P ,  4-S ) :   1.5919
B(  3-P ,  5-O ) :   1.1477 B(  3-P ,  8-S ) :   0.9283 B(  4-S ,  8-S ) :   0.1184
B(  4-S , 30-H ) :   0.1051 B(  5-O ,  6-C ) :   0.9092 B(  6-C ,  7-C ) :   1.1642
B(  6-C , 24-H ) :   0.8952 B(  6-C , 25-H ) :   0.9350 B(  7-C , 26-H ) :   0.9292
B(  7-C , 27-H ) :   0.9326 B(  7-C , 28-H ) :   0.9423 B(  8-S ,  9-C ) :   1.0189
B(  9-C , 10-S ) :   0.9982 B(  9-C , 29-H ) :   0.8927 B(  9-C , 30-H ) :   0.8599
B( 10-S , 11-P ) :   0.9661 B( 10-S , 12-S ) :   0.1043 B( 11-P , 12-S ) :   1.6046
B( 11-P , 13-O ) :   1.1206 B( 11-P , 16-O ) :   1.1168 B( 13-O , 14-C ) :   0.8939
B( 14-C , 15-C ) :   1.1679 B( 14-C , 31-H ) :   0.9017 B( 14-C , 32-H ) :   0.9322
B( 15-C , 33-H ) :   0.9352 B( 15-C , 34-H ) :   0.9386 B( 15-C , 35-H ) :   0.9458
B( 16-O , 17-C ) :   0.9114 B( 17-C , 18-C ) :   1.1602 B( 17-C , 36-H ) :   0.9325
B( 17-C , 37-H ) :   0.9144 B( 18-C , 38-H ) :   0.9425 B( 18-C , 39-H ) :   0.9378
B( 18-C , 40-H ) :   0.9276

Dispersion correction           -0.066590811
FINAL SINGLE POINT ENERGY     -2929.523294231999

DIPOLE MOMENT
-------------

Method             : SCF
Type of density    : Electron Density
Multiplicity       :   1
Irrep              :   0
Energy             : -2929.6413974841516392 Eh
Relativity type    :
Basis              : AO
                                X                 Y                 Z
Electronic contribution:      2.167675781      -1.872779424       0.828409707
Nuclear contribution   :     -2.902851853       2.564725263      -0.979341108
                        -----------------------------------------
Total Dipole Moment    :     -0.735176072       0.691945838      -0.150931401
                        -----------------------------------------
Magnitude (a.u.)       :      1.020810065
Magnitude (Debye)      :      2.594692981

Rotational constants in cm-1:             0.011854             0.005426             0.004518
Rotational constants in MHz :           355.362291           162.663705           135.459502

                             ****ORCA TERMINATED NORMALLY****
TOTAL RUN TIME: 0 days 0 hours 0 minutes 21 seconds 432 msec
