                         Program Version 6.0.0  -   RELEASE  -
|  1> ! r2scan-3c def2/J RI DEFGRID2 scfconv6 printgap
|  2> %output
|  3>     printlevel normal
|  4> end
|  5> * xyz 0 1
|  6> C 2.3995460959 -4.99508e-05 0.0155054729
|  7> N 0.9863491105 3.01045e-05 -0.2954013787
|  8> C 0.3227114676 1.1915146454 0.2073498258
|  9> C -1.1465433524 1.1865142152 -0.2283487637
| 10> N -1.856820149 5.72307e-05 0.2175049851
| 11> C -1.1466752263 -1.1865292105 -0.2281839719
| 12> C 0.3226833104 -1.1915097821 0.2071984697
| 13> H 2.857896559 0.8858327928 -0.4203185309
| 14> H 2.8579945369 -0.8854001783 -0.4213608521
| 15> H 2.5953987275 -0.0006723689 1.1006128088
| 16> H 0.3798744899 1.2451711304 1.3135058456
| 17> H 0.828297122 2.0680324181 -0.2028832119
| 18> H -1.6549783832 2.0697661187 0.1615592235
| 19> H -1.1921323887 1.2034187882 -1.3198797248
| 20> H -1.8943023113 0.0001360482 1.2344077472
| 21> H -1.655052338 -2.069650593 0.162105452
| 22> H -1.1925495987 -1.203760605 -1.319695465
| 23> H 0.3800934713 -1.24540078 1.3133278055
| 24> H 0.828154636 -2.0679704632 -0.2033155243
| 25> *
| 26>
| 27>                          ****END OF INPUT****

CARTESIAN COORDINATES (ANGSTROEM)
---------------------------------
  C      2.399546   -0.000050    0.015505
  N      0.986349    0.000030   -0.295401
  C      0.322711    1.191515    0.207350
  C     -1.146543    1.186514   -0.228349
  N     -1.856820    0.000057    0.217505
  C     -1.146675   -1.186529   -0.228184
  C      0.322683   -1.191510    0.207198
  H      2.857897    0.885833   -0.420319
  H      2.857995   -0.885400   -0.421361
  H      2.595399   -0.000672    1.100613
  H      0.379874    1.245171    1.313506
  H      0.828297    2.068032   -0.202883
  H     -1.654978    2.069766    0.161559
  H     -1.192132    1.203419   -1.319880
  H     -1.894302    0.000136    1.234408
  H     -1.655052   -2.069651    0.162105
  H     -1.192550   -1.203761   -1.319695
  H      0.380093   -1.245401    1.313328
  H      0.828155   -2.067970   -0.203316

 Total Charge           Charge          ....    0
 Multiplicity           Mult            ....    1
 Number of Electrons    NEL             ....   56
 Basis Dimension        Dim             ....  203

ORBITAL ENERGIES
----------------

  NO   OCC          E(Eh)            E(eV)
   0   2.0000     -14.150630      -385.0582
   1   2.0000     -14.140673      -384.7873
   2   2.0000     -10.048370      -273.4300
   3   2.0000     -10.048366      -273.4299
   4   2.0000     -10.047278      -273.4003
   5   2.0000     -10.047272      -273.4002
   6   2.0000     -10.044194      -273.3164
   7   2.0000      -0.907290       -24.6886
   8   2.0000      -0.856903       -23.3175
   9   2.0000      -0.723024       -19.6745
  10   2.0000      -0.678643       -18.4668
  11   2.0000      -0.603724       -16.4282
  12   2.0000      -0.595655       -16.2086
  13   2.0000      -0.538492       -14.6531
  14   2.0000      -0.463852       -12.6221
  15   2.0000      -0.431787       -11.7495
  16   2.0000      -0.426502       -11.6057
  17   2.0000      -0.423742       -11.5306
  18   2.0000      -0.412702       -11.2302
  19   2.0000      -0.378288       -10.2937
  20   2.0000      -0.360842        -9.8190
  21   2.0000      -0.340341        -9.2612
  22   2.0000      -0.336783        -9.1643
  23   2.0000      -0.318722        -8.6729
  24   2.0000      -0.315101        -8.5743
  25   2.0000      -0.301152        -8.1948
  26   2.0000      -0.196552        -5.3485
  27   2.0000      -0.180755        -4.9186
  28   0.0000       0.076597         2.0843
  29   0.0000       0.091958         2.5023
  30   0.0000       0.111490         3.0338
  31   0.0000       0.112461         3.0602
  32   0.0000       0.120313         3.2739

MULLIKEN ATOMIC CHARGES
-----------------------
   0 C :   -0.346520
   1 N :   -0.131315
   2 C :   -0.236204
   3 C :   -0.267620
   4 N :   -0.341047
   5 C :   -0.267659
   6 C :   -0.236204
   7 H :    0.144552
   8 H :    0.144585
   9 H :    0.130862
  10 H :    0.142604
  11 H :    0.137336
  12 H :    0.148142
  13 H :    0.159385
  14 H :    0.231618
  15 H :    0.148141
  16 H :    0.159389
  17 H :    0.142609
  18 H :    0.137343
Sum of atomic charges:   -0.0000000

LOEWDIN ATOMIC CHARGES
----------------------
   0 C :   -0.145186
   1 N :   -0.995027
   2 C :   -0.046424
   3 C :   -0.042752
   4 N :   -0.818098
   5 C :   -0.042765
   6 C :   -0.046435
   7 H :    0.173587
   8 H :    0.173587
   9 H :    0.152346
  10 H :    0.158826
  11 H :    0.179189
  12 H :    0.175423
  13 H :    0.182441
  14 H :    0.245407
  15 H :    0.175431
  16 H :    0.182429
  17 H :    0.158825
  18 H :    0.179195

  Mayer bond orders larger than 0.100000
B(  0-C ,  1-N ) :   0.9479 B(  0-C ,  7-H ) :   0.9703 B(  0-C ,  8-H ) :   0.9703
B(  0-C ,  9-H ) :   0.9502 B(  1-N ,  2-C ) :   0.9608 B(  1-N ,  6-C ) :   0.9608
B(  2-C ,  3-C ) :   0.8786 B(  2-C , 10-H ) :   0.9697 B(  2-C , 11-H ) :   0.9461
B(  3-C ,  4-N ) :   0.9806 B(  3-C , 12-H ) :   0.9838 B(  3-C , 13-H ) :   0.9809
B(  4-N ,  5-C ) :   0.9806 B(  4-N , 14-H ) :   0.8946 B(  5-C ,  6-C ) :   0.8786
B(  5-C , 15-H ) :   0.9838 B(  5-C , 16-H ) :   0.9809 B(  6-C , 17-H ) :   0.9696
B(  6-C , 18-H ) :   0.9461

Dispersion correction           -0.005450039
FINAL SINGLE POINT ENERGY      -307.137036040327

DIPOLE MOMENT
-------------

Method             : SCF
Type of density    : Electron Density
Multiplicity       :   1
Irrep              :   0
Energy             :  -307.1510066644451626 Eh
Relativity type    :
Basis              : AO
                                X                 Y                 Z
Electronic contribution:     -2.530927230       0.000464749      -0.905077648
Nuclear contribution   :      2.939849864      -0.000466439       1.311190101
                        -----------------------------------------
Total Dipole Moment    :      0.408922634      -0.000001690       0.406112454
                        -----------------------------------------
Magnitude (a.u.)       :      0.576320263
Magnitude (Debye)      :      1.464889692

Rotational constants in cm-1:             0.157226             0.077862             0.057163
Rotational constants in MHz :          4713.508849          2334.237392          1713.702254

                             ****ORCA TERMINATED NORMALLY****
TOTAL RUN TIME: 0 days 0 hours 0 minutes 26 seconds 415 msec
