                         Program Version 6.0.0  -   RELEASE  -
|  1> ! r2scan-3c def2/J RI DEFGRID2 scfconv6 printgap
|  2> %output
|  3>     printlevel normal
|  4> end
|  5> %cpcm
|  6>     smd true
|  7>     smdsolvent "water"
|  8> end
|  9> * xyz 0 1
| 10> C 2.3995460959 -4.99508e-05 0.0155054729
| 11> N 0.9863491105 3.01045e-05 -0.2954013787
| 12> C 0.3227114676 1.1915146454 0.2073498258
| 13> C -1.1465433524 1.1865142152 -0.2283487637
| 14> N -1.856820149 5.72307e-05 0.2175049851
| 15> C -1.1466752263 -1.1865292105 -0.2281839719
| 16> C 0.3226833104 -1.1915097821 0.2071984697
| 17> H 2.857896559 0.8858327928 -0.4203185309
| 18> H 2.8579945369 -0.8854001783 -0.4213608521
| 19> H 2.5953987275 -0.0006723689 1.1006128088
| 20> H 0.3798744899 1.2451711304 1.3135058456
| 21> H 0.828297122 2.0680324181 -0.2028832119
| 22> H -1.6549783832 2.0697661187 0.1615592235
| 23> H -1.1921323887 1.2034187882 -1.3198797248
| 24> H -1.8943023113 0.0001360482 1.2344077472
| 25> H -1.655052338 -2.069650593 0.162105452
| 26> H -1.1925495987 -1.203760605 -1.319695465
| 27> H 0.3800934713 -1.24540078 1.3133278055
| 28> H 0.828154636 -2.0679704632 -0.2033155243
| 29> *
| 30>
| 31>                          ****END OF INPUT****

CARTESIAN COORDINATES (ANGSTROEM)
---------------------------------
  C      2.399546   -0.000050    0.015505
  N      0.986349    0.000030   -0.295401
  C      0.322711    1.191515    0.207350
  C     -1.146543    1.186514   -0.228349
  N     -1.856820    0.000057    0.217505
  C     -1.146675   -1.186529   -0.228184
  C      0.322683   -1.191510    0.207198
  H      2.857897    0.885833   -0.420319
  H      2.857995   -0.885400   -0.421361
  H      2.595399   -0.000672    1.100613
  H      0.379874    1.245171    1.313506
  H      0.828297    2.068032   -0.202883
  H     -1.654978    2.069766    0.161559
  H     -1.192132    1.203419   -1.319880
  H     -1.894302    0.000136    1.234408
  H     -1.655052   -2.069651    0.162105
  H     -1.192550   -1.203761   -1.319695
  H      0.380093   -1.245401    1.313328
  H      0.828155   -2.067970   -0.203316

 Total Charge           Charge          ....    0
 Multiplicity           Mult            ....    1
 Number of Electrons    NEL             ....   56
 Basis Dimension        Dim             ....  203

ORBITAL ENERGIES
----------------

  NO   OCC          E(Eh)            E(eV)
   0   2.0000     -14.146023      -384.9328
   1   2.0000     -14.137445      -384.6994
   2   2.0000     -10.041067      -273.2313
   3   2.0000     -10.041063      -273.2312
   4   2.0000     -10.039544      -273.1899
   5   2.0000     -10.039541      -273.1898
   6   2.0000     -10.034739      -273.0591
   7   2.0000      -0.901662       -24.5355
   8   2.0000      -0.852170       -23.1887
   9   2.0000      -0.715948       -19.4819
  10   2.0000      -0.671331       -18.2678
  11   2.0000      -0.597356       -16.2549
  12   2.0000      -0.588495       -16.0138
  13   2.0000      -0.531343       -14.4586
  14   2.0000      -0.457072       -12.4376
  15   2.0000      -0.424085       -11.5399
  16   2.0000      -0.419783       -11.4229
  17   2.0000      -0.415965       -11.3190
  18   2.0000      -0.406727       -11.0676
  19   2.0000      -0.371471       -10.1082
  20   2.0000      -0.352825        -9.6009
  21   2.0000      -0.333877        -9.0852
  22   2.0000      -0.328267        -8.9326
  23   2.0000      -0.311442        -8.4748
  24   2.0000      -0.308327        -8.3900
  25   2.0000      -0.293367        -7.9829
  26   2.0000      -0.195550        -5.3212
  27   2.0000      -0.179119        -4.8741
  28   0.0000       0.085921         2.3380
  29   0.0000       0.100843         2.7441
  30   0.0000       0.117516         3.1978
  31   0.0000       0.121928         3.3178
  32   0.0000       0.129308         3.5186

MULLIKEN ATOMIC CHARGES
-----------------------
   0 C :   -0.385768
   1 N :   -0.161833
   2 C :   -0.252087
   3 C :   -0.282169
   4 N :   -0.405314
   5 C :   -0.282179
   6 C :   -0.252123
   7 H :    0.160764
   8 H :    0.160775
   9 H :    0.141956
  10 H :    0.153529
  11 H :    0.157005
  12 H :    0.160740
  13 H :    0.167643
  14 H :    0.280125
  15 H :    0.160744
  16 H :    0.167648
  17 H :    0.153537
  18 H :    0.157004
Sum of atomic charges:   -0.0000000

LOEWDIN ATOMIC CHARGES
----------------------
   0 C :   -0.150910
   1 N :   -1.014871
   2 C :   -0.045267
   3 C :   -0.047818
   4 N :   -0.840566
   5 C :   -0.047829
   6 C :   -0.045278
   7 H :    0.177790
   8 H :    0.177784
   9 H :    0.156733
  10 H :    0.165172
  11 H :    0.184554
  12 H :    0.180836
  13 H :    0.181251
  14 H :    0.256603
  15 H :    0.180847
  16 H :    0.181241
  17 H :    0.165171
  18 H :    0.184556

  Mayer bond orders larger than 0.100000
B(  0-C ,  1-N ) :   0.9453 B(  0-C ,  7-H ) :   0.9657 B(  0-C ,  8-H ) :   0.9658
B(  0-C ,  9-H ) :   0.9503 B(  1-N ,  2-C ) :   0.9653 B(  1-N ,  6-C ) :   0.9654
B(  2-C ,  3-C ) :   0.8799 B(  2-C , 10-H ) :   0.9647 B(  2-C , 11-H ) :   0.9490
B(  3-C ,  4-N ) :   0.9769 B(  3-C , 12-H ) :   0.9710 B(  3-C , 13-H ) :   0.9849
B(  4-N ,  5-C ) :   0.9770 B(  4-N , 14-H ) :   0.8805 B(  5-C ,  6-C ) :   0.8799
B(  5-C , 15-H ) :   0.9710 B(  5-C , 16-H ) :   0.9849 B(  6-C , 17-H ) :   0.9647
B(  6-C , 18-H ) :   0.9490

Dispersion correction           -0.005450039
FINAL SINGLE POINT ENERGY      -307.150889781632

DIPOLE MOMENT
-------------

Method             : SCF
Type of density    : Electron Density
Multiplicity       :   1
Irrep              :   0
Energy             :  -307.1648604057498915 Eh
Relativity type    :
Basis              : AO
                                X                 Y                 Z
Electronic contribution:     -2.365109667       0.000469444      -0.627636279
Nuclear contribution   :      2.939849864      -0.000466439       1.311190101
                        -----------------------------------------
Total Dipole Moment    :      0.574740197       0.000003005       0.683553823
                        -----------------------------------------
Magnitude (a.u.)       :      0.893068935
Magnitude (Debye)      :      2.270000833

Rotational constants in cm-1:             0.157226             0.077862             0.057163
Rotational constants in MHz :          4713.508849          2334.237392          1713.702254

                             ****ORCA TERMINATED NORMALLY****
TOTAL RUN TIME: 0 days 0 hours 0 minutes 36 seconds 367 msec
