                         Program Version 6.0.0  -   RELEASE  -
|  1> ! pbe def2-sv(p) def2/J RI DEFGRID1 loosescf d4 GCP(DFT/SV(P)) printgap
|  2> %output
|  3>     printlevel normal
|  4> end
|  5> * xyz 0 1
|  6> C 5.1273319087 0.5032870484 0.3021868923
|  7> C 3.9391211211 1.1361112501 -0.3894483073
|  8> O 2.9789197672 0.1415547469 -0.8091519328
|  9> P 2.081250313 -0.6403873506 0.2314933114
| 10> S 1.6065860232 0.3307619393 1.8695100273
| 11> O 2.8872035451 -1.9875549744 0.471184217
| 12> C 2.6597821216 -2.8557309286 1.600287
| 13> C 3.7645142716 -2.682853817 2.6248135051
| 14> S 0.5390766674 -1.2974011102 -1.0776467599
| 15> C 0.0996614739 0.2993250657 -1.8237469028
| 16> S -0.6248393668 1.4764935318 -0.6619392958
| 17> P -2.5437737626 0.5460200532 -0.5675052302
| 18> S -3.2218102226 -0.1366213947 -2.2692368348
| 19> O -3.4100357136 1.6039475182 0.2403100361
| 20> C -3.5068587473 3.0092506226 -0.0618800588
| 21> C -3.9088620413 3.2734774932 -1.4974580713
| 22> O -2.4544606129 -0.6408865738 0.4622031997
| 23> C -2.0141272259 -0.5018919523 1.8356268924
| 24> C -1.5604485954 -1.8668964188 2.3084634278
| 25> H 5.8703473315 1.2663138747 0.5120629789
| 26> H 4.8100986627 0.0498165199 1.2396701583
| 27> H 5.5642938073 -0.2649484888 -0.3302630335
| 28> H 4.2262890748 1.6325261625 -1.3173009374
| 29> H 3.4352477776 1.8463848996 0.2741141672
| 30> H 1.6871047699 -2.6295559376 2.0453079668
| 31> H 2.6488440119 -3.8657726169 1.1872840769
| 32> H 4.7342813554 -2.833007688 2.1587899786
| 33> H 3.7232962974 -1.6829295167 3.0517290922
| 34> H 3.6304894689 -3.4104412422 3.4187565993
| 35> H -0.6349059143 0.0728529496 -2.5995902209
| 36> H 0.9899303908 0.7611513046 -2.241848757
| 37> H -4.2627127367 3.3691794327 0.6383464486
| 38> H -2.5417166803 3.4717792987 0.1631146702
| 39> H -4.835150577 2.7549960442 -1.733482785
| 40> H -4.0455254081 4.340116487 -1.6430308781
| 41> H -3.1347133471 2.9177538104 -2.1760047671
| 42> H -1.1951705075 0.223462466 1.8795820497
| 43> H -2.8551415963 -0.1282924183 2.4216746774
| 44> H -0.7630815815 -2.2331771383 1.6640698737
| 45> H -1.1913111427 -1.7856068003 3.3258909003
| 46> H -2.385521309 -2.57171375 2.2702690382
| 47> *
| 48>
| 49>                          ****END OF INPUT****

CARTESIAN COORDINATES (ANGSTROEM)
---------------------------------
  C      5.127332    0.503287    0.302187
  C      3.939121    1.136111   -0.389448
  O      2.978920    0.141555   -0.809152
  P      2.081250   -0.640387    0.231493
  S      1.606586    0.330762    1.869510
  O      2.887204   -1.987555    0.471184
  C      2.659782   -2.855731    1.600287
  C      3.764514   -2.682854    2.624814
  S      0.539077   -1.297401   -1.077647
  C      0.099661    0.299325   -1.823747
  S     -0.624839    1.476494   -0.661939
  P     -2.543774    0.546020   -0.567505
  S     -3.221810   -0.136621   -2.269237
  O     -3.410036    1.603948    0.240310
  C     -3.506859    3.009251   -0.061880
  C     -3.908862    3.273477   -1.497458
  O     -2.454461   -0.640887    0.462203
  C     -2.014127   -0.501892    1.835627
  C     -1.560449   -1.866896    2.308463
  H      5.870347    1.266314    0.512063
  H      4.810099    0.049817    1.239670
  H      5.564294   -0.264948   -0.330263
  H      4.226289    1.632526   -1.317301
  H      3.435248    1.846385    0.274114
  H      1.687105   -2.629556    2.045308
  H      2.648844   -3.865773    1.187284
  H      4.734281   -2.833008    2.158790
  H      3.723296   -1.682930    3.051729
  H      3.630489   -3.410441    3.418757
  H     -0.634906    0.072853   -2.599590
  H      0.989930    0.761151   -2.241849
  H     -4.262713    3.369179    0.638346
  H     -2.541717    3.471779    0.163115
  H     -4.835151    2.754996   -1.733483
  H     -4.045525    4.340116   -1.643031
  H     -3.134713    2.917754   -2.176005
  H     -1.195171    0.223462    1.879582
  H     -2.855142   -0.128292    2.421675
  H     -0.763082   -2.233177    1.664070
  H     -1.191311   -1.785607    3.325891
  H     -2.385521   -2.571714    2.270269

 Total Charge           Charge          ....    0
 Multiplicity           Mult            ....    1
 Number of Electrons    NEL             ....  202
 Basis Dimension        Dim             ....  334

ORBITAL ENERGIES
----------------

  NO   OCC          E(Eh)            E(eV)
   0   2.0000     -88.040679     -2395.7087
   1   2.0000     -88.039775     -2395.6841
   2   2.0000     -87.993786     -2394.4327
   3   2.0000     -87.977628     -2393.9930
   4   2.0000     -76.432399     -2079.8313
   5   2.0000     -76.421289     -2079.5290
   6   2.0000     -18.801358      -511.6110
   7   2.0000     -18.797290      -511.5003
   8   2.0000     -18.792552      -511.3713
   9   2.0000     -18.782391      -511.0949
  10   2.0000      -9.959959      -271.0243
  11   2.0000      -9.959520      -271.0123
  12   2.0000      -9.957392      -270.9544
  13   2.0000      -9.954127      -270.8656
  14   2.0000      -9.941593      -270.5245
  15   2.0000      -9.891044      -269.1490
  16   2.0000      -9.888997      -269.0933
  17   2.0000      -9.881512      -268.8896
  18   2.0000      -9.878008      -268.7943
  19   2.0000      -7.685906      -209.1441
  20   2.0000      -7.684703      -209.1114
  21   2.0000      -7.638544      -207.8554
  22   2.0000      -7.623036      -207.4333
  23   2.0000      -6.429920      -174.9670
  24   2.0000      -6.418595      -174.6589
  25   2.0000      -5.713862      -155.4821
  26   2.0000      -5.712327      -155.4403
  27   2.0000      -5.710558      -155.3922
  28   2.0000      -5.709200      -155.3552
  29   2.0000      -5.702630      -155.1765
  30   2.0000      -5.701946      -155.1578
  31   2.0000      -5.667266      -154.2142
  32   2.0000      -5.659225      -153.9953
  33   2.0000      -5.658856      -153.9853
  34   2.0000      -5.652068      -153.8006
  35   2.0000      -5.643650      -153.5715
  36   2.0000      -5.643021      -153.5544
  37   2.0000      -4.652552      -126.6024
  38   2.0000      -4.651689      -126.5789
  39   2.0000      -4.650334      -126.5420
  40   2.0000      -4.641449      -126.3003
  41   2.0000      -4.640600      -126.2772
  42   2.0000      -4.638610      -126.2230
  43   2.0000      -0.993838       -27.0437
  44   2.0000      -0.983718       -26.7683
  45   2.0000      -0.954115       -25.9628
  46   2.0000      -0.939178       -25.5563
  47   2.0000      -0.762731       -20.7550
  48   2.0000      -0.723921       -19.6989
  49   2.0000      -0.709878       -19.3168
  50   2.0000      -0.693961       -18.8836
  51   2.0000      -0.685977       -18.6664
  52   2.0000      -0.672410       -18.2972
  53   2.0000      -0.655127       -17.8269
  54   2.0000      -0.636533       -17.3209
  55   2.0000      -0.603453       -16.4208
  56   2.0000      -0.586845       -15.9689
  57   2.0000      -0.575022       -15.6471
  58   2.0000      -0.567155       -15.4331
  59   2.0000      -0.561311       -15.2740
  60   2.0000      -0.509244       -13.8572
  61   2.0000      -0.498686       -13.5699
  62   2.0000      -0.485345       -13.2069
  63   2.0000      -0.470168       -12.7939
  64   2.0000      -0.461360       -12.5543
  65   2.0000      -0.448431       -12.2024
  66   2.0000      -0.442433       -12.0392
  67   2.0000      -0.431961       -11.7543
  68   2.0000      -0.425419       -11.5762
  69   2.0000      -0.414924       -11.2907
  70   2.0000      -0.411299       -11.1920
  71   2.0000      -0.404184       -10.9984
  72   2.0000      -0.393445       -10.7062
  73   2.0000      -0.392162       -10.6713
  74   2.0000      -0.379416       -10.3244
  75   2.0000      -0.376978       -10.2581
  76   2.0000      -0.361222        -9.8294
  77   2.0000      -0.360216        -9.8020
  78   2.0000      -0.355387        -9.6706
  79   2.0000      -0.349080        -9.4990
  80   2.0000      -0.345987        -9.4148
  81   2.0000      -0.344641        -9.3781
  82   2.0000      -0.342420        -9.3177
  83   2.0000      -0.336658        -9.1609
  84   2.0000      -0.333687        -9.0801
  85   2.0000      -0.321977        -8.7614
  86   2.0000      -0.313106        -8.5200
  87   2.0000      -0.302437        -8.2297
  88   2.0000      -0.294674        -8.0185
  89   2.0000      -0.292267        -7.9530
  90   2.0000      -0.287539        -7.8243
  91   2.0000      -0.281504        -7.6601
  92   2.0000      -0.270258        -7.3541
  93   2.0000      -0.267212        -7.2712
  94   2.0000      -0.256851        -6.9893
  95   2.0000      -0.241184        -6.5630
  96   2.0000      -0.221473        -6.0266
  97   2.0000      -0.209588        -5.7032
  98   2.0000      -0.203217        -5.5298
  99   2.0000      -0.196907        -5.3581
 100   2.0000      -0.189983        -5.1697
 101   0.0000      -0.045895        -1.2489
 102   0.0000      -0.020098        -0.5469
 103   0.0000      -0.015512        -0.4221
 104   0.0000      -0.001698        -0.0462
 105   0.0000       0.013999         0.3809

MULLIKEN ATOMIC CHARGES
-----------------------
   0 C :   -0.316174
   1 C :   -0.007892
   2 O :   -0.370880
   3 P :    0.612145
   4 S :   -0.322272
   5 O :   -0.373148
   6 C :   -0.024164
   7 C :   -0.295696
   8 S :   -0.069352
   9 C :   -0.362975
  10 S :   -0.107078
  11 P :    0.603280
  12 S :   -0.315060
  13 O :   -0.382958
  14 C :   -0.011684
  15 C :   -0.308510
  16 O :   -0.351408
  17 C :   -0.020806
  18 C :   -0.291230
  19 H :    0.115098
  20 H :    0.130809
  21 H :    0.121075
  22 H :    0.107526
  23 H :    0.114780
  24 H :    0.116987
  25 H :    0.111145
  26 H :    0.117071
  27 H :    0.129045
  28 H :    0.111405
  29 H :    0.194558
  30 H :    0.188024
  31 H :    0.109210
  32 H :    0.114334
  33 H :    0.127634
  34 H :    0.110240
  35 H :    0.125073
  36 H :    0.122310
  37 H :    0.100863
  38 H :    0.127726
  39 H :    0.107166
  40 H :    0.113782
Sum of atomic charges:    0.0000000

LOEWDIN ATOMIC CHARGES
----------------------
   0 C :   -0.364493
   1 C :   -0.117790
   2 O :   -0.238335
   3 P :    0.569257
   4 S :   -0.310672
   5 O :   -0.245681
   6 C :   -0.116551
   7 C :   -0.359603
   8 S :    0.089363
   9 C :   -0.483424
  10 S :    0.067248
  11 P :    0.569056
  12 S :   -0.312495
  13 O :   -0.246108
  14 C :   -0.113851
  15 C :   -0.369268
  16 O :   -0.231806
  17 C :   -0.120089
  18 C :   -0.353634
  19 H :    0.132372
  20 H :    0.124158
  21 H :    0.128537
  22 H :    0.119340
  23 H :    0.111821
  24 H :    0.110716
  25 H :    0.120165
  26 H :    0.126262
  27 H :    0.124893
  28 H :    0.130691
  29 H :    0.129132
  30 H :    0.132657
  31 H :    0.121314
  32 H :    0.108800
  33 H :    0.130954
  34 H :    0.129543
  35 H :    0.121262
  36 H :    0.101757
  37 H :    0.112036
  38 H :    0.118317
  39 H :    0.127992
  40 H :    0.126153

  Mayer bond orders larger than 0.100000
B(  0-C ,  1-C ) :   1.1657 B(  0-C , 19-H ) :   0.9377 B(  0-C , 20-H ) :   0.9333
B(  0-C , 21-H ) :   0.9455 B(  1-C ,  2-O ) :   0.8994 B(  1-C , 22-H ) :   0.9335
B(  1-C , 23-H ) :   0.9146 B(  2-O ,  3-P ) :   1.1155 B(  3-P ,  4-S ) :   1.6025
B(  3-P ,  5-O ) :   1.1135 B(  3-P ,  8-S ) :   0.9721 B(  4-S ,  8-S ) :   0.1109
B(  5-O ,  6-C ) :   0.9012 B(  6-C ,  7-C ) :   1.1704 B(  6-C , 24-H ) :   0.9048
B(  6-C , 25-H ) :   0.9333 B(  7-C , 26-H ) :   0.9464 B(  7-C , 27-H ) :   0.9335
B(  7-C , 28-H ) :   0.9388 B(  8-S ,  9-C ) :   0.9993 B(  9-C , 10-S ) :   1.0118
B(  9-C , 29-H ) :   0.8629 B(  9-C , 30-H ) :   0.8981 B( 10-S , 11-P ) :   0.9387
B( 10-S , 12-S ) :   0.1087 B( 11-P , 12-S ) :   1.6393 B( 11-P , 13-O ) :   1.0891
B( 11-P , 16-O ) :   1.1516 B( 12-S , 29-H ) :   0.1038 B( 13-O , 14-C ) :   0.9139
B( 14-C , 15-C ) :   1.1660 B( 14-C , 31-H ) :   0.9336 B( 14-C , 32-H ) :   0.9270
B( 15-C , 33-H ) :   0.9430 B( 15-C , 34-H ) :   0.9350 B( 15-C , 35-H ) :   0.9317
B( 16-O , 17-C ) :   0.8824 B( 17-C , 18-C ) :   1.1687 B( 17-C , 36-H ) :   0.9005
B( 17-C , 37-H ) :   0.9304 B( 18-C , 38-H ) :   0.9332 B( 18-C , 39-H ) :   0.9410
B( 18-C , 40-H ) :   0.9462

Dispersion correction           -0.065493285
FINAL SINGLE POINT ENERGY     -2929.520366770960

DIPOLE MOMENT
-------------

Method             : SCF
Type of density    : Electron Density
Multiplicity       :   1
Irrep              :   0
Energy             : -2929.6391753440684624 Eh
Relativity type    :
Basis              : AO
                                X                 Y                 Z
Electronic contribution:    -11.747642422      -0.653659651     -12.798329892
Nuclear contribution   :     13.104650352       1.280893326      13.698170355
                        -----------------------------------------
Total Dipole Moment    :      1.357007931       0.627233674       0.899840462
                        -----------------------------------------
Magnitude (a.u.)       :      1.744879785
Magnitude (Debye)      :      4.435131948

Rotational constants in cm-1:             0.013733             0.004660             0.004314
Rotational constants in MHz :           411.703704           139.697947           129.337068

                             ****ORCA TERMINATED NORMALLY****
TOTAL RUN TIME: 0 days 0 hours 0 minutes 20 seconds 814 msec
