                         Program Version 6.0.0  -   RELEASE  -
|  1> ! pbe def2-sv(p) def2/J RI DEFGRID1 loosescf d4 GCP(DFT/SV(P)) printgap
|  2> %output
|  3>     printlevel normal
|  4> end
|  5> * xyz 0 1
|  6> C 2.4374529445 -1.3383070556 3.1394653556
|  7> C 1.7714813086 -0.0279150012 2.7749495261
|  8> O 1.310990788 -0.0029226537 1.4070217574
|  9> P 2.2298081138 -0.1537392545 0.1261594687
| 10> S 2.9153702368 -1.9333567944 -0.3487657036
| 11> O 3.3540923518 0.9321177686 0.4135956614
| 12> C 4.5871855528 0.9710214673 -0.3265027722
| 13> C 4.3772927999 1.4491223067 -1.7482708605
| 14> S 0.9415145931 0.72111509 -1.3078092472
| 15> C 0.0995179381 -0.8080107777 -1.7924687576
| 16> S -0.8260323218 -1.5654941402 -0.4300089954
| 17> P -2.1640935786 0.0484363196 -0.1236707054
| 18> S -2.7460210758 0.978469842 -1.7522651357
| 19> O -1.420644502 0.9354071844 0.9525517972
| 20> C -1.5083209446 2.3732726595 0.9628522654
| 21> C -2.8354769127 2.828653533 1.5318763584
| 22> O -3.2842581919 -0.6063019403 0.791600964
| 23> C -4.1847389481 -1.6313776735 0.325680041
| 24> C -5.4335257323 -1.0303234745 -0.2903782551
| 25> H 1.7743329204 -2.1722847005 2.9199925116
| 26> H 3.3547560972 -1.4683057723 2.5668105359
| 27> H 2.677247376 -1.3382150134 4.1981893349
| 28> H 2.4528711892 0.8133548948 2.9219154467
| 29> H 0.8557650945 0.127272032 3.3488622842
| 30> H 5.2141571853 1.6583434127 0.2429421534
| 31> H 5.0266871886 -0.0316506757 -0.318830756
| 32> H 5.3408652611 1.5741144102 -2.2315635464
| 33> H 3.7951669138 0.71612907 -2.3050831324
| 34> H 3.8430234116 2.3957547285 -1.7545266958
| 35> H 0.8333042704 -1.5465676619 -2.1142524419
| 36> H -0.5833392511 -0.5421584252 -2.59891583
| 37> H -0.665778195 2.6883653834 1.579994869
| 38> H -1.3743070552 2.7428745909 -0.059486049
| 39> H -2.8532507855 3.9123767252 1.5882529442
| 40> H -3.6434100938 2.4922316932 0.883094229
| 41> H -2.9837320316 2.4085273038 2.5229416173
| 42> H -3.6607170589 -2.2724730858 -0.3894258183
| 43> H -4.4224546793 -2.2074266889 1.22209051
| 44> H -6.1097905049 -1.8293288628 -0.5766254619
| 45> H -5.9280549271 -0.3803973997 0.4261392409
| 46> H -5.1785527726 -0.4483781948 -1.1731736038
| 47> *
| 48>
| 49>                          ****END OF INPUT****

CARTESIAN COORDINATES (ANGSTROEM)
---------------------------------
  C      2.437453   -1.338307    3.139465
  C      1.771481   -0.027915    2.774950
  O      1.310991   -0.002923    1.407022
  P      2.229808   -0.153739    0.126159
  S      2.915370   -1.933357   -0.348766
  O      3.354092    0.932118    0.413596
  C      4.587186    0.971021   -0.326503
  C      4.377293    1.449122   -1.748271
  S      0.941515    0.721115   -1.307809
  C      0.099518   -0.808011   -1.792469
  S     -0.826032   -1.565494   -0.430009
  P     -2.164094    0.048436   -0.123671
  S     -2.746021    0.978470   -1.752265
  O     -1.420645    0.935407    0.952552
  C     -1.508321    2.373273    0.962852
  C     -2.835477    2.828654    1.531876
  O     -3.284258   -0.606302    0.791601
  C     -4.184739   -1.631378    0.325680
  C     -5.433526   -1.030323   -0.290378
  H      1.774333   -2.172285    2.919993
  H      3.354756   -1.468306    2.566811
  H      2.677247   -1.338215    4.198189
  H      2.452871    0.813355    2.921915
  H      0.855765    0.127272    3.348862
  H      5.214157    1.658343    0.242942
  H      5.026687   -0.031651   -0.318831
  H      5.340865    1.574114   -2.231564
  H      3.795167    0.716129   -2.305083
  H      3.843023    2.395755   -1.754527
  H      0.833304   -1.546568   -2.114252
  H     -0.583339   -0.542158   -2.598916
  H     -0.665778    2.688365    1.579995
  H     -1.374307    2.742875   -0.059486
  H     -2.853251    3.912377    1.588253
  H     -3.643410    2.492232    0.883094
  H     -2.983732    2.408527    2.522942
  H     -3.660717   -2.272473   -0.389426
  H     -4.422455   -2.207427    1.222091
  H     -6.109791   -1.829329   -0.576625
  H     -5.928055   -0.380397    0.426139
  H     -5.178553   -0.448378   -1.173174

 Total Charge           Charge          ....    0
 Multiplicity           Mult            ....    1
 Number of Electrons    NEL             ....  202
 Basis Dimension        Dim             ....  334

ORBITAL ENERGIES
----------------

  NO   OCC          E(Eh)            E(eV)
   0   2.0000     -88.040551     -2395.7052
   1   2.0000     -88.038311     -2395.6442
   2   2.0000     -87.986752     -2394.2412
   3   2.0000     -87.986744     -2394.2410
   4   2.0000     -76.426861     -2079.6806
   5   2.0000     -76.424590     -2079.6188
   6   2.0000     -18.798712      -511.5390
   7   2.0000     -18.792661      -511.3743
   8   2.0000     -18.785640      -511.1833
   9   2.0000     -18.785317      -511.1745
  10   2.0000      -9.954409      -270.8732
  11   2.0000      -9.954282      -270.8698
  12   2.0000      -9.953449      -270.8471
  13   2.0000      -9.951330      -270.7895
  14   2.0000      -9.946394      -270.6552
  15   2.0000      -9.885137      -268.9883
  16   2.0000      -9.881309      -268.8841
  17   2.0000      -9.880268      -268.8558
  18   2.0000      -9.880251      -268.8553
  19   2.0000      -7.685438      -209.1314
  20   2.0000      -7.683416      -209.0764
  21   2.0000      -7.631756      -207.6706
  22   2.0000      -7.631668      -207.6682
  23   2.0000      -6.424144      -174.8098
  24   2.0000      -6.422001      -174.7515
  25   2.0000      -5.713330      -155.4676
  26   2.0000      -5.711232      -155.4105
  27   2.0000      -5.710111      -155.3800
  28   2.0000      -5.707989      -155.3223
  29   2.0000      -5.702231      -155.1656
  30   2.0000      -5.700358      -155.1146
  31   2.0000      -5.660551      -154.0314
  32   2.0000      -5.660389      -154.0270
  33   2.0000      -5.652475      -153.8117
  34   2.0000      -5.652244      -153.8054
  35   2.0000      -5.652073      -153.8007
  36   2.0000      -5.651969      -153.7979
  37   2.0000      -4.647110      -126.4543
  38   2.0000      -4.645625      -126.4139
  39   2.0000      -4.644560      -126.3849
  40   2.0000      -4.644354      -126.3793
  41   2.0000      -4.643866      -126.3660
  42   2.0000      -4.642591      -126.3313
  43   2.0000      -0.988617       -26.9016
  44   2.0000      -0.984982       -26.8027
  45   2.0000      -0.944514       -25.7015
  46   2.0000      -0.942751       -25.6536
  47   2.0000      -0.763691       -20.7811
  48   2.0000      -0.719812       -19.5871
  49   2.0000      -0.706666       -19.2293
  50   2.0000      -0.688525       -18.7357
  51   2.0000      -0.683346       -18.5948
  52   2.0000      -0.672397       -18.2969
  53   2.0000      -0.651202       -17.7201
  54   2.0000      -0.637774       -17.3547
  55   2.0000      -0.598535       -16.2870
  56   2.0000      -0.592762       -16.1299
  57   2.0000      -0.577974       -15.7275
  58   2.0000      -0.567346       -15.4383
  59   2.0000      -0.558958       -15.2100
  60   2.0000      -0.500045       -13.6069
  61   2.0000      -0.494784       -13.4638
  62   2.0000      -0.473386       -12.8815
  63   2.0000      -0.470429       -12.8010
  64   2.0000      -0.456355       -12.4181
  65   2.0000      -0.441733       -12.0202
  66   2.0000      -0.437215       -11.8972
  67   2.0000      -0.433125       -11.7859
  68   2.0000      -0.424764       -11.5584
  69   2.0000      -0.412572       -11.2267
  70   2.0000      -0.409243       -11.1361
  71   2.0000      -0.403032       -10.9670
  72   2.0000      -0.394096       -10.7239
  73   2.0000      -0.385850       -10.4995
  74   2.0000      -0.376273       -10.2389
  75   2.0000      -0.374068       -10.1789
  76   2.0000      -0.368236       -10.0202
  77   2.0000      -0.357322        -9.7232
  78   2.0000      -0.350437        -9.5359
  79   2.0000      -0.348691        -9.4884
  80   2.0000      -0.345822        -9.4103
  81   2.0000      -0.341905        -9.3037
  82   2.0000      -0.341520        -9.2932
  83   2.0000      -0.334135        -9.0923
  84   2.0000      -0.333206        -9.0670
  85   2.0000      -0.324801        -8.8383
  86   2.0000      -0.307927        -8.3791
  87   2.0000      -0.297163        -8.0862
  88   2.0000      -0.296117        -8.0577
  89   2.0000      -0.289611        -7.8807
  90   2.0000      -0.281554        -7.6615
  91   2.0000      -0.276148        -7.5144
  92   2.0000      -0.269223        -7.3259
  93   2.0000      -0.262618        -7.1462
  94   2.0000      -0.258945        -7.0462
  95   2.0000      -0.232552        -6.3281
  96   2.0000      -0.215620        -5.8673
  97   2.0000      -0.212433        -5.7806
  98   2.0000      -0.204090        -5.5536
  99   2.0000      -0.198389        -5.3984
 100   2.0000      -0.196350        -5.3430
 101   0.0000      -0.043976        -1.1966
 102   0.0000      -0.022385        -0.6091
 103   0.0000      -0.000852        -0.0232
 104   0.0000       0.001557         0.0424
 105   0.0000       0.015581         0.4240

MULLIKEN ATOMIC CHARGES
-----------------------
   0 C :   -0.313873
   1 C :   -0.000208
   2 O :   -0.355103
   3 P :    0.628826
   4 S :   -0.335981
   5 O :   -0.380809
   6 C :   -0.006431
   7 C :   -0.313402
   8 S :   -0.077562
   9 C :   -0.364445
  10 S :   -0.074484
  11 P :    0.613232
  12 S :   -0.341233
  13 O :   -0.349829
  14 C :   -0.005048
  15 C :   -0.298256
  16 O :   -0.368302
  17 C :   -0.013009
  18 C :   -0.295931
  19 H :    0.127164
  20 H :    0.125441
  21 H :    0.107916
  22 H :    0.104567
  23 H :    0.107728
  24 H :    0.103780
  25 H :    0.112388
  26 H :    0.113826
  27 H :    0.127549
  28 H :    0.117551
  29 H :    0.191313
  30 H :    0.192486
  31 H :    0.099680
  32 H :    0.114133
  33 H :    0.109243
  34 H :    0.121193
  35 H :    0.112386
  36 H :    0.104370
  37 H :    0.107828
  38 H :    0.107354
  39 H :    0.113060
  40 H :    0.130893
Sum of atomic charges:    0.0000000

LOEWDIN ATOMIC CHARGES
----------------------
   0 C :   -0.367296
   1 C :   -0.109060
   2 O :   -0.235446
   3 P :    0.573568
   4 S :   -0.320762
   5 O :   -0.246456
   6 C :   -0.120783
   7 C :   -0.368193
   8 S :    0.095417
   9 C :   -0.482588
  10 S :    0.089175
  11 P :    0.570965
  12 S :   -0.322252
  13 O :   -0.228732
  14 C :   -0.119177
  15 C :   -0.363219
  16 O :   -0.244184
  17 C :   -0.116447
  18 C :   -0.364592
  19 H :    0.131259
  20 H :    0.120665
  21 H :    0.128022
  22 H :    0.110758
  23 H :    0.120603
  24 H :    0.117657
  25 H :    0.110266
  26 H :    0.131636
  27 H :    0.121802
  28 H :    0.125055
  29 H :    0.129233
  30 H :    0.130157
  31 H :    0.115488
  32 H :    0.107921
  33 H :    0.128986
  34 H :    0.122413
  35 H :    0.124379
  36 H :    0.106257
  37 H :    0.119216
  38 H :    0.128676
  39 H :    0.125392
  40 H :    0.124221

  Mayer bond orders larger than 0.100000
B(  0-C ,  1-C ) :   1.1660 B(  0-C , 19-H ) :   0.9451 B(  0-C , 20-H ) :   0.9366
B(  0-C , 21-H ) :   0.9361 B(  1-C ,  2-O ) :   0.9112 B(  1-C , 22-H ) :   0.9306
B(  1-C , 23-H ) :   0.9331 B(  2-O ,  3-P ) :   1.1308 B(  3-P ,  4-S ) :   1.6007
B(  3-P ,  5-O ) :   1.0918 B(  3-P ,  8-S ) :   0.9465 B(  4-S ,  8-S ) :   0.1143
B(  5-O ,  6-C ) :   0.9060 B(  6-C ,  7-C ) :   1.1665 B(  6-C , 24-H ) :   0.9330
B(  6-C , 25-H ) :   0.9127 B(  7-C , 26-H ) :   0.9381 B(  7-C , 27-H ) :   0.9347
B(  7-C , 28-H ) :   0.9457 B(  8-S ,  9-C ) :   1.0043 B(  9-C , 10-S ) :   1.0097
B(  9-C , 29-H ) :   0.8813 B(  9-C , 30-H ) :   0.8818 B( 10-S , 11-P ) :   0.9593
B( 10-S , 12-S ) :   0.1098 B( 11-P , 12-S ) :   1.5853 B( 11-P , 13-O ) :   1.1379
B( 11-P , 16-O ) :   1.1197 B( 13-O , 14-C ) :   0.9034 B( 14-C , 15-C ) :   1.1626
B( 14-C , 31-H ) :   0.9332 B( 14-C , 32-H ) :   0.9112 B( 15-C , 33-H ) :   0.9406
B( 15-C , 34-H ) :   0.9367 B( 15-C , 35-H ) :   0.9470 B( 16-O , 17-C ) :   0.9075
B( 17-C , 18-C ) :   1.1661 B( 17-C , 36-H ) :   0.9156 B( 17-C , 37-H ) :   0.9362
B( 18-C , 38-H ) :   0.9391 B( 18-C , 39-H ) :   0.9474 B( 18-C , 40-H ) :   0.9313

Dispersion correction           -0.066323959
FINAL SINGLE POINT ENERGY     -2929.522924463537

DIPOLE MOMENT
-------------

Method             : SCF
Type of density    : Electron Density
Multiplicity       :   1
Irrep              :   0
Energy             : -2929.6408637644121882 Eh
Relativity type    :
Basis              : AO
                                X                 Y                 Z
Electronic contribution:      2.405781032      -6.477939195      -9.397690812
Nuclear contribution   :     -2.164562446       7.006104960      10.387150943
                        -----------------------------------------
Total Dipole Moment    :      0.241218586       0.528165765       0.989460131
                        -----------------------------------------
Magnitude (a.u.)       :      1.147247503
Magnitude (Debye)      :      2.916071408

Rotational constants in cm-1:             0.013192             0.004837             0.004782
Rotational constants in MHz :           395.491689           145.011823           143.357090

                             ****ORCA TERMINATED NORMALLY****
TOTAL RUN TIME: 0 days 0 hours 0 minutes 21 seconds 32 msec
