                         Program Version 6.0.1  -  RELEASE   -
|  1> ! pbe def2-sv(p) def2/J RI DEFGRID1 loosescf d4 GCP(DFT/SV(P)) printgap
|  2> %output
|  3>     printlevel normal
|  4> end
|  5> * xyz 0 1
|  6> C 5.0666611615 -0.5217234608 0.4732562796
|  7> C 4.6948589141 -1.394553753 -0.7146043377
|  8> O 3.2826530829 -1.6815584431 -0.7242414625
|  9> C 2.463526347 -0.7889402463 -1.2393672757
| 10> O 2.812274098 0.2588507779 -1.7431991109
| 11> C 1.0216490454 -1.2398342765 -1.1375257414
| 12> C 0.1056555662 -0.1170342133 -1.5918136417
| 13> H 0.2515130911 0.1125899425 -2.6508470147
| 14> C 0.2863799536 1.1738556539 -0.8167752602
| 15> O -0.1191310368 2.2431488677 -1.2206779226
| 16> O 0.8887189952 0.9930812651 0.3346464046
| 17> C 1.111533165 2.1472106294 1.1672046856
| 18> C 1.8499699806 1.6898730711 2.4085504566
| 19> S -1.6592256236 -0.5692028446 -1.4723855389
| 20> P -2.0546367078 -0.1993364767 0.5911600742
| 21> S -0.9335705728 -1.0468155404 1.9473136437
| 22> O -2.1554453003 1.3674853744 0.7953589543
| 23> C -3.0132938089 2.2219034143 0.0093012631
| 24> O -3.593880817 -0.6166208377 0.6549358001
| 25> C -3.9886300535 -1.9944536959 0.6067790608
| 26> H 4.7317717795 -0.9862279291 1.3969316418
| 27> H 6.1436980426 -0.3946244974 0.5040783255
| 28> H 4.5990878097 0.4558976838 0.3759909196
| 29> H 5.1675120511 -2.3745167983 -0.6525687684
| 30> H 4.9573585337 -0.9002465737 -1.6544400325
| 31> H 0.8248863692 -1.522725919 -0.100403608
| 32> H 0.8764356764 -2.1223161323 -1.7623234822
| 33> H 1.6832551015 2.8774180129 0.5859164201
| 34> H 0.1365035568 2.580058823 1.4133128244
| 35> H 1.991896954 2.5351064877 3.0731269852
| 36> H 1.2714873076 0.9226909998 2.9167443996
| 37> H 2.8173086184 1.2762018536 2.1392917963
| 38> H -3.857372296 1.6599187133 -0.3835392892
| 39> H -2.42265317 2.6509205443 -0.8010342688
| 40> H -3.3534548809 3.0006476191 0.6870779953
| 41> H -3.8843242513 -2.3726560132 -0.4093845508
| 42> H -5.0295011213 -2.0106499193 0.9196226741
| 43> H -3.3750882779 -2.5831220135 1.2902030193
| 44> *
| 45>
| 46>                          ****END OF INPUT****

CARTESIAN COORDINATES (ANGSTROEM)
---------------------------------
  C      5.066661   -0.521723    0.473256
  C      4.694859   -1.394554   -0.714604
  O      3.282653   -1.681558   -0.724241
  C      2.463526   -0.788940   -1.239367
  O      2.812274    0.258851   -1.743199
  C      1.021649   -1.239834   -1.137526
  C      0.105656   -0.117034   -1.591814
  H      0.251513    0.112590   -2.650847
  C      0.286380    1.173856   -0.816775
  O     -0.119131    2.243149   -1.220678
  O      0.888719    0.993081    0.334646
  C      1.111533    2.147211    1.167205
  C      1.849970    1.689873    2.408550
  S     -1.659226   -0.569203   -1.472386
  P     -2.054637   -0.199336    0.591160
  S     -0.933571   -1.046816    1.947314
  O     -2.155445    1.367485    0.795359
  C     -3.013294    2.221903    0.009301
  O     -3.593881   -0.616621    0.654936
  C     -3.988630   -1.994454    0.606779
  H      4.731772   -0.986228    1.396932
  H      6.143698   -0.394624    0.504078
  H      4.599088    0.455898    0.375991
  H      5.167512   -2.374517   -0.652569
  H      4.957359   -0.900247   -1.654440
  H      0.824886   -1.522726   -0.100404
  H      0.876436   -2.122316   -1.762323
  H      1.683255    2.877418    0.585916
  H      0.136504    2.580059    1.413313
  H      1.991897    2.535106    3.073127
  H      1.271487    0.922691    2.916744
  H      2.817309    1.276202    2.139292
  H     -3.857372    1.659919   -0.383539
  H     -2.422653    2.650921   -0.801034
  H     -3.353455    3.000648    0.687078
  H     -3.884324   -2.372656   -0.409385
  H     -5.029501   -2.010650    0.919623
  H     -3.375088   -2.583122    1.290203

 Total Charge           Charge          ....    0
 Multiplicity           Mult            ....    1
 Number of Electrons    NEL             ....  174
 Basis Dimension        Dim             ....  316

ORBITAL ENERGIES
----------------

  NO   OCC          E(Eh)            E(eV)
   0   2.0000     -88.044513     -2395.8130
   1   2.0000     -87.986522     -2394.2350
   2   2.0000     -76.430660     -2079.7840
   3   2.0000     -18.803168      -511.6602
   4   2.0000     -18.801959      -511.6273
   5   2.0000     -18.800142      -511.5779
   6   2.0000     -18.798647      -511.5372
   7   2.0000     -18.741990      -509.9955
   8   2.0000     -18.730766      -509.6900
   9   2.0000     -10.011811      -272.4352
  10   2.0000     -10.011296      -272.4212
  11   2.0000      -9.951234      -270.7868
  12   2.0000      -9.950141      -270.7571
  13   2.0000      -9.946580      -270.6602
  14   2.0000      -9.942943      -270.5612
  15   2.0000      -9.940443      -270.4932
  16   2.0000      -9.903620      -269.4912
  17   2.0000      -9.888422      -269.0777
  18   2.0000      -9.878482      -268.8072
  19   2.0000      -7.689378      -209.2386
  20   2.0000      -7.631751      -207.6705
  21   2.0000      -6.427752      -174.9080
  22   2.0000      -5.717214      -155.5733
  23   2.0000      -5.714060      -155.4875
  24   2.0000      -5.706277      -155.2757
  25   2.0000      -5.660770      -154.0374
  26   2.0000      -5.652134      -153.8024
  27   2.0000      -5.651924      -153.7967
  28   2.0000      -4.650769      -126.5538
  29   2.0000      -4.649619      -126.5226
  30   2.0000      -4.647822      -126.4737
  31   2.0000      -1.013779       -27.5863
  32   2.0000      -1.009513       -27.4702
  33   2.0000      -0.991572       -26.9820
  34   2.0000      -0.948171       -25.8010
  35   2.0000      -0.918182       -24.9850
  36   2.0000      -0.910979       -24.7890
  37   2.0000      -0.765458       -20.8292
  38   2.0000      -0.713470       -19.4145
  39   2.0000      -0.703493       -19.1430
  40   2.0000      -0.692833       -18.8529
  41   2.0000      -0.660451       -17.9718
  42   2.0000      -0.642505       -17.4834
  43   2.0000      -0.623885       -16.9768
  44   2.0000      -0.612417       -16.6647
  45   2.0000      -0.591198       -16.0873
  46   2.0000      -0.561176       -15.2704
  47   2.0000      -0.517489       -14.0816
  48   2.0000      -0.505467       -13.7544
  49   2.0000      -0.499135       -13.5821
  50   2.0000      -0.479790       -13.0558
  51   2.0000      -0.471866       -12.8401
  52   2.0000      -0.459637       -12.5074
  53   2.0000      -0.446844       -12.1592
  54   2.0000      -0.439906       -11.9704
  55   2.0000      -0.433969       -11.8089
  56   2.0000      -0.427705       -11.6384
  57   2.0000      -0.418685       -11.3930
  58   2.0000      -0.415234       -11.2991
  59   2.0000      -0.408955       -11.1282
  60   2.0000      -0.401547       -10.9267
  61   2.0000      -0.398507       -10.8439
  62   2.0000      -0.393194       -10.6994
  63   2.0000      -0.382128       -10.3982
  64   2.0000      -0.372927       -10.1479
  65   2.0000      -0.358977        -9.7682
  66   2.0000      -0.355227        -9.6662
  67   2.0000      -0.347275        -9.4498
  68   2.0000      -0.346262        -9.4223
  69   2.0000      -0.343699        -9.3525
  70   2.0000      -0.333987        -9.0883
  71   2.0000      -0.326586        -8.8868
  72   2.0000      -0.322321        -8.7708
  73   2.0000      -0.311023        -8.4634
  74   2.0000      -0.306045        -8.3279
  75   2.0000      -0.301431        -8.2024
  76   2.0000      -0.299165        -8.1407
  77   2.0000      -0.294563        -8.0155
  78   2.0000      -0.272971        -7.4279
  79   2.0000      -0.265348        -7.2205
  80   2.0000      -0.263657        -7.1745
  81   2.0000      -0.256806        -6.9881
  82   2.0000      -0.238583        -6.4922
  83   2.0000      -0.224961        -6.1215
  84   2.0000      -0.216938        -5.9032
  85   2.0000      -0.203751        -5.5443
  86   2.0000      -0.198411        -5.3990
  87   0.0000      -0.043933        -1.1955
  88   0.0000      -0.035302        -0.9606
  89   0.0000      -0.021298        -0.5795
  90   0.0000      -0.004758        -0.1295
  91   0.0000       0.021727         0.5912

MULLIKEN ATOMIC CHARGES
-----------------------
   0 C :   -0.322841
   1 C :   -0.010758
   2 O :   -0.225789
   3 C :    0.121114
   4 O :   -0.217410
   5 C :   -0.037510
   6 C :   -0.309467
   7 H :    0.153022
   8 C :    0.172331
   9 O :   -0.198428
  10 O :   -0.226173
  11 C :   -0.023231
  12 C :   -0.291915
  13 S :   -0.084859
  14 P :    0.587556
  15 S :   -0.292990
  16 O :   -0.366972
  17 C :   -0.119856
  18 O :   -0.382348
  19 C :   -0.103354
  20 H :    0.122050
  21 H :    0.113389
  22 H :    0.141198
  23 H :    0.104293
  24 H :    0.107925
  25 H :    0.136457
  26 H :    0.114421
  27 H :    0.107496
  28 H :    0.111122
  29 H :    0.105465
  30 H :    0.129797
  31 H :    0.113789
  32 H :    0.120407
  33 H :    0.153806
  34 H :    0.126144
  35 H :    0.120388
  36 H :    0.129453
  37 H :    0.122278
Sum of atomic charges:    0.0000000

LOEWDIN ATOMIC CHARGES
----------------------
   0 C :   -0.358434
   1 C :   -0.109060
   2 O :   -0.055859
   3 C :    0.036786
   4 O :   -0.171082
   5 C :   -0.268480
   6 C :   -0.255782
   7 H :    0.152756
   8 C :   -0.001441
   9 O :   -0.164023
  10 O :   -0.039785
  11 C :   -0.104530
  12 C :   -0.354877
  13 S :    0.101077
  14 P :    0.564704
  15 S :   -0.294303
  16 O :   -0.234595
  17 C :   -0.213736
  18 O :   -0.256398
  19 C :   -0.213557
  20 H :    0.127250
  21 H :    0.131132
  22 H :    0.130429
  23 H :    0.118694
  24 H :    0.119751
  25 H :    0.141530
  26 H :    0.143945
  27 H :    0.118058
  28 H :    0.117649
  29 H :    0.128648
  30 H :    0.128565
  31 H :    0.122590
  32 H :    0.112331
  33 H :    0.125931
  34 H :    0.123961
  35 H :    0.111862
  36 H :    0.124661
  37 H :    0.113631

  Mayer bond orders larger than 0.100000
B(  0-C ,  1-C ) :   1.1740 B(  0-C , 20-H ) :   0.9465 B(  0-C , 21-H ) :   0.9412
B(  0-C , 22-H ) :   0.9358 B(  1-C ,  2-O ) :   0.9157 B(  1-C , 23-H ) :   0.9376
B(  1-C , 24-H ) :   0.9160 B(  2-O ,  3-C ) :   1.2473 B(  3-C ,  4-O ) :   2.0081
B(  3-C ,  5-C ) :   1.0098 B(  5-C ,  6-C ) :   1.0130 B(  5-C , 25-H ) :   0.8547
B(  5-C , 26-H ) :   0.8793 B(  6-C ,  7-H ) :   0.8786 B(  6-C ,  8-C ) :   0.9190
B(  6-C , 13-S ) :   1.0038 B(  8-C ,  9-O ) :   2.0229 B(  8-C , 10-O ) :   1.2309
B( 10-O , 11-C ) :   0.8892 B( 11-C , 12-C ) :   1.1572 B( 11-C , 27-H ) :   0.9301
B( 11-C , 28-H ) :   0.9240 B( 12-C , 29-H ) :   0.9418 B( 12-C , 30-H ) :   0.9387
B( 12-C , 31-H ) :   0.9452 B( 13-S , 14-P ) :   0.9666 B( 13-S , 15-S ) :   0.1170
B( 14-P , 15-S ) :   1.6690 B( 14-P , 16-O ) :   1.1107 B( 14-P , 18-O ) :   1.0776
B( 16-O , 17-C ) :   0.8963 B( 17-C , 32-H ) :   0.9417 B( 17-C , 33-H ) :   0.9316
B( 17-C , 34-H ) :   0.9576 B( 18-O , 19-C ) :   0.9262 B( 19-C , 35-H ) :   0.9497
B( 19-C , 36-H ) :   0.9584 B( 19-C , 37-H ) :   0.9334

Dispersion correction           -0.053796348
FINAL SINGLE POINT ENERGY     -1979.023180020001

DIPOLE MOMENT
-------------

Method             : SCF
Type of density    : Electron Density
Multiplicity       :   1
Irrep              :   0
Energy             : -1979.1542021556783766 Eh
Relativity type    :
Basis              : AO
                                X                 Y                 Z
Electronic contribution:    -14.738158127      -3.420159936      -5.871746097
Nuclear contribution   :     14.621164399       2.893843667       5.891755116
                        -----------------------------------------
Total Dipole Moment    :     -0.116993728      -0.526316269       0.020009019
                        -----------------------------------------
Magnitude (a.u.)       :      0.539533788
Magnitude (Debye)      :      1.371385903

Rotational constants in cm-1:             0.016027             0.006503             0.006229
Rotational constants in MHz :           480.480693           194.968934           186.733447

                             ****ORCA TERMINATED NORMALLY****
TOTAL RUN TIME: 0 days 0 hours 0 minutes 36 seconds 760 msec
