                         Program Version 6.0.0  -   RELEASE  -
|  1> ! pbe def2-sv(p) def2/J RI DEFGRID1 loosescf d4 GCP(DFT/SV(P)) printgap
|  2> %output
|  3>     printlevel normal
|  4> end
|  5> * xyz 0 1
|  6> C 2.0941771173 -3.7661246269 0.3764805538
|  7> C 1.5242271475 -2.6068107436 1.1665027813
|  8> O 1.1158784412 -1.5175484371 0.3087044882
|  9> P 2.1155883871 -0.5864068942 -0.492950671
| 10> S 2.8932475843 -1.2564111139 -2.1627246251
| 11> O 3.1798345886 -0.2213119168 0.6415538785
| 12> C 4.4706180564 0.3161122189 0.3143550899
| 13> C 4.3799226065 1.7566734638 -0.1470661745
| 14> S 0.8728288517 1.1074719955 -0.7408957381
| 15> C 0.410659778 1.3922411734 0.9961912539
| 16> S -0.9044252644 0.3008200343 1.5995320582
| 17> P -2.3385685858 0.780447031 0.105165717
| 18> S -2.3973842599 2.6445365824 -0.4775575351
| 19> O -3.6944316257 0.1907309026 0.6951282195
| 20> C -4.5697482958 0.9547870711 1.5464821368
| 21> C -3.9349595971 1.2833449078 2.8818768809
| 22> O -2.0591869407 -0.2163614496 -1.0886392835
| 23> C -2.0930746967 -1.6566866576 -0.9376170923
| 24> C -1.3438288969 -2.2642001105 -2.1049575524
| 25> H 3.0047466724 -3.4605763713 -0.1365368126
| 26> H 2.3241443837 -4.5835902801 1.0524727554
| 27> H 1.3792768018 -4.1053338089 -0.3688360273
| 28> H 2.250218842 -2.227899412 1.8882990971
| 29> H 0.6030337398 -2.883247286 1.6826559751
| 30> H 5.0416056028 0.2224154345 1.2391041256
| 31> H 4.9175482013 -0.3070725242 -0.4668634755
| 32> H 3.8883798255 2.3708330044 0.6030591488
| 33> H 5.3791677649 2.1405792602 -0.3254217555
| 34> H 3.8110364249 1.8128401316 -1.0749989383
| 35> H 0.0624901601 2.4234712179 1.0342656348
| 36> H 1.2710902552 1.2349091842 1.6417024034
| 37> H -4.8487146264 1.8708716572 1.017274903
| 38> H -5.4427851935 0.3107746428 1.6613781124
| 39> H -3.5507396638 0.3816133616 3.3517869235
| 40> H -3.1148480953 1.9852850626 2.7408986205
| 41> H -4.679142706 1.7385717389 3.5274151822
| 42> H -1.6271916836 -1.9186719538 0.0171920789
| 43> H -3.1399899466 -1.965809723 -0.9271868336
| 44> H -1.7829891259 -1.9347547426 -3.0423178881
| 45> H -0.2994135334 -1.9565621643 -2.0894075367
| 46> H -1.3974000833 -3.3463296974 -2.0416002671
| 47> *
| 48>
| 49>                          ****END OF INPUT****

CARTESIAN COORDINATES (ANGSTROEM)
---------------------------------
  C      2.094177   -3.766125    0.376481
  C      1.524227   -2.606811    1.166503
  O      1.115878   -1.517548    0.308704
  P      2.115588   -0.586407   -0.492951
  S      2.893248   -1.256411   -2.162725
  O      3.179835   -0.221312    0.641554
  C      4.470618    0.316112    0.314355
  C      4.379923    1.756673   -0.147066
  S      0.872829    1.107472   -0.740896
  C      0.410660    1.392241    0.996191
  S     -0.904425    0.300820    1.599532
  P     -2.338569    0.780447    0.105166
  S     -2.397384    2.644537   -0.477558
  O     -3.694432    0.190731    0.695128
  C     -4.569748    0.954787    1.546482
  C     -3.934960    1.283345    2.881877
  O     -2.059187   -0.216361   -1.088639
  C     -2.093075   -1.656687   -0.937617
  C     -1.343829   -2.264200   -2.104958
  H      3.004747   -3.460576   -0.136537
  H      2.324144   -4.583590    1.052473
  H      1.379277   -4.105334   -0.368836
  H      2.250219   -2.227899    1.888299
  H      0.603034   -2.883247    1.682656
  H      5.041606    0.222415    1.239104
  H      4.917548   -0.307073   -0.466863
  H      3.888380    2.370833    0.603059
  H      5.379168    2.140579   -0.325422
  H      3.811036    1.812840   -1.074999
  H      0.062490    2.423471    1.034266
  H      1.271090    1.234909    1.641702
  H     -4.848715    1.870872    1.017275
  H     -5.442785    0.310775    1.661378
  H     -3.550740    0.381613    3.351787
  H     -3.114848    1.985285    2.740899
  H     -4.679143    1.738572    3.527415
  H     -1.627192   -1.918672    0.017192
  H     -3.139990   -1.965810   -0.927187
  H     -1.782989   -1.934755   -3.042318
  H     -0.299414   -1.956562   -2.089408
  H     -1.397400   -3.346330   -2.041600

 Total Charge           Charge          ....    0
 Multiplicity           Mult            ....    1
 Number of Electrons    NEL             ....  202
 Basis Dimension        Dim             ....  334

ORBITAL ENERGIES
----------------

  NO   OCC          E(Eh)            E(eV)
   0   2.0000     -88.042758     -2395.7652
   1   2.0000     -88.041185     -2395.7224
   2   2.0000     -87.990186     -2394.3347
   3   2.0000     -87.985563     -2394.2089
   4   2.0000     -76.430054     -2079.7675
   5   2.0000     -76.425047     -2079.6312
   6   2.0000     -18.801086      -511.6036
   7   2.0000     -18.795849      -511.4611
   8   2.0000     -18.793965      -511.4098
   9   2.0000     -18.785620      -511.1827
  10   2.0000      -9.960185      -271.0304
  11   2.0000      -9.958020      -270.9715
  12   2.0000      -9.956851      -270.9397
  13   2.0000      -9.954142      -270.8660
  14   2.0000      -9.947413      -270.6829
  15   2.0000      -9.887877      -269.0628
  16   2.0000      -9.887379      -269.0493
  17   2.0000      -9.885498      -268.9981
  18   2.0000      -9.876362      -268.7495
  19   2.0000      -7.687434      -209.1857
  20   2.0000      -7.686150      -209.1508
  21   2.0000      -7.635197      -207.7643
  22   2.0000      -7.630839      -207.6457
  23   2.0000      -6.427197      -174.8929
  24   2.0000      -6.422291      -174.7594
  25   2.0000      -5.715719      -155.5326
  26   2.0000      -5.713952      -155.4845
  27   2.0000      -5.711751      -155.4246
  28   2.0000      -5.710702      -155.3961
  29   2.0000      -5.704238      -155.2202
  30   2.0000      -5.703136      -155.1902
  31   2.0000      -5.664110      -154.1283
  32   2.0000      -5.659828      -154.0118
  33   2.0000      -5.655732      -153.9003
  34   2.0000      -5.655483      -153.8935
  35   2.0000      -5.651383      -153.7819
  36   2.0000      -5.650995      -153.7714
  37   2.0000      -4.650128      -126.5364
  38   2.0000      -4.649014      -126.5061
  39   2.0000      -4.647330      -126.4603
  40   2.0000      -4.645169      -126.4015
  41   2.0000      -4.643998      -126.3696
  42   2.0000      -4.642616      -126.3320
  43   2.0000      -0.993919       -27.0459
  44   2.0000      -0.985433       -26.8150
  45   2.0000      -0.950551       -25.8658
  46   2.0000      -0.941031       -25.6068
  47   2.0000      -0.764002       -20.7895
  48   2.0000      -0.723152       -19.6780
  49   2.0000      -0.709220       -19.2989
  50   2.0000      -0.692615       -18.8470
  51   2.0000      -0.686959       -18.6931
  52   2.0000      -0.676595       -18.4111
  53   2.0000      -0.654537       -17.8109
  54   2.0000      -0.637769       -17.3546
  55   2.0000      -0.597994       -16.2722
  56   2.0000      -0.591403       -16.0929
  57   2.0000      -0.582891       -15.8613
  58   2.0000      -0.565349       -15.3839
  59   2.0000      -0.563445       -15.3321
  60   2.0000      -0.505582       -13.7576
  61   2.0000      -0.500870       -13.6294
  62   2.0000      -0.476956       -12.9786
  63   2.0000      -0.472446       -12.8559
  64   2.0000      -0.465158       -12.6576
  65   2.0000      -0.446804       -12.1582
  66   2.0000      -0.440781       -11.9943
  67   2.0000      -0.436005       -11.8643
  68   2.0000      -0.426943       -11.6177
  69   2.0000      -0.422378       -11.4935
  70   2.0000      -0.416374       -11.3301
  71   2.0000      -0.403916       -10.9911
  72   2.0000      -0.390936       -10.6379
  73   2.0000      -0.387806       -10.5527
  74   2.0000      -0.379088       -10.3155
  75   2.0000      -0.369935       -10.0665
  76   2.0000      -0.363937        -9.9032
  77   2.0000      -0.361542        -9.8380
  78   2.0000      -0.357923        -9.7396
  79   2.0000      -0.350548        -9.5389
  80   2.0000      -0.348088        -9.4720
  81   2.0000      -0.345036        -9.3889
  82   2.0000      -0.341016        -9.2795
  83   2.0000      -0.335667        -9.1340
  84   2.0000      -0.333814        -9.0835
  85   2.0000      -0.324068        -8.8184
  86   2.0000      -0.312809        -8.5120
  87   2.0000      -0.301406        -8.2017
  88   2.0000      -0.296953        -8.0805
  89   2.0000      -0.295356        -8.0370
  90   2.0000      -0.294303        -8.0084
  91   2.0000      -0.281617        -7.6632
  92   2.0000      -0.268292        -7.3006
  93   2.0000      -0.264529        -7.1982
  94   2.0000      -0.258397        -7.0313
  95   2.0000      -0.231850        -6.3090
  96   2.0000      -0.217656        -5.9227
  97   2.0000      -0.208906        -5.6846
  98   2.0000      -0.206941        -5.6311
  99   2.0000      -0.202330        -5.5057
 100   2.0000      -0.199496        -5.4286
 101   0.0000      -0.042207        -1.1485
 102   0.0000      -0.022748        -0.6190
 103   0.0000      -0.007447        -0.2027
 104   0.0000       0.000080         0.0022
 105   0.0000       0.003173         0.0863

MULLIKEN ATOMIC CHARGES
-----------------------
   0 C :   -0.311456
   1 C :   -0.007282
   2 O :   -0.372149
   3 P :    0.610793
   4 S :   -0.310141
   5 O :   -0.387875
   6 C :   -0.009232
   7 C :   -0.312162
   8 S :   -0.039169
   9 C :   -0.358692
  10 S :   -0.094664
  11 P :    0.604242
  12 S :   -0.312044
  13 O :   -0.386044
  14 C :    0.000465
  15 C :   -0.317700
  16 O :   -0.352169
  17 C :   -0.015610
  18 C :   -0.292716
  19 H :    0.129035
  20 H :    0.110174
  21 H :    0.122651
  22 H :    0.108055
  23 H :    0.107932
  24 H :    0.103226
  25 H :    0.113396
  26 H :    0.113491
  27 H :    0.114900
  28 H :    0.132119
  29 H :    0.193142
  30 H :    0.178551
  31 H :    0.113864
  32 H :    0.104532
  33 H :    0.115780
  34 H :    0.127543
  35 H :    0.113616
  36 H :    0.105308
  37 H :    0.102716
  38 H :    0.118321
  39 H :    0.132931
  40 H :    0.102321
Sum of atomic charges:   -0.0000000

LOEWDIN ATOMIC CHARGES
----------------------
   0 C :   -0.365338
   1 C :   -0.113205
   2 O :   -0.239406
   3 P :    0.562583
   4 S :   -0.312204
   5 O :   -0.249872
   6 C :   -0.123408
   7 C :   -0.366347
   8 S :    0.117048
   9 C :   -0.481096
  10 S :    0.077740
  11 P :    0.569332
  12 S :   -0.312872
  13 O :   -0.250477
  14 C :   -0.115812
  15 C :   -0.371392
  16 O :   -0.233667
  17 C :   -0.116405
  18 C :   -0.354867
  19 H :    0.123109
  20 H :    0.129353
  21 H :    0.129239
  22 H :    0.111974
  23 H :    0.116704
  24 H :    0.116853
  25 H :    0.110162
  26 H :    0.123266
  27 H :    0.132176
  28 H :    0.124192
  29 H :    0.134080
  30 H :    0.129344
  31 H :    0.113570
  32 H :    0.118509
  33 H :    0.122426
  34 H :    0.121207
  35 H :    0.131297
  36 H :    0.102230
  37 H :    0.111726
  38 H :    0.129179
  39 H :    0.122944
  40 H :    0.126123

  Mayer bond orders larger than 0.100000
B(  0-C ,  1-C ) :   1.1678 B(  0-C , 19-H ) :   0.9345 B(  0-C , 20-H ) :   0.9370
B(  0-C , 21-H ) :   0.9466 B(  1-C ,  2-O ) :   0.9027 B(  1-C , 22-H ) :   0.9269
B(  1-C , 23-H ) :   0.9293 B(  2-O ,  3-P ) :   1.0969 B(  3-P ,  4-S ) :   1.6342
B(  3-P ,  5-O ) :   1.0489 B(  3-P ,  8-S ) :   0.9860 B(  5-O ,  6-C ) :   0.9075
B(  6-C ,  7-C ) :   1.1642 B(  6-C , 24-H ) :   0.9330 B(  6-C , 25-H ) :   0.9111
B(  7-C , 26-H ) :   0.9472 B(  7-C , 27-H ) :   0.9386 B(  7-C , 28-H ) :   0.9345
B(  8-S ,  9-C ) :   0.9882 B(  9-C , 10-S ) :   0.9963 B(  9-C , 29-H ) :   0.8879
B(  9-C , 30-H ) :   0.8951 B( 10-S , 11-P ) :   0.9568 B( 10-S , 12-S ) :   0.1085
B( 11-P , 12-S ) :   1.6330 B( 11-P , 13-O ) :   1.0851 B( 11-P , 16-O ) :   1.1367
B( 13-O , 14-C ) :   0.9084 B( 14-C , 15-C ) :   1.1660 B( 14-C , 31-H ) :   0.9192
B( 14-C , 32-H ) :   0.9346 B( 15-C , 33-H ) :   0.9438 B( 15-C , 34-H ) :   0.9347
B( 15-C , 35-H ) :   0.9368 B( 16-O , 17-C ) :   0.8914 B( 17-C , 18-C ) :   1.1664
B( 17-C , 36-H ) :   0.9086 B( 17-C , 37-H ) :   0.9299 B( 18-C , 38-H ) :   0.9474
B( 18-C , 39-H ) :   0.9310 B( 18-C , 40-H ) :   0.9391

Dispersion correction           -0.066643411
FINAL SINGLE POINT ENERGY     -2929.522661957721

DIPOLE MOMENT
-------------

Method             : SCF
Type of density    : Electron Density
Multiplicity       :   1
Irrep              :   0
Energy             : -2929.6422844737967353 Eh
Relativity type    :
Basis              : AO
                                X                 Y                 Z
Electronic contribution:     -3.716080652      10.792853914      -8.747236596
Nuclear contribution   :      3.963352090     -11.723979404      10.711500893
                        -----------------------------------------
Total Dipole Moment    :      0.247271438      -0.931125490       1.964264297
                        -----------------------------------------
Magnitude (a.u.)       :      2.187800738
Magnitude (Debye)      :      5.560947541

Rotational constants in cm-1:             0.012817             0.005080             0.004647
Rotational constants in MHz :           384.239805           152.280563           139.325541

                             ****ORCA TERMINATED NORMALLY****
TOTAL RUN TIME: 0 days 0 hours 0 minutes 21 seconds 642 msec
