                         Program Version 6.0.0  -   RELEASE  -
|  1> ! pbe def2-sv(p) def2/J RI DEFGRID1 loosescf d4 GCP(DFT/SV(P)) printgap
|  2> %output
|  3>     printlevel normal
|  4> end
|  5> * xyz 0 1
|  6> C 2.5967133666 2.4388843849 -0.1554161303
|  7> C 2.8994824657 1.9855080259 1.2566010796
|  8> O 2.2549882354 0.72917045 1.5916702899
|  9> P 2.5015240516 -0.6628664652 0.905142049
| 10> S 1.9348271659 -2.1371255953 2.0639198656
| 11> O 4.0442077308 -0.6121280399 0.5415638326
| 12> C 4.7117617187 -1.7596563085 -0.0264378517
| 13> C 6.2047419834 -1.5235153343 0.0763575926
| 14> S 1.5458763563 -0.6910871615 -1.0067828463
| 15> C -0.0919658986 -1.101840609 -0.3872517179
| 16> S -0.8399926713 0.3028878797 0.5033552824
| 17> P -2.7020469596 0.3593376339 -0.4931620045
| 18> S -2.7879162035 -0.3791427707 -2.3123039974
| 19> O -3.1960299132 1.8605720627 -0.3433039376
| 20> C -2.8916723258 2.8676002232 -1.3266694266
| 21> C -1.4107609815 3.1818099517 -1.3829363786
| 22> O -3.5801602571 -0.3946271565 0.5891471459
| 23> C -4.873984732 -0.9543088819 0.280731837
| 24> C -5.9005368759 0.1182619213 -0.0172136619
| 25> H 1.5224428227 2.4547447375 -0.3222531
| 26> H 2.9946536099 3.4386798823 -0.2978855072
| 27> H 3.0548029608 1.7678657764 -0.8787692956
| 28> H 2.4873969661 2.6734518016 1.9964325887
| 29> H 3.9732327951 1.8676789779 1.4110059668
| 30> H 4.4048024735 -2.6510809911 0.5301680658
| 31> H 4.390894931 -1.859288404 -1.0665963311
| 32> H 6.4772514045 -0.6220099043 -0.4642551834
| 33> H 6.4947641762 -1.4132036619 1.1174899871
| 34> H 6.7283142403 -2.3715049697 -0.3524896918
| 35> H -0.0055507626 -1.9453747173 0.2989816157
| 36> H -0.7116415251 -1.3463056794 -1.252357648
| 37> H -3.2465803834 2.5166712537 -2.3009302487
| 38> H -3.4760732134 3.7307109434 -1.0053820832
| 39> H -1.245927729 4.0242958235 -2.0469427616
| 40> H -1.0421020634 3.4256554915 -0.3893423269
| 41> H -0.8626472149 2.3204226103 -1.7644574857
| 42> H -4.7623687696 -1.6310239569 -0.5727019876
| 43> H -5.1296311102 -1.5242545415 1.1749413921
| 44> H -5.9276887956 0.8456320736 0.7898959425
| 45> H -5.6454238161 0.6295289181 -0.9444504433
| 46> H -6.8783710532 -0.3407030761 -0.1250061508
| 47> *
| 48>
| 49>                          ****END OF INPUT****

CARTESIAN COORDINATES (ANGSTROEM)
---------------------------------
  C      2.596713    2.438884   -0.155416
  C      2.899482    1.985508    1.256601
  O      2.254988    0.729170    1.591670
  P      2.501524   -0.662866    0.905142
  S      1.934827   -2.137126    2.063920
  O      4.044208   -0.612128    0.541564
  C      4.711762   -1.759656   -0.026438
  C      6.204742   -1.523515    0.076358
  S      1.545876   -0.691087   -1.006783
  C     -0.091966   -1.101841   -0.387252
  S     -0.839993    0.302888    0.503355
  P     -2.702047    0.359338   -0.493162
  S     -2.787916   -0.379143   -2.312304
  O     -3.196030    1.860572   -0.343304
  C     -2.891672    2.867600   -1.326669
  C     -1.410761    3.181810   -1.382936
  O     -3.580160   -0.394627    0.589147
  C     -4.873985   -0.954309    0.280732
  C     -5.900537    0.118262   -0.017214
  H      1.522443    2.454745   -0.322253
  H      2.994654    3.438680   -0.297886
  H      3.054803    1.767866   -0.878769
  H      2.487397    2.673452    1.996433
  H      3.973233    1.867679    1.411006
  H      4.404802   -2.651081    0.530168
  H      4.390895   -1.859288   -1.066596
  H      6.477251   -0.622010   -0.464255
  H      6.494764   -1.413204    1.117490
  H      6.728314   -2.371505   -0.352490
  H     -0.005551   -1.945375    0.298982
  H     -0.711642   -1.346306   -1.252358
  H     -3.246580    2.516671   -2.300930
  H     -3.476073    3.730711   -1.005382
  H     -1.245928    4.024296   -2.046943
  H     -1.042102    3.425655   -0.389342
  H     -0.862647    2.320423   -1.764457
  H     -4.762369   -1.631024   -0.572702
  H     -5.129631   -1.524255    1.174941
  H     -5.927689    0.845632    0.789896
  H     -5.645424    0.629529   -0.944450
  H     -6.878371   -0.340703   -0.125006

 Total Charge           Charge          ....    0
 Multiplicity           Mult            ....    1
 Number of Electrons    NEL             ....  202
 Basis Dimension        Dim             ....  334

ORBITAL ENERGIES
----------------

  NO   OCC          E(Eh)            E(eV)
   0   2.0000     -88.041067     -2395.7192
   1   2.0000     -88.038581     -2395.6516
   2   2.0000     -87.992346     -2394.3935
   3   2.0000     -87.980289     -2394.0654
   4   2.0000     -76.426787     -2079.6786
   5   2.0000     -76.425629     -2079.6471
   6   2.0000     -18.799552      -511.5618
   7   2.0000     -18.796287      -511.4730
   8   2.0000     -18.793833      -511.4062
   9   2.0000     -18.788222      -511.2535
  10   2.0000      -9.958921      -270.9960
  11   2.0000      -9.957707      -270.9630
  12   2.0000      -9.956136      -270.9202
  13   2.0000      -9.950401      -270.7642
  14   2.0000      -9.946260      -270.6515
  15   2.0000      -9.892594      -269.1912
  16   2.0000      -9.888601      -269.0825
  17   2.0000      -9.887392      -269.0496
  18   2.0000      -9.883897      -268.9545
  19   2.0000      -7.686020      -209.1472
  20   2.0000      -7.683705      -209.0842
  21   2.0000      -7.637198      -207.8187
  22   2.0000      -7.625607      -207.5033
  23   2.0000      -6.424693      -174.8248
  24   2.0000      -6.423223      -174.7848
  25   2.0000      -5.713631      -155.4758
  26   2.0000      -5.711567      -155.4196
  27   2.0000      -5.710757      -155.3976
  28   2.0000      -5.708353      -155.3322
  29   2.0000      -5.703104      -155.1894
  30   2.0000      -5.700526      -155.1192
  31   2.0000      -5.665916      -154.1774
  32   2.0000      -5.657988      -153.9617
  33   2.0000      -5.657412      -153.9460
  34   2.0000      -5.654599      -153.8695
  35   2.0000      -5.646309      -153.6439
  36   2.0000      -5.645574      -153.6239
  37   2.0000      -4.647083      -126.4536
  38   2.0000      -4.646346      -126.4335
  39   2.0000      -4.646310      -126.4325
  40   2.0000      -4.645398      -126.4077
  41   2.0000      -4.644837      -126.3925
  42   2.0000      -4.643250      -126.3493
  43   2.0000      -0.992333       -27.0028
  44   2.0000      -0.987899       -26.8821
  45   2.0000      -0.948669       -25.8146
  46   2.0000      -0.946688       -25.7607
  47   2.0000      -0.760933       -20.7060
  48   2.0000      -0.723736       -19.6939
  49   2.0000      -0.711814       -19.3695
  50   2.0000      -0.696401       -18.9500
  51   2.0000      -0.689616       -18.7654
  52   2.0000      -0.675594       -18.3838
  53   2.0000      -0.650447       -17.6996
  54   2.0000      -0.635231       -17.2855
  55   2.0000      -0.603087       -16.4108
  56   2.0000      -0.592815       -16.1313
  57   2.0000      -0.576921       -15.6988
  58   2.0000      -0.573891       -15.6164
  59   2.0000      -0.557168       -15.1613
  60   2.0000      -0.508785       -13.8447
  61   2.0000      -0.494248       -13.4492
  62   2.0000      -0.477364       -12.9897
  63   2.0000      -0.473952       -12.8969
  64   2.0000      -0.456404       -12.4194
  65   2.0000      -0.448625       -12.2077
  66   2.0000      -0.443388       -12.0652
  67   2.0000      -0.441822       -12.0226
  68   2.0000      -0.431740       -11.7482
  69   2.0000      -0.418961       -11.4005
  70   2.0000      -0.408381       -11.1126
  71   2.0000      -0.402943       -10.9646
  72   2.0000      -0.393627       -10.7111
  73   2.0000      -0.390187       -10.6175
  74   2.0000      -0.382668       -10.4129
  75   2.0000      -0.374117       -10.1802
  76   2.0000      -0.369241       -10.0476
  77   2.0000      -0.357649        -9.7321
  78   2.0000      -0.357048        -9.7158
  79   2.0000      -0.352315        -9.5870
  80   2.0000      -0.349445        -9.5089
  81   2.0000      -0.345296        -9.3960
  82   2.0000      -0.342901        -9.3308
  83   2.0000      -0.341115        -9.2822
  84   2.0000      -0.336670        -9.1613
  85   2.0000      -0.324431        -8.8282
  86   2.0000      -0.311577        -8.4784
  87   2.0000      -0.306425        -8.3382
  88   2.0000      -0.298636        -8.1263
  89   2.0000      -0.295558        -8.0425
  90   2.0000      -0.284121        -7.7313
  91   2.0000      -0.277737        -7.5576
  92   2.0000      -0.272085        -7.4038
  93   2.0000      -0.266415        -7.2495
  94   2.0000      -0.258520        -7.0347
  95   2.0000      -0.228632        -6.2214
  96   2.0000      -0.221345        -6.0231
  97   2.0000      -0.213661        -5.8140
  98   2.0000      -0.207008        -5.6330
  99   2.0000      -0.201196        -5.4748
 100   2.0000      -0.192123        -5.2279
 101   0.0000      -0.043485        -1.1833
 102   0.0000      -0.028807        -0.7839
 103   0.0000      -0.010338        -0.2813
 104   0.0000       0.008025         0.2184
 105   0.0000       0.020329         0.5532

MULLIKEN ATOMIC CHARGES
-----------------------
   0 C :   -0.338845
   1 C :    0.006745
   2 O :   -0.354927
   3 P :    0.604456
   4 S :   -0.312025
   5 O :   -0.389490
   6 C :   -0.012637
   7 C :   -0.280843
   8 S :   -0.107061
   9 C :   -0.363580
  10 S :   -0.071159
  11 P :    0.609596
  12 S :   -0.337247
  13 O :   -0.372042
  14 C :    0.004721
  15 C :   -0.337769
  16 O :   -0.362144
  17 C :   -0.003255
  18 C :   -0.308578
  19 H :    0.147869
  20 H :    0.111984
  21 H :    0.121770
  22 H :    0.111442
  23 H :    0.111469
  24 H :    0.110479
  25 H :    0.107331
  26 H :    0.114124
  27 H :    0.122566
  28 H :    0.115243
  29 H :    0.198905
  30 H :    0.187521
  31 H :    0.111354
  32 H :    0.106461
  33 H :    0.113623
  34 H :    0.125285
  35 H :    0.136562
  36 H :    0.111272
  37 H :    0.108610
  38 H :    0.118866
  39 H :    0.121041
  40 H :    0.112308
Sum of atomic charges:   -0.0000000

LOEWDIN ATOMIC CHARGES
----------------------
   0 C :   -0.372164
   1 C :   -0.105160
   2 O :   -0.232901
   3 P :    0.563377
   4 S :   -0.310723
   5 O :   -0.250892
   6 C :   -0.118284
   7 C :   -0.350329
   8 S :    0.074459
   9 C :   -0.487692
  10 S :    0.095863
  11 P :    0.572171
  12 S :   -0.320396
  13 O :   -0.241922
  14 C :   -0.117248
  15 C :   -0.371947
  16 O :   -0.242356
  17 C :   -0.116311
  18 C :   -0.364785
  19 H :    0.128873
  20 H :    0.130558
  21 H :    0.117765
  22 H :    0.123524
  23 H :    0.115332
  24 H :    0.112509
  25 H :    0.110183
  26 H :    0.125637
  27 H :    0.129894
  28 H :    0.132707
  29 H :    0.125944
  30 H :    0.124444
  31 H :    0.111287
  32 H :    0.119551
  33 H :    0.131121
  34 H :    0.124182
  35 H :    0.122460
  36 H :    0.110799
  37 H :    0.120745
  38 H :    0.127325
  39 H :    0.121972
  40 H :    0.130430

  Mayer bond orders larger than 0.100000
B(  0-C ,  1-C ) :   1.1701 B(  0-C , 19-H ) :   0.9306 B(  0-C , 20-H ) :   0.9344
B(  0-C , 21-H ) :   0.9391 B(  1-C ,  2-O ) :   0.8927 B(  1-C , 22-H ) :   0.9347
B(  1-C , 23-H ) :   0.9290 B(  2-O ,  3-P ) :   1.1434 B(  3-P ,  4-S ) :   1.6564
B(  3-P ,  5-O ) :   1.0791 B(  3-P ,  8-S ) :   0.9393 B(  4-S ,  8-S ) :   0.1140
B(  5-O ,  6-C ) :   0.8987 B(  6-C ,  7-C ) :   1.1602 B(  6-C , 24-H ) :   0.9111
B(  6-C , 25-H ) :   0.9286 B(  7-C , 26-H ) :   0.9511 B(  7-C , 27-H ) :   0.9506
B(  7-C , 28-H ) :   0.9414 B(  8-S ,  9-C ) :   1.0172 B(  9-C , 10-S ) :   0.9922
B(  9-C , 29-H ) :   0.8643 B(  9-C , 30-H ) :   0.8557 B( 10-S , 11-P ) :   0.9796
B( 10-S , 12-S ) :   0.1149 B( 11-P , 12-S ) :   1.5726 B( 11-P , 13-O ) :   1.1084
B( 11-P , 16-O ) :   1.1368 B( 12-S , 30-H ) :   0.1073 B( 13-O , 14-C ) :   0.9090
B( 14-C , 15-C ) :   1.1644 B( 14-C , 31-H ) :   0.9167 B( 14-C , 32-H ) :   0.9331
B( 15-C , 33-H ) :   0.9363 B( 15-C , 34-H ) :   0.9405 B( 15-C , 35-H ) :   0.9316
B( 16-O , 17-C ) :   0.9103 B( 17-C , 18-C ) :   1.1627 B( 17-C , 36-H ) :   0.9183
B( 17-C , 37-H ) :   0.9349 B( 18-C , 38-H ) :   0.9460 B( 18-C , 39-H ) :   0.9382
B( 18-C , 40-H ) :   0.9386

Dispersion correction           -0.062196191
FINAL SINGLE POINT ENERGY     -2929.517654495537

DIPOLE MOMENT
-------------

Method             : SCF
Type of density    : Electron Density
Multiplicity       :   1
Irrep              :   0
Energy             : -2929.6393694979042266 Eh
Relativity type    :
Basis              : AO
                                X                 Y                 Z
Electronic contribution:     -3.112789568     -12.210906640       5.812132592
Nuclear contribution   :      3.548670499      13.504300812      -6.376300172
                        -----------------------------------------
Total Dipole Moment    :      0.435880931       1.293394172      -0.564167581
                        -----------------------------------------
Magnitude (a.u.)       :      1.476870248
Magnitude (Debye)      :      3.753905842

Rotational constants in cm-1:             0.014798             0.003893             0.003598
Rotational constants in MHz :           443.622170           116.707083           107.864878

                             ****ORCA TERMINATED NORMALLY****
TOTAL RUN TIME: 0 days 0 hours 0 minutes 20 seconds 398 msec
