                         Program Version 6.0.0  -   RELEASE  -
|  1> ! pbe def2-sv(p) def2/J RI DEFGRID1 loosescf d4 GCP(DFT/SV(P)) printgap
|  2> %output
|  3>     printlevel normal
|  4> end
|  5> * xyz 0 1
|  6> C 3.1833937699 -1.8316774394 -2.5850123375
|  7> C 3.8405375631 -0.8789573522 -1.6056792497
|  8> O 3.1770446235 -0.9349826437 -0.3245739862
|  9> P 2.0416539393 0.0716798867 0.1258832743
| 10> S 1.3656807679 1.2315966568 -1.3062202434
| 11> O 2.7468843737 0.8370876408 1.3239156481
| 12> C 2.3590729723 2.1424092537 1.7997529555
| 13> C 3.278664947 3.2022676228 1.2256602391
| 14> S 0.8452704322 -1.2912132728 1.2264413953
| 15> C 0.1712357111 -2.2830553499 -0.1332695894
| 16> S -0.8862171773 -1.3464849454 -1.2861229772
| 17> P -1.9964869787 -0.1780300526 0.0802042856
| 18> S -1.2705976553 1.3870700658 1.0325292876
| 19> O -2.5055613168 -1.3537872223 1.007482022
| 20> C -3.0088692313 -1.1279783799 2.3401366381
| 21> C -4.3608337975 -0.4469090318 2.31704969
| 22> O -3.2864270392 0.1852601259 -0.7743723705
| 23> C -3.3802352921 1.3807565834 -1.5654066961
| 24> C -2.4347475581 1.3488749972 -2.7489891841
| 25> H 3.7301875979 -1.8117256056 -3.5221240395
| 26> H 3.1899242367 -2.8439298856 -2.1896167863
| 27> H 2.155433742 -1.5231357763 -2.771666536
| 28> H 3.8067599863 0.1461748426 -1.9845490421
| 29> H 4.8717849521 -1.1638119352 -1.3941498815
| 30> H 1.317434431 2.3399259051 1.529975632
| 31> H 2.4443747825 2.0813452105 2.8860827747
| 32> H 3.1578213354 3.2549047165 0.1454945535
| 33> H 3.0242913666 4.1650242129 1.6568440477
| 34> H 4.3129792004 2.9621801027 1.455992361
| 35> H -0.417314305 -3.0696726144 0.3332850048
| 36> H 0.9818753306 -2.6981020565 -0.7290454971
| 37> H -3.063873421 -2.1279413409 2.7719069583
| 38> H -2.2782543068 -0.5249963829 2.8891726285
| 39> H -4.7494377694 -0.3818064184 3.328439138
| 40> H -4.2602522249 0.5587857412 1.9106222072
| 41> H -5.0533426852 -1.0085376664 1.6957689025
| 42> H -4.4239189077 1.4056801811 -1.8813749899
| 43> H -3.1627393296 2.2410115989 -0.9233151518
| 44> H -2.586984972 0.4430566119 -3.3306797253
| 45> H -2.6092673751 2.2168066363 -3.3765395124
| 46> H -1.3998172698 1.3719756613 -2.4039468582
| 47> *
| 48>
| 49>                          ****END OF INPUT****

CARTESIAN COORDINATES (ANGSTROEM)
---------------------------------
  C      3.183394   -1.831677   -2.585012
  C      3.840538   -0.878957   -1.605679
  O      3.177045   -0.934983   -0.324574
  P      2.041654    0.071680    0.125883
  S      1.365681    1.231597   -1.306220
  O      2.746884    0.837088    1.323916
  C      2.359073    2.142409    1.799753
  C      3.278665    3.202268    1.225660
  S      0.845270   -1.291213    1.226441
  C      0.171236   -2.283055   -0.133270
  S     -0.886217   -1.346485   -1.286123
  P     -1.996487   -0.178030    0.080204
  S     -1.270598    1.387070    1.032529
  O     -2.505561   -1.353787    1.007482
  C     -3.008869   -1.127978    2.340137
  C     -4.360834   -0.446909    2.317050
  O     -3.286427    0.185260   -0.774372
  C     -3.380235    1.380757   -1.565407
  C     -2.434748    1.348875   -2.748989
  H      3.730188   -1.811726   -3.522124
  H      3.189924   -2.843930   -2.189617
  H      2.155434   -1.523136   -2.771667
  H      3.806760    0.146175   -1.984549
  H      4.871785   -1.163812   -1.394150
  H      1.317434    2.339926    1.529976
  H      2.444375    2.081345    2.886083
  H      3.157821    3.254905    0.145495
  H      3.024291    4.165024    1.656844
  H      4.312979    2.962180    1.455992
  H     -0.417314   -3.069673    0.333285
  H      0.981875   -2.698102   -0.729045
  H     -3.063873   -2.127941    2.771907
  H     -2.278254   -0.524996    2.889173
  H     -4.749438   -0.381806    3.328439
  H     -4.260252    0.558786    1.910622
  H     -5.053343   -1.008538    1.695769
  H     -4.423919    1.405680   -1.881375
  H     -3.162739    2.241012   -0.923315
  H     -2.586985    0.443057   -3.330680
  H     -2.609267    2.216807   -3.376540
  H     -1.399817    1.371976   -2.403947

 Total Charge           Charge          ....    0
 Multiplicity           Mult            ....    1
 Number of Electrons    NEL             ....  202
 Basis Dimension        Dim             ....  334

ORBITAL ENERGIES
----------------

  NO   OCC          E(Eh)            E(eV)
   0   2.0000     -88.038881     -2395.6598
   1   2.0000     -88.036558     -2395.5965
   2   2.0000     -87.982490     -2394.1253
   3   2.0000     -87.979595     -2394.0465
   4   2.0000     -76.423310     -2079.5840
   5   2.0000     -76.423104     -2079.5784
   6   2.0000     -18.789343      -511.2840
   7   2.0000     -18.787574      -511.2359
   8   2.0000     -18.786839      -511.2159
   9   2.0000     -18.784745      -511.1589
  10   2.0000      -9.958626      -270.9880
  11   2.0000      -9.950131      -270.7568
  12   2.0000      -9.948680      -270.7174
  13   2.0000      -9.946670      -270.6626
  14   2.0000      -9.944128      -270.5935
  15   2.0000      -9.885434      -268.9963
  16   2.0000      -9.880899      -268.8729
  17   2.0000      -9.877836      -268.7896
  18   2.0000      -9.875406      -268.7235
  19   2.0000      -7.683958      -209.0911
  20   2.0000      -7.681742      -209.0308
  21   2.0000      -7.627090      -207.5437
  22   2.0000      -7.624157      -207.4639
  23   2.0000      -6.420439      -174.7090
  24   2.0000      -6.420250      -174.7039
  25   2.0000      -5.711993      -155.4312
  26   2.0000      -5.709926      -155.3750
  27   2.0000      -5.708588      -155.3386
  28   2.0000      -5.706359      -155.2779
  29   2.0000      -5.700584      -155.1208
  30   2.0000      -5.698234      -155.0568
  31   2.0000      -5.656036      -153.9086
  32   2.0000      -5.653078      -153.8281
  33   2.0000      -5.647632      -153.6799
  34   2.0000      -5.647321      -153.6714
  35   2.0000      -5.644813      -153.6032
  36   2.0000      -5.644339      -153.5903
  37   2.0000      -4.642907      -126.3399
  38   2.0000      -4.642900      -126.3397
  39   2.0000      -4.642337      -126.3244
  40   2.0000      -4.642088      -126.3176
  41   2.0000      -4.640919      -126.2858
  42   2.0000      -4.640636      -126.2781
  43   2.0000      -0.983544       -26.7636
  44   2.0000      -0.980384       -26.6776
  45   2.0000      -0.943882       -25.6843
  46   2.0000      -0.940141       -25.5825
  47   2.0000      -0.761574       -20.7235
  48   2.0000      -0.717278       -19.5181
  49   2.0000      -0.705014       -19.1844
  50   2.0000      -0.682825       -18.5806
  51   2.0000      -0.681669       -18.5492
  52   2.0000      -0.665303       -18.1038
  53   2.0000      -0.651082       -17.7169
  54   2.0000      -0.635509       -17.2931
  55   2.0000      -0.597461       -16.2577
  56   2.0000      -0.587976       -15.9996
  57   2.0000      -0.569330       -15.4923
  58   2.0000      -0.566013       -15.4020
  59   2.0000      -0.562067       -15.2946
  60   2.0000      -0.498470       -13.5641
  61   2.0000      -0.488726       -13.2989
  62   2.0000      -0.471795       -12.8382
  63   2.0000      -0.469999       -12.7893
  64   2.0000      -0.454065       -12.3557
  65   2.0000      -0.436479       -11.8772
  66   2.0000      -0.434628       -11.8268
  67   2.0000      -0.431633       -11.7453
  68   2.0000      -0.424591       -11.5537
  69   2.0000      -0.413058       -11.2399
  70   2.0000      -0.404248       -11.0001
  71   2.0000      -0.393374       -10.7043
  72   2.0000      -0.390098       -10.6151
  73   2.0000      -0.385512       -10.4903
  74   2.0000      -0.381129       -10.3710
  75   2.0000      -0.372854       -10.1459
  76   2.0000      -0.367631       -10.0037
  77   2.0000      -0.356914        -9.7121
  78   2.0000      -0.351742        -9.5714
  79   2.0000      -0.347054        -9.4438
  80   2.0000      -0.344122        -9.3640
  81   2.0000      -0.343616        -9.3503
  82   2.0000      -0.338078        -9.1996
  83   2.0000      -0.334693        -9.1075
  84   2.0000      -0.326501        -8.8846
  85   2.0000      -0.318144        -8.6571
  86   2.0000      -0.304543        -8.2870
  87   2.0000      -0.292928        -7.9710
  88   2.0000      -0.291021        -7.9191
  89   2.0000      -0.281480        -7.6594
  90   2.0000      -0.278780        -7.5860
  91   2.0000      -0.272329        -7.4105
  92   2.0000      -0.266288        -7.2461
  93   2.0000      -0.258471        -7.0333
  94   2.0000      -0.257986        -7.0202
  95   2.0000      -0.245827        -6.6893
  96   2.0000      -0.221159        -6.0180
  97   2.0000      -0.213162        -5.8004
  98   2.0000      -0.187271        -5.0959
  99   2.0000      -0.184324        -5.0157
 100   2.0000      -0.180727        -4.9178
 101   0.0000      -0.050843        -1.3835
 102   0.0000      -0.031394        -0.8543
 103   0.0000      -0.010142        -0.2760
 104   0.0000       0.004670         0.1271
 105   0.0000       0.025100         0.6830

MULLIKEN ATOMIC CHARGES
-----------------------
   0 C :   -0.309838
   1 C :   -0.001619
   2 O :   -0.372428
   3 P :    0.621190
   4 S :   -0.305694
   5 O :   -0.374190
   6 C :   -0.016489
   7 C :   -0.289007
   8 S :   -0.093074
   9 C :   -0.337677
  10 S :   -0.096369
  11 P :    0.624841
  12 S :   -0.326100
  13 O :   -0.373739
  14 C :   -0.003372
  15 C :   -0.303665
  16 O :   -0.369569
  17 C :    0.000005
  18 C :   -0.344005
  19 H :    0.112785
  20 H :    0.118295
  21 H :    0.123943
  22 H :    0.108274
  23 H :    0.105621
  24 H :    0.130928
  25 H :    0.102143
  26 H :    0.119039
  27 H :    0.106482
  28 H :    0.108726
  29 H :    0.187851
  30 H :    0.186274
  31 H :    0.100472
  32 H :    0.112593
  33 H :    0.110328
  34 H :    0.122441
  35 H :    0.116025
  36 H :    0.102592
  37 H :    0.109404
  38 H :    0.118225
  39 H :    0.112831
  40 H :    0.155527
Sum of atomic charges:   -0.0000000

LOEWDIN ATOMIC CHARGES
----------------------
   0 C :   -0.363805
   1 C :   -0.118184
   2 O :   -0.245922
   3 P :    0.570318
   4 S :   -0.298396
   5 O :   -0.246538
   6 C :   -0.116664
   7 C :   -0.360139
   8 S :    0.090376
   9 C :   -0.471423
  10 S :    0.084908
  11 P :    0.572667
  12 S :   -0.315513
  13 O :   -0.242863
  14 C :   -0.118955
  15 C :   -0.364094
  16 O :   -0.243276
  17 C :   -0.120750
  18 C :   -0.374247
  19 H :    0.131707
  20 H :    0.122167
  21 H :    0.123108
  22 H :    0.107957
  23 H :    0.118635
  24 H :    0.110005
  25 H :    0.116886
  26 H :    0.122960
  27 H :    0.128322
  28 H :    0.122782
  29 H :    0.135715
  30 H :    0.130270
  31 H :    0.116332
  32 H :    0.110611
  33 H :    0.129580
  34 H :    0.123171
  35 H :    0.126269
  36 H :    0.117403
  37 H :    0.109054
  38 H :    0.123655
  39 H :    0.131728
  40 H :    0.124181

  Mayer bond orders larger than 0.100000
B(  0-C ,  1-C ) :   1.1716 B(  0-C , 19-H ) :   0.9383 B(  0-C , 20-H ) :   0.9401
B(  0-C , 21-H ) :   0.9349 B(  1-C ,  2-O ) :   0.9009 B(  1-C , 22-H ) :   0.9071
B(  1-C , 23-H ) :   0.9319 B(  2-O ,  3-P ) :   1.1143 B(  3-P ,  4-S ) :   1.6041
B(  3-P ,  5-O ) :   1.1320 B(  3-P ,  8-S ) :   0.9433 B(  4-S ,  8-S ) :   0.1174
B(  5-O ,  6-C ) :   0.8939 B(  6-C ,  7-C ) :   1.1644 B(  6-C , 24-H ) :   0.9064
B(  6-C , 25-H ) :   0.9356 B(  7-C , 26-H ) :   0.9393 B(  7-C , 27-H ) :   0.9405
B(  7-C , 28-H ) :   0.9480 B(  8-S ,  9-C ) :   1.0102 B(  9-C , 10-S ) :   0.9898
B(  9-C , 29-H ) :   0.9077 B(  9-C , 30-H ) :   0.8951 B( 10-S , 11-P ) :   0.9668
B( 10-S , 12-S ) :   0.1172 B( 11-P , 12-S ) :   1.5812 B( 11-P , 13-O ) :   1.1136
B( 11-P , 16-O ) :   1.1096 B( 13-O , 14-C ) :   0.9033 B( 14-C , 15-C ) :   1.1662
B( 14-C , 31-H ) :   0.9343 B( 14-C , 32-H ) :   0.9135 B( 15-C , 33-H ) :   0.9395
B( 15-C , 34-H ) :   0.9360 B( 15-C , 35-H ) :   0.9462 B( 16-O , 17-C ) :   0.9083
B( 17-C , 18-C ) :   1.1645 B( 17-C , 36-H ) :   0.9328 B( 17-C , 37-H ) :   0.9123
B( 18-C , 38-H ) :   0.9434 B( 18-C , 39-H ) :   0.9377 B( 18-C , 40-H ) :   0.9244

Dispersion correction           -0.068724287
FINAL SINGLE POINT ENERGY     -2929.512652767847

DIPOLE MOMENT
-------------

Method             : SCF
Type of density    : Electron Density
Multiplicity       :   1
Irrep              :   0
Energy             : -2929.6273717936869616 Eh
Relativity type    :
Basis              : AO
                                X                 Y                 Z
Electronic contribution:      0.941093349      -6.221407128       3.808684314
Nuclear contribution   :     -0.989714691       5.737008627      -3.818319385
                        -----------------------------------------
Total Dipole Moment    :     -0.048621341      -0.484398500      -0.009635072
                        -----------------------------------------
Magnitude (a.u.)       :      0.486927897
Magnitude (Debye)      :      1.237672354

Rotational constants in cm-1:             0.011330             0.005743             0.005446
Rotational constants in MHz :           339.666188           172.156415           163.260550

                             ****ORCA TERMINATED NORMALLY****
TOTAL RUN TIME: 0 days 0 hours 0 minutes 21 seconds 357 msec
