                         Program Version 6.0.0  -   RELEASE  -
|  1> ! pbe def2-sv(p) def2/J RI DEFGRID1 loosescf d4 GCP(DFT/SV(P)) printgap
|  2> %output
|  3>     printlevel normal
|  4> end
|  5> * xyz 0 1
|  6> C 1.6632383895 -2.766174594 1.3200546817
|  7> C 1.7890994541 -1.3732200151 1.9017152211
|  8> O 2.8118087318 -0.5900565734 1.2610746242
|  9> P 2.7670796178 -0.0604162041 -0.2397619881
| 10> S 2.9800213606 -1.3593702025 -1.6859564651
| 11> O 3.9479875595 0.9749305995 -0.2575164973
| 12> C 4.0616782056 2.0867752835 0.6673589202
| 13> C 4.9746409138 1.7338471388 1.8234996848
| 14> S 0.989292027 1.1481565335 -0.3300310756
| 15> C -0.003805755 0.0817555113 -1.4017728047
| 16> S -1.0956597739 -1.0085074481 -0.469488148
| 17> P -2.6681692021 0.4144438459 -0.2025821112
| 18> S -3.0204050505 1.5560624709 -1.757338188
| 19> O -2.3158884873 1.348893069 1.0118246298
| 20> C -1.7069854431 1.0164430433 2.2846223148
| 21> C -2.228046295 -0.2628328251 2.9025281136
| 22> O -3.8717602205 -0.4529332793 0.3561198081
| 23> C -4.3395104177 -1.69306308 -0.2049560183
| 24> C -4.6918627603 -1.5788130035 -1.6732515589
| 25> H 1.2792239539 -2.723100183 0.3023706829
| 26> H 2.6328761639 -3.2569181746 1.3035974113
| 27> H 0.976441826 -3.3459292408 1.9279319923
| 28> H 2.1088055862 -1.4068119094 2.9447238861
| 29> H 0.8377874228 -0.8390119709 1.8242123673
| 30> H 4.4766931346 2.8976115719 0.0660162761
| 31> H 3.0625505167 2.3634848547 1.0143811148
| 32> H 5.0883933945 2.6034643941 2.463193022
| 33> H 4.556459127 0.9137231241 2.4001380618
| 34> H 5.9492262633 1.4350459715 1.447547927
| 35> H 0.6668425362 -0.5445947404 -1.9949046909
| 36> H -0.6141432715 0.7279092752 -2.0361493665
| 37> H -0.6265081853 0.971957499 2.1211534276
| 38> H -1.9409112142 1.8839301534 2.9041055641
| 39> H -1.97614709 -1.1209540247 2.2822559178
| 40> H -1.7728978458 -0.3885290065 3.8803619203
| 41> H -3.3078397246 -0.2131255257 3.0145708297
| 42> H -3.5655845798 -2.4503264302 -0.0521792649
| 43> H -5.2179587326 -1.9317239438 0.3970291412
| 44> H -5.1169851375 -2.5162529282 -2.0171392389
| 45> H -5.4106012203 -0.7778711203 -1.8305174357
| 46> H -3.80102491 -1.3578234265 -2.2598577096
| 47> *
| 48>
| 49>                          ****END OF INPUT****

CARTESIAN COORDINATES (ANGSTROEM)
---------------------------------
  C      1.663238   -2.766175    1.320055
  C      1.789099   -1.373220    1.901715
  O      2.811809   -0.590057    1.261075
  P      2.767080   -0.060416   -0.239762
  S      2.980021   -1.359370   -1.685956
  O      3.947988    0.974931   -0.257516
  C      4.061678    2.086775    0.667359
  C      4.974641    1.733847    1.823500
  S      0.989292    1.148157   -0.330031
  C     -0.003806    0.081756   -1.401773
  S     -1.095660   -1.008507   -0.469488
  P     -2.668169    0.414444   -0.202582
  S     -3.020405    1.556062   -1.757338
  O     -2.315888    1.348893    1.011825
  C     -1.706985    1.016443    2.284622
  C     -2.228046   -0.262833    2.902528
  O     -3.871760   -0.452933    0.356120
  C     -4.339510   -1.693063   -0.204956
  C     -4.691863   -1.578813   -1.673252
  H      1.279224   -2.723100    0.302371
  H      2.632876   -3.256918    1.303597
  H      0.976442   -3.345929    1.927932
  H      2.108806   -1.406812    2.944724
  H      0.837787   -0.839012    1.824212
  H      4.476693    2.897612    0.066016
  H      3.062551    2.363485    1.014381
  H      5.088393    2.603464    2.463193
  H      4.556459    0.913723    2.400138
  H      5.949226    1.435046    1.447548
  H      0.666843   -0.544595   -1.994905
  H     -0.614143    0.727909   -2.036149
  H     -0.626508    0.971957    2.121153
  H     -1.940911    1.883930    2.904106
  H     -1.976147   -1.120954    2.282256
  H     -1.772898   -0.388529    3.880362
  H     -3.307840   -0.213126    3.014571
  H     -3.565585   -2.450326   -0.052179
  H     -5.217959   -1.931724    0.397029
  H     -5.116985   -2.516253   -2.017139
  H     -5.410601   -0.777871   -1.830517
  H     -3.801025   -1.357823   -2.259858

 Total Charge           Charge          ....    0
 Multiplicity           Mult            ....    1
 Number of Electrons    NEL             ....  202
 Basis Dimension        Dim             ....  334

ORBITAL ENERGIES
----------------

  NO   OCC          E(Eh)            E(eV)
   0   2.0000     -88.050412     -2395.9735
   1   2.0000     -88.046167     -2395.8580
   2   2.0000     -87.990700     -2394.3487
   3   2.0000     -87.981589     -2394.1007
   4   2.0000     -76.431154     -2079.7974
   5   2.0000     -76.430400     -2079.7769
   6   2.0000     -18.798643      -511.5371
   7   2.0000     -18.798273      -511.5270
   8   2.0000     -18.797298      -511.5005
   9   2.0000     -18.793092      -511.3860
  10   2.0000      -9.964425      -271.1458
  11   2.0000      -9.963302      -271.1152
  12   2.0000      -9.961415      -271.0639
  13   2.0000      -9.961204      -271.0581
  14   2.0000      -9.952164      -270.8122
  15   2.0000      -9.895977      -269.2832
  16   2.0000      -9.892138      -269.1788
  17   2.0000      -9.885832      -269.0072
  18   2.0000      -9.885140      -268.9883
  19   2.0000      -7.694782      -209.3857
  20   2.0000      -7.690738      -209.2756
  21   2.0000      -7.635891      -207.7832
  22   2.0000      -7.626884      -207.5381
  23   2.0000      -6.428646      -174.9323
  24   2.0000      -6.427356      -174.8972
  25   2.0000      -5.722318      -155.7122
  26   2.0000      -5.719298      -155.6300
  27   2.0000      -5.718454      -155.6070
  28   2.0000      -5.715315      -155.5216
  29   2.0000      -5.712227      -155.4376
  30   2.0000      -5.707928      -155.3206
  31   2.0000      -5.664944      -154.1510
  32   2.0000      -5.656629      -153.9247
  33   2.0000      -5.656069      -153.9095
  34   2.0000      -5.655748      -153.9007
  35   2.0000      -5.647506      -153.6764
  36   2.0000      -5.646727      -153.6552
  37   2.0000      -4.651399      -126.5710
  38   2.0000      -4.650517      -126.5470
  39   2.0000      -4.650171      -126.5376
  40   2.0000      -4.649588      -126.5217
  41   2.0000      -4.648838      -126.5013
  42   2.0000      -4.647222      -126.4573
  43   2.0000      -0.994161       -27.0525
  44   2.0000      -0.991310       -26.9749
  45   2.0000      -0.950780       -25.8720
  46   2.0000      -0.949428       -25.8353
  47   2.0000      -0.766613       -20.8606
  48   2.0000      -0.727387       -19.7932
  49   2.0000      -0.718974       -19.5643
  50   2.0000      -0.696727       -18.9589
  51   2.0000      -0.695863       -18.9354
  52   2.0000      -0.681722       -18.5506
  53   2.0000      -0.654384       -17.8067
  54   2.0000      -0.641773       -17.4635
  55   2.0000      -0.596664       -16.2360
  56   2.0000      -0.594515       -16.1776
  57   2.0000      -0.585018       -15.9191
  58   2.0000      -0.581401       -15.8207
  59   2.0000      -0.570716       -15.5300
  60   2.0000      -0.510694       -13.8967
  61   2.0000      -0.496327       -13.5058
  62   2.0000      -0.483369       -13.1531
  63   2.0000      -0.476634       -12.9699
  64   2.0000      -0.464012       -12.6264
  65   2.0000      -0.453003       -12.3268
  66   2.0000      -0.446251       -12.1431
  67   2.0000      -0.443398       -12.0655
  68   2.0000      -0.433234       -11.7889
  69   2.0000      -0.423664       -11.5285
  70   2.0000      -0.416747       -11.3403
  71   2.0000      -0.411171       -11.1885
  72   2.0000      -0.406053       -11.0493
  73   2.0000      -0.395333       -10.7576
  74   2.0000      -0.387630       -10.5479
  75   2.0000      -0.371974       -10.1219
  76   2.0000      -0.364059        -9.9066
  77   2.0000      -0.361305        -9.8316
  78   2.0000      -0.359875        -9.7927
  79   2.0000      -0.354601        -9.6492
  80   2.0000      -0.351135        -9.5549
  81   2.0000      -0.349345        -9.5062
  82   2.0000      -0.348165        -9.4740
  83   2.0000      -0.343719        -9.3531
  84   2.0000      -0.340866        -9.2754
  85   2.0000      -0.329325        -8.9614
  86   2.0000      -0.320362        -8.7175
  87   2.0000      -0.301597        -8.2069
  88   2.0000      -0.299551        -8.1512
  89   2.0000      -0.294304        -8.0084
  90   2.0000      -0.290399        -7.9022
  91   2.0000      -0.283845        -7.7238
  92   2.0000      -0.281171        -7.6510
  93   2.0000      -0.268845        -7.3156
  94   2.0000      -0.263382        -7.1670
  95   2.0000      -0.243767        -6.6332
  96   2.0000      -0.222513        -6.0549
  97   2.0000      -0.213164        -5.8005
  98   2.0000      -0.203782        -5.5452
  99   2.0000      -0.199172        -5.4198
 100   2.0000      -0.195390        -5.3168
 101   0.0000      -0.049967        -1.3597
 102   0.0000      -0.035227        -0.9586
 103   0.0000      -0.016982        -0.4621
 104   0.0000      -0.002312        -0.0629
 105   0.0000       0.009492         0.2583

MULLIKEN ATOMIC CHARGES
-----------------------
   0 C :   -0.299964
   1 C :   -0.038873
   2 O :   -0.375709
   3 P :    0.599930
   4 S :   -0.295036
   5 O :   -0.352106
   6 C :   -0.019402
   7 C :   -0.288917
   8 S :   -0.115981
   9 C :   -0.347700
  10 S :   -0.129205
  11 P :    0.596261
  12 S :   -0.303350
  13 O :   -0.355670
  14 C :   -0.006182
  15 C :   -0.323500
  16 O :   -0.374277
  17 C :   -0.012922
  18 C :   -0.307373
  19 H :    0.127033
  20 H :    0.122081
  21 H :    0.106824
  22 H :    0.104091
  23 H :    0.123535
  24 H :    0.118155
  25 H :    0.108008
  26 H :    0.111222
  27 H :    0.122686
  28 H :    0.123880
  29 H :    0.196031
  30 H :    0.197037
  31 H :    0.126693
  32 H :    0.109576
  33 H :    0.121282
  34 H :    0.113416
  35 H :    0.128259
  36 H :    0.111077
  37 H :    0.110574
  38 H :    0.112026
  39 H :    0.128853
  40 H :    0.127635
Sum of atomic charges:   -0.0000000

LOEWDIN ATOMIC CHARGES
----------------------
   0 C :   -0.366765
   1 C :   -0.121407
   2 O :   -0.245801
   3 P :    0.568282
   4 S :   -0.287055
   5 O :   -0.232129
   6 C :   -0.110823
   7 C :   -0.358868
   8 S :    0.067046
   9 C :   -0.491450
  10 S :    0.068503
  11 P :    0.570589
  12 S :   -0.306288
  13 O :   -0.233421
  14 C :   -0.111183
  15 C :   -0.371158
  16 O :   -0.240259
  17 C :   -0.114310
  18 C :   -0.368564
  19 H :    0.115722
  20 H :    0.129780
  21 H :    0.128620
  22 H :    0.118387
  23 H :    0.100286
  24 H :    0.125331
  25 H :    0.105351
  26 H :    0.130210
  27 H :    0.126756
  28 H :    0.131194
  29 H :    0.125908
  30 H :    0.128823
  31 H :    0.104737
  32 H :    0.124208
  33 H :    0.114332
  34 H :    0.131181
  35 H :    0.130391
  36 H :    0.107095
  37 H :    0.121905
  38 H :    0.130560
  39 H :    0.131638
  40 H :    0.122648

  Mayer bond orders larger than 0.100000
B(  0-C ,  1-C ) :   1.1675 B(  0-C , 19-H ) :   0.9287 B(  0-C , 20-H ) :   0.9441
B(  0-C , 21-H ) :   0.9364 B(  1-C ,  2-O ) :   0.9170 B(  1-C , 22-H ) :   0.9338
B(  1-C , 23-H ) :   0.8978 B(  2-O ,  3-P ) :   1.0713 B(  3-P ,  4-S ) :   1.6520
B(  3-P ,  5-O ) :   1.1531 B(  3-P ,  8-S ) :   0.9356 B(  4-S ,  8-S ) :   0.1154
B(  4-S , 29-H ) :   0.1164 B(  5-O ,  6-C ) :   0.8903 B(  6-C ,  7-C ) :   1.1657
B(  6-C , 24-H ) :   0.9351 B(  6-C , 25-H ) :   0.9169 B(  7-C , 26-H ) :   0.9392
B(  7-C , 27-H ) :   0.9414 B(  7-C , 28-H ) :   0.9464 B(  8-S ,  9-C ) :   1.0106
B(  9-C , 10-S ) :   1.0057 B(  9-C , 29-H ) :   0.8495 B(  9-C , 30-H ) :   0.8528
B( 10-S , 11-P ) :   0.9251 B( 10-S , 12-S ) :   0.1085 B( 11-P , 12-S ) :   1.6398
B( 11-P , 13-O ) :   1.1463 B( 11-P , 16-O ) :   1.0973 B( 12-S , 30-H ) :   0.1114
B( 13-O , 14-C ) :   0.8990 B( 14-C , 15-C ) :   1.1689 B( 14-C , 31-H ) :   0.9127
B( 14-C , 32-H ) :   0.9314 B( 15-C , 33-H ) :   0.9347 B( 15-C , 34-H ) :   0.9354
B( 15-C , 35-H ) :   0.9403 B( 16-O , 17-C ) :   0.9093 B( 17-C , 18-C ) :   1.1680
B( 17-C , 36-H ) :   0.9257 B( 17-C , 37-H ) :   0.9331 B( 18-C , 38-H ) :   0.9348
B( 18-C , 39-H ) :   0.9426 B( 18-C , 40-H ) :   0.9323

Dispersion correction           -0.064940484
FINAL SINGLE POINT ENERGY     -2929.511222544249

DIPOLE MOMENT
-------------

Method             : SCF
Type of density    : Electron Density
Multiplicity       :   1
Irrep              :   0
Energy             : -2929.6322106281868400 Eh
Relativity type    :
Basis              : AO
                                X                 Y                 Z
Electronic contribution:      1.561012675       8.293903681     -17.138446561
Nuclear contribution   :     -1.684903298      -8.821794929      19.413096328
                        -----------------------------------------
Total Dipole Moment    :     -0.123890623      -0.527891248       2.274649767
                        -----------------------------------------
Magnitude (a.u.)       :      2.338386114
Magnitude (Debye)      :      5.943705148

Rotational constants in cm-1:             0.013141             0.004364             0.004310
Rotational constants in MHz :           393.948444           130.844180           129.212593

                             ****ORCA TERMINATED NORMALLY****
TOTAL RUN TIME: 0 days 0 hours 0 minutes 21 seconds 254 msec
