                         Program Version 6.0.0  -   RELEASE  -
|  1> ! pbe def2-sv(p) def2/J RI DEFGRID1 loosescf d4 GCP(DFT/SV(P)) printgap
|  2> %output
|  3>     printlevel normal
|  4> end
|  5> * xyz 0 1
|  6> C 4.2410655542 -1.8159254074 -0.8334023079
|  7> C 4.5862378382 -0.3402848422 -0.8234288311
|  8> O 3.6406004934 0.4422891981 -0.0773328597
|  9> P 2.1164035507 0.6074165144 -0.515490293
| 10> S 1.8774111639 0.7497118716 -2.4523401219
| 11> O 1.7233557493 1.9283374121 0.2476360768
| 12> C 1.4139464762 2.0677754687 1.6530970452
| 13> C 2.4892706253 1.4987127979 2.552650661
| 14> S 1.133443343 -1.008735054 0.4612340976
| 15> C 0.0946473626 -1.6368857439 -0.8973893323
| 16> S -1.615080844 -1.9062813451 -0.3905211074
| 17> P -2.0631168629 0.0727110013 0.2496954013
| 18> S -1.336000036 1.498759206 -0.8880275794
| 19> O -1.5572520548 0.226795289 1.7380563654
| 20> C -2.1763012527 -0.3443840847 2.9202579754
| 21> C -2.0121323467 -1.848177036 2.9905992645
| 22> O -3.6397770587 0.067800429 0.4382274613
| 23> C -4.558386875 0.3512625854 -0.6322323031
| 24> C -4.519687273 -0.6994643401 -1.7225218805
| 25> H 5.0536041136 -2.3686813121 -1.2937685006
| 26> H 4.0853500132 -2.1775394017 0.1797197791
| 27> H 3.3339187961 -1.977485918 -1.414211321
| 28> H 4.6251458089 0.0496808182 -1.8454689264
| 29> H 5.5339953396 -0.1510957058 -0.31741594
| 30> H 1.3092412164 3.1472140017 1.7751577869
| 31> H 0.4477619081 1.587641252 1.8348527811
| 32> H 3.4518203206 1.9422889041 2.3115481563
| 33> H 2.2381709845 1.7180775424 3.5857907448
| 34> H 2.5559828575 0.4194045639 2.4239144782
| 35> H 0.4691813008 -2.6098499392 -1.2060458887
| 36> H 0.1393871853 -0.9175957032 -1.7204986957
| 37> H -1.6487480607 0.1526069844 3.7359415612
| 38> H -3.2293078194 -0.0590398591 2.9277061951
| 39> H -2.6157050206 -2.3370307627 2.2297407474
| 40> H -0.969539585 -2.1194387901 2.8410531733
| 41> H -2.3332359657 -2.1896059801 3.9697520637
| 42> H -5.5296609616 0.3809910455 -0.1360918758
| 43> H -4.3176732872 1.3378423905 -1.0400433207
| 44> H -3.5710572363 -0.6502862358 -2.255064668
| 45> H -4.6331599894 -1.6932866619 -1.2970401204
| 46> H -5.3247625617 -0.5132200508 -2.4261835883
| 47> *
| 48>
| 49>                          ****END OF INPUT****

CARTESIAN COORDINATES (ANGSTROEM)
---------------------------------
  C      4.241066   -1.815925   -0.833402
  C      4.586238   -0.340285   -0.823429
  O      3.640600    0.442289   -0.077333
  P      2.116404    0.607417   -0.515490
  S      1.877411    0.749712   -2.452340
  O      1.723356    1.928337    0.247636
  C      1.413946    2.067775    1.653097
  C      2.489271    1.498713    2.552651
  S      1.133443   -1.008735    0.461234
  C      0.094647   -1.636886   -0.897389
  S     -1.615081   -1.906281   -0.390521
  P     -2.063117    0.072711    0.249695
  S     -1.336000    1.498759   -0.888028
  O     -1.557252    0.226795    1.738056
  C     -2.176301   -0.344384    2.920258
  C     -2.012132   -1.848177    2.990599
  O     -3.639777    0.067800    0.438227
  C     -4.558387    0.351263   -0.632232
  C     -4.519687   -0.699464   -1.722522
  H      5.053604   -2.368681   -1.293769
  H      4.085350   -2.177539    0.179720
  H      3.333919   -1.977486   -1.414211
  H      4.625146    0.049681   -1.845469
  H      5.533995   -0.151096   -0.317416
  H      1.309241    3.147214    1.775158
  H      0.447762    1.587641    1.834853
  H      3.451820    1.942289    2.311548
  H      2.238171    1.718078    3.585791
  H      2.555983    0.419405    2.423914
  H      0.469181   -2.609850   -1.206046
  H      0.139387   -0.917596   -1.720499
  H     -1.648748    0.152607    3.735942
  H     -3.229308   -0.059040    2.927706
  H     -2.615705   -2.337031    2.229741
  H     -0.969540   -2.119439    2.841053
  H     -2.333236   -2.189606    3.969752
  H     -5.529661    0.380991   -0.136092
  H     -4.317673    1.337842   -1.040043
  H     -3.571057   -0.650286   -2.255065
  H     -4.633160   -1.693287   -1.297040
  H     -5.324763   -0.513220   -2.426184

 Total Charge           Charge          ....    0
 Multiplicity           Mult            ....    1
 Number of Electrons    NEL             ....  202
 Basis Dimension        Dim             ....  334

ORBITAL ENERGIES
----------------

  NO   OCC          E(Eh)            E(eV)
   0   2.0000     -88.043908     -2395.7965
   1   2.0000     -88.040046     -2395.6914
   2   2.0000     -87.980408     -2394.0686
   3   2.0000     -87.976595     -2393.9649
   4   2.0000     -76.426739     -2079.6773
   5   2.0000     -76.419241     -2079.4733
   6   2.0000     -18.797260      -511.4995
   7   2.0000     -18.792351      -511.3659
   8   2.0000     -18.781553      -511.0720
   9   2.0000     -18.780240      -511.0363
  10   2.0000      -9.959941      -271.0238
  11   2.0000      -9.956443      -270.9286
  12   2.0000      -9.952521      -270.8219
  13   2.0000      -9.945717      -270.6367
  14   2.0000      -9.944078      -270.5921
  15   2.0000      -9.889827      -269.1159
  16   2.0000      -9.885833      -269.0072
  17   2.0000      -9.883002      -268.9302
  18   2.0000      -9.880171      -268.8531
  19   2.0000      -7.688821      -209.2235
  20   2.0000      -7.684225      -209.0984
  21   2.0000      -7.625080      -207.4890
  22   2.0000      -7.621821      -207.4003
  23   2.0000      -6.423769      -174.7996
  24   2.0000      -6.416267      -174.5955
  25   2.0000      -5.716747      -155.5606
  26   2.0000      -5.713264      -155.4658
  27   2.0000      -5.712108      -155.4344
  28   2.0000      -5.708786      -155.3440
  29   2.0000      -5.705829      -155.2635
  30   2.0000      -5.701227      -155.1383
  31   2.0000      -5.654178      -153.8580
  32   2.0000      -5.650857      -153.7676
  33   2.0000      -5.645765      -153.6291
  34   2.0000      -5.645071      -153.6102
  35   2.0000      -5.642497      -153.5402
  36   2.0000      -5.641749      -153.5198
  37   2.0000      -4.646864      -126.4476
  38   2.0000      -4.645395      -126.4076
  39   2.0000      -4.643911      -126.3673
  40   2.0000      -4.638887      -126.2305
  41   2.0000      -4.638047      -126.2077
  42   2.0000      -4.636773      -126.1730
  43   2.0000      -0.990708       -26.9585
  44   2.0000      -0.976629       -26.5754
  45   2.0000      -0.946737       -25.7620
  46   2.0000      -0.934272       -25.4228
  47   2.0000      -0.761332       -20.7169
  48   2.0000      -0.718606       -19.5543
  49   2.0000      -0.707675       -19.2568
  50   2.0000      -0.693338       -18.8667
  51   2.0000      -0.683514       -18.5994
  52   2.0000      -0.677547       -18.4370
  53   2.0000      -0.648809       -17.6550
  54   2.0000      -0.630119       -17.1464
  55   2.0000      -0.598243       -16.2790
  56   2.0000      -0.589513       -16.0415
  57   2.0000      -0.582554       -15.8521
  58   2.0000      -0.568335       -15.4652
  59   2.0000      -0.559233       -15.2175
  60   2.0000      -0.499829       -13.6010
  61   2.0000      -0.485457       -13.2100
  62   2.0000      -0.473258       -12.8780
  63   2.0000      -0.461901       -12.5690
  64   2.0000      -0.452269       -12.3069
  65   2.0000      -0.446502       -12.1499
  66   2.0000      -0.444159       -12.0862
  67   2.0000      -0.434134       -11.8134
  68   2.0000      -0.430704       -11.7200
  69   2.0000      -0.421816       -11.4782
  70   2.0000      -0.413178       -11.2431
  71   2.0000      -0.402297       -10.9471
  72   2.0000      -0.390807       -10.6344
  73   2.0000      -0.384618       -10.4660
  74   2.0000      -0.378222       -10.2919
  75   2.0000      -0.367896       -10.0110
  76   2.0000      -0.362254        -9.8574
  77   2.0000      -0.358473        -9.7545
  78   2.0000      -0.355229        -9.6663
  79   2.0000      -0.350918        -9.5490
  80   2.0000      -0.347762        -9.4631
  81   2.0000      -0.346624        -9.4321
  82   2.0000      -0.340668        -9.2701
  83   2.0000      -0.338337        -9.2066
  84   2.0000      -0.331491        -9.0203
  85   2.0000      -0.321004        -8.7350
  86   2.0000      -0.307052        -8.3553
  87   2.0000      -0.297932        -8.1071
  88   2.0000      -0.294484        -8.0133
  89   2.0000      -0.287063        -7.8114
  90   2.0000      -0.282644        -7.6911
  91   2.0000      -0.274224        -7.4620
  92   2.0000      -0.264015        -7.1842
  93   2.0000      -0.261971        -7.1286
  94   2.0000      -0.254390        -6.9223
  95   2.0000      -0.232405        -6.3241
  96   2.0000      -0.215345        -5.8598
  97   2.0000      -0.207293        -5.6407
  98   2.0000      -0.197355        -5.3703
  99   2.0000      -0.193167        -5.2564
 100   2.0000      -0.181549        -4.9402
 101   0.0000      -0.045121        -1.2278
 102   0.0000      -0.033097        -0.9006
 103   0.0000      -0.008238        -0.2242
 104   0.0000       0.007980         0.2171
 105   0.0000       0.018356         0.4995

MULLIKEN ATOMIC CHARGES
-----------------------
   0 C :   -0.313765
   1 C :    0.003596
   2 O :   -0.376354
   3 P :    0.611521
   4 S :   -0.299582
   5 O :   -0.351692
   6 C :   -0.023685
   7 C :   -0.314642
   8 S :   -0.136422
   9 C :   -0.336157
  10 S :   -0.112540
  11 P :    0.605607
  12 S :   -0.287227
  13 O :   -0.356843
  14 C :    0.001088
  15 C :   -0.312684
  16 O :   -0.385843
  17 C :    0.002449
  18 C :   -0.322219
  19 H :    0.110075
  20 H :    0.115525
  21 H :    0.117496
  22 H :    0.110852
  23 H :    0.101020
  24 H :    0.107229
  25 H :    0.139487
  26 H :    0.122479
  27 H :    0.109174
  28 H :    0.119808
  29 H :    0.179298
  30 H :    0.208418
  31 H :    0.105927
  32 H :    0.112418
  33 H :    0.124509
  34 H :    0.123496
  35 H :    0.112329
  36 H :    0.103906
  37 H :    0.114627
  38 H :    0.135588
  39 H :    0.115918
  40 H :    0.115816
Sum of atomic charges:   -0.0000000

LOEWDIN ATOMIC CHARGES
----------------------
   0 C :   -0.371169
   1 C :   -0.118329
   2 O :   -0.248632
   3 P :    0.576443
   4 S :   -0.297458
   5 O :   -0.226386
   6 C :   -0.119282
   7 C :   -0.367191
   8 S :    0.064703
   9 C :   -0.480373
  10 S :    0.080874
  11 P :    0.563461
  12 S :   -0.292000
  13 O :   -0.235873
  14 C :   -0.108404
  15 C :   -0.368993
  16 O :   -0.248958
  17 C :   -0.115339
  18 C :   -0.371696
  19 H :    0.129081
  20 H :    0.121974
  21 H :    0.117861
  22 H :    0.111156
  23 H :    0.116859
  24 H :    0.122665
  25 H :    0.113395
  26 H :    0.128475
  27 H :    0.129223
  28 H :    0.114185
  29 H :    0.133854
  30 H :    0.125079
  31 H :    0.119455
  32 H :    0.114860
  33 H :    0.118093
  34 H :    0.125843
  35 H :    0.130308
  36 H :    0.118091
  37 H :    0.114672
  38 H :    0.124460
  39 H :    0.122393
  40 H :    0.132618

  Mayer bond orders larger than 0.100000
B(  0-C ,  1-C ) :   1.1644 B(  0-C , 19-H ) :   0.9376 B(  0-C , 20-H ) :   0.9429
B(  0-C , 21-H ) :   0.9364 B(  1-C ,  2-O ) :   0.9182 B(  1-C , 22-H ) :   0.9161
B(  1-C , 23-H ) :   0.9345 B(  2-O ,  3-P ) :   1.0788 B(  3-P ,  4-S ) :   1.6152
B(  3-P ,  5-O ) :   1.1538 B(  3-P ,  8-S ) :   0.9338 B(  4-S ,  8-S ) :   0.1136
B(  4-S , 30-H ) :   0.1027 B(  5-O ,  6-C ) :   0.8971 B(  6-C ,  7-C ) :   1.1641
B(  6-C , 24-H ) :   0.9334 B(  6-C , 25-H ) :   0.9051 B(  7-C , 26-H ) :   0.9418
B(  7-C , 27-H ) :   0.9365 B(  7-C , 28-H ) :   0.9378 B(  8-S ,  9-C ) :   0.9984
B(  9-C , 10-S ) :   1.0030 B(  9-C , 29-H ) :   0.9076 B(  9-C , 30-H ) :   0.8439
B( 10-S , 11-P ) :   0.9367 B( 10-S , 12-S ) :   0.1096 B( 11-P , 12-S ) :   1.6628
B( 11-P , 13-O ) :   1.1009 B( 11-P , 16-O ) :   1.0799 B( 13-O , 14-C ) :   0.9000
B( 14-C , 15-C ) :   1.1704 B( 14-C , 31-H ) :   0.9344 B( 14-C , 32-H ) :   0.9257
B( 15-C , 33-H ) :   0.9393 B( 15-C , 34-H ) :   0.9422 B( 15-C , 35-H ) :   0.9357
B( 16-O , 17-C ) :   0.9028 B( 17-C , 18-C ) :   1.1674 B( 17-C , 36-H ) :   0.9344
B( 17-C , 37-H ) :   0.9177 B( 18-C , 38-H ) :   0.9338 B( 18-C , 39-H ) :   0.9435
B( 18-C , 40-H ) :   0.9365

Dispersion correction           -0.068688090
FINAL SINGLE POINT ENERGY     -2929.512430691685

DIPOLE MOMENT
-------------

Method             : SCF
Type of density    : Electron Density
Multiplicity       :   1
Irrep              :   0
Energy             : -2929.6302332197592477 Eh
Relativity type    :
Basis              : AO
                                X                 Y                 Z
Electronic contribution:      0.291849921       7.933801025     -10.839287288
Nuclear contribution   :     -0.918704378      -9.019128943      12.434917254
                        -----------------------------------------
Total Dipole Moment    :     -0.626854458      -1.085327918       1.595629966
                        -----------------------------------------
Magnitude (a.u.)       :      2.029019021
Magnitude (Debye)      :      5.157356490

Rotational constants in cm-1:             0.012712             0.005415             0.005075
Rotational constants in MHz :           381.100535           162.333996           152.131607

                             ****ORCA TERMINATED NORMALLY****
TOTAL RUN TIME: 0 days 0 hours 0 minutes 24 seconds 438 msec
