                         Program Version 6.0.0  -   RELEASE  -
|  1> ! pbe def2-sv(p) def2/J RI DEFGRID1 loosescf d4 GCP(DFT/SV(P)) printgap
|  2> %output
|  3>     printlevel normal
|  4> end
|  5> * xyz 0 1
|  6> C 2.8245934473 1.6878432574 -2.143033253
|  7> C 3.0766391713 0.1951670999 -2.1342987328
|  8> O 2.1914540953 -0.5128669032 -1.2424847021
|  9> P 2.0519219034 -0.262172396 0.3139230425
| 10> S 1.0929919278 1.3341885335 0.9498977608
| 11> O 3.5648953937 -0.3180996466 0.7957934579
| 12> C 3.9680364606 0.1177269268 2.1053953191
| 13> C 3.4782427131 -0.8245768612 3.1852383265
| 14> S 1.2529106178 -2.1359799269 0.8585573596
| 15> C -0.3555460534 -2.0493839629 0.0231056372
| 16> S -1.573425466 -1.0087138657 0.8790961225
| 17> P -1.9490163358 0.4782518207 -0.6090438866
| 18> S -0.8456051914 0.3501962509 -2.2217088198
| 19> O -1.8417028763 1.9264432134 -0.0108616981
| 20> C -2.7107915045 2.5170883726 0.9844538136
| 21> C -2.5912949876 1.8360575775 2.3312443027
| 22> O -3.529163916 0.375966023 -0.8163217042
| 23> C -4.2702434765 -0.834384122 -1.0423291933
| 24> C -3.8735108164 -1.5341135709 -2.3262221234
| 25> H 3.053532799 2.1170669722 -1.168188284
| 26> H 3.4510505332 2.1564664319 -2.8951913113
| 27> H 1.7789999608 1.8871066616 -2.3720757903
| 28> H 4.1041889887 -0.0292970124 -1.8389986243
| 29> H 2.8569934806 -0.2478513953 -3.1072952092
| 30> H 5.0571085889 0.1421819861 2.0503671167
| 31> H 3.577602154 1.1276056915 2.2691807985
| 32> H 2.3909212442 -0.7872350401 3.2427605629
| 33> H 3.7803502965 -1.8446216984 2.9623130293
| 34> H 3.8928693574 -0.5236408258 4.1418464357
| 35> H -0.7334144861 -3.06825759 0.0209336488
| 36> H -0.2181252274 -1.6648912356 -0.9918345664
| 37> H -2.362014066 3.550075194 1.0291749408
| 38> H -3.7352747525 2.4819527612 0.6085030195
| 39> H -1.5451165716 1.7807263025 2.6252234976
| 40> H -3.1411250404 2.410016195 3.0703798628
| 41> H -2.9982152402 0.8268722276 2.2895201397
| 42> H -4.126762874 -1.4926821972 -0.1804279131
| 43> H -5.3070140652 -0.4951815804 -1.0802480476
| 44> H -2.8417750124 -1.877132653 -2.2681981519
| 45> H -4.5235576453 -2.3882271847 -2.4859086466
| 46> H -3.9578875347 -0.853201864 -3.1697223346
| 47> *
| 48>
| 49>                          ****END OF INPUT****

CARTESIAN COORDINATES (ANGSTROEM)
---------------------------------
  C      2.824593    1.687843   -2.143033
  C      3.076639    0.195167   -2.134299
  O      2.191454   -0.512867   -1.242485
  P      2.051922   -0.262172    0.313923
  S      1.092992    1.334189    0.949898
  O      3.564895   -0.318100    0.795793
  C      3.968036    0.117727    2.105395
  C      3.478243   -0.824577    3.185238
  S      1.252911   -2.135980    0.858557
  C     -0.355546   -2.049384    0.023106
  S     -1.573425   -1.008714    0.879096
  P     -1.949016    0.478252   -0.609044
  S     -0.845605    0.350196   -2.221709
  O     -1.841703    1.926443   -0.010862
  C     -2.710792    2.517088    0.984454
  C     -2.591295    1.836058    2.331244
  O     -3.529164    0.375966   -0.816322
  C     -4.270243   -0.834384   -1.042329
  C     -3.873511   -1.534114   -2.326222
  H      3.053533    2.117067   -1.168188
  H      3.451051    2.156466   -2.895191
  H      1.779000    1.887107   -2.372076
  H      4.104189   -0.029297   -1.838999
  H      2.856993   -0.247851   -3.107295
  H      5.057109    0.142182    2.050367
  H      3.577602    1.127606    2.269181
  H      2.390921   -0.787235    3.242761
  H      3.780350   -1.844622    2.962313
  H      3.892869   -0.523641    4.141846
  H     -0.733414   -3.068258    0.020934
  H     -0.218125   -1.664891   -0.991835
  H     -2.362014    3.550075    1.029175
  H     -3.735275    2.481953    0.608503
  H     -1.545117    1.780726    2.625223
  H     -3.141125    2.410016    3.070380
  H     -2.998215    0.826872    2.289520
  H     -4.126763   -1.492682   -0.180428
  H     -5.307014   -0.495182   -1.080248
  H     -2.841775   -1.877133   -2.268198
  H     -4.523558   -2.388227   -2.485909
  H     -3.957888   -0.853202   -3.169722

 Total Charge           Charge          ....    0
 Multiplicity           Mult            ....    1
 Number of Electrons    NEL             ....  202
 Basis Dimension        Dim             ....  334

ORBITAL ENERGIES
----------------

  NO   OCC          E(Eh)            E(eV)
   0   2.0000     -88.039455     -2395.6754
   1   2.0000     -88.035582     -2395.5700
   2   2.0000     -87.977713     -2393.9953
   3   2.0000     -87.977084     -2393.9782
   4   2.0000     -76.421927     -2079.5464
   5   2.0000     -76.419962     -2079.4929
   6   2.0000     -18.789952      -511.3006
   7   2.0000     -18.786696      -511.2120
   8   2.0000     -18.784276      -511.1461
   9   2.0000     -18.779196      -511.0079
  10   2.0000      -9.952580      -270.8235
  11   2.0000      -9.951764      -270.8013
  12   2.0000      -9.951416      -270.7918
  13   2.0000      -9.949598      -270.7423
  14   2.0000      -9.946043      -270.6456
  15   2.0000      -9.883713      -268.9495
  16   2.0000      -9.882606      -268.9194
  17   2.0000      -9.881457      -268.8881
  18   2.0000      -9.869559      -268.5643
  19   2.0000      -7.683794      -209.0867
  20   2.0000      -7.681262      -209.0178
  21   2.0000      -7.622888      -207.4293
  22   2.0000      -7.621703      -207.3971
  23   2.0000      -6.418733      -174.6626
  24   2.0000      -6.417262      -174.6226
  25   2.0000      -5.711684      -155.4228
  26   2.0000      -5.709119      -155.3530
  27   2.0000      -5.708260      -155.3297
  28   2.0000      -5.705884      -155.2650
  29   2.0000      -5.700938      -155.1304
  30   2.0000      -5.698018      -155.0509
  31   2.0000      -5.651856      -153.7948
  32   2.0000      -5.650466      -153.7570
  33   2.0000      -5.643548      -153.5687
  34   2.0000      -5.642840      -153.5495
  35   2.0000      -5.642338      -153.5358
  36   2.0000      -5.642049      -153.5280
  37   2.0000      -4.641567      -126.3035
  38   2.0000      -4.640585      -126.2767
  39   2.0000      -4.640299      -126.2690
  40   2.0000      -4.638995      -126.2335
  41   2.0000      -4.638914      -126.2313
  42   2.0000      -4.637434      -126.1910
  43   2.0000      -0.982432       -26.7333
  44   2.0000      -0.981708       -26.7136
  45   2.0000      -0.938101       -25.5270
  46   2.0000      -0.937241       -25.5036
  47   2.0000      -0.757309       -20.6074
  48   2.0000      -0.716568       -19.4988
  49   2.0000      -0.705535       -19.1986
  50   2.0000      -0.686947       -18.6928
  51   2.0000      -0.683735       -18.6054
  52   2.0000      -0.670244       -18.2383
  53   2.0000      -0.648291       -17.6409
  54   2.0000      -0.630476       -17.1561
  55   2.0000      -0.591183       -16.0869
  56   2.0000      -0.585224       -15.9248
  57   2.0000      -0.577413       -15.7122
  58   2.0000      -0.570540       -15.5252
  59   2.0000      -0.557534       -15.1713
  60   2.0000      -0.494625       -13.4594
  61   2.0000      -0.490369       -13.3436
  62   2.0000      -0.467092       -12.7102
  63   2.0000      -0.464506       -12.6399
  64   2.0000      -0.449602       -12.2343
  65   2.0000      -0.446783       -12.1576
  66   2.0000      -0.436093       -11.8667
  67   2.0000      -0.427948       -11.6451
  68   2.0000      -0.424481       -11.5507
  69   2.0000      -0.414658       -11.2834
  70   2.0000      -0.408619       -11.1191
  71   2.0000      -0.403439       -10.9781
  72   2.0000      -0.401269       -10.9191
  73   2.0000      -0.387164       -10.5353
  74   2.0000      -0.375582       -10.2201
  75   2.0000      -0.363531        -9.8922
  76   2.0000      -0.352966        -9.6047
  77   2.0000      -0.351772        -9.5722
  78   2.0000      -0.350914        -9.5489
  79   2.0000      -0.348280        -9.4772
  80   2.0000      -0.341568        -9.2945
  81   2.0000      -0.337228        -9.1764
  82   2.0000      -0.334179        -9.0935
  83   2.0000      -0.333451        -9.0737
  84   2.0000      -0.326603        -8.8873
  85   2.0000      -0.313930        -8.5425
  86   2.0000      -0.309567        -8.4237
  87   2.0000      -0.293417        -7.9843
  88   2.0000      -0.291894        -7.9428
  89   2.0000      -0.285816        -7.7774
  90   2.0000      -0.280734        -7.6392
  91   2.0000      -0.271909        -7.3990
  92   2.0000      -0.269341        -7.3291
  93   2.0000      -0.257326        -7.0022
  94   2.0000      -0.251705        -6.8492
  95   2.0000      -0.234582        -6.3833
  96   2.0000      -0.218283        -5.9398
  97   2.0000      -0.198227        -5.3940
  98   2.0000      -0.194121        -5.2823
  99   2.0000      -0.187249        -5.0953
 100   2.0000      -0.182925        -4.9776
 101   0.0000      -0.034914        -0.9500
 102   0.0000      -0.030456        -0.8287
 103   0.0000      -0.010371        -0.2822
 104   0.0000       0.003116         0.0848
 105   0.0000       0.015838         0.4310

MULLIKEN ATOMIC CHARGES
-----------------------
   0 C :   -0.323906
   1 C :    0.007740
   2 O :   -0.368105
   3 P :    0.623859
   4 S :   -0.314565
   5 O :   -0.379126
   6 C :   -0.003299
   7 C :   -0.322231
   8 S :   -0.091305
   9 C :   -0.351711
  10 S :   -0.116742
  11 P :    0.621155
  12 S :   -0.303343
  13 O :   -0.344842
  14 C :    0.001821
  15 C :   -0.330676
  16 O :   -0.383680
  17 C :   -0.005005
  18 C :   -0.306715
  19 H :    0.120607
  20 H :    0.103371
  21 H :    0.141943
  22 H :    0.103299
  23 H :    0.105260
  24 H :    0.102913
  25 H :    0.110122
  26 H :    0.130660
  27 H :    0.118564
  28 H :    0.113687
  29 H :    0.178320
  30 H :    0.205911
  31 H :    0.110695
  32 H :    0.108090
  33 H :    0.141916
  34 H :    0.112597
  35 H :    0.123223
  36 H :    0.103061
  37 H :    0.103211
  38 H :    0.121235
  39 H :    0.107691
  40 H :    0.124301
Sum of atomic charges:    0.0000000

LOEWDIN ATOMIC CHARGES
----------------------
   0 C :   -0.371887
   1 C :   -0.106555
   2 O :   -0.240125
   3 P :    0.569935
   4 S :   -0.307872
   5 O :   -0.245403
   6 C :   -0.122149
   7 C :   -0.370908
   8 S :    0.080553
   9 C :   -0.485087
  10 S :    0.076631
  11 P :    0.571811
  12 S :   -0.291843
  13 O :   -0.221848
  14 C :   -0.108910
  15 C :   -0.369885
  16 O :   -0.250862
  17 C :   -0.121095
  18 C :   -0.367379
  19 H :    0.118977
  20 H :    0.126069
  21 H :    0.130844
  22 H :    0.110477
  23 H :    0.120594
  24 H :    0.117383
  25 H :    0.109165
  26 H :    0.122803
  27 H :    0.124710
  28 H :    0.131654
  29 H :    0.135528
  30 H :    0.124336
  31 H :    0.123487
  32 H :    0.112495
  33 H :    0.132241
  34 H :    0.130988
  35 H :    0.114530
  36 H :    0.101251
  37 H :    0.118006
  38 H :    0.119025
  39 H :    0.128047
  40 H :    0.130269

  Mayer bond orders larger than 0.100000
B(  0-C ,  1-C ) :   1.1684 B(  0-C , 19-H ) :   0.9351 B(  0-C , 20-H ) :   0.9352
B(  0-C , 21-H ) :   0.9348 B(  1-C ,  2-O ) :   0.9038 B(  1-C , 22-H ) :   0.9323
B(  1-C , 23-H ) :   0.9345 B(  2-O ,  3-P ) :   1.1212 B(  3-P ,  4-S ) :   1.6325
B(  3-P ,  5-O ) :   1.0838 B(  3-P ,  8-S ) :   0.9568 B(  4-S ,  8-S ) :   0.1187
B(  5-O ,  6-C ) :   0.9088 B(  6-C ,  7-C ) :   1.1653 B(  6-C , 24-H ) :   0.9324
B(  6-C , 25-H ) :   0.9106 B(  7-C , 26-H ) :   0.9327 B(  7-C , 27-H ) :   0.9449
B(  7-C , 28-H ) :   0.9384 B(  8-S ,  9-C ) :   1.0012 B(  9-C , 10-S ) :   0.9961
B(  9-C , 29-H ) :   0.9116 B(  9-C , 30-H ) :   0.8411 B( 10-S , 11-P ) :   0.9319
B( 10-S , 12-S ) :   0.1180 B( 11-P , 12-S ) :   1.6283 B( 11-P , 13-O ) :   1.1486
B( 11-P , 16-O ) :   1.0617 B( 12-S , 30-H ) :   0.1156 B( 13-O , 14-C ) :   0.9004
B( 14-C , 15-C ) :   1.1685 B( 14-C , 31-H ) :   0.9331 B( 14-C , 32-H ) :   0.9265
B( 15-C , 33-H ) :   0.9375 B( 15-C , 34-H ) :   0.9362 B( 15-C , 35-H ) :   0.9348
B( 16-O , 17-C ) :   0.9237 B( 17-C , 18-C ) :   1.1649 B( 17-C , 36-H ) :   0.9158
B( 17-C , 37-H ) :   0.9332 B( 18-C , 38-H ) :   0.9351 B( 18-C , 39-H ) :   0.9364
B( 18-C , 40-H ) :   0.9448

Dispersion correction           -0.068351742
FINAL SINGLE POINT ENERGY     -2929.510767114269

DIPOLE MOMENT
-------------

Method             : SCF
Type of density    : Electron Density
Multiplicity       :   1
Irrep              :   0
Energy             : -2929.6277387276631998 Eh
Relativity type    :
Basis              : AO
                                X                 Y                 Z
Electronic contribution:      1.230244765      -3.253001599      -2.249924547
Nuclear contribution   :     -1.535158309       2.880510748       2.813296862
                        -----------------------------------------
Total Dipole Moment    :     -0.304913544      -0.372490851       0.563372315
                        -----------------------------------------
Magnitude (a.u.)       :      0.741019615
Magnitude (Debye)      :      1.883522175

Rotational constants in cm-1:             0.012028             0.005514             0.005251
Rotational constants in MHz :           360.593623           165.309534           157.422867

                             ****ORCA TERMINATED NORMALLY****
TOTAL RUN TIME: 0 days 0 hours 0 minutes 21 seconds 361 msec
