                         Program Version 6.0.0  -   RELEASE  -
|  1> ! r2scan-3c def2/J RI DEFGRID2 scfconv6 printgap
|  2> %output
|  3>     printlevel normal
|  4> end
|  5> * xyz 0 1
|  6> C 4.3628981407 -0.1682534063 -2.229589564
|  7> C 4.4634697285 0.7360129272 -1.0184621926
|  8> O 3.6680411985 0.2668520406 0.0850322501
|  9> P 2.0804497695 0.2144602583 0.0391525806
| 10> S 1.1992010935 1.7438760049 -0.8026001507
| 11> O 1.6934923361 0.0949461158 1.5653753801
| 12> C 2.212595677 -0.9276800357 2.4525476489
| 13> C 3.3893761458 -0.4009049446 3.2470480589
| 14> S 1.6725791357 -1.7033800277 -0.7952401115
| 15> C -0.0991155732 -1.4937700835 -1.044882319
| 16> S -1.0010476162 -1.3529152228 0.5414454455
| 17> P -2.459159453 0.1153349105 0.0494390627
| 18> S -2.3149928909 0.9161846288 -1.7393435472
| 19> O -2.5010253587 1.0480383109 1.327798427
| 20> C -1.4447866454 1.9168051732 1.7659835867
| 21> C -1.5211492914 3.2671590407 1.0812197379
| 22> O -3.8560228123 -0.5639319864 0.3526120117
| 23> C -4.6228590555 -1.2222622536 -0.6689454218
| 24> C -3.9553229174 -2.4965152468 -1.1474461183
| 25> H 4.5612936525 -1.1999596877 -1.9502866944
| 26> H 3.3649273692 -0.1064076276 -2.6608884049
| 27> H 5.0856933992 0.1500880006 -2.9740320221
| 28> H 4.1408255207 1.7515446068 -1.2678855793
| 29> H 5.4772973095 0.7577559809 -0.6160780888
| 30> H 1.3695973779 -1.1790805867 3.0991815897
| 31> H 2.4928952046 -1.8022825247 1.8593246629
| 32> H 3.1022751779 0.4956365078 3.7896214894
| 33> H 3.7070493929 -1.161422447 3.9534252033
| 34> H 4.2149229439 -0.160311287 2.5827975141
| 35> H -0.4326561489 -2.3873371837 -1.566677836
| 36> H -0.294231401 -0.5917350631 -1.6332693001
| 37> H -1.6057422539 2.0086927071 2.8420226318
| 38> H -0.473769193 1.4444128574 1.5847562406
| 39> H -2.5104693076 3.6969933571 1.2117383548
| 40> H -0.7757645208 3.9288306464 1.5108415587
| 41> H -1.3181459214 3.1639075515 0.016443503
| 42> H -5.5801129002 -1.4241802416 -0.1866094385
| 43> H -4.765001388 -0.5267115049 -1.5023827728
| 44> H -3.7033849487 -3.1310467691 -0.3013987037
| 45> H -4.6294470796 -3.0289193307 -1.8106881324
| 46> H -3.0455008902 -2.2502977966 -1.6940426621
| 47> *
| 48>
| 49>                          ****END OF INPUT****

CARTESIAN COORDINATES (ANGSTROEM)
---------------------------------
  C      4.362898   -0.168253   -2.229590
  C      4.463470    0.736013   -1.018462
  O      3.668041    0.266852    0.085032
  P      2.080450    0.214460    0.039153
  S      1.199201    1.743876   -0.802600
  O      1.693492    0.094946    1.565375
  C      2.212596   -0.927680    2.452548
  C      3.389376   -0.400905    3.247048
  S      1.672579   -1.703380   -0.795240
  C     -0.099116   -1.493770   -1.044882
  S     -1.001048   -1.352915    0.541445
  P     -2.459159    0.115335    0.049439
  S     -2.314993    0.916185   -1.739344
  O     -2.501025    1.048038    1.327798
  C     -1.444787    1.916805    1.765984
  C     -1.521149    3.267159    1.081220
  O     -3.856023   -0.563932    0.352612
  C     -4.622859   -1.222262   -0.668945
  C     -3.955323   -2.496515   -1.147446
  H      4.561294   -1.199960   -1.950287
  H      3.364927   -0.106408   -2.660888
  H      5.085693    0.150088   -2.974032
  H      4.140826    1.751545   -1.267886
  H      5.477297    0.757756   -0.616078
  H      1.369597   -1.179081    3.099182
  H      2.492895   -1.802283    1.859325
  H      3.102275    0.495637    3.789621
  H      3.707049   -1.161422    3.953425
  H      4.214923   -0.160311    2.582798
  H     -0.432656   -2.387337   -1.566678
  H     -0.294231   -0.591735   -1.633269
  H     -1.605742    2.008693    2.842023
  H     -0.473769    1.444413    1.584756
  H     -2.510469    3.696993    1.211738
  H     -0.775765    3.928831    1.510842
  H     -1.318146    3.163908    0.016444
  H     -5.580113   -1.424180   -0.186609
  H     -4.765001   -0.526712   -1.502383
  H     -3.703385   -3.131047   -0.301399
  H     -4.629447   -3.028919   -1.810688
  H     -3.045501   -2.250298   -1.694043

 Total Charge           Charge          ....    0
 Multiplicity           Mult            ....    1
 Number of Electrons    NEL             ....  202
 Basis Dimension        Dim             ....  539

ORBITAL ENERGIES
----------------

  NO   OCC          E(Eh)            E(eV)
   0   2.0000     -88.580080     -2410.3865
   1   2.0000     -88.571938     -2410.1650
   2   2.0000     -88.520148     -2408.7557
   3   2.0000     -88.516137     -2408.6465
   4   2.0000     -76.916825     -2093.0132
   5   2.0000     -76.908438     -2092.7850
   6   2.0000     -18.998624      -516.9788
   7   2.0000     -18.993496      -516.8393
   8   2.0000     -18.982376      -516.5367
   9   2.0000     -18.981543      -516.5140
  10   2.0000     -10.105313      -274.9795
  11   2.0000     -10.103840      -274.9395
  12   2.0000     -10.103811      -274.9387
  13   2.0000     -10.092835      -274.6400
  14   2.0000     -10.084686      -274.4183
  15   2.0000     -10.033828      -273.0343
  16   2.0000     -10.032676      -273.0030
  17   2.0000     -10.026860      -272.8447
  18   2.0000     -10.011068      -272.4150
  19   2.0000      -7.874505      -214.2762
  20   2.0000      -7.866163      -214.0492
  21   2.0000      -7.814807      -212.6517
  22   2.0000      -7.810841      -212.5438
  23   2.0000      -6.595199      -179.4645
  24   2.0000      -6.586686      -179.2328
  25   2.0000      -5.821421      -158.4089
  26   2.0000      -5.818152      -158.3200
  27   2.0000      -5.812981      -158.1792
  28   2.0000      -5.811760      -158.1460
  29   2.0000      -5.810052      -158.0996
  30   2.0000      -5.803327      -157.9166
  31   2.0000      -5.762577      -156.8077
  32   2.0000      -5.758468      -156.6959
  33   2.0000      -5.754923      -156.5994
  34   2.0000      -5.754866      -156.5979
  35   2.0000      -5.751128      -156.4961
  36   2.0000      -5.750878      -156.4894
  37   2.0000      -4.741057      -129.0107
  38   2.0000      -4.740153      -128.9861
  39   2.0000      -4.738576      -128.9432
  40   2.0000      -4.731970      -128.7634
  41   2.0000      -4.731788      -128.7585
  42   2.0000      -4.730496      -128.7233
  43   2.0000      -1.055010       -28.7083
  44   2.0000      -1.044779       -28.4299
  45   2.0000      -1.014695       -27.6113
  46   2.0000      -1.001226       -27.2448
  47   2.0000      -0.799355       -21.7516
  48   2.0000      -0.758385       -20.6367
  49   2.0000      -0.747677       -20.3453
  50   2.0000      -0.738379       -20.0923
  51   2.0000      -0.719982       -19.5917
  52   2.0000      -0.710611       -19.3367
  53   2.0000      -0.687263       -18.7014
  54   2.0000      -0.664407       -18.0794
  55   2.0000      -0.630419       -17.1546
  56   2.0000      -0.623141       -16.9565
  57   2.0000      -0.611579       -16.6419
  58   2.0000      -0.594194       -16.1689
  59   2.0000      -0.591681       -16.1005
  60   2.0000      -0.529374       -14.4050
  61   2.0000      -0.514178       -13.9915
  62   2.0000      -0.498032       -13.5521
  63   2.0000      -0.481234       -13.0950
  64   2.0000      -0.472134       -12.8474
  65   2.0000      -0.463833       -12.6215
  66   2.0000      -0.459334       -12.4991
  67   2.0000      -0.449415       -12.2292
  68   2.0000      -0.446421       -12.1477
  69   2.0000      -0.432643       -11.7728
  70   2.0000      -0.429234       -11.6801
  71   2.0000      -0.413797       -11.2600
  72   2.0000      -0.411838       -11.2067
  73   2.0000      -0.402928       -10.9642
  74   2.0000      -0.397324       -10.8117
  75   2.0000      -0.386448       -10.5158
  76   2.0000      -0.381179       -10.3724
  77   2.0000      -0.374544       -10.1919
  78   2.0000      -0.371963       -10.1216
  79   2.0000      -0.365699        -9.9512
  80   2.0000      -0.361840        -9.8462
  81   2.0000      -0.357934        -9.7399
  82   2.0000      -0.353229        -9.6118
  83   2.0000      -0.348089        -9.4720
  84   2.0000      -0.337200        -9.1757
  85   2.0000      -0.332294        -9.0422
  86   2.0000      -0.321845        -8.7579
  87   2.0000      -0.313975        -8.5437
  88   2.0000      -0.311252        -8.4696
  89   2.0000      -0.304805        -8.2942
  90   2.0000      -0.296235        -8.0610
  91   2.0000      -0.288604        -7.8533
  92   2.0000      -0.281765        -7.6672
  93   2.0000      -0.276936        -7.5358
  94   2.0000      -0.269226        -7.3260
  95   2.0000      -0.248429        -6.7601
  96   2.0000      -0.233287        -6.3481
  97   2.0000      -0.224693        -6.1142
  98   2.0000      -0.218766        -5.9529
  99   2.0000      -0.209903        -5.7118
 100   2.0000      -0.203147        -5.5279
 101   0.0000      -0.043511        -1.1840
 102   0.0000      -0.034596        -0.9414
 103   0.0000      -0.012613        -0.3432
 104   0.0000       0.009837         0.2677
 105   0.0000       0.014252         0.3878

MULLIKEN ATOMIC CHARGES
-----------------------
   0 C :   -0.454473
   1 C :   -0.161019
   2 O :   -0.298464
   3 P :    0.642181
   4 S :   -0.407850
   5 O :   -0.273888
   6 C :   -0.108381
   7 C :   -0.461538
   8 S :   -0.157399
   9 C :   -0.234334
  10 S :   -0.148194
  11 P :    0.682458
  12 S :   -0.451274
  13 O :   -0.299916
  14 C :   -0.154829
  15 C :   -0.426422
  16 O :   -0.292821
  17 C :   -0.148993
  18 C :   -0.446141
  19 H :    0.153746
  20 H :    0.183398
  21 H :    0.149835
  22 H :    0.176338
  23 H :    0.147918
  24 H :    0.161295
  25 H :    0.162942
  26 H :    0.156213
  27 H :    0.147130
  28 H :    0.165149
  29 H :    0.188941
  30 H :    0.228922
  31 H :    0.143614
  32 H :    0.176705
  33 H :    0.146466
  34 H :    0.144920
  35 H :    0.174667
  36 H :    0.148955
  37 H :    0.174916
  38 H :    0.162006
  39 H :    0.147174
  40 H :    0.160049
Sum of atomic charges:    0.0000000

LOEWDIN ATOMIC CHARGES
----------------------
   0 C :   -0.408296
   1 C :    0.022393
   2 O :   -0.671305
   3 P :    0.376930
   4 S :   -0.077641
   5 O :   -0.679103
   6 C :    0.016459
   7 C :   -0.392817
   8 S :    0.130334
   9 C :   -0.421735
  10 S :    0.149841
  11 P :    0.383812
  12 S :   -0.119436
  13 O :   -0.647091
  14 C :    0.021333
  15 C :   -0.406478
  16 O :   -0.655527
  17 C :    0.020622
  18 C :   -0.405628
  19 H :    0.159615
  20 H :    0.167323
  21 H :    0.160459
  22 H :    0.181444
  23 H :    0.179461
  24 H :    0.182033
  25 H :    0.176920
  26 H :    0.161209
  27 H :    0.158951
  28 H :    0.165736
  29 H :    0.176514
  30 H :    0.201531
  31 H :    0.176376
  32 H :    0.190406
  33 H :    0.157154
  34 H :    0.159894
  35 H :    0.168763
  36 H :    0.179926
  37 H :    0.179634
  38 H :    0.162075
  39 H :    0.158324
  40 H :    0.159581

  Mayer bond orders larger than 0.100000
B(  0-C ,  1-C ) :   0.9138 B(  0-C , 19-H ) :   0.9675 B(  0-C , 20-H ) :   0.9623
B(  0-C , 21-H ) :   0.9562 B(  1-C ,  2-O ) :   0.8206 B(  1-C , 22-H ) :   0.9680
B(  1-C , 23-H ) :   0.9610 B(  2-O ,  3-P ) :   1.0470 B(  3-P ,  4-S ) :   1.8562
B(  3-P ,  5-O ) :   1.1111 B(  3-P ,  8-S ) :   1.0156 B(  5-O ,  6-C ) :   0.7413
B(  6-C ,  7-C ) :   0.9385 B(  6-C , 24-H ) :   0.9599 B(  6-C , 25-H ) :   0.9645
B(  7-C , 26-H ) :   0.9722 B(  7-C , 27-H ) :   0.9655 B(  7-C , 28-H ) :   0.9680
B(  8-S ,  9-C ) :   0.9239 B(  9-C , 10-S ) :   0.8894 B(  9-C , 29-H ) :   0.9136
B(  9-C , 30-H ) :   0.8997 B( 10-S , 11-P ) :   1.0730 B( 11-P , 12-S ) :   1.7380
B( 11-P , 13-O ) :   1.1512 B( 11-P , 16-O ) :   1.1206 B( 13-O , 14-C ) :   0.7910
B( 14-C , 15-C ) :   0.9453 B( 14-C , 31-H ) :   0.9676 B( 14-C , 32-H ) :   0.9476
B( 15-C , 33-H ) :   0.9728 B( 15-C , 34-H ) :   0.9654 B( 15-C , 35-H ) :   0.9542
B( 16-O , 17-C ) :   0.8228 B( 17-C , 18-C ) :   0.9097 B( 17-C , 36-H ) :   0.9591
B( 17-C , 37-H ) :   0.9709 B( 18-C , 38-H ) :   0.9675 B( 18-C , 39-H ) :   0.9615
B( 18-C , 40-H ) :   0.9680

Dispersion correction           -0.022035788
FINAL SINGLE POINT ENERGY     -2932.459880013917

DIPOLE MOMENT
-------------

Method             : SCF
Type of density    : Electron Density
Multiplicity       :   1
Irrep              :   0
Energy             : -2932.4844943358025375 Eh
Relativity type    :
Basis              : AO
                                X                 Y                 Z
Electronic contribution:     -7.065613187       0.588166433      -3.448040427
Nuclear contribution   :      8.200768842      -1.726558817       4.072024689
                        -----------------------------------------
Total Dipole Moment    :      1.135155654      -1.138392384       0.623984262
                        -----------------------------------------
Magnitude (a.u.)       :      1.724491791
Magnitude (Debye)      :      4.383309786

Rotational constants in cm-1:             0.012313             0.005087             0.004889
Rotational constants in MHz :           369.125526           152.493030           146.568590

                             ****ORCA TERMINATED NORMALLY****
TOTAL RUN TIME: 0 days 0 hours 1 minutes 20 seconds 214 msec
