                         Program Version 6.0.0  -   RELEASE  -
|  1> ! r2scan-3c def2/J RI DEFGRID2 scfconv6 printgap
|  2> %output
|  3>     printlevel normal
|  4> end
|  5> %cpcm
|  6>     smd true
|  7>     smdsolvent "water"
|  8> end
|  9> * xyz 0 1
| 10> C 4.3628981407 -0.1682534063 -2.229589564
| 11> C 4.4634697285 0.7360129272 -1.0184621926
| 12> O 3.6680411985 0.2668520406 0.0850322501
| 13> P 2.0804497695 0.2144602583 0.0391525806
| 14> S 1.1992010935 1.7438760049 -0.8026001507
| 15> O 1.6934923361 0.0949461158 1.5653753801
| 16> C 2.212595677 -0.9276800357 2.4525476489
| 17> C 3.3893761458 -0.4009049446 3.2470480589
| 18> S 1.6725791357 -1.7033800277 -0.7952401115
| 19> C -0.0991155732 -1.4937700835 -1.044882319
| 20> S -1.0010476162 -1.3529152228 0.5414454455
| 21> P -2.459159453 0.1153349105 0.0494390627
| 22> S -2.3149928909 0.9161846288 -1.7393435472
| 23> O -2.5010253587 1.0480383109 1.327798427
| 24> C -1.4447866454 1.9168051732 1.7659835867
| 25> C -1.5211492914 3.2671590407 1.0812197379
| 26> O -3.8560228123 -0.5639319864 0.3526120117
| 27> C -4.6228590555 -1.2222622536 -0.6689454218
| 28> C -3.9553229174 -2.4965152468 -1.1474461183
| 29> H 4.5612936525 -1.1999596877 -1.9502866944
| 30> H 3.3649273692 -0.1064076276 -2.6608884049
| 31> H 5.0856933992 0.1500880006 -2.9740320221
| 32> H 4.1408255207 1.7515446068 -1.2678855793
| 33> H 5.4772973095 0.7577559809 -0.6160780888
| 34> H 1.3695973779 -1.1790805867 3.0991815897
| 35> H 2.4928952046 -1.8022825247 1.8593246629
| 36> H 3.1022751779 0.4956365078 3.7896214894
| 37> H 3.7070493929 -1.161422447 3.9534252033
| 38> H 4.2149229439 -0.160311287 2.5827975141
| 39> H -0.4326561489 -2.3873371837 -1.566677836
| 40> H -0.294231401 -0.5917350631 -1.6332693001
| 41> H -1.6057422539 2.0086927071 2.8420226318
| 42> H -0.473769193 1.4444128574 1.5847562406
| 43> H -2.5104693076 3.6969933571 1.2117383548
| 44> H -0.7757645208 3.9288306464 1.5108415587
| 45> H -1.3181459214 3.1639075515 0.016443503
| 46> H -5.5801129002 -1.4241802416 -0.1866094385
| 47> H -4.765001388 -0.5267115049 -1.5023827728
| 48> H -3.7033849487 -3.1310467691 -0.3013987037
| 49> H -4.6294470796 -3.0289193307 -1.8106881324
| 50> H -3.0455008902 -2.2502977966 -1.6940426621
| 51> *
| 52>
| 53>                          ****END OF INPUT****

CARTESIAN COORDINATES (ANGSTROEM)
---------------------------------
  C      4.362898   -0.168253   -2.229590
  C      4.463470    0.736013   -1.018462
  O      3.668041    0.266852    0.085032
  P      2.080450    0.214460    0.039153
  S      1.199201    1.743876   -0.802600
  O      1.693492    0.094946    1.565375
  C      2.212596   -0.927680    2.452548
  C      3.389376   -0.400905    3.247048
  S      1.672579   -1.703380   -0.795240
  C     -0.099116   -1.493770   -1.044882
  S     -1.001048   -1.352915    0.541445
  P     -2.459159    0.115335    0.049439
  S     -2.314993    0.916185   -1.739344
  O     -2.501025    1.048038    1.327798
  C     -1.444787    1.916805    1.765984
  C     -1.521149    3.267159    1.081220
  O     -3.856023   -0.563932    0.352612
  C     -4.622859   -1.222262   -0.668945
  C     -3.955323   -2.496515   -1.147446
  H      4.561294   -1.199960   -1.950287
  H      3.364927   -0.106408   -2.660888
  H      5.085693    0.150088   -2.974032
  H      4.140826    1.751545   -1.267886
  H      5.477297    0.757756   -0.616078
  H      1.369597   -1.179081    3.099182
  H      2.492895   -1.802283    1.859325
  H      3.102275    0.495637    3.789621
  H      3.707049   -1.161422    3.953425
  H      4.214923   -0.160311    2.582798
  H     -0.432656   -2.387337   -1.566678
  H     -0.294231   -0.591735   -1.633269
  H     -1.605742    2.008693    2.842023
  H     -0.473769    1.444413    1.584756
  H     -2.510469    3.696993    1.211738
  H     -0.775765    3.928831    1.510842
  H     -1.318146    3.163908    0.016444
  H     -5.580113   -1.424180   -0.186609
  H     -4.765001   -0.526712   -1.502383
  H     -3.703385   -3.131047   -0.301399
  H     -4.629447   -3.028919   -1.810688
  H     -3.045501   -2.250298   -1.694043

 Total Charge           Charge          ....    0
 Multiplicity           Mult            ....    1
 Number of Electrons    NEL             ....  202
 Basis Dimension        Dim             ....  539

ORBITAL ENERGIES
----------------

  NO   OCC          E(Eh)            E(eV)
   0   2.0000     -88.579986     -2410.3840
   1   2.0000     -88.576483     -2410.2886
   2   2.0000     -88.527638     -2408.9595
   3   2.0000     -88.526350     -2408.9245
   4   2.0000     -76.918818     -2093.0675
   5   2.0000     -76.918310     -2093.0536
   6   2.0000     -18.995926      -516.9054
   7   2.0000     -18.993815      -516.8480
   8   2.0000     -18.992732      -516.8185
   9   2.0000     -18.990480      -516.7572
  10   2.0000     -10.103013      -274.9170
  11   2.0000     -10.091060      -274.5917
  12   2.0000     -10.090715      -274.5823
  13   2.0000     -10.088333      -274.5175
  14   2.0000     -10.087327      -274.4901
  15   2.0000     -10.019039      -272.6319
  16   2.0000     -10.018230      -272.6099
  17   2.0000     -10.018016      -272.6041
  18   2.0000     -10.014521      -272.5090
  19   2.0000      -7.874335      -214.2716
  20   2.0000      -7.870652      -214.1713
  21   2.0000      -7.822628      -212.8645
  22   2.0000      -7.821370      -212.8303
  23   2.0000      -6.597233      -179.5198
  24   2.0000      -6.596674      -179.5046
  25   2.0000      -5.821275      -158.4049
  26   2.0000      -5.818012      -158.3162
  27   2.0000      -5.817487      -158.3019
  28   2.0000      -5.814561      -158.2222
  29   2.0000      -5.811552      -158.1404
  30   2.0000      -5.807798      -158.0382
  31   2.0000      -5.770188      -157.0148
  32   2.0000      -5.769027      -156.9832
  33   2.0000      -5.762953      -156.8179
  34   2.0000      -5.762640      -156.8094
  35   2.0000      -5.761538      -156.7794
  36   2.0000      -5.761422      -156.7762
  37   2.0000      -4.743031      -129.0644
  38   2.0000      -4.742165      -129.0409
  39   2.0000      -4.741986      -129.0360
  40   2.0000      -4.741738      -129.0292
  41   2.0000      -4.740736      -129.0020
  42   2.0000      -4.740498      -128.9955
  43   2.0000      -1.054901       -28.7053
  44   2.0000      -1.052931       -28.6517
  45   2.0000      -1.012138       -27.5417
  46   2.0000      -1.010506       -27.4973
  47   2.0000      -0.799465       -21.7545
  48   2.0000      -0.755088       -20.5470
  49   2.0000      -0.745408       -20.2836
  50   2.0000      -0.726097       -19.7581
  51   2.0000      -0.718105       -19.5406
  52   2.0000      -0.712384       -19.3850
  53   2.0000      -0.690149       -18.7799
  54   2.0000      -0.670870       -18.2553
  55   2.0000      -0.629815       -17.1381
  56   2.0000      -0.621610       -16.9149
  57   2.0000      -0.602405       -16.3923
  58   2.0000      -0.594545       -16.1784
  59   2.0000      -0.590158       -16.0590
  60   2.0000      -0.524506       -14.2725
  61   2.0000      -0.514878       -14.0105
  62   2.0000      -0.490522       -13.3478
  63   2.0000      -0.485334       -13.2066
  64   2.0000      -0.467286       -12.7155
  65   2.0000      -0.466074       -12.6825
  66   2.0000      -0.457628       -12.4527
  67   2.0000      -0.448543       -12.2055
  68   2.0000      -0.438139       -11.9224
  69   2.0000      -0.431763       -11.7489
  70   2.0000      -0.425259       -11.5719
  71   2.0000      -0.418759       -11.3950
  72   2.0000      -0.406079       -11.0500
  73   2.0000      -0.401041       -10.9129
  74   2.0000      -0.391946       -10.6654
  75   2.0000      -0.386211       -10.5093
  76   2.0000      -0.379907       -10.3378
  77   2.0000      -0.369633       -10.0582
  78   2.0000      -0.363123        -9.8811
  79   2.0000      -0.360140        -9.7999
  80   2.0000      -0.354134        -9.6365
  81   2.0000      -0.352810        -9.6005
  82   2.0000      -0.350304        -9.5323
  83   2.0000      -0.344997        -9.3878
  84   2.0000      -0.341455        -9.2915
  85   2.0000      -0.326671        -8.8892
  86   2.0000      -0.324448        -8.8287
  87   2.0000      -0.307269        -8.3612
  88   2.0000      -0.306067        -8.3285
  89   2.0000      -0.303513        -8.2590
  90   2.0000      -0.298582        -8.1248
  91   2.0000      -0.286722        -7.8021
  92   2.0000      -0.283501        -7.7145
  93   2.0000      -0.278229        -7.5710
  94   2.0000      -0.275989        -7.5100
  95   2.0000      -0.250009        -6.8031
  96   2.0000      -0.241395        -6.5687
  97   2.0000      -0.232919        -6.3380
  98   2.0000      -0.225727        -6.1423
  99   2.0000      -0.218031        -5.9329
 100   2.0000      -0.212849        -5.7919
 101   0.0000      -0.046299        -1.2598
 102   0.0000      -0.040633        -1.1057
 103   0.0000      -0.014654        -0.3988
 104   0.0000       0.001806         0.0491
 105   0.0000       0.012269         0.3338

MULLIKEN ATOMIC CHARGES
-----------------------
   0 C :   -0.490334
   1 C :   -0.156772
   2 O :   -0.316289
   3 P :    0.663689
   4 S :   -0.464706
   5 O :   -0.300898
   6 C :   -0.093080
   7 C :   -0.505578
   8 S :   -0.154660
   9 C :   -0.230704
  10 S :   -0.150662
  11 P :    0.702710
  12 S :   -0.495778
  13 O :   -0.330304
  14 C :   -0.135835
  15 C :   -0.482870
  16 O :   -0.329170
  17 C :   -0.148560
  18 C :   -0.476949
  19 H :    0.169687
  20 H :    0.175968
  21 H :    0.173531
  22 H :    0.179598
  23 H :    0.175875
  24 H :    0.179515
  25 H :    0.174810
  26 H :    0.167223
  27 H :    0.170693
  28 H :    0.169371
  29 H :    0.233302
  30 H :    0.219940
  31 H :    0.173707
  32 H :    0.170510
  33 H :    0.162623
  34 H :    0.169439
  35 H :    0.169388
  36 H :    0.174010
  37 H :    0.177251
  38 H :    0.169399
  39 H :    0.171861
  40 H :    0.169049
Sum of atomic charges:    0.0000000

LOEWDIN ATOMIC CHARGES
----------------------
   0 C :   -0.411238
   1 C :    0.027319
   2 O :   -0.676036
   3 P :    0.381082
   4 S :   -0.118928
   5 O :   -0.693776
   6 C :    0.023244
   7 C :   -0.396029
   8 S :    0.140139
   9 C :   -0.414170
  10 S :    0.154565
  11 P :    0.385115
  12 S :   -0.150854
  13 O :   -0.666278
  14 C :    0.024745
  15 C :   -0.413621
  16 O :   -0.676068
  17 C :    0.024328
  18 C :   -0.406650
  19 H :    0.163907
  20 H :    0.162025
  21 H :    0.168915
  22 H :    0.181744
  23 H :    0.191316
  24 H :    0.189633
  25 H :    0.182218
  26 H :    0.163427
  27 H :    0.168459
  28 H :    0.165246
  29 H :    0.193534
  30 H :    0.198681
  31 H :    0.188556
  32 H :    0.189029
  33 H :    0.161130
  34 H :    0.167797
  35 H :    0.163298
  36 H :    0.190321
  37 H :    0.180695
  38 H :    0.164295
  39 H :    0.167667
  40 H :    0.161214

  Mayer bond orders larger than 0.100000
B(  0-C ,  1-C ) :   0.9013 B(  0-C , 19-H ) :   0.9644 B(  0-C , 20-H ) :   0.9648
B(  0-C , 21-H ) :   0.9512 B(  1-C ,  2-O ) :   0.8098 B(  1-C , 22-H ) :   0.9674
B(  1-C , 23-H ) :   0.9507 B(  2-O ,  3-P ) :   1.0577 B(  3-P ,  4-S ) :   1.8240
B(  3-P ,  5-O ) :   1.1197 B(  3-P ,  8-S ) :   1.0269 B(  5-O ,  6-C ) :   0.7311
B(  6-C ,  7-C ) :   0.9301 B(  6-C , 24-H ) :   0.9509 B(  6-C , 25-H ) :   0.9562
B(  7-C , 26-H ) :   0.9708 B(  7-C , 27-H ) :   0.9592 B(  7-C , 28-H ) :   0.9676
B(  8-S ,  9-C ) :   0.9188 B(  9-C , 10-S ) :   0.8822 B(  9-C , 29-H ) :   0.8982
B(  9-C , 30-H ) :   0.9044 B( 10-S , 11-P ) :   1.0979 B( 11-P , 12-S ) :   1.7142
B( 11-P , 13-O ) :   1.1427 B( 11-P , 16-O ) :   1.1208 B( 13-O , 14-C ) :   0.7852
B( 14-C , 15-C ) :   0.9249 B( 14-C , 31-H ) :   0.9583 B( 14-C , 32-H ) :   0.9459
B( 15-C , 33-H ) :   0.9710 B( 15-C , 34-H ) :   0.9617 B( 15-C , 35-H ) :   0.9590
B( 16-O , 17-C ) :   0.8107 B( 17-C , 18-C ) :   0.9027 B( 17-C , 36-H ) :   0.9491
B( 17-C , 37-H ) :   0.9662 B( 18-C , 38-H ) :   0.9659 B( 18-C , 39-H ) :   0.9559
B( 18-C , 40-H ) :   0.9643

Dispersion correction           -0.022035788
FINAL SINGLE POINT ENERGY     -2932.468006892803

DIPOLE MOMENT
-------------

Method             : SCF
Type of density    : Electron Density
Multiplicity       :   1
Irrep              :   0
Energy             : -2932.4926212146883699 Eh
Relativity type    :
Basis              : AO
                                X                 Y                 Z
Electronic contribution:     -6.647855571      -0.133428545      -3.273076867
Nuclear contribution   :      8.200768842      -1.726558817       4.072024689
                        -----------------------------------------
Total Dipole Moment    :      1.552913270      -1.859987362       0.798947822
                        -----------------------------------------
Magnitude (a.u.)       :      2.551354588
Magnitude (Debye)      :      6.485027990

Rotational constants in cm-1:             0.012313             0.005087             0.004889
Rotational constants in MHz :           369.125526           152.493030           146.568590

                             ****ORCA TERMINATED NORMALLY****
TOTAL RUN TIME: 0 days 0 hours 1 minutes 47 seconds 902 msec
