                         Program Version 6.0.0  -   RELEASE  -
|  1> ! r2scan-3c def2/J RI DEFGRID2 scfconv6 printgap
|  2> %output
|  3>     printlevel normal
|  4> end
|  5> %cpcm
|  6>     smd true
|  7>     smdsolvent "water"
|  8> end
|  9> * xyz 0 1
| 10> C -0.5835847386 -0.0092752673 -0.4918585545
| 11> C 0.5835864671 0.0092076674 0.4918674588
| 12> O 1.7838339381 -0.0187385989 -0.2480367182
| 13> O -1.7838335521 0.0187988881 0.2480298301
| 14> H -0.513921246 -0.9173957536 -1.1036777931
| 15> H -0.5023643481 0.8637007424 -1.1516709084
| 16> H 0.5024179752 -0.8638230329 1.1516100895
| 17> H 0.5138295527 0.9172707318 1.1037640063
| 18> H 2.5338452048 -0.0046408955 0.3623761351
| 19> H -2.5338338632 0.0047367451 -0.362398297
| 20> *
| 21>
| 22>                          ****END OF INPUT****

CARTESIAN COORDINATES (ANGSTROEM)
---------------------------------
  C     -0.583585   -0.009275   -0.491859
  C      0.583586    0.009208    0.491867
  O      1.783834   -0.018739   -0.248037
  O     -1.783834    0.018799    0.248030
  H     -0.513921   -0.917396   -1.103678
  H     -0.502364    0.863701   -1.151671
  H      0.502418   -0.863823    1.151610
  H      0.513830    0.917271    1.103764
  H      2.533845   -0.004641    0.362376
  H     -2.533834    0.004737   -0.362398

 Total Charge           Charge          ....    0
 Multiplicity           Mult            ....    1
 Number of Electrons    NEL             ....   34
 Basis Dimension        Dim             ....  116

ORBITAL ENERGIES
----------------

  NO   OCC          E(Eh)            E(eV)
   0   2.0000     -18.955353      -515.8014
   1   2.0000     -18.955351      -515.8013
   2   2.0000     -10.072208      -274.0787
   3   2.0000     -10.072078      -274.0752
   4   2.0000      -0.995657       -27.0932
   5   2.0000      -0.985417       -26.8146
   6   2.0000      -0.701655       -19.0930
   7   2.0000      -0.571213       -15.5435
   8   2.0000      -0.505140       -13.7456
   9   2.0000      -0.450093       -12.2476
  10   2.0000      -0.446744       -12.1565
  11   2.0000      -0.390775       -10.6335
  12   2.0000      -0.364450        -9.9172
  13   2.0000      -0.332847        -9.0572
  14   2.0000      -0.291733        -7.9385
  15   2.0000      -0.245195        -6.6721
  16   2.0000      -0.242832        -6.6078
  17   0.0000       0.051471         1.4006
  18   0.0000       0.098750         2.6871
  19   0.0000       0.142918         3.8890
  20   0.0000       0.145908         3.9704
  21   0.0000       0.161967         4.4073

MULLIKEN ATOMIC CHARGES
-----------------------
   0 C :   -0.124077
   1 C :   -0.124076
   2 O :   -0.512694
   3 O :   -0.512696
   4 H :    0.142299
   5 H :    0.142299
   6 H :    0.142301
   7 H :    0.142297
   8 H :    0.352173
   9 H :    0.352174
Sum of atomic charges:    0.0000000

LOEWDIN ATOMIC CHARGES
----------------------
   0 C :    0.031109
   1 C :    0.031109
   2 O :   -0.651058
   3 O :   -0.651063
   4 H :    0.165539
   5 H :    0.165521
   6 H :    0.165520
   7 H :    0.165539
   8 H :    0.288891
   9 H :    0.288892

  Mayer bond orders larger than 0.100000
B(  0-C ,  1-C ) :   0.9578 B(  0-C ,  3-O ) :   0.9191 B(  0-C ,  4-H ) :   0.9564
B(  0-C ,  5-H ) :   0.9564 B(  1-C ,  2-O ) :   0.9191 B(  1-C ,  6-H ) :   0.9564
B(  1-C ,  7-H ) :   0.9564 B(  2-O ,  8-H ) :   0.8697 B(  3-O ,  9-H ) :   0.8697

Dispersion correction           -0.001520788
FINAL SINGLE POINT ENERGY      -230.221162686614

DIPOLE MOMENT
-------------

Method             : SCF
Type of density    : Electron Density
Multiplicity       :   1
Irrep              :   0
Energy             :  -230.2269002785406542 Eh
Relativity type    :
Basis              : AO
                                X                 Y                 Z
Electronic contribution:      0.000031781       0.000107261      -0.000002803
Nuclear contribution   :     -0.000025067      -0.000141203       0.000002930
                        -----------------------------------------
Total Dipole Moment    :      0.000006714      -0.000033941       0.000000128
                        -----------------------------------------
Magnitude (a.u.)       :      0.000034599
Magnitude (Debye)      :      0.000087945

Rotational constants in cm-1:             1.034521             0.132446             0.122893
Rotational constants in MHz :         31014.169232          3970.642847          3684.226262

                             ****ORCA TERMINATED NORMALLY****
TOTAL RUN TIME: 0 days 0 hours 0 minutes 11 seconds 181 msec
