                         Program Version 6.0.0  -   RELEASE  -
|  1> ! pbe def2-sv(p) def2/J RI DEFGRID1 loosescf d4 GCP(DFT/SV(P)) printgap
|  2> %output
|  3>     printlevel normal
|  4> end
|  5> * xyz 0 1
|  6> C -1.2333144868 0.9642792965 -1.2561162355
|  7> C -1.0116348204 0.1121405312 -0.000645712
|  8> C -1.9538034372 -1.0907660247 -0.000484545
|  9> C -1.2303287464 0.9619130337 1.2568440527
| 10> C 0.4294033955 -0.3782243865 -0.0022454781
| 11> O 0.7668782327 -1.5439750382 0.0022996889
| 12> O 1.2924828927 0.6302928211 -0.001418525
| 13> C 2.6921582593 0.3387919532 0.0010009526
| 14> H -0.5551977403 1.8131522256 -1.2627027835
| 15> H -1.062869625 0.3721097796 -2.1525305226
| 16> H -2.2566036396 1.3291883087 -1.2706511753
| 17> H -2.9860410522 -0.7536620592 0.0017865126
| 18> H -1.7797066445 -1.7081734145 0.8773462006
| 19> H -1.7829756039 -1.7060726428 -0.8804964414
| 20> H -1.0504534352 0.3701640744 2.1516882597
| 21> H -0.5572679452 1.8147501917 1.2598465245
| 22> H -2.2556433669 1.3207217208 1.2784622411
| 23> H 3.1581576384 1.046799653 0.6816159473
| 24> H 3.0792365311 0.4703878251 -1.0090183568
| 25> H 2.8574592969 -0.6876859885 0.3302926522
| 26> *
| 27>
| 28>                          ****END OF INPUT****

CARTESIAN COORDINATES (ANGSTROEM)
---------------------------------
  C     -1.233314    0.964279   -1.256116
  C     -1.011635    0.112141   -0.000646
  C     -1.953803   -1.090766   -0.000485
  C     -1.230329    0.961913    1.256844
  C      0.429403   -0.378224   -0.002245
  O      0.766878   -1.543975    0.002300
  O      1.292483    0.630293   -0.001419
  C      2.692158    0.338792    0.001001
  H     -0.555198    1.813152   -1.262703
  H     -1.062870    0.372110   -2.152531
  H     -2.256604    1.329188   -1.270651
  H     -2.986041   -0.753662    0.001787
  H     -1.779707   -1.708173    0.877346
  H     -1.782976   -1.706073   -0.880496
  H     -1.050453    0.370164    2.151688
  H     -0.557268    1.814750    1.259847
  H     -2.255643    1.320722    1.278462
  H      3.158158    1.046800    0.681616
  H      3.079237    0.470388   -1.009018
  H      2.857459   -0.687686    0.330293

 Total Charge           Charge          ....    0
 Multiplicity           Mult            ....    1
 Number of Electrons    NEL             ....   64
 Basis Dimension        Dim             ....  136

ORBITAL ENERGIES
----------------

  NO   OCC          E(Eh)            E(eV)
   0   2.0000     -18.800827      -511.5965
   1   2.0000     -18.733172      -509.7555
   2   2.0000     -10.003499      -272.2090
   3   2.0000      -9.941565      -270.5237
   4   2.0000      -9.915903      -269.8254
   5   2.0000      -9.881076      -268.8777
   6   2.0000      -9.881019      -268.8762
   7   2.0000      -9.872569      -268.6463
   8   2.0000      -1.006536       -27.3892
   9   2.0000      -0.909785       -24.7565
  10   2.0000      -0.747353       -20.3365
  11   2.0000      -0.664830       -18.0909
  12   2.0000      -0.619990       -16.8708
  13   2.0000      -0.612433       -16.6652
  14   2.0000      -0.545042       -14.8313
  15   2.0000      -0.493879       -13.4391
  16   2.0000      -0.441208       -12.0059
  17   2.0000      -0.436378       -11.8744
  18   2.0000      -0.416288       -11.3278
  19   2.0000      -0.396671       -10.7940
  20   2.0000      -0.387505       -10.5445
  21   2.0000      -0.381065       -10.3693
  22   2.0000      -0.360009        -9.7963
  23   2.0000      -0.346201        -9.4206
  24   2.0000      -0.333446        -9.0735
  25   2.0000      -0.323234        -8.7956
  26   2.0000      -0.321926        -8.7600
  27   2.0000      -0.299873        -8.1600
  28   2.0000      -0.292365        -7.9557
  29   2.0000      -0.286253        -7.7893
  30   2.0000      -0.256733        -6.9861
  31   2.0000      -0.216426        -5.8892
  32   0.0000      -0.017925        -0.4878
  33   0.0000       0.033245         0.9046
  34   0.0000       0.060109         1.6357
  35   0.0000       0.075578         2.0566
  36   0.0000       0.086371         2.3503

MULLIKEN ATOMIC CHARGES
-----------------------
   0 C :   -0.218624
   1 C :   -0.284110
   2 C :   -0.190206
   3 C :   -0.218627
   4 C :    0.175513
   5 O :   -0.189977
   6 O :   -0.247588
   7 C :   -0.124470
   8 H :    0.110344
   9 H :    0.101766
  10 H :    0.100417
  11 H :    0.091431
  12 H :    0.103973
  13 H :    0.103837
  14 H :    0.101930
  15 H :    0.110190
  16 H :    0.100308
  17 H :    0.121135
  18 H :    0.120410
  19 H :    0.132350
Sum of atomic charges:    0.0000000

LOEWDIN ATOMIC CHARGES
----------------------
   0 C :   -0.312206
   1 C :   -0.126751
   2 C :   -0.313016
   3 C :   -0.311985
   4 C :    0.052777
   5 O :   -0.162907
   6 O :   -0.068469
   7 C :   -0.206919
   8 H :    0.121095
   9 H :    0.120783
  10 H :    0.119945
  11 H :    0.116617
  12 H :    0.122970
  13 H :    0.122881
  14 H :    0.120880
  15 H :    0.121064
  16 H :    0.119803
  17 H :    0.120128
  18 H :    0.119363
  19 H :    0.123946

  Mayer bond orders larger than 0.100000
B(  0-C ,  1-C ) :   1.0634 B(  0-C ,  8-H ) :   0.9436 B(  0-C ,  9-H ) :   0.9494
B(  0-C , 10-H ) :   0.9474 B(  1-C ,  2-C ) :   1.0950 B(  1-C ,  3-C ) :   1.0610
B(  1-C ,  4-C ) :   0.8946 B(  2-C , 11-H ) :   0.9451 B(  2-C , 12-H ) :   0.9439
B(  2-C , 13-H ) :   0.9440 B(  3-C , 14-H ) :   0.9494 B(  3-C , 15-H ) :   0.9440
B(  3-C , 16-H ) :   0.9472 B(  4-C ,  5-O ) :   2.0949 B(  4-C ,  6-O ) :   1.2077
B(  6-O ,  7-C ) :   0.9386 B(  7-C , 17-H ) :   0.9607 B(  7-C , 18-H ) :   0.9600
B(  7-C , 19-H ) :   0.9319

Dispersion correction           -0.016997279
FINAL SINGLE POINT ENERGY      -385.453721405389

DIPOLE MOMENT
-------------

Method             : SCF
Type of density    : Electron Density
Multiplicity       :   1
Irrep              :   0
Energy             :  -385.5275717542774032 Eh
Relativity type    :
Basis              : AO
                                X                 Y                 Z
Electronic contribution:      5.023470239      -2.729345817      -0.005746101
Nuclear contribution   :     -4.840336374       3.440481034       0.005303443
                        -----------------------------------------
Total Dipole Moment    :      0.183133865       0.711135217      -0.000442659
                        -----------------------------------------
Magnitude (a.u.)       :      0.734337460
Magnitude (Debye)      :      1.866537487

Rotational constants in cm-1:             0.105416             0.050582             0.044435
Rotational constants in MHz :          3160.293261          1516.414925          1332.132891

                             ****ORCA TERMINATED NORMALLY****
TOTAL RUN TIME: 0 days 0 hours 0 minutes 42 seconds 630 msec
