                         Program Version 6.0.0  -   RELEASE  -
|  1> ! pbe def2-sv(p) def2/J RI DEFGRID1 loosescf d4 GCP(DFT/SV(P)) printgap
|  2> %output
|  3>     printlevel normal
|  4> end
|  5> * xyz 0 1
|  6> C 4.2119919199 0.8900804839 -2.2465242035
|  7> C 4.028220133 -0.6082189618 -2.1088651209
|  8> O 3.8774553307 -1.0254961457 -0.741670425
|  9> P 2.776879372 -0.4845976887 0.2596311137
| 10> S 3.1108312081 1.2349668095 1.1537950355
| 11> O 2.8361981012 -1.7404464742 1.2201212342
| 12> C 2.3824868644 -1.6966210324 2.582989933
| 13> C 0.8693031441 -1.7221370584 2.6706974693
| 14> S 0.9578430352 -0.62489358 -0.8563584748
| 15> C 0.2354571268 0.9968770279 -0.4779713624
| 16> S -1.0749447941 0.9246679363 0.7653036447
| 17> P -2.6995337397 0.359110904 -0.508710968
| 18> S -2.256990466 -0.1348794819 -2.348328563
| 19> O -3.6997933915 1.5762439789 -0.5365807891
| 20> C -4.1912619009 2.2500338576 0.6496112392
| 21> C -3.5666707521 3.627087722 0.7592720375
| 22> O -3.5137688647 -0.6773182996 0.385348972
| 23> C -2.9603937578 -1.8294437032 1.0454237575
| 24> C -2.2532884761 -2.7677333224 0.0894884892
| 25> H 5.0332086122 1.2293168382 -1.6193134295
| 26> H 4.4257454219 1.1342708574 -3.2822126158
| 27> H 3.30603572 1.4121313519 -1.9401628276
| 28> H 4.9143135033 -1.1492766386 -2.4454854953
| 29> H 3.1547778981 -0.9460526144 -2.6747091181
| 30> H 2.8264200653 -2.5844072657 3.0359059527
| 31> H 2.7842928873 -0.7968905575 3.0612464543
| 32> H 0.4765472411 -2.5524090674 2.0889487266
| 33> H 0.5713086551 -1.8347889997 3.7080627876
| 34> H 0.4582924475 -0.7890924689 2.2869227056
| 35> H -0.1779037466 1.3853256384 -1.4065281181
| 36> H 1.014886739 1.6447857977 -0.069440713
| 37> H -5.2713545515 2.3135997133 0.5092144937
| 38> H -3.9703704141 1.6411355607 1.5288320516
| 39> H -3.7356443001 4.1846816021 -0.1578033932
| 40> H -4.0206921424 4.1579470414 1.5899024629
| 41> H -2.4959567668 3.5491029375 0.9320355556
| 42> H -2.2772200261 -1.4831950308 1.8265118712
| 43> H -3.8308372457 -2.3060216624 1.4998269779
| 44> H -1.3733253172 -2.2868274074 -0.3371702298
| 45> H -1.9463275906 -3.662303618 0.6221241476
| 46> H -2.9158463777 -3.0460866086 -0.7266232975
| 47> *
| 48>
| 49>                          ****END OF INPUT****

CARTESIAN COORDINATES (ANGSTROEM)
---------------------------------
  C      4.211992    0.890080   -2.246524
  C      4.028220   -0.608219   -2.108865
  O      3.877455   -1.025496   -0.741670
  P      2.776879   -0.484598    0.259631
  S      3.110831    1.234967    1.153795
  O      2.836198   -1.740446    1.220121
  C      2.382487   -1.696621    2.582990
  C      0.869303   -1.722137    2.670697
  S      0.957843   -0.624894   -0.856358
  C      0.235457    0.996877   -0.477971
  S     -1.074945    0.924668    0.765304
  P     -2.699534    0.359111   -0.508711
  S     -2.256990   -0.134879   -2.348329
  O     -3.699793    1.576244   -0.536581
  C     -4.191262    2.250034    0.649611
  C     -3.566671    3.627088    0.759272
  O     -3.513769   -0.677318    0.385349
  C     -2.960394   -1.829444    1.045424
  C     -2.253288   -2.767733    0.089488
  H      5.033209    1.229317   -1.619313
  H      4.425745    1.134271   -3.282213
  H      3.306036    1.412131   -1.940163
  H      4.914314   -1.149277   -2.445485
  H      3.154778   -0.946053   -2.674709
  H      2.826420   -2.584407    3.035906
  H      2.784293   -0.796891    3.061246
  H      0.476547   -2.552409    2.088949
  H      0.571309   -1.834789    3.708063
  H      0.458292   -0.789092    2.286923
  H     -0.177904    1.385326   -1.406528
  H      1.014887    1.644786   -0.069441
  H     -5.271355    2.313600    0.509214
  H     -3.970370    1.641136    1.528832
  H     -3.735644    4.184682   -0.157803
  H     -4.020692    4.157947    1.589902
  H     -2.495957    3.549103    0.932036
  H     -2.277220   -1.483195    1.826512
  H     -3.830837   -2.306022    1.499827
  H     -1.373325   -2.286827   -0.337170
  H     -1.946328   -3.662304    0.622124
  H     -2.915846   -3.046087   -0.726623

 Total Charge           Charge          ....    0
 Multiplicity           Mult            ....    1
 Number of Electrons    NEL             ....  202
 Basis Dimension        Dim             ....  334

ORBITAL ENERGIES
----------------

  NO   OCC          E(Eh)            E(eV)
   0   2.0000     -88.050578     -2395.9780
   1   2.0000     -88.048172     -2395.9126
   2   2.0000     -87.992551     -2394.3990
   3   2.0000     -87.989053     -2394.3039
   4   2.0000     -76.429860     -2079.7622
   5   2.0000     -76.428613     -2079.7283
   6   2.0000     -18.796698      -511.4841
   7   2.0000     -18.792360      -511.3661
   8   2.0000     -18.791049      -511.3304
   9   2.0000     -18.789357      -511.2844
  10   2.0000      -9.959644      -271.0157
  11   2.0000      -9.958783      -270.9923
  12   2.0000      -9.955766      -270.9102
  13   2.0000      -9.955626      -270.9064
  14   2.0000      -9.951767      -270.8014
  15   2.0000      -9.888060      -269.0678
  16   2.0000      -9.884790      -268.9788
  17   2.0000      -9.884684      -268.9759
  18   2.0000      -9.882783      -268.9242
  19   2.0000      -7.694644      -209.3819
  20   2.0000      -7.692095      -209.3126
  21   2.0000      -7.637414      -207.8246
  22   2.0000      -7.634287      -207.7395
  23   2.0000      -6.427176      -174.8924
  24   2.0000      -6.425888      -174.8573
  25   2.0000      -5.722366      -155.7135
  26   2.0000      -5.719891      -155.6462
  27   2.0000      -5.719045      -155.6231
  28   2.0000      -5.716493      -155.5537
  29   2.0000      -5.712007      -155.4316
  30   2.0000      -5.709448      -155.3620
  31   2.0000      -5.666170      -154.1843
  32   2.0000      -5.663466      -154.1107
  33   2.0000      -5.658031      -153.9629
  34   2.0000      -5.657766      -153.9556
  35   2.0000      -5.654730      -153.8730
  36   2.0000      -5.654341      -153.8624
  37   2.0000      -4.649836      -126.5285
  38   2.0000      -4.649212      -126.5115
  39   2.0000      -4.648140      -126.4823
  40   2.0000      -4.647925      -126.4765
  41   2.0000      -4.647352      -126.4609
  42   2.0000      -4.646361      -126.4339
  43   2.0000      -0.990640       -26.9567
  44   2.0000      -0.989701       -26.9311
  45   2.0000      -0.946635       -25.7592
  46   2.0000      -0.945103       -25.7176
  47   2.0000      -0.765036       -20.8177
  48   2.0000      -0.723638       -19.6912
  49   2.0000      -0.715019       -19.4566
  50   2.0000      -0.691179       -18.8079
  51   2.0000      -0.684715       -18.6320
  52   2.0000      -0.681782       -18.5522
  53   2.0000      -0.654083       -17.7985
  54   2.0000      -0.643115       -17.5000
  55   2.0000      -0.602378       -16.3915
  56   2.0000      -0.591287       -16.0897
  57   2.0000      -0.578758       -15.7488
  58   2.0000      -0.573686       -15.6108
  59   2.0000      -0.565199       -15.3798
  60   2.0000      -0.508264       -13.8306
  61   2.0000      -0.497146       -13.5280
  62   2.0000      -0.474533       -12.9127
  63   2.0000      -0.468436       -12.7468
  64   2.0000      -0.461831       -12.5671
  65   2.0000      -0.449308       -12.2263
  66   2.0000      -0.442734       -12.0474
  67   2.0000      -0.435944       -11.8626
  68   2.0000      -0.429713       -11.6931
  69   2.0000      -0.423391       -11.5210
  70   2.0000      -0.414430       -11.2772
  71   2.0000      -0.411065       -11.1857
  72   2.0000      -0.401288       -10.9196
  73   2.0000      -0.388494       -10.5715
  74   2.0000      -0.383052       -10.4234
  75   2.0000      -0.375695       -10.2232
  76   2.0000      -0.361212        -9.8291
  77   2.0000      -0.359106        -9.7718
  78   2.0000      -0.353790        -9.6271
  79   2.0000      -0.350949        -9.5498
  80   2.0000      -0.348618        -9.4864
  81   2.0000      -0.347276        -9.4499
  82   2.0000      -0.342728        -9.3261
  83   2.0000      -0.341814        -9.3012
  84   2.0000      -0.337759        -9.1909
  85   2.0000      -0.319258        -8.6874
  86   2.0000      -0.314581        -8.5602
  87   2.0000      -0.300703        -8.1826
  88   2.0000      -0.299500        -8.1498
  89   2.0000      -0.296825        -8.0770
  90   2.0000      -0.289193        -7.8693
  91   2.0000      -0.280115        -7.6223
  92   2.0000      -0.272478        -7.4145
  93   2.0000      -0.265604        -7.2274
  94   2.0000      -0.261671        -7.1204
  95   2.0000      -0.235109        -6.3976
  96   2.0000      -0.224056        -6.0969
  97   2.0000      -0.215060        -5.8521
  98   2.0000      -0.208490        -5.6733
  99   2.0000      -0.204584        -5.5670
 100   2.0000      -0.202562        -5.5120
 101   0.0000      -0.047986        -1.3058
 102   0.0000      -0.039178        -1.0661
 103   0.0000      -0.014213        -0.3868
 104   0.0000       0.004214         0.1147
 105   0.0000       0.006519         0.1774

MULLIKEN ATOMIC CHARGES
-----------------------
   0 C :   -0.311806
   1 C :   -0.006067
   2 O :   -0.356325
   3 P :    0.589434
   4 S :   -0.328660
   5 O :   -0.352745
   6 C :    0.006832
   7 C :   -0.345845
   8 S :   -0.081001
   9 C :   -0.348617
  10 S :   -0.117436
  11 P :    0.588927
  12 S :   -0.298253
  13 O :   -0.352024
  14 C :   -0.010473
  15 C :   -0.287389
  16 O :   -0.377940
  17 C :   -0.012944
  18 C :   -0.331337
  19 H :    0.127229
  20 H :    0.113441
  21 H :    0.120396
  22 H :    0.110129
  23 H :    0.114900
  24 H :    0.105303
  25 H :    0.112570
  26 H :    0.120248
  27 H :    0.109368
  28 H :    0.138615
  29 H :    0.191884
  30 H :    0.193634
  31 H :    0.113848
  32 H :    0.100318
  33 H :    0.121728
  34 H :    0.109906
  35 H :    0.119776
  36 H :    0.117787
  37 H :    0.107209
  38 H :    0.147988
  39 H :    0.112028
  40 H :    0.125367
Sum of atomic charges:    0.0000000

LOEWDIN ATOMIC CHARGES
----------------------
   0 C :   -0.367408
   1 C :   -0.117485
   2 O :   -0.232741
   3 P :    0.566508
   4 S :   -0.309538
   5 O :   -0.233362
   6 C :   -0.118324
   7 C :   -0.373740
   8 S :    0.094880
   9 C :   -0.487043
  10 S :    0.081418
  11 P :    0.564073
  12 S :   -0.295950
  13 O :   -0.236692
  14 C :   -0.112675
  15 C :   -0.359793
  16 O :   -0.245443
  17 C :   -0.116583
  18 C :   -0.372483
  19 H :    0.130425
  20 H :    0.130879
  21 H :    0.118892
  22 H :    0.122005
  23 H :    0.108509
  24 H :    0.118970
  25 H :    0.109485
  26 H :    0.124594
  27 H :    0.129171
  28 H :    0.110942
  29 H :    0.130032
  30 H :    0.124013
  31 H :    0.123149
  32 H :    0.105807
  33 H :    0.130026
  34 H :    0.129681
  35 H :    0.120824
  36 H :    0.107897
  37 H :    0.120467
  38 H :    0.116911
  39 H :    0.129201
  40 H :    0.130500

  Mayer bond orders larger than 0.100000
B(  0-C ,  1-C ) :   1.1628 B(  0-C , 19-H ) :   0.9436 B(  0-C , 20-H ) :   0.9363
B(  0-C , 21-H ) :   0.9370 B(  1-C ,  2-O ) :   0.9176 B(  1-C , 22-H ) :   0.9332
B(  1-C , 23-H ) :   0.9216 B(  2-O ,  3-P ) :   1.1336 B(  3-P ,  4-S ) :   1.5877
B(  3-P ,  5-O ) :   1.1299 B(  3-P ,  8-S ) :   0.9335 B(  4-S ,  8-S ) :   0.1212
B(  4-S , 30-H ) :   0.1149 B(  5-O ,  6-C ) :   0.9174 B(  6-C ,  7-C ) :   1.1586
B(  6-C , 24-H ) :   0.9331 B(  6-C , 25-H ) :   0.9119 B(  7-C , 26-H ) :   0.9423
B(  7-C , 27-H ) :   0.9383 B(  7-C , 28-H ) :   0.9261 B(  8-S ,  9-C ) :   1.0137
B(  9-C , 10-S ) :   1.0084 B(  9-C , 29-H ) :   0.8810 B(  9-C , 30-H ) :   0.8467
B( 10-S , 11-P ) :   0.9260 B( 10-S , 12-S ) :   0.1118 B( 11-P , 12-S ) :   1.6511
B( 11-P , 13-O ) :   1.1413 B( 11-P , 16-O ) :   1.0945 B( 13-O , 14-C ) :   0.8904
B( 14-C , 15-C ) :   1.1638 B( 14-C , 31-H ) :   0.9343 B( 14-C , 32-H ) :   0.9189
B( 15-C , 33-H ) :   0.9464 B( 15-C , 34-H ) :   0.9402 B( 15-C , 35-H ) :   0.9391
B( 16-O , 17-C ) :   0.9107 B( 17-C , 18-C ) :   1.1687 B( 17-C , 36-H ) :   0.9219
B( 17-C , 37-H ) :   0.9327 B( 18-C , 38-H ) :   0.9222 B( 18-C , 39-H ) :   0.9329
B( 18-C , 40-H ) :   0.9412

Dispersion correction           -0.064376620
FINAL SINGLE POINT ENERGY     -2929.520506647190

DIPOLE MOMENT
-------------

Method             : SCF
Type of density    : Electron Density
Multiplicity       :   1
Irrep              :   0
Energy             : -2929.6401758498509480 Eh
Relativity type    :
Basis              : AO
                                X                 Y                 Z
Electronic contribution:      2.520855659       0.438715195      -6.886544808
Nuclear contribution   :     -2.958934013      -0.692566076       7.798213879
                        -----------------------------------------
Total Dipole Moment    :     -0.438078354      -0.253850882       0.911669071
                        -----------------------------------------
Magnitude (a.u.)       :      1.042829520
Magnitude (Debye)      :      2.650661989

Rotational constants in cm-1:             0.011879             0.004503             0.004352
Rotational constants in MHz :           356.133620           135.005245           130.483363

                             ****ORCA TERMINATED NORMALLY****
TOTAL RUN TIME: 0 days 0 hours 0 minutes 21 seconds 131 msec
