                         Program Version 6.0.0  -   RELEASE  -
|  1> ! pbe def2-sv(p) def2/J RI DEFGRID1 loosescf d4 GCP(DFT/SV(P)) printgap
|  2> %output
|  3>     printlevel normal
|  4> end
|  5> * xyz 0 1
|  6> C 5.8177108209 0.1215704032 -0.2698289563
|  7> C 4.5029876248 -0.5370738905 -0.6371222652
|  8> O 3.4514466728 0.1086037281 0.1081526895
|  9> P 1.9507095838 0.1715655151 -0.4212042549
| 10> S 1.8222309919 0.6552933051 -2.3222337501
| 11> O 1.3144314557 1.1459090504 0.6489796401
| 12> C 1.5161017498 2.5743532373 0.5625363103
| 13> C 0.7092299098 3.2192592137 1.6683992151
| 14> S 1.1748097667 -1.6874304067 0.1423105138
| 15> C -0.172983692 -1.8807225861 -1.0768429918
| 16> S -1.8077273936 -1.9749050832 -0.3194054802
| 17> P -2.0083201813 0.0615842364 0.2652114846
| 18> S -1.4251295698 1.3935445522 -1.0444925603
| 19> O -1.2791488389 0.2146949743 1.6544021789
| 20> C -1.6656869028 -0.5104634217 2.8541658883
| 21> C -0.6655609057 -1.6047601312 3.1672941243
| 22> O -3.5373196485 0.1610034752 0.6939162097
| 23> C -4.592920015 0.4661834142 -0.2346460459
| 24> C -4.8014441725 -0.6320621004 -1.2569211554
| 25> H 6.6248063863 -0.3838177658 -0.7897890502
| 26> H 5.806699388 1.1688614458 -0.5595517571
| 27> H 5.9795302075 0.0530892704 0.8020611275
| 28> H 4.4986040914 -1.596503683 -0.3695695064
| 29> H 4.2875890308 -0.4326727002 -1.7060800671
| 30> H 2.5848127431 2.7779190773 0.6675723023
| 31> H 1.1803197081 2.9077588767 -0.4258073587
| 32> H 1.0433538386 2.8529588475 2.6344788698
| 33> H 0.8356854443 4.2958684214 1.6204726094
| 34> H -0.3427074241 2.9743966495 1.5421947071
| 35> H -0.0229704195 -2.8269759548 -1.5898754897
| 36> H -0.1294989635 -1.0417388542 -1.7768634361
| 37> H -1.6763970557 0.2501627773 3.6364568682
| 38> H -2.6709496728 -0.9125653516 2.7187541519
| 39> H 0.3406293979 -1.194456509 3.1954367766
| 40> H -0.90527393 -2.0319856044 4.1358565918
| 41> H -0.6972674763 -2.3894281942 2.4153306551
| 42> H -5.467765573 0.5931717652 0.4047029662
| 43> H -4.3527688253 1.4121866141 -0.729653385
| 44> H -4.9109265273 -1.5944265815 -0.7635229898
| 45> H -5.6957560424 -0.417003521 -1.8329223366
| 46> H -3.9506204879 -0.6786899389 -1.9346255122
| 47> *
| 48>
| 49>                          ****END OF INPUT****

CARTESIAN COORDINATES (ANGSTROEM)
---------------------------------
  C      5.817711    0.121570   -0.269829
  C      4.502988   -0.537074   -0.637122
  O      3.451447    0.108604    0.108153
  P      1.950710    0.171566   -0.421204
  S      1.822231    0.655293   -2.322234
  O      1.314431    1.145909    0.648980
  C      1.516102    2.574353    0.562536
  C      0.709230    3.219259    1.668399
  S      1.174810   -1.687430    0.142311
  C     -0.172984   -1.880723   -1.076843
  S     -1.807727   -1.974905   -0.319405
  P     -2.008320    0.061584    0.265211
  S     -1.425130    1.393545   -1.044493
  O     -1.279149    0.214695    1.654402
  C     -1.665687   -0.510463    2.854166
  C     -0.665561   -1.604760    3.167294
  O     -3.537320    0.161003    0.693916
  C     -4.592920    0.466183   -0.234646
  C     -4.801444   -0.632062   -1.256921
  H      6.624806   -0.383818   -0.789789
  H      5.806699    1.168861   -0.559552
  H      5.979530    0.053089    0.802061
  H      4.498604   -1.596504   -0.369570
  H      4.287589   -0.432673   -1.706080
  H      2.584813    2.777919    0.667572
  H      1.180320    2.907759   -0.425807
  H      1.043354    2.852959    2.634479
  H      0.835685    4.295868    1.620473
  H     -0.342707    2.974397    1.542195
  H     -0.022970   -2.826976   -1.589875
  H     -0.129499   -1.041739   -1.776863
  H     -1.676397    0.250163    3.636457
  H     -2.670950   -0.912565    2.718754
  H      0.340629   -1.194457    3.195437
  H     -0.905274   -2.031986    4.135857
  H     -0.697267   -2.389428    2.415331
  H     -5.467766    0.593172    0.404703
  H     -4.352769    1.412187   -0.729653
  H     -4.910927   -1.594427   -0.763523
  H     -5.695756   -0.417004   -1.832922
  H     -3.950620   -0.678690   -1.934626

 Total Charge           Charge          ....    0
 Multiplicity           Mult            ....    1
 Number of Electrons    NEL             ....  202
 Basis Dimension        Dim             ....  334

ORBITAL ENERGIES
----------------

  NO   OCC          E(Eh)            E(eV)
   0   2.0000     -88.044459     -2395.8115
   1   2.0000     -88.040608     -2395.7067
   2   2.0000     -87.983509     -2394.1530
   3   2.0000     -87.976940     -2393.9742
   4   2.0000     -76.425336     -2079.6391
   5   2.0000     -76.417811     -2079.4344
   6   2.0000     -18.794797      -511.4324
   7   2.0000     -18.788494      -511.2609
   8   2.0000     -18.785927      -511.1911
   9   2.0000     -18.778871      -510.9991
  10   2.0000      -9.954767      -270.8830
  11   2.0000      -9.954219      -270.8681
  12   2.0000      -9.954049      -270.8634
  13   2.0000      -9.945898      -270.6416
  14   2.0000      -9.939666      -270.4721
  15   2.0000      -9.884659      -268.9752
  16   2.0000      -9.884267      -268.9646
  17   2.0000      -9.880676      -268.8669
  18   2.0000      -9.873161      -268.6624
  19   2.0000      -7.689455      -209.2407
  20   2.0000      -7.686002      -209.1467
  21   2.0000      -7.628364      -207.5783
  22   2.0000      -7.621948      -207.4038
  23   2.0000      -6.422724      -174.7712
  24   2.0000      -6.415652      -174.5788
  25   2.0000      -5.717275      -155.5750
  26   2.0000      -5.713874      -155.4824
  27   2.0000      -5.713854      -155.4819
  28   2.0000      -5.710409      -155.3881
  29   2.0000      -5.706588      -155.2842
  30   2.0000      -5.702960      -155.1854
  31   2.0000      -5.657410      -153.9459
  32   2.0000      -5.650828      -153.7669
  33   2.0000      -5.648830      -153.7125
  34   2.0000      -5.648535      -153.7044
  35   2.0000      -5.642702      -153.5457
  36   2.0000      -5.642010      -153.5269
  37   2.0000      -4.645625      -126.4139
  38   2.0000      -4.644406      -126.3807
  39   2.0000      -4.642979      -126.3419
  40   2.0000      -4.638039      -126.2075
  41   2.0000      -4.637298      -126.1873
  42   2.0000      -4.636319      -126.1607
  43   2.0000      -0.987707       -26.8769
  44   2.0000      -0.978455       -26.6251
  45   2.0000      -0.943235       -25.6667
  46   2.0000      -0.934957       -25.4415
  47   2.0000      -0.762089       -20.7375
  48   2.0000      -0.719433       -19.5768
  49   2.0000      -0.707691       -19.2572
  50   2.0000      -0.688871       -18.7451
  51   2.0000      -0.681806       -18.5529
  52   2.0000      -0.672899       -18.3105
  53   2.0000      -0.647399       -17.6166
  54   2.0000      -0.628380       -17.0991
  55   2.0000      -0.596440       -16.2300
  56   2.0000      -0.583036       -15.8652
  57   2.0000      -0.574439       -15.6313
  58   2.0000      -0.563199       -15.3254
  59   2.0000      -0.552884       -15.0447
  60   2.0000      -0.501986       -13.6597
  61   2.0000      -0.500148       -13.6097
  62   2.0000      -0.473511       -12.8849
  63   2.0000      -0.471476       -12.8295
  64   2.0000      -0.449567       -12.2333
  65   2.0000      -0.443790       -12.0761
  66   2.0000      -0.440029       -11.9738
  67   2.0000      -0.432129       -11.7588
  68   2.0000      -0.427141       -11.6231
  69   2.0000      -0.419316       -11.4102
  70   2.0000      -0.409680       -11.1480
  71   2.0000      -0.391897       -10.6641
  72   2.0000      -0.386842       -10.5265
  73   2.0000      -0.378801       -10.3077
  74   2.0000      -0.374780       -10.1983
  75   2.0000      -0.368076       -10.0158
  76   2.0000      -0.360762        -9.8168
  77   2.0000      -0.354612        -9.6495
  78   2.0000      -0.353387        -9.6162
  79   2.0000      -0.350166        -9.5285
  80   2.0000      -0.343287        -9.3413
  81   2.0000      -0.342106        -9.3092
  82   2.0000      -0.336413        -9.1543
  83   2.0000      -0.333229        -9.0676
  84   2.0000      -0.323916        -8.8142
  85   2.0000      -0.314538        -8.5590
  86   2.0000      -0.308019        -8.3816
  87   2.0000      -0.301999        -8.2178
  88   2.0000      -0.294111        -8.0032
  89   2.0000      -0.293058        -7.9745
  90   2.0000      -0.280377        -7.6294
  91   2.0000      -0.268790        -7.3141
  92   2.0000      -0.262270        -7.1367
  93   2.0000      -0.260759        -7.0956
  94   2.0000      -0.256462        -6.9787
  95   2.0000      -0.234351        -6.3770
  96   2.0000      -0.221034        -6.0146
  97   2.0000      -0.213688        -5.8147
  98   2.0000      -0.202158        -5.5010
  99   2.0000      -0.191417        -5.2087
 100   2.0000      -0.182221        -4.9585
 101   0.0000      -0.040039        -1.0895
 102   0.0000      -0.029147        -0.7931
 103   0.0000      -0.009595        -0.2611
 104   0.0000       0.011549         0.3143
 105   0.0000       0.018434         0.5016

MULLIKEN ATOMIC CHARGES
-----------------------
   0 C :   -0.282527
   1 C :   -0.006139
   2 O :   -0.385550
   3 P :    0.613466
   4 S :   -0.323465
   5 O :   -0.355066
   6 C :   -0.003786
   7 C :   -0.277579
   8 S :   -0.097703
   9 C :   -0.354244
  10 S :   -0.108962
  11 P :    0.605246
  12 S :   -0.291102
  13 O :   -0.346441
  14 C :   -0.018973
  15 C :   -0.282452
  16 O :   -0.384483
  17 C :    0.000423
  18 C :   -0.319268
  19 H :    0.110349
  20 H :    0.117316
  21 H :    0.114573
  22 H :    0.097166
  23 H :    0.103073
  24 H :    0.095859
  25 H :    0.112554
  26 H :    0.104856
  27 H :    0.103396
  28 H :    0.125233
  29 H :    0.182989
  30 H :    0.208701
  31 H :    0.108561
  32 H :    0.107155
  33 H :    0.123100
  34 H :    0.104835
  35 H :    0.120410
  36 H :    0.104043
  37 H :    0.112113
  38 H :    0.116636
  39 H :    0.114519
  40 H :    0.131171
Sum of atomic charges:    0.0000000

LOEWDIN ATOMIC CHARGES
----------------------
   0 C :   -0.351133
   1 C :   -0.122755
   2 O :   -0.253870
   3 P :    0.563829
   4 S :   -0.316501
   5 O :   -0.233989
   6 C :   -0.116482
   7 C :   -0.352634
   8 S :    0.085709
   9 C :   -0.478797
  10 S :    0.075151
  11 P :    0.565658
  12 S :   -0.284647
  13 O :   -0.230191
  14 C :   -0.110362
  15 C :   -0.363349
  16 O :   -0.250151
  17 C :   -0.116695
  18 C :   -0.371466
  19 H :    0.129959
  20 H :    0.127177
  21 H :    0.125575
  22 H :    0.109067
  23 H :    0.105297
  24 H :    0.106917
  25 H :    0.110487
  26 H :    0.121765
  27 H :    0.127123
  28 H :    0.126259
  29 H :    0.138181
  30 H :    0.127104
  31 H :    0.121057
  32 H :    0.109771
  33 H :    0.127165
  34 H :    0.126886
  35 H :    0.114654
  36 H :    0.118202
  37 H :    0.112546
  38 H :    0.122646
  39 H :    0.131914
  40 H :    0.122923

  Mayer bond orders larger than 0.100000
B(  0-C ,  1-C ) :   1.1610 B(  0-C , 19-H ) :   0.9424 B(  0-C , 20-H ) :   0.9511
B(  0-C , 21-H ) :   0.9510 B(  1-C ,  2-O ) :   0.9092 B(  1-C , 22-H ) :   0.9311
B(  1-C , 23-H ) :   0.9019 B(  2-O ,  3-P ) :   1.0918 B(  3-P ,  4-S ) :   1.6157
B(  3-P ,  5-O ) :   1.1485 B(  3-P ,  8-S ) :   0.9779 B(  4-S ,  8-S ) :   0.1169
B(  5-O ,  6-C ) :   0.8933 B(  6-C ,  7-C ) :   1.1656 B(  6-C , 24-H ) :   0.9277
B(  6-C , 25-H ) :   0.9139 B(  7-C , 26-H ) :   0.9501 B(  7-C , 27-H ) :   0.9410
B(  7-C , 28-H ) :   0.9412 B(  8-S ,  9-C ) :   0.9923 B(  9-C , 10-S ) :   1.0081
B(  9-C , 29-H ) :   0.9111 B(  9-C , 30-H ) :   0.8478 B( 10-S , 11-P ) :   0.9344
B( 10-S , 12-S ) :   0.1045 B( 11-P , 12-S ) :   1.6399 B( 11-P , 13-O ) :   1.1404
B( 11-P , 16-O ) :   1.0812 B( 13-O , 14-C ) :   0.8932 B( 14-C , 15-C ) :   1.1681
B( 14-C , 31-H ) :   0.9347 B( 14-C , 32-H ) :   0.9185 B( 15-C , 33-H ) :   0.9428
B( 15-C , 34-H ) :   0.9370 B( 15-C , 35-H ) :   0.9334 B( 16-O , 17-C ) :   0.9065
B( 17-C , 18-C ) :   1.1668 B( 17-C , 36-H ) :   0.9344 B( 17-C , 37-H ) :   0.9166
B( 18-C , 38-H ) :   0.9437 B( 18-C , 39-H ) :   0.9371 B( 18-C , 40-H ) :   0.9347

Dispersion correction           -0.067252547
FINAL SINGLE POINT ENERGY     -2929.520587844925

DIPOLE MOMENT
-------------

Method             : SCF
Type of density    : Electron Density
Multiplicity       :   1
Irrep              :   0
Energy             : -2929.6386018219473044 Eh
Relativity type    :
Basis              : AO
                                X                 Y                 Z
Electronic contribution:     -2.601587727      -3.980355552      -9.778642342
Nuclear contribution   :      2.270819478       3.414550267      10.884660226
                        -----------------------------------------
Total Dipole Moment    :     -0.330768249      -0.565805286       1.106017884
                        -----------------------------------------
Magnitude (a.u.)       :      1.285620012
Magnitude (Debye)      :      3.267786375

Rotational constants in cm-1:             0.012796             0.005219             0.005161
Rotational constants in MHz :           383.600513           156.469744           154.722853

                             ****ORCA TERMINATED NORMALLY****
TOTAL RUN TIME: 0 days 0 hours 0 minutes 21 seconds 400 msec
