                         Program Version 6.0.0  -   RELEASE  -
|  1> ! pbe def2-sv(p) def2/J RI DEFGRID1 loosescf d4 GCP(DFT/SV(P)) printgap
|  2> %output
|  3>     printlevel normal
|  4> end
|  5> * xyz 0 1
|  6> C 0.7340938285 1.5487463967 -0.7775462242
|  7> C 1.5231665075 0.2885630804 -0.3827913994
|  8> H 1.9843681246 -0.1479991957 -1.2813660337
|  9> C 0.5629611597 -0.7592441042 0.2028996297
| 10> H 0.3932740316 -0.5316159155 1.2681000927
| 11> C -0.7825109441 -0.6691996366 -0.5366843608
| 12> H -0.6057998898 -0.7522433969 -1.6141561686
| 13> C -1.4197811552 0.6914909532 -0.189280424
| 14> H -2.1387341385 0.9854992952 -0.9807734335
| 15> O -0.4583527166 1.7110712819 -0.0372016604
| 16> O -2.0794952215 0.5362271584 1.0230269496
| 17> O -1.622594949 -1.7357616115 -0.1926048782
| 18> O 1.1393168313 -2.0347287124 0.0674011627
| 19> O 2.5229787924 0.6596522503 0.5343357633
| 20> H 0.5059800214 1.5365844296 -1.8492870106
| 21> H 1.3352173426 2.426100056 -0.5375446584
| 22> H -2.2850678841 1.4085292562 1.3912035094
| 23> H -2.0822007209 -1.5081604088 0.6333904984
| 24> H 0.4239778361 -2.6911661343 0.0828710472
| 25> H 3.0127965136 -0.1304969195 0.8048856598
| 26> *
| 27>
| 28>                          ****END OF INPUT****

CARTESIAN COORDINATES (ANGSTROEM)
---------------------------------
  C      0.734094    1.548746   -0.777546
  C      1.523167    0.288563   -0.382791
  H      1.984368   -0.147999   -1.281366
  C      0.562961   -0.759244    0.202900
  H      0.393274   -0.531616    1.268100
  C     -0.782511   -0.669200   -0.536684
  H     -0.605800   -0.752243   -1.614156
  C     -1.419781    0.691491   -0.189280
  H     -2.138734    0.985499   -0.980773
  O     -0.458353    1.711071   -0.037202
  O     -2.079495    0.536227    1.023027
  O     -1.622595   -1.735762   -0.192605
  O      1.139317   -2.034729    0.067401
  O      2.522979    0.659652    0.534336
  H      0.505980    1.536584   -1.849287
  H      1.335217    2.426100   -0.537545
  H     -2.285068    1.408529    1.391204
  H     -2.082201   -1.508160    0.633390
  H      0.423978   -2.691166    0.082871
  H      3.012797   -0.130497    0.804886

 Total Charge           Charge          ....    0
 Multiplicity           Mult            ....    1
 Number of Electrons    NEL             ....   80
 Basis Dimension        Dim             ....  160

ORBITAL ENERGIES
----------------

  NO   OCC          E(Eh)            E(eV)
   0   2.0000     -18.778088      -510.9778
   1   2.0000     -18.770349      -510.7672
   2   2.0000     -18.761762      -510.5335
   3   2.0000     -18.745232      -510.0837
   4   2.0000     -18.745048      -510.0787
   5   2.0000      -9.994970      -271.9770
   6   2.0000      -9.947173      -270.6763
   7   2.0000      -9.940082      -270.4834
   8   2.0000      -9.939690      -270.4727
   9   2.0000      -9.933867      -270.3143
  10   2.0000      -0.991758       -26.9871
  11   2.0000      -0.944320       -25.6963
  12   2.0000      -0.934029       -25.4162
  13   2.0000      -0.917040       -24.9539
  14   2.0000      -0.910434       -24.7742
  15   2.0000      -0.700304       -19.0562
  16   2.0000      -0.679085       -18.4788
  17   2.0000      -0.593026       -16.1371
  18   2.0000      -0.579829       -15.7780
  19   2.0000      -0.536598       -14.6016
  20   2.0000      -0.500911       -13.6305
  21   2.0000      -0.488076       -13.2812
  22   2.0000      -0.465379       -12.6636
  23   2.0000      -0.463958       -12.6249
  24   2.0000      -0.422117       -11.4864
  25   2.0000      -0.412694       -11.2300
  26   2.0000      -0.403484       -10.9794
  27   2.0000      -0.384309       -10.4576
  28   2.0000      -0.373652       -10.1676
  29   2.0000      -0.348204        -9.4751
  30   2.0000      -0.337234        -9.1766
  31   2.0000      -0.323200        -8.7947
  32   2.0000      -0.301276        -8.1981
  33   2.0000      -0.288819        -7.8592
  34   2.0000      -0.267805        -7.2873
  35   2.0000      -0.261208        -7.1078
  36   2.0000      -0.242720        -6.6048
  37   2.0000      -0.231713        -6.3052
  38   2.0000      -0.213608        -5.8126
  39   2.0000      -0.200527        -5.4566
  40   0.0000       0.018301         0.4980
  41   0.0000       0.031690         0.8623
  42   0.0000       0.040903         1.1130
  43   0.0000       0.061850         1.6830
  44   0.0000       0.070986         1.9316

MULLIKEN ATOMIC CHARGES
-----------------------
   0 C :    0.056221
   1 C :    0.039587
   2 H :    0.060163
   3 C :    0.057124
   4 H :    0.051574
   5 C :   -0.005422
   6 H :    0.072846
   7 C :    0.211430
   8 H :    0.059587
   9 O :   -0.331516
  10 O :   -0.416591
  11 O :   -0.424712
  12 O :   -0.426571
  13 O :   -0.423009
  14 H :    0.075477
  15 H :    0.104150
  16 H :    0.317997
  17 H :    0.312678
  18 H :    0.302152
  19 H :    0.306836
Sum of atomic charges:   -0.0000000

LOEWDIN ATOMIC CHARGES
----------------------
   0 C :   -0.110813
   1 C :   -0.073633
   2 H :    0.104564
   3 C :   -0.084005
   4 H :    0.103345
   5 C :   -0.095583
   6 H :    0.116209
   7 C :    0.006146
   8 H :    0.084508
   9 O :   -0.163760
  10 O :   -0.308215
  11 O :   -0.308505
  12 O :   -0.331370
  13 O :   -0.324956
  14 H :    0.102977
  15 H :    0.129167
  16 H :    0.298004
  17 H :    0.285680
  18 H :    0.280693
  19 H :    0.289548

  Mayer bond orders larger than 0.100000
B(  0-C ,  1-C ) :   1.0549 B(  0-C ,  9-O ) :   1.0296 B(  0-C , 14-H ) :   0.9092
B(  0-C , 15-H ) :   0.9121 B(  1-C ,  2-H ) :   0.8825 B(  1-C ,  3-C ) :   1.0410
B(  1-C , 13-O ) :   1.0727 B(  3-C ,  4-H ) :   0.8536 B(  3-C ,  5-C ) :   1.0037
B(  3-C , 12-O ) :   1.0932 B(  5-C ,  6-H ) :   0.8851 B(  5-C ,  7-C ) :   0.9688
B(  5-C , 11-O ) :   1.0742 B(  7-C ,  8-H ) :   0.9092 B(  7-C ,  9-O ) :   1.0497
B(  7-C , 10-O ) :   1.0993 B( 10-O , 16-H ) :   0.8337 B( 11-O , 17-H ) :   0.8219
B( 12-O , 18-H ) :   0.8242 B( 13-O , 19-H ) :   0.8468

Dispersion correction           -0.019073380
FINAL SINGLE POINT ENERGY      -571.411952013152

DIPOLE MOMENT
-------------

Method             : SCF
Type of density    : Electron Density
Multiplicity       :   1
Irrep              :   0
Energy             :  -571.5210050894881988 Eh
Relativity type    :
Basis              : AO
                                X                 Y                 Z
Electronic contribution:     -0.992361261      -0.363570646       1.913036745
Nuclear contribution   :      0.502807654       0.545447465      -1.933239272
                        -----------------------------------------
Total Dipole Moment    :     -0.489553607       0.181876819      -0.020202527
                        -----------------------------------------
Magnitude (a.u.)       :      0.522637593
Magnitude (Debye)      :      1.328439188

Rotational constants in cm-1:             0.058283             0.043466             0.029056
Rotational constants in MHz :          1747.286863          1303.080739           871.078627

                             ****ORCA TERMINATED NORMALLY****
TOTAL RUN TIME: 0 days 0 hours 0 minutes 11 seconds 828 msec
