                         Program Version 6.0.0  -   RELEASE  -
|  1> ! pbe def2-sv(p) def2/J RI DEFGRID1 loosescf d4 GCP(DFT/SV(P)) printgap
|  2> %output
|  3>     printlevel normal
|  4> end
|  5> * xyz 0 1
|  6> C 4.9659944704 1.2275331329 0.0171617659
|  7> C 3.6879070924 1.4502950617 -0.7632910528
|  8> O 2.9100743521 0.2390854822 -0.8694088371
|  9> P 2.1849134306 -0.397334015 0.3858526943
| 10> S 1.5824019285 0.8631161211 1.7689110067
| 11> O 3.2563507309 -1.4474865079 0.9119582192
| 12> C 3.1439401567 -2.0684478412 2.2029227688
| 13> C 1.9523146291 -3.0012945835 2.2739989228
| 14> S 0.7706569993 -1.6131363475 -0.6249323526
| 15> C 0.1481669523 -0.408204579 -1.8337639675
| 16> S -0.5564442213 1.0790347949 -1.0916950749
| 17> P -2.5561098325 0.3890321468 -0.7521438692
| 18> S -3.056183616 -1.1681175319 -1.8276973934
| 19> O -3.5009477108 1.5985374184 -1.09825632
| 20> C -3.702212831 2.7843774547 -0.2910109926
| 21> C -2.4350916638 3.5948704931 -0.1200156783
| 22> O -2.7389992673 0.3093651986 0.8276579973
| 23> C -1.9784840757 -0.4944555249 1.7413163477
| 24> C -2.2227659508 -1.9784002192 1.5576911807
| 25> H 4.7303057144 0.9963653548 1.0551651218
| 26> H 5.5263746588 0.3991948349 -0.4083750543
| 27> H 5.5696571725 2.1290943957 -0.0152447706
| 28> H 3.8882180883 1.7252443741 -1.7996656342
| 29> H 3.0696539814 2.2184592938 -0.2875161623
| 30> H 4.0867043165 -2.6034667319 2.3227118224
| 31> H 3.0611071265 -1.2814018419 2.9598935135
| 32> H 1.9962027165 -3.7346704126 1.472872539
| 33> H 1.9459217809 -3.5105281775 3.2322335031
| 34> H 1.0309853617 -2.4281552771 2.1694293878
| 35> H -0.6303223331 -0.9289205282 -2.3967292287
| 36> H 0.9631996776 -0.0912201407 -2.4782714939
| 37> H -4.4589933879 3.3367537325 -0.8501362451
| 38> H -4.1038745307 2.4755666339 0.6756398642
| 39> H -2.0049536312 3.8370616146 -1.0886967865
| 40> H -2.6704145333 4.5144778455 0.4068535253
| 41> H -1.6991064586 3.0388878256 0.4595713973
| 42> H -0.9172283716 -0.248736454 1.6300558122
| 43> H -2.3173066039 -0.1557962757 2.7225168861
| 44> H -1.8191740935 -2.3218809335 0.6068462191
| 45> H -1.7387656103 -2.5223437818 2.3627580128
| 46> H -3.2898649155 -2.1852636706 1.5759788422
| 47> *
| 48>
| 49>                          ****END OF INPUT****

CARTESIAN COORDINATES (ANGSTROEM)
---------------------------------
  C      4.965994    1.227533    0.017162
  C      3.687907    1.450295   -0.763291
  O      2.910074    0.239085   -0.869409
  P      2.184913   -0.397334    0.385853
  S      1.582402    0.863116    1.768911
  O      3.256351   -1.447487    0.911958
  C      3.143940   -2.068448    2.202923
  C      1.952315   -3.001295    2.273999
  S      0.770657   -1.613136   -0.624932
  C      0.148167   -0.408205   -1.833764
  S     -0.556444    1.079035   -1.091695
  P     -2.556110    0.389032   -0.752144
  S     -3.056184   -1.168118   -1.827697
  O     -3.500948    1.598537   -1.098256
  C     -3.702213    2.784377   -0.291011
  C     -2.435092    3.594870   -0.120016
  O     -2.738999    0.309365    0.827658
  C     -1.978484   -0.494456    1.741316
  C     -2.222766   -1.978400    1.557691
  H      4.730306    0.996365    1.055165
  H      5.526375    0.399195   -0.408375
  H      5.569657    2.129094   -0.015245
  H      3.888218    1.725244   -1.799666
  H      3.069654    2.218459   -0.287516
  H      4.086704   -2.603467    2.322712
  H      3.061107   -1.281402    2.959894
  H      1.996203   -3.734670    1.472873
  H      1.945922   -3.510528    3.232234
  H      1.030985   -2.428155    2.169429
  H     -0.630322   -0.928921   -2.396729
  H      0.963200   -0.091220   -2.478271
  H     -4.458993    3.336754   -0.850136
  H     -4.103875    2.475567    0.675640
  H     -2.004954    3.837062   -1.088697
  H     -2.670415    4.514478    0.406854
  H     -1.699106    3.038888    0.459571
  H     -0.917228   -0.248736    1.630056
  H     -2.317307   -0.155796    2.722517
  H     -1.819174   -2.321881    0.606846
  H     -1.738766   -2.522344    2.362758
  H     -3.289865   -2.185264    1.575979

 Total Charge           Charge          ....    0
 Multiplicity           Mult            ....    1
 Number of Electrons    NEL             ....  202
 Basis Dimension        Dim             ....  334

ORBITAL ENERGIES
----------------

  NO   OCC          E(Eh)            E(eV)
   0   2.0000     -88.043913     -2395.7967
   1   2.0000     -88.039433     -2395.6748
   2   2.0000     -87.993292     -2394.4192
   3   2.0000     -87.981247     -2394.0915
   4   2.0000     -76.432400     -2079.8313
   5   2.0000     -76.424086     -2079.6051
   6   2.0000     -18.800113      -511.5771
   7   2.0000     -18.797350      -511.5019
   8   2.0000     -18.789040      -511.2758
   9   2.0000     -18.788412      -511.2587
  10   2.0000      -9.958049      -270.9723
  11   2.0000      -9.957848      -270.9668
  12   2.0000      -9.955404      -270.9003
  13   2.0000      -9.952305      -270.8160
  14   2.0000      -9.943531      -270.5772
  15   2.0000      -9.891860      -269.1712
  16   2.0000      -9.889058      -269.0950
  17   2.0000      -9.888792      -269.0877
  18   2.0000      -9.872328      -268.6397
  19   2.0000      -7.688758      -209.2217
  20   2.0000      -7.683999      -209.0922
  21   2.0000      -7.637790      -207.8348
  22   2.0000      -7.626463      -207.5266
  23   2.0000      -6.429836      -174.9647
  24   2.0000      -6.421208      -174.7299
  25   2.0000      -5.716774      -155.5613
  26   2.0000      -5.713311      -155.4671
  27   2.0000      -5.711963      -155.4304
  28   2.0000      -5.708453      -155.3349
  29   2.0000      -5.705584      -155.2568
  30   2.0000      -5.701043      -155.1333
  31   2.0000      -5.666596      -154.1959
  32   2.0000      -5.658508      -153.9758
  33   2.0000      -5.658041      -153.9631
  34   2.0000      -5.655473      -153.8932
  35   2.0000      -5.646969      -153.6618
  36   2.0000      -5.646589      -153.6515
  37   2.0000      -4.652474      -126.6003
  38   2.0000      -4.651608      -126.5767
  39   2.0000      -4.650238      -126.5394
  40   2.0000      -4.644077      -126.3718
  41   2.0000      -4.642972      -126.3417
  42   2.0000      -4.641480      -126.3011
  43   2.0000      -0.993947       -27.0467
  44   2.0000      -0.984836       -26.7988
  45   2.0000      -0.954233       -25.9660
  46   2.0000      -0.939497       -25.5650
  47   2.0000      -0.762302       -20.7433
  48   2.0000      -0.722583       -19.6625
  49   2.0000      -0.711023       -19.3479
  50   2.0000      -0.693557       -18.8726
  51   2.0000      -0.686006       -18.6672
  52   2.0000      -0.673951       -18.3391
  53   2.0000      -0.655812       -17.8455
  54   2.0000      -0.638045       -17.3621
  55   2.0000      -0.604446       -16.4478
  56   2.0000      -0.589587       -16.0435
  57   2.0000      -0.579240       -15.7619
  58   2.0000      -0.576183       -15.6787
  59   2.0000      -0.560639       -15.2558
  60   2.0000      -0.500982       -13.6324
  61   2.0000      -0.491862       -13.3843
  62   2.0000      -0.480242       -13.0680
  63   2.0000      -0.468849       -12.7580
  64   2.0000      -0.459647       -12.5076
  65   2.0000      -0.446188       -12.1414
  66   2.0000      -0.445472       -12.1219
  67   2.0000      -0.437505       -11.9051
  68   2.0000      -0.421579       -11.4717
  69   2.0000      -0.420836       -11.4515
  70   2.0000      -0.414115       -11.2686
  71   2.0000      -0.399768       -10.8782
  72   2.0000      -0.398450       -10.8424
  73   2.0000      -0.394190       -10.7265
  74   2.0000      -0.384201       -10.4546
  75   2.0000      -0.377603       -10.2751
  76   2.0000      -0.365591        -9.9482
  77   2.0000      -0.359838        -9.7917
  78   2.0000      -0.355201        -9.6655
  79   2.0000      -0.353614        -9.6223
  80   2.0000      -0.350388        -9.5345
  81   2.0000      -0.347019        -9.4429
  82   2.0000      -0.340146        -9.2558
  83   2.0000      -0.337750        -9.1906
  84   2.0000      -0.330991        -9.0067
  85   2.0000      -0.322023        -8.7627
  86   2.0000      -0.309158        -8.4126
  87   2.0000      -0.301319        -8.1993
  88   2.0000      -0.292639        -7.9631
  89   2.0000      -0.290806        -7.9132
  90   2.0000      -0.286953        -7.8084
  91   2.0000      -0.279732        -7.6119
  92   2.0000      -0.273275        -7.4362
  93   2.0000      -0.267856        -7.2887
  94   2.0000      -0.256373        -6.9763
  95   2.0000      -0.243394        -6.6231
  96   2.0000      -0.220982        -6.0132
  97   2.0000      -0.206280        -5.6132
  98   2.0000      -0.203444        -5.5360
  99   2.0000      -0.200888        -5.4664
 100   2.0000      -0.192390        -5.2352
 101   0.0000      -0.049007        -1.3335
 102   0.0000      -0.024152        -0.6572
 103   0.0000      -0.018451        -0.5021
 104   0.0000      -0.000036        -0.0010
 105   0.0000       0.009512         0.2588

MULLIKEN ATOMIC CHARGES
-----------------------
   0 C :   -0.306873
   1 C :   -0.006531
   2 O :   -0.372853
   3 P :    0.611886
   4 S :   -0.318335
   5 O :   -0.367026
   6 C :   -0.002510
   7 C :   -0.341605
   8 S :   -0.095220
   9 C :   -0.334098
  10 S :   -0.116563
  11 P :    0.623029
  12 S :   -0.313607
  13 O :   -0.361675
  14 C :    0.006962
  15 C :   -0.339330
  16 O :   -0.382224
  17 C :   -0.033662
  18 C :   -0.311645
  19 H :    0.123186
  20 H :    0.119760
  21 H :    0.114403
  22 H :    0.106988
  23 H :    0.115259
  24 H :    0.108857
  25 H :    0.110204
  26 H :    0.127080
  27 H :    0.118437
  28 H :    0.139292
  29 H :    0.193595
  30 H :    0.188546
  31 H :    0.110682
  32 H :    0.112132
  33 H :    0.127992
  34 H :    0.117655
  35 H :    0.139628
  36 H :    0.133551
  37 H :    0.098045
  38 H :    0.132784
  39 H :    0.109921
  40 H :    0.113884
Sum of atomic charges:   -0.0000000

LOEWDIN ATOMIC CHARGES
----------------------
   0 C :   -0.364346
   1 C :   -0.117516
   2 O :   -0.239405
   3 P :    0.572792
   4 S :   -0.311550
   5 O :   -0.241428
   6 C :   -0.120627
   7 C :   -0.371585
   8 S :    0.094316
   9 C :   -0.484796
  10 S :    0.076071
  11 P :    0.571415
  12 S :   -0.301248
  13 O :   -0.236021
  14 C :   -0.108607
  15 C :   -0.372989
  16 O :   -0.243240
  17 C :   -0.123382
  18 C :   -0.371276
  19 H :    0.122878
  20 H :    0.128044
  21 H :    0.131744
  22 H :    0.119298
  23 H :    0.112249
  24 H :    0.120583
  25 H :    0.109332
  26 H :    0.128077
  27 H :    0.133935
  28 H :    0.120779
  29 H :    0.128183
  30 H :    0.134204
  31 H :    0.122800
  32 H :    0.115775
  33 H :    0.128198
  34 H :    0.133888
  35 H :    0.122034
  36 H :    0.097671
  37 H :    0.116955
  38 H :    0.114924
  39 H :    0.126219
  40 H :    0.125649

  Mayer bond orders larger than 0.100000
B(  0-C ,  1-C ) :   1.1655 B(  0-C , 19-H ) :   0.9362 B(  0-C , 20-H ) :   0.9456
B(  0-C , 21-H ) :   0.9385 B(  1-C ,  2-O ) :   0.8994 B(  1-C , 22-H ) :   0.9337
B(  1-C , 23-H ) :   0.9158 B(  2-O ,  3-P ) :   1.1157 B(  3-P ,  4-S ) :   1.5960
B(  3-P ,  5-O ) :   1.1055 B(  3-P ,  8-S ) :   0.9673 B(  4-S ,  8-S ) :   0.1074
B(  5-O ,  6-C ) :   0.9093 B(  6-C ,  7-C ) :   1.1623 B(  6-C , 24-H ) :   0.9321
B(  6-C , 25-H ) :   0.9134 B(  7-C , 26-H ) :   0.9425 B(  7-C , 27-H ) :   0.9376
B(  7-C , 28-H ) :   0.9275 B(  8-S ,  9-C ) :   0.9921 B(  9-C , 10-S ) :   1.0221
B(  9-C , 29-H ) :   0.8545 B(  9-C , 30-H ) :   0.8969 B( 10-S , 11-P ) :   0.9311
B( 10-S , 12-S ) :   0.1143 B( 11-P , 12-S ) :   1.6450 B( 11-P , 13-O ) :   1.1446
B( 11-P , 16-O ) :   1.0813 B( 12-S , 29-H ) :   0.1144 B( 13-O , 14-C ) :   0.9000
B( 14-C , 15-C ) :   1.1697 B( 14-C , 31-H ) :   0.9337 B( 14-C , 32-H ) :   0.9268
B( 15-C , 33-H ) :   0.9421 B( 15-C , 34-H ) :   0.9353 B( 15-C , 35-H ) :   0.9313
B( 16-O , 17-C ) :   0.9054 B( 17-C , 18-C ) :   1.1684 B( 17-C , 36-H ) :   0.8951
B( 17-C , 37-H ) :   0.9349 B( 18-C , 38-H ) :   0.9274 B( 18-C , 39-H ) :   0.9325
B( 18-C , 40-H ) :   0.9421

Dispersion correction           -0.066685661
FINAL SINGLE POINT ENERGY     -2929.519367580670

DIPOLE MOMENT
-------------

Method             : SCF
Type of density    : Electron Density
Multiplicity       :   1
Irrep              :   0
Energy             : -2929.6385746261917120 Eh
Relativity type    :
Basis              : AO
                                X                 Y                 Z
Electronic contribution:     -8.723739021      -1.897413781     -12.957035914
Nuclear contribution   :      9.953583506       2.536404975      13.817322441
                        -----------------------------------------
Total Dipole Moment    :      1.229844484       0.638991193       0.860286528
                        -----------------------------------------
Magnitude (a.u.)       :      1.631232697
Magnitude (Debye)      :      4.146264006

Rotational constants in cm-1:             0.012169             0.005208             0.004660
Rotational constants in MHz :           364.814407           156.120537           139.706791

                             ****ORCA TERMINATED NORMALLY****
TOTAL RUN TIME: 0 days 0 hours 0 minutes 21 seconds 385 msec
