                         Program Version 6.0.0  -   RELEASE  -
|  1> ! r2scan-3c def2/J RI DEFGRID2 scfconv6 printgap
|  2> %output
|  3>     printlevel normal
|  4> end
|  5> * xyz 0 1
|  6> C 2.3613456756 -1.3902280444 0.0012182862
|  7> C 1.1627199199 -0.6991439534 0.0031353841
|  8> C 1.1627383881 0.6991326164 0.0032277034
|  9> C 2.3613484805 1.3902507199 0.0016338172
| 10> C 3.5627426342 0.6943385552 -0.0001582493
| 11> C 3.5627402996 -0.6943204181 -0.0004466613
| 12> Cl 5.050851553 -1.5695524085 -0.0029784358
| 13> Cl 5.0508703993 1.5695453877 -0.0022296313
| 14> O 7.6408e-06 1.4269670796 0.0048134414
| 15> C -1.1627260976 0.6991296202 0.0031898735
| 16> C -2.3613363197 1.3902337631 0.0013384164
| 17> C -3.5627345517 0.6943303097 -0.0004284369
| 18> C -3.562784836 -0.694350208 -0.0001802548
| 19> C -2.3613500326 -1.3902427231 0.0016440507
| 20> C -1.1627394133 -0.6991490734 0.0032833504
| 21> O -4.541e-06 -1.4269826596 0.0048541098
| 22> Cl -5.0508506987 -1.5695674712 -0.0022308673
| 23> Cl -5.0508605053 1.5695871195 -0.0030080036
| 24> H 2.3470438992 -2.4667770302 0.001068876
| 25> H 2.3470509664 2.4668344284 0.0018245901
| 26> H -2.3470171059 2.4667999798 0.0012322967
| 27> H -2.3470777858 -2.4668297746 0.0018479295
| 28> *
| 29>
| 30>                          ****END OF INPUT****

CARTESIAN COORDINATES (ANGSTROEM)
---------------------------------
  C      2.361346   -1.390228    0.001218
  C      1.162720   -0.699144    0.003135
  C      1.162738    0.699133    0.003228
  C      2.361348    1.390251    0.001634
  C      3.562743    0.694339   -0.000158
  C      3.562740   -0.694320   -0.000447
  Cl     5.050852   -1.569552   -0.002978
  Cl     5.050870    1.569545   -0.002230
  O      0.000008    1.426967    0.004813
  C     -1.162726    0.699130    0.003190
  C     -2.361336    1.390234    0.001338
  C     -3.562735    0.694330   -0.000428
  C     -3.562785   -0.694350   -0.000180
  C     -2.361350   -1.390243    0.001644
  C     -1.162739   -0.699149    0.003283
  O     -0.000005   -1.426983    0.004854
  Cl    -5.050851   -1.569567   -0.002231
  Cl    -5.050861    1.569587   -0.003008
  H      2.347044   -2.466777    0.001069
  H      2.347051    2.466834    0.001825
  H     -2.347017    2.466800    0.001232
  H     -2.347078   -2.466830    0.001848

 Total Charge           Charge          ....    0
 Multiplicity           Mult            ....    1
 Number of Electrons    NEL             ....  160
 Basis Dimension        Dim             ....  404

ORBITAL ENERGIES
----------------

  NO   OCC          E(Eh)            E(eV)
   0   2.0000    -101.236521     -2754.7858
   1   2.0000    -101.236516     -2754.7856
   2   2.0000    -101.236512     -2754.7855
   3   2.0000    -101.236511     -2754.7855
   4   2.0000     -19.041579      -518.1477
   5   2.0000     -19.041573      -518.1475
   6   2.0000     -10.138875      -275.8928
   7   2.0000     -10.138865      -275.8925
   8   2.0000     -10.138465      -275.8817
   9   2.0000     -10.138458      -275.8815
  10   2.0000     -10.126462      -275.5550
  11   2.0000     -10.126459      -275.5549
  12   2.0000     -10.126022      -275.5431
  13   2.0000     -10.126018      -275.5430
  14   2.0000     -10.076074      -274.1839
  15   2.0000     -10.076068      -274.1838
  16   2.0000     -10.076060      -274.1835
  17   2.0000     -10.076058      -274.1835
  18   2.0000      -9.392263      -255.5765
  19   2.0000      -9.392257      -255.5763
  20   2.0000      -9.392253      -255.5762
  21   2.0000      -9.392252      -255.5762
  22   2.0000      -7.138793      -194.2564
  23   2.0000      -7.138786      -194.2562
  24   2.0000      -7.138786      -194.2562
  25   2.0000      -7.138784      -194.2562
  26   2.0000      -7.128468      -193.9755
  27   2.0000      -7.128461      -193.9753
  28   2.0000      -7.128461      -193.9753
  29   2.0000      -7.128459      -193.9752
  30   2.0000      -7.127810      -193.9576
  31   2.0000      -7.127803      -193.9574
  32   2.0000      -7.127803      -193.9574
  33   2.0000      -7.127801      -193.9573
  34   2.0000      -1.112627       -30.2761
  35   2.0000      -1.079108       -29.3640
  36   2.0000      -0.907529       -24.6951
  37   2.0000      -0.900665       -24.5083
  38   2.0000      -0.846631       -23.0380
  39   2.0000      -0.839558       -22.8455
  40   2.0000      -0.838406       -22.8142
  41   2.0000      -0.813309       -22.1313
  42   2.0000      -0.771398       -20.9908
  43   2.0000      -0.734495       -19.9866
  44   2.0000      -0.733660       -19.9639
  45   2.0000      -0.700250       -19.0548
  46   2.0000      -0.650285       -17.6951
  47   2.0000      -0.642478       -17.4827
  48   2.0000      -0.616037       -16.7632
  49   2.0000      -0.585667       -15.9368
  50   2.0000      -0.556670       -15.1478
  51   2.0000      -0.530783       -14.4433
  52   2.0000      -0.499208       -13.5841
  53   2.0000      -0.481676       -13.1071
  54   2.0000      -0.480817       -13.0837
  55   2.0000      -0.477814       -13.0020
  56   2.0000      -0.459638       -12.5074
  57   2.0000      -0.450859       -12.2685
  58   2.0000      -0.441871       -12.0239
  59   2.0000      -0.417990       -11.3741
  60   2.0000      -0.416608       -11.3365
  61   2.0000      -0.415125       -11.2961
  62   2.0000      -0.413201       -11.2438
  63   2.0000      -0.408826       -11.1247
  64   2.0000      -0.396310       -10.7841
  65   2.0000      -0.393708       -10.7133
  66   2.0000      -0.386860       -10.5270
  67   2.0000      -0.340536        -9.2665
  68   2.0000      -0.336961        -9.1692
  69   2.0000      -0.334877        -9.1125
  70   2.0000      -0.333933        -9.0868
  71   2.0000      -0.314051        -8.5458
  72   2.0000      -0.312578        -8.5057
  73   2.0000      -0.291633        -7.9357
  74   2.0000      -0.290698        -7.9103
  75   2.0000      -0.290285        -7.8990
  76   2.0000      -0.268438        -7.3046
  77   2.0000      -0.247684        -6.7398
  78   2.0000      -0.244388        -6.6501
  79   2.0000      -0.203406        -5.5350
  80   0.0000      -0.072753        -1.9797
  81   0.0000      -0.069010        -1.8779
  82   0.0000      -0.067490        -1.8365
  83   0.0000      -0.035442        -0.9644
  84   0.0000      -0.031578        -0.8593

MULLIKEN ATOMIC CHARGES
-----------------------
   0 C :   -0.462693
   1 C :    0.250870
   2 C :    0.250876
   3 C :   -0.462699
   4 C :    0.183278
   5 C :    0.183294
   6 Cl:   -0.101421
   7 Cl:   -0.101424
   8 O :   -0.086335
   9 C :    0.250872
  10 C :   -0.462679
  11 C :    0.183287
  12 C :    0.183263
  13 C :   -0.462711
  14 C :    0.250883
  15 O :   -0.086325
  16 Cl:   -0.101387
  17 Cl:   -0.101440
  18 H :    0.173118
  19 H :    0.173126
  20 H :    0.173123
  21 H :    0.173123
Sum of atomic charges:    0.0000000

LOEWDIN ATOMIC CHARGES
----------------------
   0 C :   -0.119194
   1 C :    0.223039
   2 C :    0.223040
   3 C :   -0.119198
   4 C :   -0.183975
   5 C :   -0.183976
   6 Cl:    0.159520
   7 Cl:    0.159519
   8 O :   -0.552978
   9 C :    0.223041
  10 C :   -0.119198
  11 C :   -0.183962
  12 C :   -0.183996
  13 C :   -0.119200
  14 C :    0.223036
  15 O :   -0.552971
  16 Cl:    0.159556
  17 Cl:    0.159500
  18 H :    0.197094
  19 H :    0.197103
  20 H :    0.197100
  21 H :    0.197101

  Mayer bond orders larger than 0.100000
B(  0-C ,  1-C ) :   1.2980 B(  0-C ,  5-C ) :   1.2675 B(  0-C , 18-H ) :   0.9561
B(  1-C ,  2-C ) :   1.4100 B(  1-C ,  4-C ) :   0.1011 B(  1-C , 15-O ) :   0.9467
B(  2-C ,  3-C ) :   1.2980 B(  2-C ,  5-C ) :   0.1011 B(  2-C ,  8-O ) :   0.9467
B(  3-C ,  4-C ) :   1.2676 B(  3-C , 19-H ) :   0.9560 B(  4-C ,  5-C ) :   1.2772
B(  4-C ,  7-Cl) :   1.0421 B(  5-C ,  6-Cl) :   1.0421 B(  8-O ,  9-C ) :   0.9467
B(  9-C , 10-C ) :   1.2980 B(  9-C , 12-C ) :   0.1012 B(  9-C , 14-C ) :   1.4100
B( 10-C , 11-C ) :   1.2676 B( 10-C , 20-H ) :   0.9560 B( 11-C , 12-C ) :   1.2772
B( 11-C , 14-C ) :   0.1011 B( 11-C , 17-Cl) :   1.0421 B( 12-C , 13-C ) :   1.2675
B( 12-C , 16-Cl) :   1.0422 B( 13-C , 14-C ) :   1.2980 B( 13-C , 21-H ) :   0.9560
B( 14-C , 15-O ) :   0.9467

Dispersion correction           -0.012456146
FINAL SINGLE POINT ENERGY     -2450.708112391829

DIPOLE MOMENT
-------------

Method             : SCF
Type of density    : Electron Density
Multiplicity       :   1
Irrep              :   0
Energy             : -2450.7071754689695808 Eh
Relativity type    :
Basis              : AO
                                X                 Y                 Z
Electronic contribution:     -0.000070027      -0.000079667      -0.018717712
Nuclear contribution   :     -0.000014405       0.000008718       0.019769295
                        -----------------------------------------
Total Dipole Moment    :     -0.000084432      -0.000070950       0.001051584
                        -----------------------------------------
Magnitude (a.u.)       :      0.001057351
Magnitude (Debye)      :      0.002687572

Rotational constants in cm-1:             0.029137             0.003679             0.003266
Rotational constants in MHz :           873.519954           110.280368            97.918437

                             ****ORCA TERMINATED NORMALLY****
TOTAL RUN TIME: 0 days 0 hours 0 minutes 54 seconds 385 msec
