                         Program Version 6.0.0  -   RELEASE  -
|  1> ! r2scan-3c def2/J RI DEFGRID2 scfconv6 printgap
|  2> %output
|  3>     printlevel normal
|  4> end
|  5> %cpcm
|  6>     smd true
|  7>     smdsolvent "water"
|  8> end
|  9> * xyz 0 1
| 10> C 2.3613456756 -1.3902280444 0.0012182862
| 11> C 1.1627199199 -0.6991439534 0.0031353841
| 12> C 1.1627383881 0.6991326164 0.0032277034
| 13> C 2.3613484805 1.3902507199 0.0016338172
| 14> C 3.5627426342 0.6943385552 -0.0001582493
| 15> C 3.5627402996 -0.6943204181 -0.0004466613
| 16> Cl 5.050851553 -1.5695524085 -0.0029784358
| 17> Cl 5.0508703993 1.5695453877 -0.0022296313
| 18> O 7.6408e-06 1.4269670796 0.0048134414
| 19> C -1.1627260976 0.6991296202 0.0031898735
| 20> C -2.3613363197 1.3902337631 0.0013384164
| 21> C -3.5627345517 0.6943303097 -0.0004284369
| 22> C -3.562784836 -0.694350208 -0.0001802548
| 23> C -2.3613500326 -1.3902427231 0.0016440507
| 24> C -1.1627394133 -0.6991490734 0.0032833504
| 25> O -4.541e-06 -1.4269826596 0.0048541098
| 26> Cl -5.0508506987 -1.5695674712 -0.0022308673
| 27> Cl -5.0508605053 1.5695871195 -0.0030080036
| 28> H 2.3470438992 -2.4667770302 0.001068876
| 29> H 2.3470509664 2.4668344284 0.0018245901
| 30> H -2.3470171059 2.4667999798 0.0012322967
| 31> H -2.3470777858 -2.4668297746 0.0018479295
| 32> *
| 33>
| 34>                          ****END OF INPUT****

CARTESIAN COORDINATES (ANGSTROEM)
---------------------------------
  C      2.361346   -1.390228    0.001218
  C      1.162720   -0.699144    0.003135
  C      1.162738    0.699133    0.003228
  C      2.361348    1.390251    0.001634
  C      3.562743    0.694339   -0.000158
  C      3.562740   -0.694320   -0.000447
  Cl     5.050852   -1.569552   -0.002978
  Cl     5.050870    1.569545   -0.002230
  O      0.000008    1.426967    0.004813
  C     -1.162726    0.699130    0.003190
  C     -2.361336    1.390234    0.001338
  C     -3.562735    0.694330   -0.000428
  C     -3.562785   -0.694350   -0.000180
  C     -2.361350   -1.390243    0.001644
  C     -1.162739   -0.699149    0.003283
  O     -0.000005   -1.426983    0.004854
  Cl    -5.050851   -1.569567   -0.002231
  Cl    -5.050861    1.569587   -0.003008
  H      2.347044   -2.466777    0.001069
  H      2.347051    2.466834    0.001825
  H     -2.347017    2.466800    0.001232
  H     -2.347078   -2.466830    0.001848

 Total Charge           Charge          ....    0
 Multiplicity           Mult            ....    1
 Number of Electrons    NEL             ....  160
 Basis Dimension        Dim             ....  404

ORBITAL ENERGIES
----------------

  NO   OCC          E(Eh)            E(eV)
   0   2.0000    -101.233793     -2754.7116
   1   2.0000    -101.233789     -2754.7114
   2   2.0000    -101.233785     -2754.7113
   3   2.0000    -101.233784     -2754.7113
   4   2.0000     -19.031175      -517.8646
   5   2.0000     -19.031169      -517.8644
   6   2.0000     -10.127929      -275.5950
   7   2.0000     -10.127919      -275.5947
   8   2.0000     -10.127519      -275.5838
   9   2.0000     -10.127512      -275.5836
  10   2.0000     -10.118218      -275.3307
  11   2.0000     -10.118215      -275.3306
  12   2.0000     -10.117777      -275.3187
  13   2.0000     -10.117774      -275.3186
  14   2.0000     -10.063579      -273.8439
  15   2.0000     -10.063573      -273.8437
  16   2.0000     -10.063565      -273.8435
  17   2.0000     -10.063563      -273.8435
  18   2.0000      -9.389662      -255.5057
  19   2.0000      -9.389657      -255.5056
  20   2.0000      -9.389653      -255.5054
  21   2.0000      -9.389652      -255.5054
  22   2.0000      -7.136049      -194.1818
  23   2.0000      -7.136044      -194.1816
  24   2.0000      -7.136043      -194.1816
  25   2.0000      -7.136042      -194.1816
  26   2.0000      -7.125923      -193.9062
  27   2.0000      -7.125917      -193.9061
  28   2.0000      -7.125917      -193.9061
  29   2.0000      -7.125916      -193.9060
  30   2.0000      -7.125273      -193.8885
  31   2.0000      -7.125267      -193.8884
  32   2.0000      -7.125267      -193.8884
  33   2.0000      -7.125266      -193.8883
  34   2.0000      -1.101457       -29.9722
  35   2.0000      -1.068179       -29.0666
  36   2.0000      -0.899953       -24.4890
  37   2.0000      -0.894230       -24.3332
  38   2.0000      -0.838497       -22.8167
  39   2.0000      -0.835264       -22.7287
  40   2.0000      -0.834408       -22.7054
  41   2.0000      -0.805451       -21.9174
  42   2.0000      -0.760624       -20.6976
  43   2.0000      -0.726718       -19.7750
  44   2.0000      -0.723171       -19.6785
  45   2.0000      -0.691519       -18.8172
  46   2.0000      -0.640587       -17.4312
  47   2.0000      -0.631184       -17.1754
  48   2.0000      -0.604657       -16.4536
  49   2.0000      -0.575003       -15.6466
  50   2.0000      -0.548163       -14.9163
  51   2.0000      -0.520310       -14.1583
  52   2.0000      -0.491033       -13.3617
  53   2.0000      -0.473146       -12.8750
  54   2.0000      -0.472902       -12.8683
  55   2.0000      -0.466232       -12.6868
  56   2.0000      -0.451094       -12.2749
  57   2.0000      -0.436079       -11.8663
  58   2.0000      -0.426305       -11.6004
  59   2.0000      -0.410205       -11.1622
  60   2.0000      -0.407485       -11.0882
  61   2.0000      -0.407447       -11.0872
  62   2.0000      -0.402264       -10.9462
  63   2.0000      -0.400395       -10.8953
  64   2.0000      -0.390523       -10.6267
  65   2.0000      -0.386774       -10.5247
  66   2.0000      -0.375063       -10.2060
  67   2.0000      -0.333663        -9.0794
  68   2.0000      -0.333226        -9.0675
  69   2.0000      -0.331225        -9.0131
  70   2.0000      -0.323761        -8.8100
  71   2.0000      -0.311568        -8.4782
  72   2.0000      -0.309912        -8.4331
  73   2.0000      -0.289487        -7.8773
  74   2.0000      -0.288478        -7.8499
  75   2.0000      -0.284930        -7.7534
  76   2.0000      -0.259046        -7.0490
  77   2.0000      -0.241633        -6.5752
  78   2.0000      -0.234970        -6.3939
  79   2.0000      -0.194461        -5.2916
  80   0.0000      -0.063919        -1.7393
  81   0.0000      -0.057415        -1.5623
  82   0.0000      -0.056160        -1.5282
  83   0.0000      -0.028703        -0.7810
  84   0.0000      -0.023391        -0.6365

MULLIKEN ATOMIC CHARGES
-----------------------
   0 C :   -0.450941
   1 C :    0.237248
   2 C :    0.237254
   3 C :   -0.450949
   4 C :    0.172840
   5 C :    0.172854
   6 Cl:   -0.123062
   7 Cl:   -0.123065
   8 O :   -0.088203
   9 C :    0.237251
  10 C :   -0.450929
  11 C :    0.172849
  12 C :    0.172822
  13 C :   -0.450958
  14 C :    0.237260
  15 O :   -0.088192
  16 Cl:   -0.123024
  17 Cl:   -0.123082
  18 H :    0.208002
  19 H :    0.208012
  20 H :    0.208008
  21 H :    0.208008
Sum of atomic charges:    0.0000000

LOEWDIN ATOMIC CHARGES
----------------------
   0 C :   -0.115016
   1 C :    0.228342
   2 C :    0.228342
   3 C :   -0.115020
   4 C :   -0.189761
   5 C :   -0.189763
   6 Cl:    0.143051
   7 Cl:    0.143050
   8 O :   -0.552309
   9 C :    0.228344
  10 C :   -0.115021
  11 C :   -0.189749
  12 C :   -0.189783
  13 C :   -0.115022
  14 C :    0.228339
  15 O :   -0.552303
  16 Cl:    0.143090
  17 Cl:    0.143030
  18 H :    0.209533
  19 H :    0.209544
  20 H :    0.209540
  21 H :    0.209541

  Mayer bond orders larger than 0.100000
B(  0-C ,  1-C ) :   1.3256 B(  0-C ,  5-C ) :   1.2616 B(  0-C , 18-H ) :   0.9394
B(  1-C ,  2-C ) :   1.4017 B(  1-C , 15-O ) :   0.9463 B(  2-C ,  3-C ) :   1.3255
B(  2-C ,  8-O ) :   0.9463 B(  3-C ,  4-C ) :   1.2616 B(  3-C , 19-H ) :   0.9394
B(  4-C ,  5-C ) :   1.2563 B(  4-C ,  7-Cl) :   1.0337 B(  5-C ,  6-Cl) :   1.0337
B(  8-O ,  9-C ) :   0.9463 B(  9-C , 10-C ) :   1.3256 B(  9-C , 14-C ) :   1.4017
B( 10-C , 11-C ) :   1.2616 B( 10-C , 20-H ) :   0.9394 B( 11-C , 12-C ) :   1.2563
B( 11-C , 17-Cl) :   1.0337 B( 12-C , 13-C ) :   1.2616 B( 12-C , 16-Cl) :   1.0337
B( 13-C , 14-C ) :   1.3256 B( 13-C , 21-H ) :   0.9394 B( 14-C , 15-O ) :   0.9463

Dispersion correction           -0.012456146
FINAL SINGLE POINT ENERGY     -2450.710102170969

DIPOLE MOMENT
-------------

Method             : SCF
Type of density    : Electron Density
Multiplicity       :   1
Irrep              :   0
Energy             : -2450.7091652481094570 Eh
Relativity type    :
Basis              : AO
                                X                 Y                 Z
Electronic contribution:     -0.000087843      -0.000097027      -0.017985322
Nuclear contribution   :     -0.000014405       0.000008718       0.019769295
                        -----------------------------------------
Total Dipole Moment    :     -0.000102248      -0.000088309       0.001783973
                        -----------------------------------------
Magnitude (a.u.)       :      0.001789082
Magnitude (Debye)      :      0.004547484

Rotational constants in cm-1:             0.029137             0.003679             0.003266
Rotational constants in MHz :           873.519954           110.280368            97.918437

                             ****ORCA TERMINATED NORMALLY****
TOTAL RUN TIME: 0 days 0 hours 1 minutes 8 seconds 393 msec
