                         Program Version 6.0.0  -   RELEASE  -
|  1> ! r2scan-3c def2/J RI DEFGRID2 scfconv6 printgap
|  2> %output
|  3>     printlevel normal
|  4> end
|  5> * xyz 0 1
|  6> C -0.5556317361 1.360709026 0.0001362514
|  7> C 0.1467377075 0.2065423856 6.33515e-05
|  8> C -0.5267303061 -1.0835973395 5.83139e-05
|  9> O 0.0115530582 -2.1711280577 4.74708e-05
| 10> N -1.9074759099 -0.9647775717 1.31197e-05
| 11> C -2.6509974504 0.1906103304 -2.69994e-05
| 12> O -3.8640952733 0.191153981 -0.0001224835
| 13> N -1.9117258899 1.3487455552 5.33127e-05
| 14> Br 2.0422955473 0.193604784 -3.26915e-05
| 15> H -0.0695796726 2.3252355619 4.29279e-05
| 16> H -2.4343322302 -1.8343086188 2.66182e-05
| 17> H -2.4327304388 2.2197130384 3.79339e-05
| 18> *
| 19>
| 20>                          ****END OF INPUT****

CARTESIAN COORDINATES (ANGSTROEM)
---------------------------------
  C     -0.555632    1.360709    0.000136
  C      0.146738    0.206542    0.000063
  C     -0.526730   -1.083597    0.000058
  O      0.011553   -2.171128    0.000047
  N     -1.907476   -0.964778    0.000013
  C     -2.650997    0.190610   -0.000027
  O     -3.864095    0.191154   -0.000122
  N     -1.911726    1.348746    0.000053
  Br     2.042296    0.193605   -0.000033
  H     -0.069580    2.325236    0.000043
  H     -2.434332   -1.834309    0.000027
  H     -2.432730    2.219713    0.000038

 Total Charge           Charge          ....    0
 Multiplicity           Mult            ....    1
 Number of Electrons    NEL             ....   92
 Basis Dimension        Dim             ....  223

ORBITAL ENERGIES
----------------

  NO   OCC          E(Eh)            E(eV)
   0   2.0000    -482.245989    -13122.5805
   1   2.0000     -62.317171     -1695.7364
   2   2.0000     -56.097761     -1526.4977
   3   2.0000     -56.094908     -1526.4200
   4   2.0000     -56.094819     -1526.4176
   5   2.0000     -18.945935      -515.5451
   6   2.0000     -18.942467      -515.4507
   7   2.0000     -14.256502      -387.9391
   8   2.0000     -14.236708      -387.4005
   9   2.0000     -10.197798      -277.4962
  10   2.0000     -10.167420      -276.6696
  11   2.0000     -10.134270      -275.7675
  12   2.0000     -10.117043      -275.2987
  13   2.0000      -8.648953      -235.3500
  14   2.0000      -6.457451      -175.7162
  15   2.0000      -6.442410      -175.3069
  16   2.0000      -6.441894      -175.2928
  17   2.0000      -2.554762       -69.5186
  18   2.0000      -2.551024       -69.4169
  19   2.0000      -2.550672       -69.4073
  20   2.0000      -2.539487       -69.1029
  21   2.0000      -2.539478       -69.1027
  22   2.0000      -1.066235       -29.0137
  23   2.0000      -1.029019       -28.0010
  24   2.0000      -0.971977       -26.4488
  25   2.0000      -0.920140       -25.0383
  26   2.0000      -0.821461       -22.3531
  27   2.0000      -0.736239       -20.0341
  28   2.0000      -0.680494       -18.5172
  29   2.0000      -0.656884       -17.8747
  30   2.0000      -0.568809       -15.4781
  31   2.0000      -0.558354       -15.1936
  32   2.0000      -0.514200       -13.9921
  33   2.0000      -0.475492       -12.9388
  34   2.0000      -0.460559       -12.5324
  35   2.0000      -0.424612       -11.5543
  36   2.0000      -0.404707       -11.0126
  37   2.0000      -0.400138       -10.8883
  38   2.0000      -0.399028       -10.8581
  39   2.0000      -0.371205       -10.1010
  40   2.0000      -0.304283        -8.2800
  41   2.0000      -0.282127        -7.6771
  42   2.0000      -0.279679        -7.6105
  43   2.0000      -0.276202        -7.5159
  44   2.0000      -0.250034        -6.8038
  45   2.0000      -0.232297        -6.3211
  46   0.0000      -0.091002        -2.4763
  47   0.0000      -0.045189        -1.2297
  48   0.0000      -0.035475        -0.9653
  49   0.0000       0.037491         1.0202
  50   0.0000       0.061369         1.6699

MULLIKEN ATOMIC CHARGES
-----------------------
   0 C :   -0.112472
   1 C :    0.008202
   2 C :    0.183781
   3 O :   -0.376422
   4 N :   -0.089825
   5 C :    0.238656
   6 O :   -0.418240
   7 N :   -0.083172
   8 Br:   -0.067814
   9 H :    0.157490
  10 H :    0.280693
  11 H :    0.279123
Sum of atomic charges:   -0.0000000

LOEWDIN ATOMIC CHARGES
----------------------
   0 C :    0.117702
   1 C :   -0.210453
   2 C :    0.337602
   3 O :   -0.420105
   4 N :   -0.437989
   5 C :    0.438941
   6 O :   -0.383949
   7 N :   -0.512621
   8 Br:    0.262497
   9 H :    0.206377
  10 H :    0.304163
  11 H :    0.297834

  Mayer bond orders larger than 0.100000
B(  0-C ,  1-C ) :   1.5249 B(  0-C ,  7-N ) :   1.1697 B(  0-C ,  9-H ) :   0.9435
B(  1-C ,  2-C ) :   0.9788 B(  1-C ,  8-Br) :   1.0720 B(  2-C ,  3-O ) :   2.0328
B(  2-C ,  4-N ) :   1.0511 B(  4-N ,  5-C ) :   1.0867 B(  4-N , 10-H ) :   0.8992
B(  5-C ,  6-O ) :   1.9786 B(  5-C ,  7-N ) :   1.0775 B(  7-N , 11-H ) :   0.9026

Dispersion correction           -0.004513020
FINAL SINGLE POINT ENERGY     -2988.284273465774

DIPOLE MOMENT
-------------

Method             : SCF
Type of density    : Electron Density
Multiplicity       :   1
Irrep              :   0
Energy             : -2988.2921652038162392 Eh
Relativity type    :
Basis              : AO
                                X                 Y                 Z
Electronic contribution:     23.530215268       0.885679353      -0.000322896
Nuclear contribution   :    -23.672441919       0.718288423       0.000403640
                        -----------------------------------------
Total Dipole Moment    :     -0.142226651       1.603967775       0.000080744
                        -----------------------------------------
Magnitude (a.u.)       :      1.610261175
Magnitude (Debye)      :      4.092958634

Rotational constants in cm-1:             0.099979             0.021669             0.017809
Rotational constants in MHz :          2997.288258           649.624365           533.906810

                             ****ORCA TERMINATED NORMALLY****
TOTAL RUN TIME: 0 days 0 hours 0 minutes 24 seconds 761 msec
