                         Program Version 6.0.0  -   RELEASE  -
|  1> ! r2scan-3c def2/J RI DEFGRID2 scfconv6 printgap
|  2> %output
|  3>     printlevel normal
|  4> end
|  5> %cpcm
|  6>     smd true
|  7>     smdsolvent "water"
|  8> end
|  9> * xyz 0 1
| 10> C -0.5556317361 1.360709026 0.0001362514
| 11> C 0.1467377075 0.2065423856 6.33515e-05
| 12> C -0.5267303061 -1.0835973395 5.83139e-05
| 13> O 0.0115530582 -2.1711280577 4.74708e-05
| 14> N -1.9074759099 -0.9647775717 1.31197e-05
| 15> C -2.6509974504 0.1906103304 -2.69994e-05
| 16> O -3.8640952733 0.191153981 -0.0001224835
| 17> N -1.9117258899 1.3487455552 5.33127e-05
| 18> Br 2.0422955473 0.193604784 -3.26915e-05
| 19> H -0.0695796726 2.3252355619 4.29279e-05
| 20> H -2.4343322302 -1.8343086188 2.66182e-05
| 21> H -2.4327304388 2.2197130384 3.79339e-05
| 22> *
| 23>
| 24>                          ****END OF INPUT****

CARTESIAN COORDINATES (ANGSTROEM)
---------------------------------
  C     -0.555632    1.360709    0.000136
  C      0.146738    0.206542    0.000063
  C     -0.526730   -1.083597    0.000058
  O      0.011553   -2.171128    0.000047
  N     -1.907476   -0.964778    0.000013
  C     -2.650997    0.190610   -0.000027
  O     -3.864095    0.191154   -0.000122
  N     -1.911726    1.348746    0.000053
  Br     2.042296    0.193605   -0.000033
  H     -0.069580    2.325236    0.000043
  H     -2.434332   -1.834309    0.000027
  H     -2.432730    2.219713    0.000038

 Total Charge           Charge          ....    0
 Multiplicity           Mult            ....    1
 Number of Electrons    NEL             ....   92
 Basis Dimension        Dim             ....  223

ORBITAL ENERGIES
----------------

  NO   OCC          E(Eh)            E(eV)
   0   2.0000    -482.241527    -13122.4591
   1   2.0000     -62.312776     -1695.6168
   2   2.0000     -56.093310     -1526.3766
   3   2.0000     -56.090531     -1526.3010
   4   2.0000     -56.090455     -1526.2989
   5   2.0000     -18.946140      -515.5507
   6   2.0000     -18.945244      -515.5263
   7   2.0000     -14.237485      -387.4217
   8   2.0000     -14.226978      -387.1358
   9   2.0000     -10.192650      -277.3561
  10   2.0000     -10.166603      -276.6473
  11   2.0000     -10.117518      -275.3117
  12   2.0000     -10.105251      -274.9779
  13   2.0000      -8.644626      -235.2322
  14   2.0000      -6.452836      -175.5906
  15   2.0000      -6.438192      -175.1921
  16   2.0000      -6.437763      -175.1804
  17   2.0000      -2.550236       -69.3955
  18   2.0000      -2.546574       -69.2958
  19   2.0000      -2.546286       -69.2880
  20   2.0000      -2.535388       -68.9914
  21   2.0000      -2.535381       -68.9912
  22   2.0000      -1.061121       -28.8746
  23   2.0000      -1.031879       -28.0789
  24   2.0000      -0.960047       -26.1242
  25   2.0000      -0.909114       -24.7382
  26   2.0000      -0.812310       -22.1041
  27   2.0000      -0.726704       -19.7746
  28   2.0000      -0.664775       -18.0894
  29   2.0000      -0.645118       -17.5546
  30   2.0000      -0.552239       -15.0272
  31   2.0000      -0.546866       -14.8810
  32   2.0000      -0.493158       -13.4195
  33   2.0000      -0.464673       -12.6444
  34   2.0000      -0.453736       -12.3468
  35   2.0000      -0.429120       -11.6769
  36   2.0000      -0.407840       -11.0979
  37   2.0000      -0.397698       -10.8219
  38   2.0000      -0.392340       -10.6761
  39   2.0000      -0.358399        -9.7525
  40   2.0000      -0.299899        -8.1607
  41   2.0000      -0.282899        -7.6981
  42   2.0000      -0.279134        -7.5956
  43   2.0000      -0.275865        -7.5067
  44   2.0000      -0.256079        -6.9683
  45   2.0000      -0.224232        -6.1017
  46   0.0000      -0.078318        -2.1311
  47   0.0000      -0.036380        -0.9899
  48   0.0000      -0.030521        -0.8305
  49   0.0000       0.066591         1.8120
  50   0.0000       0.077125         2.0987

MULLIKEN ATOMIC CHARGES
-----------------------
   0 C :   -0.089170
   1 C :    0.006807
   2 C :    0.190277
   3 O :   -0.462702
   4 N :   -0.089476
   5 C :    0.268820
   6 O :   -0.502046
   7 N :   -0.089085
   8 Br:   -0.101310
   9 H :    0.207090
  10 H :    0.325444
  11 H :    0.335350
Sum of atomic charges:   -0.0000000

LOEWDIN ATOMIC CHARGES
----------------------
   0 C :    0.153534
   1 C :   -0.221445
   2 C :    0.341464
   3 O :   -0.493450
   4 N :   -0.415155
   5 C :    0.448029
   6 O :   -0.445716
   7 N :   -0.467142
   8 Br:    0.238573
   9 H :    0.226794
  10 H :    0.317077
  11 H :    0.317439

  Mayer bond orders larger than 0.100000
B(  0-C ,  1-C ) :   1.4714 B(  0-C ,  7-N ) :   1.2118 B(  0-C ,  9-H ) :   0.9386
B(  1-C ,  2-C ) :   0.9948 B(  1-C ,  8-Br) :   1.0360 B(  2-C ,  3-O ) :   1.9784
B(  2-C ,  4-N ) :   1.0669 B(  4-N ,  5-C ) :   1.0996 B(  4-N , 10-H ) :   0.8792
B(  5-C ,  6-O ) :   1.9151 B(  5-C ,  7-N ) :   1.1028 B(  7-N , 11-H ) :   0.8758

Dispersion correction           -0.004513020
FINAL SINGLE POINT ENERGY     -2988.307423757126

DIPOLE MOMENT
-------------

Method             : SCF
Type of density    : Electron Density
Multiplicity       :   1
Irrep              :   0
Energy             : -2988.3153154951678516 Eh
Relativity type    :
Basis              : AO
                                X                 Y                 Z
Electronic contribution:     23.385380960       1.663088640      -0.000278592
Nuclear contribution   :    -23.672441919       0.718288423       0.000403640
                        -----------------------------------------
Total Dipole Moment    :     -0.287060958       2.381377063       0.000125049
                        -----------------------------------------
Magnitude (a.u.)       :      2.398616419
Magnitude (Debye)      :      6.096798416

Rotational constants in cm-1:             0.099979             0.021669             0.017809
Rotational constants in MHz :          2997.288258           649.624365           533.906810

                             ****ORCA TERMINATED NORMALLY****
TOTAL RUN TIME: 0 days 0 hours 0 minutes 30 seconds 968 msec
