                         Program Version 6.0.0  -   RELEASE  -
|  1> ! r2scan-3c def2/J RI DEFGRID2 scfconv6 printgap
|  2> %output
|  3>     printlevel normal
|  4> end
|  5> * xyz 0 1
|  6> C 4.4465337639 -1.5359911096 -0.9712596652
|  7> C 4.6088561855 -0.0417855058 -0.7814636724
|  8> O 3.5480557455 0.5354065404 0.0006242965
|  9> P 2.0325535177 0.5822138131 -0.4939565594
| 10> S 1.8049685668 0.9270753479 -2.4039919318
| 11> O 1.4584718751 1.7109988706 0.4455101179
| 12> C 1.6972348407 1.7083146652 1.8767598834
| 13> C 0.6895362988 2.6396510011 2.5158023157
| 14> S 1.250039435 -1.2548790798 0.2451827624
| 15> C 0.0871860469 -1.6873001364 -1.0879265016
| 16> S -1.5870006676 -1.9967913609 -0.4872435966
| 17> P -2.0264814674 -0.0296001834 0.1932253687
| 18> S -1.4467129377 1.4470784249 -0.9549161274
| 19> O -1.4192339905 0.0559707875 1.6469081604
| 20> C -1.8094217881 -0.8731637655 2.6973561829
| 21> C -0.5975105318 -1.1740161833 3.5540999177
| 22> O -3.5848483886 -0.0890754317 0.506580089
| 23> C -4.5952516852 0.1866473022 -0.4792990058
| 24> C -4.6046237579 -0.8340141865 -1.5985965112
| 25> H 3.5889662246 -1.7366286056 -1.6117053932
| 26> H 5.3380047519 -1.9322600342 -1.4466064363
| 27> H 4.297586015 -2.027292574 -0.0131257729
| 28> H 4.635820573 0.4668535988 -1.7499467091
| 29> H 5.5071081769 0.1970992469 -0.2102741456
| 30> H 1.586454721 0.6831863716 2.2433154463
| 31> H 2.7228505674 2.0438475127 2.042523341
| 32> H 0.7903675627 3.6381805941 2.0997032221
| 33> H -0.3191499494 2.2844392507 2.319445843
| 34> H 0.862235842 2.6737025236 3.5867093673
| 35> H 0.4176495341 -2.6180402049 -1.5419983033
| 36> H 0.0818303437 -0.8721233124 -1.8170856906
| 37> H -2.6000913654 -0.3863778867 3.2702454398
| 38> H -2.2044078217 -1.7814531593 2.233899732
| 39> H 0.1773362176 -1.6487251917 2.9567644599
| 40> H -0.2044145138 -0.2568990425 3.983300375
| 41> H -0.8919924483 -1.8460387509 4.3536877354
| 42> H -5.5241830674 0.1669527034 0.0924628522
| 43> H -4.4225958871 1.1914899522 -0.8767831063
| 44> H -3.7002312365 -0.7377885138 -2.1977385387
| 45> H -4.6531643072 -1.8416367914 -1.1934536333
| 46> H -5.4656558796 -0.6582043156 -2.2354344635
| 47> *
| 48>
| 49>                          ****END OF INPUT****

CARTESIAN COORDINATES (ANGSTROEM)
---------------------------------
  C      4.446534   -1.535991   -0.971260
  C      4.608856   -0.041786   -0.781464
  O      3.548056    0.535407    0.000624
  P      2.032554    0.582214   -0.493957
  S      1.804969    0.927075   -2.403992
  O      1.458472    1.710999    0.445510
  C      1.697235    1.708315    1.876760
  C      0.689536    2.639651    2.515802
  S      1.250039   -1.254879    0.245183
  C      0.087186   -1.687300   -1.087927
  S     -1.587001   -1.996791   -0.487244
  P     -2.026481   -0.029600    0.193225
  S     -1.446713    1.447078   -0.954916
  O     -1.419234    0.055971    1.646908
  C     -1.809422   -0.873164    2.697356
  C     -0.597511   -1.174016    3.554100
  O     -3.584848   -0.089075    0.506580
  C     -4.595252    0.186647   -0.479299
  C     -4.604624   -0.834014   -1.598597
  H      3.588966   -1.736629   -1.611705
  H      5.338005   -1.932260   -1.446606
  H      4.297586   -2.027293   -0.013126
  H      4.635821    0.466854   -1.749947
  H      5.507108    0.197099   -0.210274
  H      1.586455    0.683186    2.243315
  H      2.722851    2.043848    2.042523
  H      0.790368    3.638181    2.099703
  H     -0.319150    2.284439    2.319446
  H      0.862236    2.673703    3.586709
  H      0.417650   -2.618040   -1.541998
  H      0.081830   -0.872123   -1.817086
  H     -2.600091   -0.386378    3.270245
  H     -2.204408   -1.781453    2.233900
  H      0.177336   -1.648725    2.956764
  H     -0.204415   -0.256899    3.983300
  H     -0.891992   -1.846039    4.353688
  H     -5.524183    0.166953    0.092463
  H     -4.422596    1.191490   -0.876783
  H     -3.700231   -0.737789   -2.197739
  H     -4.653164   -1.841637   -1.193454
  H     -5.465656   -0.658204   -2.235434

 Total Charge           Charge          ....    0
 Multiplicity           Mult            ....    1
 Number of Electrons    NEL             ....  202
 Basis Dimension        Dim             ....  539

ORBITAL ENERGIES
----------------

  NO   OCC          E(Eh)            E(eV)
   0   2.0000     -88.575185     -2410.2533
   1   2.0000     -88.569814     -2410.1072
   2   2.0000     -88.513903     -2408.5857
   3   2.0000     -88.513556     -2408.5763
   4   2.0000     -76.910678     -2092.8459
   5   2.0000     -76.907737     -2092.7659
   6   2.0000     -18.991706      -516.7906
   7   2.0000     -18.990637      -516.7615
   8   2.0000     -18.985619      -516.6250
   9   2.0000     -18.980576      -516.4877
  10   2.0000     -10.104029      -274.9446
  11   2.0000     -10.103472      -274.9295
  12   2.0000     -10.098496      -274.7941
  13   2.0000     -10.094797      -274.6934
  14   2.0000     -10.094711      -274.6910
  15   2.0000     -10.035522      -273.0804
  16   2.0000     -10.027994      -272.8756
  17   2.0000     -10.025430      -272.8058
  18   2.0000     -10.022494      -272.7259
  19   2.0000      -7.869742      -214.1466
  20   2.0000      -7.864587      -214.0063
  21   2.0000      -7.808666      -212.4846
  22   2.0000      -7.807983      -212.4660
  23   2.0000      -6.589088      -179.2982
  24   2.0000      -6.586097      -179.2168
  25   2.0000      -5.816641      -158.2788
  26   2.0000      -5.813347      -158.1892
  27   2.0000      -5.811395      -158.1361
  28   2.0000      -5.808422      -158.0552
  29   2.0000      -5.807036      -158.0175
  30   2.0000      -5.801684      -157.8718
  31   2.0000      -5.756443      -156.6408
  32   2.0000      -5.755806      -156.6234
  33   2.0000      -5.748924      -156.4362
  34   2.0000      -5.748556      -156.4262
  35   2.0000      -5.748154      -156.4152
  36   2.0000      -5.747998      -156.4110
  37   2.0000      -4.734961      -128.8448
  38   2.0000      -4.734041      -128.8198
  39   2.0000      -4.732440      -128.7762
  40   2.0000      -4.731867      -128.7606
  41   2.0000      -4.730917      -128.7348
  42   2.0000      -4.729723      -128.7023
  43   2.0000      -1.050615       -28.5887
  44   2.0000      -1.043786       -28.4029
  45   2.0000      -1.008977       -27.4557
  46   2.0000      -1.000824       -27.2338
  47   2.0000      -0.797626       -21.7045
  48   2.0000      -0.756823       -20.5942
  49   2.0000      -0.748759       -20.3748
  50   2.0000      -0.734108       -19.9761
  51   2.0000      -0.728124       -19.8133
  52   2.0000      -0.710462       -19.3327
  53   2.0000      -0.683109       -18.5883
  54   2.0000      -0.662291       -18.0219
  55   2.0000      -0.626359       -17.0441
  56   2.0000      -0.616665       -16.7803
  57   2.0000      -0.607524       -16.5316
  58   2.0000      -0.597522       -16.2594
  59   2.0000      -0.590553       -16.0698
  60   2.0000      -0.530921       -14.4471
  61   2.0000      -0.522896       -14.2287
  62   2.0000      -0.492803       -13.4099
  63   2.0000      -0.487248       -13.2587
  64   2.0000      -0.469136       -12.7658
  65   2.0000      -0.466301       -12.6887
  66   2.0000      -0.456428       -12.4200
  67   2.0000      -0.452214       -12.3054
  68   2.0000      -0.448786       -12.2121
  69   2.0000      -0.438865       -11.9421
  70   2.0000      -0.428621       -11.6634
  71   2.0000      -0.409054       -11.1309
  72   2.0000      -0.402482       -10.9521
  73   2.0000      -0.400327       -10.8934
  74   2.0000      -0.393800       -10.7158
  75   2.0000      -0.381203       -10.3731
  76   2.0000      -0.376568       -10.2469
  77   2.0000      -0.375932       -10.2296
  78   2.0000      -0.369177       -10.0458
  79   2.0000      -0.364031        -9.9058
  80   2.0000      -0.362774        -9.8716
  81   2.0000      -0.357492        -9.7278
  82   2.0000      -0.354532        -9.6473
  83   2.0000      -0.348621        -9.4865
  84   2.0000      -0.343163        -9.3379
  85   2.0000      -0.327769        -8.9191
  86   2.0000      -0.320318        -8.7163
  87   2.0000      -0.319477        -8.6934
  88   2.0000      -0.310805        -8.4574
  89   2.0000      -0.307477        -8.3669
  90   2.0000      -0.305622        -8.3164
  91   2.0000      -0.285532        -7.7697
  92   2.0000      -0.277129        -7.5411
  93   2.0000      -0.276027        -7.5111
  94   2.0000      -0.269464        -7.3325
  95   2.0000      -0.245380        -6.6771
  96   2.0000      -0.230737        -6.2787
  97   2.0000      -0.224819        -6.1176
  98   2.0000      -0.213238        -5.8025
  99   2.0000      -0.204318        -5.5598
 100   2.0000      -0.196855        -5.3567
 101   0.0000      -0.041419        -1.1271
 102   0.0000      -0.032457        -0.8832
 103   0.0000      -0.008924        -0.2428
 104   0.0000       0.014311         0.3894
 105   0.0000       0.017710         0.4819

MULLIKEN ATOMIC CHARGES
-----------------------
   0 C :   -0.431901
   1 C :   -0.172705
   2 O :   -0.283183
   3 P :    0.665335
   4 S :   -0.433244
   5 O :   -0.264416
   6 C :   -0.097718
   7 C :   -0.483657
   8 S :   -0.193300
   9 C :   -0.234222
  10 S :   -0.153116
  11 P :    0.605034
  12 S :   -0.382237
  13 O :   -0.254202
  14 C :   -0.088323
  15 C :   -0.484375
  16 O :   -0.288986
  17 C :   -0.161276
  18 C :   -0.454617
  19 H :    0.171176
  20 H :    0.146033
  21 H :    0.153584
  22 H :    0.175133
  23 H :    0.145949
  24 H :    0.148879
  25 H :    0.156599
  26 H :    0.155106
  27 H :    0.185874
  28 H :    0.139717
  29 H :    0.192137
  30 H :    0.224764
  31 H :    0.156016
  32 H :    0.154244
  33 H :    0.174313
  34 H :    0.157638
  35 H :    0.147193
  36 H :    0.146702
  37 H :    0.175107
  38 H :    0.183824
  39 H :    0.152435
  40 H :    0.148686
Sum of atomic charges:   -0.0000000

LOEWDIN ATOMIC CHARGES
----------------------
   0 C :   -0.409912
   1 C :    0.020279
   2 O :   -0.675842
   3 P :    0.378406
   4 S :   -0.097430
   5 O :   -0.653427
   6 C :    0.023501
   7 C :   -0.391884
   8 S :    0.131166
   9 C :   -0.418994
  10 S :    0.124490
  11 P :    0.372175
  12 S :   -0.049735
  13 O :   -0.669213
  14 C :    0.021362
  15 C :   -0.396484
  16 O :   -0.669709
  17 C :    0.021825
  18 C :   -0.409234
  19 H :    0.163517
  20 H :    0.157725
  21 H :    0.160080
  22 H :    0.180244
  23 H :    0.178481
  24 H :    0.174264
  25 H :    0.174691
  26 H :    0.163172
  27 H :    0.174761
  28 H :    0.156648
  29 H :    0.179151
  30 H :    0.202172
  31 H :    0.175839
  32 H :    0.176878
  33 H :    0.165551
  34 H :    0.159835
  35 H :    0.159492
  36 H :    0.179094
  37 H :    0.180909
  38 H :    0.167575
  39 H :    0.158964
  40 H :    0.159617

  Mayer bond orders larger than 0.100000
B(  0-C ,  1-C ) :   0.9162 B(  0-C , 19-H ) :   0.9677 B(  0-C , 20-H ) :   0.9580
B(  0-C , 21-H ) :   0.9661 B(  1-C ,  2-O ) :   0.8274 B(  1-C , 22-H ) :   0.9702
B(  1-C , 23-H ) :   0.9613 B(  2-O ,  3-P ) :   1.0340 B(  3-P ,  4-S ) :   1.8254
B(  3-P ,  5-O ) :   1.1777 B(  3-P ,  8-S ) :   1.0046 B(  5-O ,  6-C ) :   0.7331
B(  6-C ,  7-C ) :   0.9376 B(  6-C , 24-H ) :   0.9507 B(  6-C , 25-H ) :   0.9435
B(  7-C , 26-H ) :   0.9674 B(  7-C , 27-H ) :   0.9650 B(  7-C , 28-H ) :   0.9674
B(  8-S ,  9-C ) :   0.8889 B(  9-C , 10-S ) :   0.9183 B(  9-C , 29-H ) :   0.9148
B(  9-C , 30-H ) :   0.9057 B( 10-S , 11-P ) :   1.0082 B( 11-P , 12-S ) :   1.8904
B( 11-P , 13-O ) :   1.1016 B( 11-P , 16-O ) :   1.0425 B( 13-O , 14-C ) :   0.7469
B( 14-C , 15-C ) :   0.9430 B( 14-C , 31-H ) :   0.9492 B( 14-C , 32-H ) :   0.9547
B( 15-C , 33-H ) :   0.9667 B( 15-C , 34-H ) :   0.9725 B( 15-C , 35-H ) :   0.9628
B( 16-O , 17-C ) :   0.8250 B( 17-C , 18-C ) :   0.9155 B( 17-C , 36-H ) :   0.9612
B( 17-C , 37-H ) :   0.9687 B( 18-C , 38-H ) :   0.9625 B( 18-C , 39-H ) :   0.9677
B( 18-C , 40-H ) :   0.9568

Dispersion correction           -0.022571090
FINAL SINGLE POINT ENERGY     -2932.456395427083

DIPOLE MOMENT
-------------

Method             : SCF
Type of density    : Electron Density
Multiplicity       :   1
Irrep              :   0
Energy             : -2932.4804872261124729 Eh
Relativity type    :
Basis              : AO
                                X                 Y                 Z
Electronic contribution:     -0.207167649       3.909855826     -12.283757563
Nuclear contribution   :      0.013061792      -5.124298901      13.815954070
                        -----------------------------------------
Total Dipole Moment    :     -0.194105858      -1.214443076       1.532196507
                        -----------------------------------------
Magnitude (a.u.)       :      1.964732858
Magnitude (Debye)      :      4.993954049

Rotational constants in cm-1:             0.012004             0.005635             0.005231
Rotational constants in MHz :           359.872277           168.934390           156.822249

                             ****ORCA TERMINATED NORMALLY****
TOTAL RUN TIME: 0 days 0 hours 1 minutes 21 seconds 829 msec
