                         Program Version 6.0.0  -   RELEASE  -
|  1> ! r2scan-3c def2/J RI DEFGRID2 scfconv6 printgap
|  2> %output
|  3>     printlevel normal
|  4> end
|  5> %cpcm
|  6>     smd true
|  7>     smdsolvent "water"
|  8> end
|  9> * xyz 0 1
| 10> C 4.4465337639 -1.5359911096 -0.9712596652
| 11> C 4.6088561855 -0.0417855058 -0.7814636724
| 12> O 3.5480557455 0.5354065404 0.0006242965
| 13> P 2.0325535177 0.5822138131 -0.4939565594
| 14> S 1.8049685668 0.9270753479 -2.4039919318
| 15> O 1.4584718751 1.7109988706 0.4455101179
| 16> C 1.6972348407 1.7083146652 1.8767598834
| 17> C 0.6895362988 2.6396510011 2.5158023157
| 18> S 1.250039435 -1.2548790798 0.2451827624
| 19> C 0.0871860469 -1.6873001364 -1.0879265016
| 20> S -1.5870006676 -1.9967913609 -0.4872435966
| 21> P -2.0264814674 -0.0296001834 0.1932253687
| 22> S -1.4467129377 1.4470784249 -0.9549161274
| 23> O -1.4192339905 0.0559707875 1.6469081604
| 24> C -1.8094217881 -0.8731637655 2.6973561829
| 25> C -0.5975105318 -1.1740161833 3.5540999177
| 26> O -3.5848483886 -0.0890754317 0.506580089
| 27> C -4.5952516852 0.1866473022 -0.4792990058
| 28> C -4.6046237579 -0.8340141865 -1.5985965112
| 29> H 3.5889662246 -1.7366286056 -1.6117053932
| 30> H 5.3380047519 -1.9322600342 -1.4466064363
| 31> H 4.297586015 -2.027292574 -0.0131257729
| 32> H 4.635820573 0.4668535988 -1.7499467091
| 33> H 5.5071081769 0.1970992469 -0.2102741456
| 34> H 1.586454721 0.6831863716 2.2433154463
| 35> H 2.7228505674 2.0438475127 2.042523341
| 36> H 0.7903675627 3.6381805941 2.0997032221
| 37> H -0.3191499494 2.2844392507 2.319445843
| 38> H 0.862235842 2.6737025236 3.5867093673
| 39> H 0.4176495341 -2.6180402049 -1.5419983033
| 40> H 0.0818303437 -0.8721233124 -1.8170856906
| 41> H -2.6000913654 -0.3863778867 3.2702454398
| 42> H -2.2044078217 -1.7814531593 2.233899732
| 43> H 0.1773362176 -1.6487251917 2.9567644599
| 44> H -0.2044145138 -0.2568990425 3.983300375
| 45> H -0.8919924483 -1.8460387509 4.3536877354
| 46> H -5.5241830674 0.1669527034 0.0924628522
| 47> H -4.4225958871 1.1914899522 -0.8767831063
| 48> H -3.7002312365 -0.7377885138 -2.1977385387
| 49> H -4.6531643072 -1.8416367914 -1.1934536333
| 50> H -5.4656558796 -0.6582043156 -2.2354344635
| 51> *
| 52>
| 53>                          ****END OF INPUT****

CARTESIAN COORDINATES (ANGSTROEM)
---------------------------------
  C      4.446534   -1.535991   -0.971260
  C      4.608856   -0.041786   -0.781464
  O      3.548056    0.535407    0.000624
  P      2.032554    0.582214   -0.493957
  S      1.804969    0.927075   -2.403992
  O      1.458472    1.710999    0.445510
  C      1.697235    1.708315    1.876760
  C      0.689536    2.639651    2.515802
  S      1.250039   -1.254879    0.245183
  C      0.087186   -1.687300   -1.087927
  S     -1.587001   -1.996791   -0.487244
  P     -2.026481   -0.029600    0.193225
  S     -1.446713    1.447078   -0.954916
  O     -1.419234    0.055971    1.646908
  C     -1.809422   -0.873164    2.697356
  C     -0.597511   -1.174016    3.554100
  O     -3.584848   -0.089075    0.506580
  C     -4.595252    0.186647   -0.479299
  C     -4.604624   -0.834014   -1.598597
  H      3.588966   -1.736629   -1.611705
  H      5.338005   -1.932260   -1.446606
  H      4.297586   -2.027293   -0.013126
  H      4.635821    0.466854   -1.749947
  H      5.507108    0.197099   -0.210274
  H      1.586455    0.683186    2.243315
  H      2.722851    2.043848    2.042523
  H      0.790368    3.638181    2.099703
  H     -0.319150    2.284439    2.319446
  H      0.862236    2.673703    3.586709
  H      0.417650   -2.618040   -1.541998
  H      0.081830   -0.872123   -1.817086
  H     -2.600091   -0.386378    3.270245
  H     -2.204408   -1.781453    2.233900
  H      0.177336   -1.648725    2.956764
  H     -0.204415   -0.256899    3.983300
  H     -0.891992   -1.846039    4.353688
  H     -5.524183    0.166953    0.092463
  H     -4.422596    1.191490   -0.876783
  H     -3.700231   -0.737789   -2.197739
  H     -4.653164   -1.841637   -1.193454
  H     -5.465656   -0.658204   -2.235434

 Total Charge           Charge          ....    0
 Multiplicity           Mult            ....    1
 Number of Electrons    NEL             ....  202
 Basis Dimension        Dim             ....  539

ORBITAL ENERGIES
----------------

  NO   OCC          E(Eh)            E(eV)
   0   2.0000     -88.577342     -2410.3120
   1   2.0000     -88.573076     -2410.1959
   2   2.0000     -88.526926     -2408.9401
   3   2.0000     -88.524470     -2408.8733
   4   2.0000     -76.917026     -2093.0187
   5   2.0000     -76.916598     -2093.0070
   6   2.0000     -18.993649      -516.8435
   7   2.0000     -18.991569      -516.7869
   8   2.0000     -18.990756      -516.7648
   9   2.0000     -18.989212      -516.7227
  10   2.0000     -10.102510      -274.9033
  11   2.0000     -10.091273      -274.5975
  12   2.0000     -10.091094      -274.5926
  13   2.0000     -10.089738      -274.5557
  14   2.0000     -10.088298      -274.5166
  15   2.0000     -10.018897      -272.6281
  16   2.0000     -10.018385      -272.6141
  17   2.0000     -10.018297      -272.6117
  18   2.0000     -10.016863      -272.5727
  19   2.0000      -7.871821      -214.2031
  20   2.0000      -7.867730      -214.0918
  21   2.0000      -7.822088      -212.8498
  22   2.0000      -7.819372      -212.7759
  23   2.0000      -6.595433      -179.4709
  24   2.0000      -6.595039      -179.4601
  25   2.0000      -5.818754      -158.3363
  26   2.0000      -5.815452      -158.2465
  27   2.0000      -5.814587      -158.2230
  28   2.0000      -5.811598      -158.1416
  29   2.0000      -5.809071      -158.0729
  30   2.0000      -5.804763      -157.9556
  31   2.0000      -5.769739      -157.0026
  32   2.0000      -5.767059      -156.9297
  33   2.0000      -5.762407      -156.8031
  34   2.0000      -5.761964      -156.7910
  35   2.0000      -5.759540      -156.7251
  36   2.0000      -5.759434      -156.7222
  37   2.0000      -4.741174      -129.0139
  38   2.0000      -4.740864      -129.0055
  39   2.0000      -4.740174      -128.9867
  40   2.0000      -4.739961      -128.9809
  41   2.0000      -4.739200      -128.9602
  42   2.0000      -4.738532      -128.9420
  43   2.0000      -1.051908       -28.6239
  44   2.0000      -1.050474       -28.5849
  45   2.0000      -1.009459       -27.4688
  46   2.0000      -1.007036       -27.4029
  47   2.0000      -0.798754       -21.7352
  48   2.0000      -0.753665       -20.5083
  49   2.0000      -0.745762       -20.2932
  50   2.0000      -0.724704       -19.7202
  51   2.0000      -0.723347       -19.6833
  52   2.0000      -0.710801       -19.3419
  53   2.0000      -0.688569       -18.7369
  54   2.0000      -0.669916       -18.2293
  55   2.0000      -0.626609       -17.0509
  56   2.0000      -0.614293       -16.7158
  57   2.0000      -0.598588       -16.2884
  58   2.0000      -0.597364       -16.2551
  59   2.0000      -0.588410       -16.0114
  60   2.0000      -0.527618       -14.3572
  61   2.0000      -0.521718       -14.1967
  62   2.0000      -0.488712       -13.2985
  63   2.0000      -0.487523       -13.2662
  64   2.0000      -0.469768       -12.7830
  65   2.0000      -0.466634       -12.6978
  66   2.0000      -0.451150       -12.2764
  67   2.0000      -0.448888       -12.2149
  68   2.0000      -0.444012       -12.0822
  69   2.0000      -0.436785       -11.8855
  70   2.0000      -0.424549       -11.5526
  71   2.0000      -0.405357       -11.0303
  72   2.0000      -0.404276       -11.0009
  73   2.0000      -0.397000       -10.8029
  74   2.0000      -0.389659       -10.6032
  75   2.0000      -0.379900       -10.3376
  76   2.0000      -0.377477       -10.2717
  77   2.0000      -0.369689       -10.0598
  78   2.0000      -0.362286        -9.8583
  79   2.0000      -0.358398        -9.7525
  80   2.0000      -0.357132        -9.7181
  81   2.0000      -0.351163        -9.5556
  82   2.0000      -0.349816        -9.5190
  83   2.0000      -0.344830        -9.3833
  84   2.0000      -0.340910        -9.2766
  85   2.0000      -0.325693        -8.8626
  86   2.0000      -0.318869        -8.6769
  87   2.0000      -0.314823        -8.5668
  88   2.0000      -0.312502        -8.5036
  89   2.0000      -0.304985        -8.2991
  90   2.0000      -0.304300        -8.2804
  91   2.0000      -0.282817        -7.6958
  92   2.0000      -0.278889        -7.5890
  93   2.0000      -0.277867        -7.5612
  94   2.0000      -0.273061        -7.4304
  95   2.0000      -0.247838        -6.7440
  96   2.0000      -0.242409        -6.5963
  97   2.0000      -0.235380        -6.4050
  98   2.0000      -0.223837        -6.0909
  99   2.0000      -0.213842        -5.8189
 100   2.0000      -0.209622        -5.7041
 101   0.0000      -0.044922        -1.2224
 102   0.0000      -0.038927        -1.0593
 103   0.0000      -0.012907        -0.3512
 104   0.0000       0.007799         0.2122
 105   0.0000       0.014077         0.3831

MULLIKEN ATOMIC CHARGES
-----------------------
   0 C :   -0.466447
   1 C :   -0.167318
   2 O :   -0.307091
   3 P :    0.677374
   4 S :   -0.495097
   5 O :   -0.297951
   6 C :   -0.099489
   7 C :   -0.520376
   8 S :   -0.180814
   9 C :   -0.233081
  10 S :   -0.148919
  11 P :    0.634911
  12 S :   -0.457339
  13 O :   -0.277734
  14 C :   -0.090535
  15 C :   -0.510383
  16 O :   -0.310459
  17 C :   -0.157864
  18 C :   -0.489539
  19 H :    0.171070
  20 H :    0.170417
  21 H :    0.165395
  22 H :    0.177650
  23 H :    0.173054
  24 H :    0.172652
  25 H :    0.175953
  26 H :    0.167235
  27 H :    0.174590
  28 H :    0.171481
  29 H :    0.233498
  30 H :    0.215943
  31 H :    0.177584
  32 H :    0.166582
  33 H :    0.171303
  34 H :    0.173263
  35 H :    0.170326
  36 H :    0.174659
  37 H :    0.178188
  38 H :    0.175548
  39 H :    0.168796
  40 H :    0.172965
Sum of atomic charges:    0.0000000

LOEWDIN ATOMIC CHARGES
----------------------
   0 C :   -0.411704
   1 C :    0.025048
   2 O :   -0.684528
   3 P :    0.379819
   4 S :   -0.143841
   5 O :   -0.680002
   6 C :    0.028311
   7 C :   -0.395211
   8 S :    0.145566
   9 C :   -0.413452
  10 S :    0.135050
  11 P :    0.378273
  12 S :   -0.103848
  13 O :   -0.682158
  14 C :    0.027969
  15 C :   -0.396890
  16 O :   -0.676802
  17 C :    0.026450
  18 C :   -0.411953
  19 H :    0.161051
  20 H :    0.166681
  21 H :    0.163333
  22 H :    0.180680
  23 H :    0.189990
  24 H :    0.182384
  25 H :    0.183455
  26 H :    0.164126
  27 H :    0.168329
  28 H :    0.170172
  29 H :    0.195355
  30 H :    0.198676
  31 H :    0.184821
  32 H :    0.181521
  33 H :    0.163852
  34 H :    0.165047
  35 H :    0.168444
  36 H :    0.190941
  37 H :    0.181139
  38 H :    0.162031
  39 H :    0.163533
  40 H :    0.168338

  Mayer bond orders larger than 0.100000
B(  0-C ,  1-C ) :   0.9073 B(  0-C , 19-H ) :   0.9674 B(  0-C , 20-H ) :   0.9530
B(  0-C , 21-H ) :   0.9639 B(  1-C ,  2-O ) :   0.8152 B(  1-C , 22-H ) :   0.9679
B(  1-C , 23-H ) :   0.9508 B(  2-O ,  3-P ) :   1.0428 B(  3-P ,  4-S ) :   1.7922
B(  3-P ,  5-O ) :   1.1788 B(  3-P ,  8-S ) :   1.0319 B(  5-O ,  6-C ) :   0.7228
B(  6-C ,  7-C ) :   0.9258 B(  6-C , 24-H ) :   0.9423 B(  6-C , 25-H ) :   0.9337
B(  7-C , 26-H ) :   0.9685 B(  7-C , 27-H ) :   0.9669 B(  7-C , 28-H ) :   0.9590
B(  8-S ,  9-C ) :   0.8804 B(  9-C , 10-S ) :   0.9111 B(  9-C , 29-H ) :   0.8993
B(  9-C , 30-H ) :   0.9103 B( 10-S , 11-P ) :   1.0290 B( 11-P , 12-S ) :   1.8383
B( 11-P , 13-O ) :   1.1174 B( 11-P , 16-O ) :   1.0526 B( 13-O , 14-C ) :   0.7346
B( 14-C , 15-C ) :   0.9423 B( 14-C , 31-H ) :   0.9391 B( 14-C , 32-H ) :   0.9482
B( 15-C , 33-H ) :   0.9656 B( 15-C , 34-H ) :   0.9674 B( 15-C , 35-H ) :   0.9575
B( 16-O , 17-C ) :   0.8136 B( 17-C , 18-C ) :   0.9041 B( 17-C , 36-H ) :   0.9507
B( 17-C , 37-H ) :   0.9677 B( 18-C , 38-H ) :   0.9649 B( 18-C , 39-H ) :   0.9645
B( 18-C , 40-H ) :   0.9517

Dispersion correction           -0.022571090
FINAL SINGLE POINT ENERGY     -2932.467176753698

DIPOLE MOMENT
-------------

Method             : SCF
Type of density    : Electron Density
Multiplicity       :   1
Irrep              :   0
Energy             : -2932.4912685527269787 Eh
Relativity type    :
Basis              : AO
                                X                 Y                 Z
Electronic contribution:     -0.208999418       3.043659786     -11.580040860
Nuclear contribution   :      0.013061792      -5.124298901      13.815954070
                        -----------------------------------------
Total Dipole Moment    :     -0.195937626      -2.080639116       2.235913210
                        -----------------------------------------
Magnitude (a.u.)       :      3.060516062
Magnitude (Debye)      :      7.779213605

Rotational constants in cm-1:             0.012004             0.005635             0.005231
Rotational constants in MHz :           359.872277           168.934390           156.822249

                             ****ORCA TERMINATED NORMALLY****
TOTAL RUN TIME: 0 days 0 hours 1 minutes 52 seconds 502 msec
