                         Program Version 6.0.1  -  RELEASE   -
|  1> ! r2scan-3c def2/J RI DEFGRID2 scfconv6 printgap
|  2> %output
|  3>     printlevel normal
|  4> end
|  5> * xyz 0 1
|  6> C 5.1047805937 -3.0299934359 -0.7948945268
|  7> C 4.4507779015 -2.0322522685 0.1482516603
|  8> O 3.0197958744 -2.0248181747 -0.0141918894
|  9> C 2.5031738718 -1.2689915146 -0.959301569
| 10> O 3.1425891956 -0.5853477169 -1.7301874608
| 11> C 0.9888393544 -1.3813194128 -0.9957091182
| 12> C 0.4107604171 0.0122519611 -1.2059138833
| 13> H 0.840705169 0.4390063616 -2.120720671
| 14> C 0.8156246685 0.9348364018 -0.0716745329
| 15> O 1.8417849787 0.7789238593 0.5486356279
| 16> O -0.0324589596 1.9304345407 0.0970110853
| 17> C 0.2818544335 2.9279361253 1.0900350188
| 18> C 1.1315368993 4.0331897947 0.4877332395
| 19> S -1.3815704421 0.0077682342 -1.4949790794
| 20> P -2.1261416493 0.0566253075 0.497855898
| 21> S -0.9626766169 -0.6024508441 1.931556107
| 22> O -2.6894790074 1.5027727728 0.7873369367
| 23> C -3.6170298041 2.1561951213 -0.1046520108
| 24> O -3.4958963143 -0.7542104931 0.3388268913
| 25> C -3.5045077143 -2.1683853996 0.1118285518
| 26> H 4.9460722589 -2.726489536 -1.8270217747
| 27> H 6.1708788954 -3.0629796606 -0.5964790749
| 28> H 4.6801347926 -4.018671715 -0.6446431004
| 29> H 4.822579164 -1.0196924351 -0.0331723792
| 30> H 4.6020322047 -2.3086169174 1.1918170452
| 31> H 0.6467252943 -1.8201280982 -0.0575455715
| 32> H 0.7059795626 -2.0241871143 -1.8305259336
| 33> H -0.6891469918 3.2958303253 1.4227738276
| 34> H 0.7993254162 2.4345099065 1.9179660034
| 35> H 0.6244148372 4.4728941444 -0.3665741293
| 36> H 1.3024747936 4.7979915172 1.2378952785
| 37> H 2.0906910696 3.6330819207 0.1659365383
| 38> H -4.5469535303 1.5932867899 -0.1485892848
| 39> H -3.1792518269 2.2367824661 -1.0993968911
| 40> H -3.7807772743 3.1402148343 0.3265641574
| 41> H -3.1833171838 -2.3811336381 -0.9074431731
| 42> H -4.5341469142 -2.4822019084 0.2631383284
| 43> H -2.8463391365 -2.6671714025 0.8248342883
| 44> *
| 45>
| 46>                          ****END OF INPUT****

CARTESIAN COORDINATES (ANGSTROEM)
---------------------------------
  C      5.104781   -3.029993   -0.794895
  C      4.450778   -2.032252    0.148252
  O      3.019796   -2.024818   -0.014192
  C      2.503174   -1.268992   -0.959302
  O      3.142589   -0.585348   -1.730187
  C      0.988839   -1.381319   -0.995709
  C      0.410760    0.012252   -1.205914
  H      0.840705    0.439006   -2.120721
  C      0.815625    0.934836   -0.071675
  O      1.841785    0.778924    0.548636
  O     -0.032459    1.930435    0.097011
  C      0.281854    2.927936    1.090035
  C      1.131537    4.033190    0.487733
  S     -1.381570    0.007768   -1.494979
  P     -2.126142    0.056625    0.497856
  S     -0.962677   -0.602451    1.931556
  O     -2.689479    1.502773    0.787337
  C     -3.617030    2.156195   -0.104652
  O     -3.495896   -0.754210    0.338827
  C     -3.504508   -2.168385    0.111829
  H      4.946072   -2.726490   -1.827022
  H      6.170879   -3.062980   -0.596479
  H      4.680135   -4.018672   -0.644643
  H      4.822579   -1.019692   -0.033172
  H      4.602032   -2.308617    1.191817
  H      0.646725   -1.820128   -0.057546
  H      0.705980   -2.024187   -1.830526
  H     -0.689147    3.295830    1.422774
  H      0.799325    2.434510    1.917966
  H      0.624415    4.472894   -0.366574
  H      1.302475    4.797992    1.237895
  H      2.090691    3.633082    0.165937
  H     -4.546954    1.593287   -0.148589
  H     -3.179252    2.236782   -1.099397
  H     -3.780777    3.140215    0.326564
  H     -3.183317   -2.381134   -0.907443
  H     -4.534147   -2.482202    0.263138
  H     -2.846339   -2.667171    0.824834

 Total Charge           Charge          ....    0
 Multiplicity           Mult            ....    1
 Number of Electrons    NEL             ....  174
 Basis Dimension        Dim             ....  510

ORBITAL ENERGIES
----------------

  NO   OCC          E(Eh)            E(eV)
   0   2.0000     -88.578947     -2410.3557
   1   2.0000     -88.521593     -2408.7950
   2   2.0000     -76.917873     -2093.0417
   3   2.0000     -19.002804      -517.0926
   4   2.0000     -18.998187      -516.9669
   5   2.0000     -18.995740      -516.9004
   6   2.0000     -18.989619      -516.7338
   7   2.0000     -18.936217      -515.2807
   8   2.0000     -18.920073      -514.8414
   9   2.0000     -10.164411      -276.5877
  10   2.0000     -10.149099      -276.1710
  11   2.0000     -10.101456      -274.8746
  12   2.0000     -10.097494      -274.7668
  13   2.0000     -10.095607      -274.7154
  14   2.0000     -10.090407      -274.5739
  15   2.0000     -10.083541      -274.3871
  16   2.0000     -10.048089      -273.4224
  17   2.0000     -10.029030      -272.9038
  18   2.0000     -10.022593      -272.7286
  19   2.0000      -7.873279      -214.2428
  20   2.0000      -7.816207      -212.6898
  21   2.0000      -6.596068      -179.4881
  22   2.0000      -5.820246      -158.3769
  23   2.0000      -5.816991      -158.2884
  24   2.0000      -5.810434      -158.1100
  25   2.0000      -5.764125      -156.8498
  26   2.0000      -5.756317      -156.6373
  27   2.0000      -5.756144      -156.6326
  28   2.0000      -4.741825      -129.0316
  29   2.0000      -4.741129      -129.0127
  30   2.0000      -4.739511      -128.9687
  31   2.0000      -1.081569       -29.4310
  32   2.0000      -1.066230       -29.0136
  33   2.0000      -1.055156       -28.7123
  34   2.0000      -1.013169       -27.5697
  35   2.0000      -0.987227       -26.8638
  36   2.0000      -0.970220       -26.4010
  37   2.0000      -0.809770       -22.0350
  38   2.0000      -0.748733       -20.3741
  39   2.0000      -0.740981       -20.1631
  40   2.0000      -0.731885       -19.9156
  41   2.0000      -0.696156       -18.9434
  42   2.0000      -0.680724       -18.5234
  43   2.0000      -0.662720       -18.0335
  44   2.0000      -0.650195       -17.6927
  45   2.0000      -0.625937       -17.0326
  46   2.0000      -0.593546       -16.1512
  47   2.0000      -0.545084       -14.8325
  48   2.0000      -0.526804       -14.3351
  49   2.0000      -0.518142       -14.0994
  50   2.0000      -0.501231       -13.6392
  51   2.0000      -0.498409       -13.5624
  52   2.0000      -0.477498       -12.9934
  53   2.0000      -0.459285       -12.4978
  54   2.0000      -0.457968       -12.4619
  55   2.0000      -0.449855       -12.2412
  56   2.0000      -0.443913       -12.0795
  57   2.0000      -0.440022       -11.9736
  58   2.0000      -0.436744       -11.8844
  59   2.0000      -0.429450       -11.6859
  60   2.0000      -0.423121       -11.5137
  61   2.0000      -0.415765       -11.3135
  62   2.0000      -0.409900       -11.1540
  63   2.0000      -0.402491       -10.9523
  64   2.0000      -0.386433       -10.5154
  65   2.0000      -0.381525       -10.3818
  66   2.0000      -0.370629       -10.0853
  67   2.0000      -0.364815        -9.9271
  68   2.0000      -0.358613        -9.7584
  69   2.0000      -0.352558        -9.5936
  70   2.0000      -0.343113        -9.3366
  71   2.0000      -0.341788        -9.3005
  72   2.0000      -0.332959        -9.0603
  73   2.0000      -0.328081        -8.9275
  74   2.0000      -0.326440        -8.8829
  75   2.0000      -0.320082        -8.7099
  76   2.0000      -0.311243        -8.4693
  77   2.0000      -0.300357        -8.1731
  78   2.0000      -0.292402        -7.9567
  79   2.0000      -0.282934        -7.6990
  80   2.0000      -0.276863        -7.5338
  81   2.0000      -0.262498        -7.1429
  82   2.0000      -0.256332        -6.9751
  83   2.0000      -0.237497        -6.4626
  84   2.0000      -0.227172        -6.1817
  85   2.0000      -0.219648        -5.9769
  86   2.0000      -0.216616        -5.8944
  87   0.0000      -0.044165        -1.2018
  88   0.0000      -0.029411        -0.8003
  89   0.0000      -0.002459        -0.0669
  90   0.0000       0.005273         0.1435
  91   0.0000       0.010562         0.2874

MULLIKEN ATOMIC CHARGES
-----------------------
   0 C :   -0.474309
   1 C :   -0.138817
   2 O :   -0.153112
   3 C :    0.365520
   4 O :   -0.415809
   5 C :   -0.448822
   6 C :    0.060857
   7 H :    0.219993
   8 C :    0.239624
   9 O :   -0.372517
  10 O :   -0.144477
  11 C :   -0.159966
  12 C :   -0.467729
  13 S :   -0.189459
  14 P :    0.759485
  15 S :   -0.417704
  16 O :   -0.307769
  17 C :   -0.292716
  18 O :   -0.357155
  19 C :   -0.298628
  20 H :    0.174191
  21 H :    0.146046
  22 H :    0.150639
  23 H :    0.171822
  24 H :    0.150550
  25 H :    0.214821
  26 H :    0.183716
  27 H :    0.160917
  28 H :    0.182928
  29 H :    0.150891
  30 H :    0.150013
  31 H :    0.172776
  32 H :    0.169492
  33 H :    0.171793
  34 H :    0.155655
  35 H :    0.158777
  36 H :    0.153078
  37 H :    0.175407
Sum of atomic charges:    0.0000000

LOEWDIN ATOMIC CHARGES
----------------------
   0 C :   -0.391801
   1 C :    0.031376
   2 O :   -0.573380
   3 C :    0.357105
   4 O :   -0.441279
   5 C :   -0.212062
   6 C :   -0.197623
   7 H :    0.217124
   8 C :    0.344332
   9 O :   -0.405612
  10 O :   -0.622285
  11 C :    0.031706
  12 C :   -0.387022
  13 S :    0.195889
  14 P :    0.400609
  15 S :   -0.050508
  16 O :   -0.652044
  17 C :   -0.051416
  18 O :   -0.684291
  19 C :   -0.059142
  20 H :    0.165317
  21 H :    0.158436
  22 H :    0.156564
  23 H :    0.189996
  24 H :    0.179421
  25 H :    0.200676
  26 H :    0.184438
  27 H :    0.183841
  28 H :    0.195567
  29 H :    0.156868
  30 H :    0.160089
  31 H :    0.166205
  32 H :    0.174838
  33 H :    0.174550
  34 H :    0.179563
  35 H :    0.169239
  36 H :    0.177830
  37 H :    0.176887

  Mayer bond orders larger than 0.100000
B(  0-C ,  1-C ) :   0.9290 B(  0-C , 20-H ) :   0.9728 B(  0-C , 21-H ) :   0.9657
B(  0-C , 22-H ) :   0.9730 B(  1-C ,  2-O ) :   0.8136 B(  1-C , 23-H ) :   0.9749
B(  1-C , 24-H ) :   0.9615 B(  2-O ,  3-C ) :   1.0993 B(  3-C ,  4-O ) :   1.8635
B(  3-C ,  5-C ) :   0.8379 B(  5-C ,  6-C ) :   0.8769 B(  5-C , 25-H ) :   0.9896
B(  5-C , 26-H ) :   0.9515 B(  6-C ,  7-H ) :   0.8823 B(  6-C ,  8-C ) :   0.9717
B(  6-C , 13-S ) :   0.8298 B(  8-C ,  9-O ) :   1.8067 B(  8-C , 10-O ) :   1.0891
B( 10-O , 11-C ) :   0.7890 B( 11-C , 12-C ) :   0.9280 B( 11-C , 27-H ) :   0.9570
B( 11-C , 28-H ) :   0.9653 B( 12-C , 29-H ) :   0.9757 B( 12-C , 30-H ) :   0.9663
B( 12-C , 31-H ) :   0.9711 B( 13-S , 14-P ) :   1.0164 B( 14-P , 15-S ) :   1.7911
B( 14-P , 16-O ) :   1.1422 B( 14-P , 18-O ) :   1.0228 B( 16-O , 17-C ) :   0.7974
B( 17-C , 32-H ) :   0.9608 B( 17-C , 33-H ) :   0.9554 B( 17-C , 34-H ) :   0.9649
B( 18-O , 19-C ) :   0.8318 B( 19-C , 35-H ) :   0.9562 B( 19-C , 36-H ) :   0.9673
B( 19-C , 37-H ) :   0.9590

Dispersion correction           -0.017568559
FINAL SINGLE POINT ENERGY     -1981.454761930084

DIPOLE MOMENT
-------------

Method             : SCF
Type of density    : Electron Density
Multiplicity       :   1
Irrep              :   0
Energy             : -1981.4745157317638586 Eh
Relativity type    :
Basis              : AO
                                X                 Y                 Z
Electronic contribution:    -11.979617949      -1.181530045       2.069861286
Nuclear contribution   :     10.880474268       1.416759769      -2.597213331
                        -----------------------------------------
Total Dipole Moment    :     -1.099143681       0.235229725      -0.527352045
                        -----------------------------------------
Magnitude (a.u.)       :      1.241591734
Magnitude (Debye)      :      3.155875387

Rotational constants in cm-1:             0.014804             0.006494             0.005413
Rotational constants in MHz :           443.800373           194.671714           162.289733

                             ****ORCA TERMINATED NORMALLY****
TOTAL RUN TIME: 0 days 0 hours 1 minutes 38 seconds 414 msec
