                         Program Version 6.0.1  -  RELEASE   -
|  1> ! r2scan-3c def2/J RI DEFGRID2 scfconv6 printgap
|  2> %output
|  3>     printlevel normal
|  4> end
|  5> %cpcm
|  6>     smd true
|  7>     smdsolvent "water"
|  8> end
|  9> * xyz 0 1
| 10> C 5.1047805937 -3.0299934359 -0.7948945268
| 11> C 4.4507779015 -2.0322522685 0.1482516603
| 12> O 3.0197958744 -2.0248181747 -0.0141918894
| 13> C 2.5031738718 -1.2689915146 -0.959301569
| 14> O 3.1425891956 -0.5853477169 -1.7301874608
| 15> C 0.9888393544 -1.3813194128 -0.9957091182
| 16> C 0.4107604171 0.0122519611 -1.2059138833
| 17> H 0.840705169 0.4390063616 -2.120720671
| 18> C 0.8156246685 0.9348364018 -0.0716745329
| 19> O 1.8417849787 0.7789238593 0.5486356279
| 20> O -0.0324589596 1.9304345407 0.0970110853
| 21> C 0.2818544335 2.9279361253 1.0900350188
| 22> C 1.1315368993 4.0331897947 0.4877332395
| 23> S -1.3815704421 0.0077682342 -1.4949790794
| 24> P -2.1261416493 0.0566253075 0.497855898
| 25> S -0.9626766169 -0.6024508441 1.931556107
| 26> O -2.6894790074 1.5027727728 0.7873369367
| 27> C -3.6170298041 2.1561951213 -0.1046520108
| 28> O -3.4958963143 -0.7542104931 0.3388268913
| 29> C -3.5045077143 -2.1683853996 0.1118285518
| 30> H 4.9460722589 -2.726489536 -1.8270217747
| 31> H 6.1708788954 -3.0629796606 -0.5964790749
| 32> H 4.6801347926 -4.018671715 -0.6446431004
| 33> H 4.822579164 -1.0196924351 -0.0331723792
| 34> H 4.6020322047 -2.3086169174 1.1918170452
| 35> H 0.6467252943 -1.8201280982 -0.0575455715
| 36> H 0.7059795626 -2.0241871143 -1.8305259336
| 37> H -0.6891469918 3.2958303253 1.4227738276
| 38> H 0.7993254162 2.4345099065 1.9179660034
| 39> H 0.6244148372 4.4728941444 -0.3665741293
| 40> H 1.3024747936 4.7979915172 1.2378952785
| 41> H 2.0906910696 3.6330819207 0.1659365383
| 42> H -4.5469535303 1.5932867899 -0.1485892848
| 43> H -3.1792518269 2.2367824661 -1.0993968911
| 44> H -3.7807772743 3.1402148343 0.3265641574
| 45> H -3.1833171838 -2.3811336381 -0.9074431731
| 46> H -4.5341469142 -2.4822019084 0.2631383284
| 47> H -2.8463391365 -2.6671714025 0.8248342883
| 48> *
| 49>
| 50>                          ****END OF INPUT****

CARTESIAN COORDINATES (ANGSTROEM)
---------------------------------
  C      5.104781   -3.029993   -0.794895
  C      4.450778   -2.032252    0.148252
  O      3.019796   -2.024818   -0.014192
  C      2.503174   -1.268992   -0.959302
  O      3.142589   -0.585348   -1.730187
  C      0.988839   -1.381319   -0.995709
  C      0.410760    0.012252   -1.205914
  H      0.840705    0.439006   -2.120721
  C      0.815625    0.934836   -0.071675
  O      1.841785    0.778924    0.548636
  O     -0.032459    1.930435    0.097011
  C      0.281854    2.927936    1.090035
  C      1.131537    4.033190    0.487733
  S     -1.381570    0.007768   -1.494979
  P     -2.126142    0.056625    0.497856
  S     -0.962677   -0.602451    1.931556
  O     -2.689479    1.502773    0.787337
  C     -3.617030    2.156195   -0.104652
  O     -3.495896   -0.754210    0.338827
  C     -3.504508   -2.168385    0.111829
  H      4.946072   -2.726490   -1.827022
  H      6.170879   -3.062980   -0.596479
  H      4.680135   -4.018672   -0.644643
  H      4.822579   -1.019692   -0.033172
  H      4.602032   -2.308617    1.191817
  H      0.646725   -1.820128   -0.057546
  H      0.705980   -2.024187   -1.830526
  H     -0.689147    3.295830    1.422774
  H      0.799325    2.434510    1.917966
  H      0.624415    4.472894   -0.366574
  H      1.302475    4.797992    1.237895
  H      2.090691    3.633082    0.165937
  H     -4.546954    1.593287   -0.148589
  H     -3.179252    2.236782   -1.099397
  H     -3.780777    3.140215    0.326564
  H     -3.183317   -2.381134   -0.907443
  H     -4.534147   -2.482202    0.263138
  H     -2.846339   -2.667171    0.824834

 Total Charge           Charge          ....    0
 Multiplicity           Mult            ....    1
 Number of Electrons    NEL             ....  174
 Basis Dimension        Dim             ....  510

ORBITAL ENERGIES
----------------

  NO   OCC          E(Eh)            E(eV)
   0   2.0000     -88.582105     -2410.4416
   1   2.0000     -88.531825     -2409.0734
   2   2.0000     -76.923053     -2093.1827
   3   2.0000     -19.011281      -517.3233
   4   2.0000     -19.005675      -517.1707
   5   2.0000     -18.998677      -516.9803
   6   2.0000     -18.996216      -516.9133
   7   2.0000     -18.954262      -515.7717
   8   2.0000     -18.943632      -515.4824
   9   2.0000     -10.178928      -276.9827
  10   2.0000     -10.168436      -276.6972
  11   2.0000     -10.100585      -274.8509
  12   2.0000     -10.087095      -274.4838
  13   2.0000     -10.085290      -274.4347
  14   2.0000     -10.084929      -274.4249
  15   2.0000     -10.082625      -274.3622
  16   2.0000     -10.051879      -273.5255
  17   2.0000     -10.020081      -272.6603
  18   2.0000     -10.018708      -272.6229
  19   2.0000      -7.876334      -214.3259
  20   2.0000      -7.826832      -212.9789
  21   2.0000      -6.601309      -179.6308
  22   2.0000      -5.823383      -158.4623
  23   2.0000      -5.820108      -158.3732
  24   2.0000      -5.813353      -158.1894
  25   2.0000      -5.774608      -157.1351
  26   2.0000      -5.767022      -156.9287
  27   2.0000      -5.766752      -156.9213
  28   2.0000      -4.746989      -129.1721
  29   2.0000      -4.746330      -129.1542
  30   2.0000      -4.744914      -129.1157
  31   2.0000      -1.092298       -29.7229
  32   2.0000      -1.083356       -29.4796
  33   2.0000      -1.055438       -28.7199
  34   2.0000      -1.012640       -27.5553
  35   2.0000      -1.003361       -27.3029
  36   2.0000      -0.992224       -26.9998
  37   2.0000      -0.814276       -22.1576
  38   2.0000      -0.751956       -20.4618
  39   2.0000      -0.739491       -20.1226
  40   2.0000      -0.731698       -19.9105
  41   2.0000      -0.697093       -18.9689
  42   2.0000      -0.671925       -18.2840
  43   2.0000      -0.662635       -18.0312
  44   2.0000      -0.652660       -17.7598
  45   2.0000      -0.628212       -17.0945
  46   2.0000      -0.594952       -16.1895
  47   2.0000      -0.543143       -14.7797
  48   2.0000      -0.527982       -14.3671
  49   2.0000      -0.524932       -14.2841
  50   2.0000      -0.505103       -13.7445
  51   2.0000      -0.494051       -13.4438
  52   2.0000      -0.486426       -13.2363
  53   2.0000      -0.467473       -12.7206
  54   2.0000      -0.462978       -12.5983
  55   2.0000      -0.451968       -12.2987
  56   2.0000      -0.451004       -12.2724
  57   2.0000      -0.449075       -12.2199
  58   2.0000      -0.437319       -11.9001
  59   2.0000      -0.428727       -11.6663
  60   2.0000      -0.421840       -11.4789
  61   2.0000      -0.414603       -11.2819
  62   2.0000      -0.411044       -11.1851
  63   2.0000      -0.403210       -10.9719
  64   2.0000      -0.387213       -10.5366
  65   2.0000      -0.383135       -10.4256
  66   2.0000      -0.369575       -10.0567
  67   2.0000      -0.366876        -9.9832
  68   2.0000      -0.361347        -9.8328
  69   2.0000      -0.351700        -9.5702
  70   2.0000      -0.346947        -9.4409
  71   2.0000      -0.344879        -9.3846
  72   2.0000      -0.335412        -9.1270
  73   2.0000      -0.334231        -9.0949
  74   2.0000      -0.323350        -8.7988
  75   2.0000      -0.319041        -8.6815
  76   2.0000      -0.309870        -8.4320
  77   2.0000      -0.306720        -8.3463
  78   2.0000      -0.293182        -7.9779
  79   2.0000      -0.284998        -7.7552
  80   2.0000      -0.283468        -7.7135
  81   2.0000      -0.278804        -7.5867
  82   2.0000      -0.268218        -7.2986
  83   2.0000      -0.256927        -6.9913
  84   2.0000      -0.240496        -6.5442
  85   2.0000      -0.230960        -6.2847
  86   2.0000      -0.226828        -6.1723
  87   0.0000      -0.050745        -1.3808
  88   0.0000      -0.039662        -1.0793
  89   0.0000      -0.018746        -0.5101
  90   0.0000       0.002614         0.0711
  91   0.0000       0.006602         0.1797

MULLIKEN ATOMIC CHARGES
-----------------------
   0 C :   -0.496507
   1 C :   -0.138951
   2 O :   -0.181800
   3 C :    0.385739
   4 O :   -0.487481
   5 C :   -0.462663
   6 C :    0.060057
   7 H :    0.254910
   8 C :    0.257749
   9 O :   -0.441763
  10 O :   -0.152482
  11 C :   -0.152713
  12 C :   -0.499363
  13 S :   -0.179676
  14 P :    0.784642
  15 S :   -0.480462
  16 O :   -0.341668
  17 C :   -0.298865
  18 O :   -0.382888
  19 C :   -0.307437
  20 H :    0.170561
  21 H :    0.171308
  22 H :    0.166545
  23 H :    0.173465
  24 H :    0.176074
  25 H :    0.218221
  26 H :    0.224262
  27 H :    0.182773
  28 H :    0.180477
  29 H :    0.168722
  30 H :    0.173765
  31 H :    0.170110
  32 H :    0.185820
  33 H :    0.181119
  34 H :    0.184112
  35 H :    0.176137
  36 H :    0.180752
  37 H :    0.177397
Sum of atomic charges:    0.0000000

LOEWDIN ATOMIC CHARGES
----------------------
   0 C :   -0.392145
   1 C :    0.034809
   2 O :   -0.584494
   3 C :    0.362844
   4 O :   -0.490644
   5 C :   -0.206880
   6 C :   -0.195922
   7 H :    0.229371
   8 C :    0.349411
   9 O :   -0.457422
  10 O :   -0.621298
  11 C :    0.035376
  12 C :   -0.387486
  13 S :    0.215161
  14 P :    0.404212
  15 S :   -0.096568
  16 O :   -0.669070
  17 C :   -0.042427
  18 O :   -0.692314
  19 C :   -0.053500
  20 H :    0.163091
  21 H :    0.168179
  22 H :    0.162617
  23 H :    0.190497
  24 H :    0.190417
  25 H :    0.200343
  26 H :    0.201960
  27 H :    0.193079
  28 H :    0.193957
  29 H :    0.163510
  30 H :    0.169220
  31 H :    0.163900
  32 H :    0.182300
  33 H :    0.179868
  34 H :    0.191804
  35 H :    0.176771
  36 H :    0.189548
  37 H :    0.177923

  Mayer bond orders larger than 0.100000
B(  0-C ,  1-C ) :   0.9347 B(  0-C , 20-H ) :   0.9687 B(  0-C , 21-H ) :   0.9599
B(  0-C , 22-H ) :   0.9693 B(  1-C ,  2-O ) :   0.7943 B(  1-C , 23-H ) :   0.9642
B(  1-C , 24-H ) :   0.9511 B(  2-O ,  3-C ) :   1.1049 B(  3-C ,  4-O ) :   1.8038
B(  3-C ,  5-C ) :   0.8558 B(  5-C ,  6-C ) :   0.8375 B(  5-C , 25-H ) :   0.9936
B(  5-C , 26-H ) :   0.9286 B(  6-C ,  7-H ) :   0.8818 B(  6-C ,  8-C ) :   0.9654
B(  6-C , 13-S ) :   0.8203 B(  8-C ,  9-O ) :   1.7603 B(  8-C , 10-O ) :   1.1090
B( 10-O , 11-C ) :   0.7698 B( 11-C , 12-C ) :   0.9329 B( 11-C , 27-H ) :   0.9470
B( 11-C , 28-H ) :   0.9567 B( 12-C , 29-H ) :   0.9719 B( 12-C , 30-H ) :   0.9598
B( 12-C , 31-H ) :   0.9695 B( 13-S , 14-P ) :   1.0311 B( 14-P , 15-S ) :   1.7533
B( 14-P , 16-O ) :   1.1499 B( 14-P , 18-O ) :   1.0335 B( 16-O , 17-C ) :   0.7886
B( 17-C , 32-H ) :   0.9520 B( 17-C , 33-H ) :   0.9474 B( 17-C , 34-H ) :   0.9539
B( 18-O , 19-C ) :   0.8236 B( 19-C , 35-H ) :   0.9496 B( 19-C , 36-H ) :   0.9572
B( 19-C , 37-H ) :   0.9548

Dispersion correction           -0.017568559
FINAL SINGLE POINT ENERGY     -1981.469928855925

DIPOLE MOMENT
-------------

Method             : SCF
Type of density    : Electron Density
Multiplicity       :   1
Irrep              :   0
Energy             : -1981.4896826576043622 Eh
Relativity type    :
Basis              : AO
                                X                 Y                 Z
Electronic contribution:    -12.555970656      -1.212440649       1.578217748
Nuclear contribution   :     10.880474268       1.416759769      -2.597213331
                        -----------------------------------------
Total Dipole Moment    :     -1.675496388       0.204319120      -1.018995584
                        -----------------------------------------
Magnitude (a.u.)       :      1.971645620
Magnitude (Debye)      :      5.011524893

Rotational constants in cm-1:             0.014804             0.006494             0.005413
Rotational constants in MHz :           443.800373           194.671714           162.289733

                             ****ORCA TERMINATED NORMALLY****
TOTAL RUN TIME: 0 days 0 hours 2 minutes 0 seconds 567 msec
