                         Program Version 6.0.0  -   RELEASE  -
|  1> ! pbe def2-sv(p) def2/J RI DEFGRID1 loosescf d4 GCP(DFT/SV(P)) printgap
|  2> %output
|  3>     printlevel normal
|  4> end
|  5> * xyz 0 1
|  6> C 4.5512433981 1.5032731827 0.1725061584
|  7> C 3.4219227299 1.250123574 -0.8053807767
|  8> O 2.7660131818 -0.0016622076 -0.5317824736
|  9> P 1.7723791838 -0.1813827881 0.7102787793
| 10> S 0.9680026324 1.4609986765 1.397553572
| 11> O 2.5913794081 -0.8558221831 1.8887584701
| 12> C 3.4087532145 -2.040932931 1.7277391174
| 13> C 2.7278150166 -3.2419669301 2.3526291272
| 14> S 0.6358756506 -1.7997823628 -0.0560544563
| 15> C 0.3109570756 -1.2062057602 -1.7432339591
| 16> S -0.184399894 0.532762564 -1.8323599075
| 17> P -2.1052795011 0.2928460815 -1.0085223428
| 18> S -3.2315104593 -1.1065054692 -1.7683288971
| 19> O -2.7787445147 1.7171999576 -1.168220119
| 20> C -2.2099469864 2.928424403 -0.6028812184
| 21> C -3.2523638549 3.6020408147 0.2657979955
| 22> O -1.7197868995 0.1248450378 0.5339465556
| 23> C -2.6943812097 -0.3033332078 1.5093900175
| 24> C -2.5389825617 -1.7805329558 1.8085995024
| 25> H 5.0476683486 2.433819078 -0.083525005
| 26> H 4.1500788376 1.5827974828 1.1826527865
| 27> H 5.271248858 0.6896956891 0.1399819025
| 28> H 3.7830749014 1.1450081773 -1.8292084029
| 29> H 2.6784711175 2.0518288403 -0.7555736703
| 30> H 3.6027850507 -2.2014409251 0.6645631778
| 31> H 4.3419437153 -1.8052335827 2.242432851
| 32> H 2.4988194013 -3.0379492096 3.3948613705
| 33> H 1.8025731007 -3.470031035 1.8275892041
| 34> H 3.3916743677 -4.0984845416 2.2920355197
| 35> H -0.491741771 -1.8316842545 -2.1368325092
| 36> H 1.2156926778 -1.3008162397 -2.3383781074
| 37> H -1.3151220898 2.6794534801 -0.0244195234
| 38> H -1.932285727 3.5541198962 -1.4528510753
| 39> H -2.8546126463 4.5451524457 0.6264228788
| 40> H -4.1542662215 3.7854450913 -0.3115851249
| 41> H -3.5001348174 2.9725929027 1.1169914428
| 42> H -2.4857800345 0.3070466681 2.390701067
| 43> H -3.6984393123 -0.0831275261 1.1327948157
| 44> H -2.7382620015 -2.3672616073 0.9143698333
| 45> H -1.5262166524 -1.9878761638 2.1443840944
| 46> H -3.2424601448 -2.0626238474 2.5851961831
| 47> *
| 48>
| 49>                          ****END OF INPUT****

CARTESIAN COORDINATES (ANGSTROEM)
---------------------------------
  C      4.551243    1.503273    0.172506
  C      3.421923    1.250124   -0.805381
  O      2.766013   -0.001662   -0.531782
  P      1.772379   -0.181383    0.710279
  S      0.968003    1.460999    1.397554
  O      2.591379   -0.855822    1.888758
  C      3.408753   -2.040933    1.727739
  C      2.727815   -3.241967    2.352629
  S      0.635876   -1.799782   -0.056054
  C      0.310957   -1.206206   -1.743234
  S     -0.184400    0.532763   -1.832360
  P     -2.105280    0.292846   -1.008522
  S     -3.231510   -1.106505   -1.768329
  O     -2.778745    1.717200   -1.168220
  C     -2.209947    2.928424   -0.602881
  C     -3.252364    3.602041    0.265798
  O     -1.719787    0.124845    0.533947
  C     -2.694381   -0.303333    1.509390
  C     -2.538983   -1.780533    1.808600
  H      5.047668    2.433819   -0.083525
  H      4.150079    1.582797    1.182653
  H      5.271249    0.689696    0.139982
  H      3.783075    1.145008   -1.829208
  H      2.678471    2.051829   -0.755574
  H      3.602785   -2.201441    0.664563
  H      4.341944   -1.805234    2.242433
  H      2.498819   -3.037949    3.394861
  H      1.802573   -3.470031    1.827589
  H      3.391674   -4.098485    2.292036
  H     -0.491742   -1.831684   -2.136833
  H      1.215693   -1.300816   -2.338378
  H     -1.315122    2.679453   -0.024420
  H     -1.932286    3.554120   -1.452851
  H     -2.854613    4.545152    0.626423
  H     -4.154266    3.785445   -0.311585
  H     -3.500135    2.972593    1.116991
  H     -2.485780    0.307047    2.390701
  H     -3.698439   -0.083128    1.132795
  H     -2.738262   -2.367262    0.914370
  H     -1.526217   -1.987876    2.144384
  H     -3.242460   -2.062624    2.585196

 Total Charge           Charge          ....    0
 Multiplicity           Mult            ....    1
 Number of Electrons    NEL             ....  202
 Basis Dimension        Dim             ....  334

ORBITAL ENERGIES
----------------

  NO   OCC          E(Eh)            E(eV)
   0   2.0000     -88.042887     -2395.7688
   1   2.0000     -88.042651     -2395.7623
   2   2.0000     -87.982210     -2394.1177
   3   2.0000     -87.980187     -2394.0626
   4   2.0000     -76.426910     -2079.6820
   5   2.0000     -76.420868     -2079.5175
   6   2.0000     -18.796138      -511.4689
   7   2.0000     -18.794120      -511.4140
   8   2.0000     -18.789584      -511.2906
   9   2.0000     -18.780727      -511.0496
  10   2.0000      -9.959375      -271.0084
  11   2.0000      -9.959158      -271.0025
  12   2.0000      -9.953664      -270.8530
  13   2.0000      -9.951851      -270.8036
  14   2.0000      -9.945689      -270.6360
  15   2.0000      -9.890324      -269.1294
  16   2.0000      -9.887690      -269.0577
  17   2.0000      -9.887532      -269.0534
  18   2.0000      -9.872058      -268.6324
  19   2.0000      -7.688188      -209.2062
  20   2.0000      -7.687537      -209.1885
  21   2.0000      -7.627342      -207.5505
  22   2.0000      -7.625609      -207.5034
  23   2.0000      -6.424197      -174.8113
  24   2.0000      -6.418859      -174.6660
  25   2.0000      -5.716089      -155.5427
  26   2.0000      -5.715650      -155.5308
  27   2.0000      -5.712794      -155.4530
  28   2.0000      -5.711936      -155.4297
  29   2.0000      -5.704928      -155.2390
  30   2.0000      -5.704348      -155.2232
  31   2.0000      -5.656471      -153.9204
  32   2.0000      -5.654593      -153.8693
  33   2.0000      -5.647796      -153.6844
  34   2.0000      -5.647365      -153.6726
  35   2.0000      -5.646481      -153.6486
  36   2.0000      -5.645370      -153.6183
  37   2.0000      -4.647353      -126.4609
  38   2.0000      -4.645753      -126.4174
  39   2.0000      -4.644401      -126.3806
  40   2.0000      -4.641969      -126.3144
  41   2.0000      -4.640302      -126.2690
  42   2.0000      -4.639133      -126.2372
  43   2.0000      -0.987079       -26.8598
  44   2.0000      -0.979450       -26.6522
  45   2.0000      -0.947944       -25.7949
  46   2.0000      -0.937076       -25.4991
  47   2.0000      -0.765892       -20.8410
  48   2.0000      -0.722028       -19.6474
  49   2.0000      -0.709700       -19.3119
  50   2.0000      -0.694316       -18.8933
  51   2.0000      -0.685072       -18.6418
  52   2.0000      -0.670693       -18.2505
  53   2.0000      -0.649837       -17.6830
  54   2.0000      -0.638367       -17.3708
  55   2.0000      -0.592708       -16.1284
  56   2.0000      -0.581212       -15.8156
  57   2.0000      -0.578587       -15.7442
  58   2.0000      -0.572738       -15.5850
  59   2.0000      -0.559311       -15.2196
  60   2.0000      -0.507606       -13.8127
  61   2.0000      -0.500506       -13.6195
  62   2.0000      -0.482331       -13.1249
  63   2.0000      -0.473975       -12.8975
  64   2.0000      -0.459208       -12.4957
  65   2.0000      -0.444300       -12.0900
  66   2.0000      -0.438717       -11.9381
  67   2.0000      -0.436609       -11.8807
  68   2.0000      -0.423755       -11.5309
  69   2.0000      -0.413855       -11.2616
  70   2.0000      -0.404426       -11.0050
  71   2.0000      -0.400613       -10.9012
  72   2.0000      -0.387873       -10.5546
  73   2.0000      -0.383759       -10.4426
  74   2.0000      -0.379456       -10.3255
  75   2.0000      -0.372190       -10.1278
  76   2.0000      -0.361169        -9.8279
  77   2.0000      -0.358826        -9.7641
  78   2.0000      -0.357589        -9.7305
  79   2.0000      -0.354153        -9.6370
  80   2.0000      -0.350471        -9.5368
  81   2.0000      -0.347664        -9.4604
  82   2.0000      -0.345506        -9.4017
  83   2.0000      -0.336490        -9.1564
  84   2.0000      -0.332164        -9.0386
  85   2.0000      -0.318432        -8.6650
  86   2.0000      -0.309827        -8.4308
  87   2.0000      -0.305449        -8.3117
  88   2.0000      -0.301962        -8.2168
  89   2.0000      -0.284231        -7.7343
  90   2.0000      -0.275535        -7.4977
  91   2.0000      -0.275403        -7.4941
  92   2.0000      -0.270903        -7.3717
  93   2.0000      -0.267207        -7.2711
  94   2.0000      -0.263887        -7.1807
  95   2.0000      -0.234948        -6.3933
  96   2.0000      -0.219837        -5.9821
  97   2.0000      -0.204955        -5.5771
  98   2.0000      -0.200005        -5.4424
  99   2.0000      -0.192302        -5.2328
 100   2.0000      -0.189026        -5.1437
 101   0.0000      -0.051420        -1.3992
 102   0.0000      -0.021543        -0.5862
 103   0.0000      -0.013514        -0.3677
 104   0.0000       0.005947         0.1618
 105   0.0000       0.018693         0.5087

MULLIKEN ATOMIC CHARGES
-----------------------
   0 C :   -0.310354
   1 C :   -0.007580
   2 O :   -0.393637
   3 P :    0.622694
   4 S :   -0.298992
   5 O :   -0.364424
   6 C :   -0.023699
   7 C :   -0.292846
   8 S :   -0.104860
   9 C :   -0.325070
  10 S :   -0.093536
  11 P :    0.615795
  12 S :   -0.318632
  13 O :   -0.370518
  14 C :   -0.047333
  15 C :   -0.282574
  16 O :   -0.366663
  17 C :   -0.018306
  18 C :   -0.280366
  19 H :    0.113625
  20 H :    0.129798
  21 H :    0.110197
  22 H :    0.101470
  23 H :    0.113335
  24 H :    0.106553
  25 H :    0.109718
  26 H :    0.121389
  27 H :    0.129108
  28 H :    0.111275
  29 H :    0.186128
  30 H :    0.185438
  31 H :    0.136123
  32 H :    0.108535
  33 H :    0.112807
  34 H :    0.121918
  35 H :    0.116806
  36 H :    0.106832
  37 H :    0.102462
  38 H :    0.119803
  39 H :    0.115270
  40 H :    0.102309
Sum of atomic charges:    0.0000000

LOEWDIN ATOMIC CHARGES
----------------------
   0 C :   -0.365158
   1 C :   -0.122988
   2 O :   -0.256649
   3 P :    0.567181
   4 S :   -0.300713
   5 O :   -0.242715
   6 C :   -0.120712
   7 C :   -0.359816
   8 S :    0.091118
   9 C :   -0.472296
  10 S :    0.090156
  11 P :    0.568300
  12 S :   -0.318169
  13 O :   -0.245528
  14 C :   -0.122672
  15 C :   -0.350679
  16 O :   -0.248069
  17 C :   -0.116865
  18 C :   -0.362082
  19 H :    0.131606
  20 H :    0.126070
  21 H :    0.122184
  22 H :    0.116107
  23 H :    0.109553
  24 H :    0.108062
  25 H :    0.120178
  26 H :    0.129524
  27 H :    0.120255
  28 H :    0.130956
  29 H :    0.131539
  30 H :    0.134135
  31 H :    0.111264
  32 H :    0.117800
  33 H :    0.131559
  34 H :    0.129207
  35 H :    0.125708
  36 H :    0.117079
  37 H :    0.106650
  38 H :    0.122795
  39 H :    0.120402
  40 H :    0.125720

  Mayer bond orders larger than 0.100000
B(  0-C ,  1-C ) :   1.1636 B(  0-C , 19-H ) :   0.9400 B(  0-C , 20-H ) :   0.9347
B(  0-C , 21-H ) :   0.9472 B(  1-C ,  2-O ) :   0.9045 B(  1-C , 22-H ) :   0.9337
B(  1-C , 23-H ) :   0.9107 B(  2-O ,  3-P ) :   1.0573 B(  3-P ,  4-S ) :   1.6368
B(  3-P ,  5-O ) :   1.1224 B(  3-P ,  8-S ) :   0.9601 B(  4-S ,  8-S ) :   0.1075
B(  5-O ,  6-C ) :   0.8967 B(  6-C ,  7-C ) :   1.1674 B(  6-C , 24-H ) :   0.9144
B(  6-C , 25-H ) :   0.9317 B(  7-C , 26-H ) :   0.9459 B(  7-C , 27-H ) :   0.9374
B(  7-C , 28-H ) :   0.9393 B(  8-S ,  9-C ) :   0.9880 B(  9-C , 10-S ) :   1.0224
B(  9-C , 29-H ) :   0.8795 B(  9-C , 30-H ) :   0.9068 B( 10-S , 11-P ) :   0.9603
B( 10-S , 12-S ) :   0.1013 B( 11-P , 12-S ) :   1.6380 B( 11-P , 13-O ) :   1.1323
B( 11-P , 16-O ) :   1.0905 B( 13-O , 14-C ) :   0.8898 B( 14-C , 15-C ) :   1.1711
B( 14-C , 31-H ) :   0.8993 B( 14-C , 32-H ) :   0.9330 B( 15-C , 33-H ) :   0.9401
B( 15-C , 34-H ) :   0.9490 B( 15-C , 35-H ) :   0.9478 B( 16-O , 17-C ) :   0.8980
B( 17-C , 18-C ) :   1.1737 B( 17-C , 36-H ) :   0.9288 B( 17-C , 37-H ) :   0.9130
B( 18-C , 38-H ) :   0.9366 B( 18-C , 39-H ) :   0.9429 B( 18-C , 40-H ) :   0.9396

Dispersion correction           -0.067383650
FINAL SINGLE POINT ENERGY     -2929.514997511376

DIPOLE MOMENT
-------------

Method             : SCF
Type of density    : Electron Density
Multiplicity       :   1
Irrep              :   0
Energy             : -2929.6324218991849193 Eh
Relativity type    :
Basis              : AO
                                X                 Y                 Z
Electronic contribution:     -8.059447316      -1.208529588     -12.804181772
Nuclear contribution   :      9.598649678       1.349065584      13.216742645
                        -----------------------------------------
Total Dipole Moment    :      1.539202362       0.140535996       0.412560873
                        -----------------------------------------
Magnitude (a.u.)       :      1.599718960
Magnitude (Debye)      :      4.066162453

Rotational constants in cm-1:             0.011561             0.005712             0.005061
Rotational constants in MHz :           346.579797           171.255086           151.709989

                             ****ORCA TERMINATED NORMALLY****
TOTAL RUN TIME: 0 days 0 hours 0 minutes 21 seconds 703 msec
