                         Program Version 6.0.0  -   RELEASE  -
|  1> ! pbe def2-sv(p) def2/J RI DEFGRID1 loosescf d4 GCP(DFT/SV(P)) printgap
|  2> %output
|  3>     printlevel normal
|  4> end
|  5> * xyz 0 1
|  6> C 2.5180780934 -0.4365186727 -3.0368382092
|  7> C 3.1051998967 0.545566621 -2.0418095776
|  8> O 2.1558381335 0.8491511537 -0.9889643767
|  9> P 2.1196158009 0.1878497474 0.4376636307
| 10> S 0.7964123024 1.1364883111 1.5280721446
| 11> O 3.6346572248 0.3075097789 0.8960744765
| 12> C 4.2526163004 -0.4758718717 1.9356234354
| 13> C 3.4912533034 -0.4191876552 3.2429002279
| 14> S 1.8986076884 -1.9202193227 0.2070216484
| 15> C 0.2219218654 -1.9809302322 -0.4613617541
| 16> S -1.0754777989 -1.6211348808 0.776793469
| 17> P -2.0565867216 -0.0559131155 -0.2294904717
| 18> S -1.1143708357 0.8370448853 -1.7043197818
| 19> O -2.6701921694 0.9138181609 0.8665118866
| 20> C -2.2548111023 2.2614091282 1.139404223
| 21> C -3.4742908501 3.1608933382 1.1097028759
| 22> O -3.3348160536 -0.9084088506 -0.6345715855
| 23> C -4.4694165811 -0.3353993402 -1.3195279731
| 24> C -4.3414365891 -0.509344264 -2.8203718432
| 25> H 2.433445854 -1.4289767733 -2.6009734556
| 26> H 1.5327413593 -0.0964815649 -3.3490404089
| 27> H 3.1664283899 -0.4878658973 -3.9056891853
| 28> H 3.2916368064 1.5135163625 -2.5095824281
| 29> H 4.0254442576 0.1668417097 -1.5938301374
| 30> H 4.3347438447 -1.506572221 1.580237492
| 31> H 5.2455307341 -0.033219812 2.0322316515
| 32> H 2.5061164607 -0.869290493 3.1240574781
| 33> H 4.0393628295 -0.9648192416 4.0040777527
| 34> H 3.3594565111 0.6124959652 3.5612684003
| 35> H 0.0816600365 -3.0010794927 -0.8082454528
| 36> H 0.1249365149 -1.2618091233 -1.2792542695
| 37> H -1.7759342525 2.2556703371 2.1210030251
| 38> H -1.5144755375 2.5680647036 0.3928959093
| 39> H -3.9005104047 3.1854488896 0.1093143835
| 40> H -4.2217272965 2.7934583719 1.8070771017
| 41> H -3.1778710825 4.1650440984 1.3940551591
| 42> H -5.3271194328 -0.8845891521 -0.9269328125
| 43> H -4.5587678465 0.7200790696 -1.0479866215
| 44> H -4.2170316958 -1.5610798883 -3.0621783733
| 45> H -5.2379999193 -0.1321509964 -3.3019539345
| 46> H -3.4791170534 0.0395761512 -3.1928021559
| 47> *
| 48>
| 49>                          ****END OF INPUT****

CARTESIAN COORDINATES (ANGSTROEM)
---------------------------------
  C      2.518078   -0.436519   -3.036838
  C      3.105200    0.545567   -2.041810
  O      2.155838    0.849151   -0.988964
  P      2.119616    0.187850    0.437664
  S      0.796412    1.136488    1.528072
  O      3.634657    0.307510    0.896074
  C      4.252616   -0.475872    1.935623
  C      3.491253   -0.419188    3.242900
  S      1.898608   -1.920219    0.207022
  C      0.221922   -1.980930   -0.461362
  S     -1.075478   -1.621135    0.776793
  P     -2.056587   -0.055913   -0.229490
  S     -1.114371    0.837045   -1.704320
  O     -2.670192    0.913818    0.866512
  C     -2.254811    2.261409    1.139404
  C     -3.474291    3.160893    1.109703
  O     -3.334816   -0.908409   -0.634572
  C     -4.469417   -0.335399   -1.319528
  C     -4.341437   -0.509344   -2.820372
  H      2.433446   -1.428977   -2.600973
  H      1.532741   -0.096482   -3.349040
  H      3.166428   -0.487866   -3.905689
  H      3.291637    1.513516   -2.509582
  H      4.025444    0.166842   -1.593830
  H      4.334744   -1.506572    1.580237
  H      5.245531   -0.033220    2.032232
  H      2.506116   -0.869290    3.124057
  H      4.039363   -0.964819    4.004078
  H      3.359457    0.612496    3.561268
  H      0.081660   -3.001079   -0.808245
  H      0.124937   -1.261809   -1.279254
  H     -1.775934    2.255670    2.121003
  H     -1.514476    2.568065    0.392896
  H     -3.900510    3.185449    0.109314
  H     -4.221727    2.793458    1.807077
  H     -3.177871    4.165044    1.394055
  H     -5.327119   -0.884589   -0.926933
  H     -4.558768    0.720079   -1.047987
  H     -4.217032   -1.561080   -3.062178
  H     -5.238000   -0.132151   -3.301954
  H     -3.479117    0.039576   -3.192802

 Total Charge           Charge          ....    0
 Multiplicity           Mult            ....    1
 Number of Electrons    NEL             ....  202
 Basis Dimension        Dim             ....  334

ORBITAL ENERGIES
----------------

  NO   OCC          E(Eh)            E(eV)
   0   2.0000     -88.044392     -2395.8097
   1   2.0000     -88.032592     -2395.4886
   2   2.0000     -87.982200     -2394.1174
   3   2.0000     -87.974146     -2393.8982
   4   2.0000     -76.422832     -2079.5710
   5   2.0000     -76.419413     -2079.4779
   6   2.0000     -18.791843      -511.3521
   7   2.0000     -18.786125      -511.1965
   8   2.0000     -18.785275      -511.1733
   9   2.0000     -18.777923      -510.9733
  10   2.0000      -9.959068      -271.0000
  11   2.0000      -9.954687      -270.8808
  12   2.0000      -9.952440      -270.8197
  13   2.0000      -9.948180      -270.7037
  14   2.0000      -9.940686      -270.4998
  15   2.0000      -9.882901      -268.9274
  16   2.0000      -9.881770      -268.8966
  17   2.0000      -9.880969      -268.8748
  18   2.0000      -9.876789      -268.7611
  19   2.0000      -7.689252      -209.2352
  20   2.0000      -7.678141      -208.9328
  21   2.0000      -7.627002      -207.5413
  22   2.0000      -7.619108      -207.3265
  23   2.0000      -6.419893      -174.6942
  24   2.0000      -6.416969      -174.6146
  25   2.0000      -5.716804      -155.5622
  26   2.0000      -5.713765      -155.4794
  27   2.0000      -5.706585      -155.2841
  28   2.0000      -5.706146      -155.2721
  29   2.0000      -5.702987      -155.1862
  30   2.0000      -5.694526      -154.9559
  31   2.0000      -5.655761      -153.9011
  32   2.0000      -5.648245      -153.6966
  33   2.0000      -5.648052      -153.6913
  34   2.0000      -5.646846      -153.6585
  35   2.0000      -5.639657      -153.4629
  36   2.0000      -5.639107      -153.4479
  37   2.0000      -4.642895      -126.3396
  38   2.0000      -4.642020      -126.3158
  39   2.0000      -4.639701      -126.2527
  40   2.0000      -4.639529      -126.2480
  41   2.0000      -4.638460      -126.2189
  42   2.0000      -4.637724      -126.1989
  43   2.0000      -0.985585       -26.8191
  44   2.0000      -0.977972       -26.6120
  45   2.0000      -0.941699       -25.6249
  46   2.0000      -0.934569       -25.4309
  47   2.0000      -0.759182       -20.6584
  48   2.0000      -0.718743       -19.5580
  49   2.0000      -0.708799       -19.2874
  50   2.0000      -0.688766       -18.7423
  51   2.0000      -0.681596       -18.5472
  52   2.0000      -0.670686       -18.2503
  53   2.0000      -0.647688       -17.6245
  54   2.0000      -0.631703       -17.1895
  55   2.0000      -0.591251       -16.0888
  56   2.0000      -0.583728       -15.8841
  57   2.0000      -0.574673       -15.6376
  58   2.0000      -0.566907       -15.4263
  59   2.0000      -0.558578       -15.1997
  60   2.0000      -0.502679       -13.6786
  61   2.0000      -0.495685       -13.4883
  62   2.0000      -0.470394       -12.8001
  63   2.0000      -0.469393       -12.7728
  64   2.0000      -0.452649       -12.3172
  65   2.0000      -0.445797       -12.1308
  66   2.0000      -0.437763       -11.9121
  67   2.0000      -0.431938       -11.7536
  68   2.0000      -0.425618       -11.5817
  69   2.0000      -0.415943       -11.3184
  70   2.0000      -0.407666       -11.0932
  71   2.0000      -0.396117       -10.7789
  72   2.0000      -0.385626       -10.4934
  73   2.0000      -0.383234       -10.4283
  74   2.0000      -0.379009       -10.3134
  75   2.0000      -0.371106       -10.0983
  76   2.0000      -0.353905        -9.6303
  77   2.0000      -0.351736        -9.5712
  78   2.0000      -0.347775        -9.4635
  79   2.0000      -0.345743        -9.4081
  80   2.0000      -0.344252        -9.3676
  81   2.0000      -0.342357        -9.3160
  82   2.0000      -0.339081        -9.2269
  83   2.0000      -0.334907        -9.1133
  84   2.0000      -0.331855        -9.0302
  85   2.0000      -0.317023        -8.6266
  86   2.0000      -0.303513        -8.2590
  87   2.0000      -0.295435        -8.0392
  88   2.0000      -0.290206        -7.8969
  89   2.0000      -0.286114        -7.7856
  90   2.0000      -0.280482        -7.6323
  91   2.0000      -0.273706        -7.4479
  92   2.0000      -0.269928        -7.3451
  93   2.0000      -0.259670        -7.0660
  94   2.0000      -0.256525        -6.9804
  95   2.0000      -0.238509        -6.4902
  96   2.0000      -0.218389        -5.9427
  97   2.0000      -0.205144        -5.5823
  98   2.0000      -0.197910        -5.3854
  99   2.0000      -0.181623        -4.9422
 100   2.0000      -0.179900        -4.8953
 101   0.0000      -0.038216        -1.0399
 102   0.0000      -0.028791        -0.7834
 103   0.0000      -0.011866        -0.3229
 104   0.0000       0.003702         0.1007
 105   0.0000       0.024039         0.6541

MULLIKEN ATOMIC CHARGES
-----------------------
   0 C :   -0.311038
   1 C :   -0.003989
   2 O :   -0.344505
   3 P :    0.610218
   4 S :   -0.317241
   5 O :   -0.379950
   6 C :   -0.015519
   7 C :   -0.309937
   8 S :   -0.135168
   9 C :   -0.360533
  10 S :   -0.059177
  11 P :    0.628695
  12 S :   -0.330321
  13 O :   -0.380096
  14 C :   -0.030214
  15 C :   -0.280887
  16 O :   -0.369839
  17 C :   -0.009402
  18 C :   -0.291589
  19 H :    0.118622
  20 H :    0.137433
  21 H :    0.109154
  22 H :    0.110582
  23 H :    0.100283
  24 H :    0.114823
  25 H :    0.110173
  26 H :    0.131138
  27 H :    0.110446
  28 H :    0.127857
  29 H :    0.183549
  30 H :    0.205858
  31 H :    0.115665
  32 H :    0.127180
  33 H :    0.116592
  34 H :    0.113164
  35 H :    0.111895
  36 H :    0.105223
  37 H :    0.100383
  38 H :    0.111127
  39 H :    0.104095
  40 H :    0.125251
Sum of atomic charges:   -0.0000000

LOEWDIN ATOMIC CHARGES
----------------------
   0 C :   -0.367161
   1 C :   -0.109924
   2 O :   -0.226387
   3 P :    0.566008
   4 S :   -0.302038
   5 O :   -0.245489
   6 C :   -0.115182
   7 C :   -0.370310
   8 S :    0.058974
   9 C :   -0.479581
  10 S :    0.093666
  11 P :    0.570649
  12 S :   -0.306523
  13 O :   -0.239532
  14 C :   -0.125020
  15 C :   -0.354250
  16 O :   -0.251389
  17 C :   -0.113902
  18 C :   -0.363766
  19 H :    0.117254
  20 H :    0.131128
  21 H :    0.129261
  22 H :    0.122912
  23 H :    0.108240
  24 H :    0.107434
  25 H :    0.121746
  26 H :    0.123402
  27 H :    0.129691
  28 H :    0.130942
  29 H :    0.137573
  30 H :    0.121388
  31 H :    0.113102
  32 H :    0.109420
  33 H :    0.122463
  34 H :    0.124678
  35 H :    0.131164
  36 H :    0.118361
  37 H :    0.106838
  38 H :    0.125077
  39 H :    0.126537
  40 H :    0.122546

  Mayer bond orders larger than 0.100000
B(  0-C ,  1-C ) :   1.1707 B(  0-C , 19-H ) :   0.9332 B(  0-C , 20-H ) :   0.9356
B(  0-C , 21-H ) :   0.9382 B(  1-C ,  2-O ) :   0.8987 B(  1-C , 22-H ) :   0.9349
B(  1-C , 23-H ) :   0.9194 B(  2-O ,  3-P ) :   1.1425 B(  3-P ,  4-S ) :   1.6546
B(  3-P ,  5-O ) :   1.0866 B(  3-P ,  8-S ) :   0.9363 B(  4-S ,  8-S ) :   0.1156
B(  5-O ,  6-C ) :   0.9121 B(  6-C ,  7-C ) :   1.1674 B(  6-C , 24-H ) :   0.9255
B(  6-C , 25-H ) :   0.9332 B(  7-C , 26-H ) :   0.9310 B(  7-C , 27-H ) :   0.9343
B(  7-C , 28-H ) :   0.9421 B(  8-S ,  9-C ) :   0.9879 B(  9-C , 10-S ) :   1.0119
B(  9-C , 29-H ) :   0.9113 B(  9-C , 30-H ) :   0.8451 B( 10-S , 11-P ) :   0.9610
B( 10-S , 12-S ) :   0.1178 B( 11-P , 12-S ) :   1.5882 B( 11-P , 13-O ) :   1.1229
B( 11-P , 16-O ) :   1.1161 B( 12-S , 30-H ) :   0.1037 B( 13-O , 14-C ) :   0.8965
B( 14-C , 15-C ) :   1.1518 B( 14-C , 31-H ) :   0.9290 B( 14-C , 32-H ) :   0.9036
B( 15-C , 33-H ) :   0.9444 B( 15-C , 34-H ) :   0.9498 B( 15-C , 35-H ) :   0.9417
B( 16-O , 17-C ) :   0.9060 B( 17-C , 18-C ) :   1.1676 B( 17-C , 36-H ) :   0.9362
B( 17-C , 37-H ) :   0.9153 B( 18-C , 38-H ) :   0.9476 B( 18-C , 39-H ) :   0.9405
B( 18-C , 40-H ) :   0.9316

Dispersion correction           -0.066593281
FINAL SINGLE POINT ENERGY     -2929.509329626119

DIPOLE MOMENT
-------------

Method             : SCF
Type of density    : Electron Density
Multiplicity       :   1
Irrep              :   0
Energy             : -2929.6270490835636338 Eh
Relativity type    :
Basis              : AO
                                X                 Y                 Z
Electronic contribution:      3.611213244      -5.732345887       6.811090597
Nuclear contribution   :     -3.141048360       5.378844426      -7.198812780
                        -----------------------------------------
Total Dipole Moment    :      0.470164884      -0.353501461      -0.387722183
                        -----------------------------------------
Magnitude (a.u.)       :      0.704518837
Magnitude (Debye)      :      1.790744571

Rotational constants in cm-1:             0.012301             0.005239             0.004797
Rotational constants in MHz :           368.770259           157.049516           143.805024

                             ****ORCA TERMINATED NORMALLY****
TOTAL RUN TIME: 0 days 0 hours 0 minutes 21 seconds 128 msec
