                         Program Version 6.0.0  -   RELEASE  -
|  1> ! wb97x-v def2-tzvp def2/J RIJCOSX DEFGRID2 scfconv7 GCP(DFT/TZ) printgap
|  2> %output
|  3>     printlevel normal
|  4> end
|  5> * xyz 0 1
|  6> C 0.6602832191148564 1.6795469576134616 -0.044266040483566776
|  7> C 1.407793532812694 0.3705364118972203 -0.28492456282607803
|  8> H 1.608492376086528 0.24767641512801586 -1.3595205547569034
|  9> C 0.5543996356225378 -0.7871905993660124 0.19194018481373026
| 10> H 0.4243423932544004 -0.7102130421288082 1.2835664970336413
| 11> C -0.8126082477268842 -0.7192066328417812 -0.4929456167085882
| 12> H -0.6689792002878632 -0.8583578574181587 -1.5700443386814051
| 13> C -1.4799938139082915 0.6432515713174581 -0.28976123010401794
| 14> H -2.3677417660857505 0.7335459731208257 -0.9255554542414047
| 15> O -0.612149746370983 1.686346282541759 -0.7198977318213614
| 16> O -1.8300975450883814 0.758021704289322 1.0767159555580463
| 17> O -1.6592183759177659 -1.7875533840000268 -0.06691610480673432
| 18> O 1.217940050455879 -2.0130945616656692 -0.1360676691862184
| 19> O 2.6346720350306123 0.3630502735797788 0.45568368101700196
| 20> H 1.2248779439150614 2.5201119280820876 -0.45554100125574043
| 21> H 0.5264865514317317 1.836182630338057 1.0342606708285924
| 22> H -2.4926544151372108 1.4574158845908447 1.1580068451164753
| 23> H -1.8698500287469961 -1.6339069866047555 0.8657410683642898
| 24> H 0.6282652427356862 -2.73186368793447 0.13122897521507235
| 25> H 3.231647083284204 0.9973990305297561 0.037154175259613224
| 26> *
| 27>
| 28>                          ****END OF INPUT****

CARTESIAN COORDINATES (ANGSTROEM)
---------------------------------
  C      0.660283    1.679547   -0.044266
  C      1.407794    0.370536   -0.284925
  H      1.608492    0.247676   -1.359521
  C      0.554400   -0.787191    0.191940
  H      0.424342   -0.710213    1.283566
  C     -0.812608   -0.719207   -0.492946
  H     -0.668979   -0.858358   -1.570044
  C     -1.479994    0.643252   -0.289761
  H     -2.367742    0.733546   -0.925555
  O     -0.612150    1.686346   -0.719898
  O     -1.830098    0.758022    1.076716
  O     -1.659218   -1.787553   -0.066916
  O      1.217940   -2.013095   -0.136068
  O      2.634672    0.363050    0.455684
  H      1.224878    2.520112   -0.455541
  H      0.526487    1.836183    1.034261
  H     -2.492654    1.457416    1.158007
  H     -1.869850   -1.633907    0.865741
  H      0.628265   -2.731864    0.131229
  H      3.231647    0.997399    0.037154

 Total Charge           Charge          ....    0
 Multiplicity           Mult            ....    1
 Number of Electrons    NEL             ....   80
 Basis Dimension        Dim             ....  370

ORBITAL ENERGIES
----------------

  NO   OCC          E(Eh)            E(eV)
   0   2.0000     -21.702567      -590.5569
   1   2.0000     -21.693362      -590.3064
   2   2.0000     -21.685809      -590.1009
   3   2.0000     -21.678836      -589.9111
   4   2.0000     -21.668532      -589.6307
   5   2.0000     -12.160492      -330.9038
   6   2.0000     -12.108047      -329.4767
   7   2.0000     -12.105634      -329.4110
   8   2.0000     -12.102032      -329.3130
   9   2.0000     -12.100966      -329.2840
  10   2.0000      -1.727650       -47.0117
  11   2.0000      -1.689294       -45.9680
  12   2.0000      -1.685843       -45.8741
  13   2.0000      -1.679970       -45.7143
  14   2.0000      -1.668740       -45.4087
  15   2.0000      -1.332333       -36.2546
  16   2.0000      -1.307998       -35.5924
  17   2.0000      -1.197484       -32.5852
  18   2.0000      -1.194744       -32.5106
  19   2.0000      -1.132872       -30.8270
  20   2.0000      -1.084739       -29.5172
  21   2.0000      -1.063660       -28.9437
  22   2.0000      -1.039700       -28.2917
  23   2.0000      -1.037206       -28.2238
  24   2.0000      -1.018833       -27.7239
  25   2.0000      -0.998493       -27.1704
  26   2.0000      -0.986065       -26.8322
  27   2.0000      -0.971498       -26.4358
  28   2.0000      -0.963578       -26.2203
  29   2.0000      -0.947824       -25.7916
  30   2.0000      -0.936918       -25.4948
  31   2.0000      -0.929538       -25.2940
  32   2.0000      -0.919212       -25.0130
  33   2.0000      -0.891488       -24.2586
  34   2.0000      -0.882169       -24.0050
  35   2.0000      -0.856414       -23.3042
  36   2.0000      -0.833169       -22.6717
  37   2.0000      -0.820354       -22.3230
  38   2.0000      -0.798403       -21.7256
  39   2.0000      -0.777011       -21.1435
  40   0.0000      -0.237444        -6.4612
  41   0.0000      -0.177159        -4.8207
  42   0.0000      -0.170710        -4.6452
  43   0.0000      -0.150876        -4.1055
  44   0.0000      -0.118699        -3.2300

MULLIKEN ATOMIC CHARGES
-----------------------
   0 C :   -0.049944
   1 C :    0.020138
   2 H :    0.079137
   3 C :    0.085644
   4 H :    0.089601
   5 C :    0.034879
   6 H :    0.101967
   7 C :    0.105100
   8 H :    0.103162
   9 O :   -0.289578
  10 O :   -0.439756
  11 O :   -0.453742
  12 O :   -0.425537
  13 O :   -0.414236
  14 H :    0.111660
  15 H :    0.106995
  16 H :    0.316773
  17 H :    0.312879
  18 H :    0.305944
  19 H :    0.298914
Sum of atomic charges:   -0.0000000

LOEWDIN ATOMIC CHARGES
----------------------
   0 C :   -0.279850
   1 C :   -0.327361
   2 H :    0.139979
   3 C :   -0.312219
   4 H :    0.143580
   5 C :   -0.313034
   6 H :    0.155014
   7 C :   -0.412693
   8 H :    0.131959
   9 O :    0.161114
  10 O :   -0.005542
  11 O :   -0.014863
  12 O :   -0.009353
  13 O :   -0.006409
  14 H :    0.125868
  15 H :    0.127048
  16 H :    0.179558
  17 H :    0.174165
  18 H :    0.171898
  19 H :    0.171140

  Mayer bond orders larger than 0.100000
B(  0-C ,  1-C ) :   0.9542 B(  0-C ,  9-O ) :   0.9744 B(  0-C , 14-H ) :   0.9637
B(  0-C , 15-H ) :   0.9731 B(  1-C ,  2-H ) :   0.9780 B(  1-C ,  3-C ) :   0.9491
B(  1-C , 13-O ) :   1.1296 B(  3-C ,  4-H ) :   0.9541 B(  3-C ,  5-C ) :   0.9868
B(  3-C , 12-O ) :   1.0841 B(  5-C ,  6-H ) :   0.9480 B(  5-C ,  7-C ) :   0.9665
B(  5-C , 11-O ) :   1.0076 B(  7-C ,  8-H ) :   0.9544 B(  7-C ,  9-O ) :   1.0629
B(  7-C , 10-O ) :   1.1806 B( 10-O , 16-H ) :   0.8911 B( 11-O , 17-H ) :   0.8819
B( 12-O , 18-H ) :   0.8880 B( 13-O , 19-H ) :   0.9033

FINAL SINGLE POINT ENERGY      -572.703895197901

DIPOLE MOMENT
-------------

Method             : SCF
Type of density    : Electron Density
Multiplicity       :   1
Irrep              :   0
Energy             :  -572.7194600364009602 Eh
Relativity type    :
Basis              : AO
                                X                 Y                 Z
Electronic contribution:     -0.814342832      -0.782296803      -0.127925718
Nuclear contribution   :      0.211733715       1.713413117       0.265085061
                        -----------------------------------------
Total Dipole Moment    :     -0.602609117       0.931116314       0.137159343
                        -----------------------------------------
Magnitude (a.u.)       :      1.117554483
Magnitude (Debye)      :      2.840597751

Rotational constants in cm-1:             0.056559             0.044018             0.028633
Rotational constants in MHz :          1695.592091          1319.613167           858.409076

                             ****ORCA TERMINATED NORMALLY****
TOTAL RUN TIME: 0 days 0 hours 3 minutes 46 seconds 122 msec
