                         Program Version 6.0.0  -   RELEASE  -
|  1> ! wb97x-v def2-tzvp def2/J RIJCOSX DEFGRID2 scfconv7 GCP(DFT/TZ) printgap
|  2> %output
|  3>     printlevel normal
|  4> end
|  5> %cpcm
|  6>     smd true
|  7>     smdsolvent "water"
|  8> end
|  9> * xyz 0 1
| 10> C 0.6602832191148564 1.6795469576134616 -0.044266040483566776
| 11> C 1.407793532812694 0.3705364118972203 -0.28492456282607803
| 12> H 1.608492376086528 0.24767641512801586 -1.3595205547569034
| 13> C 0.5543996356225378 -0.7871905993660124 0.19194018481373026
| 14> H 0.4243423932544004 -0.7102130421288082 1.2835664970336413
| 15> C -0.8126082477268842 -0.7192066328417812 -0.4929456167085882
| 16> H -0.6689792002878632 -0.8583578574181587 -1.5700443386814051
| 17> C -1.4799938139082915 0.6432515713174581 -0.28976123010401794
| 18> H -2.3677417660857505 0.7335459731208257 -0.9255554542414047
| 19> O -0.612149746370983 1.686346282541759 -0.7198977318213614
| 20> O -1.8300975450883814 0.758021704289322 1.0767159555580463
| 21> O -1.6592183759177659 -1.7875533840000268 -0.06691610480673432
| 22> O 1.217940050455879 -2.0130945616656692 -0.1360676691862184
| 23> O 2.6346720350306123 0.3630502735797788 0.45568368101700196
| 24> H 1.2248779439150614 2.5201119280820876 -0.45554100125574043
| 25> H 0.5264865514317317 1.836182630338057 1.0342606708285924
| 26> H -2.4926544151372108 1.4574158845908447 1.1580068451164753
| 27> H -1.8698500287469961 -1.6339069866047555 0.8657410683642898
| 28> H 0.6282652427356862 -2.73186368793447 0.13122897521507235
| 29> H 3.231647083284204 0.9973990305297561 0.037154175259613224
| 30> *
| 31>
| 32>                          ****END OF INPUT****

CARTESIAN COORDINATES (ANGSTROEM)
---------------------------------
  C      0.660283    1.679547   -0.044266
  C      1.407794    0.370536   -0.284925
  H      1.608492    0.247676   -1.359521
  C      0.554400   -0.787191    0.191940
  H      0.424342   -0.710213    1.283566
  C     -0.812608   -0.719207   -0.492946
  H     -0.668979   -0.858358   -1.570044
  C     -1.479994    0.643252   -0.289761
  H     -2.367742    0.733546   -0.925555
  O     -0.612150    1.686346   -0.719898
  O     -1.830098    0.758022    1.076716
  O     -1.659218   -1.787553   -0.066916
  O      1.217940   -2.013095   -0.136068
  O      2.634672    0.363050    0.455684
  H      1.224878    2.520112   -0.455541
  H      0.526487    1.836183    1.034261
  H     -2.492654    1.457416    1.158007
  H     -1.869850   -1.633907    0.865741
  H      0.628265   -2.731864    0.131229
  H      3.231647    0.997399    0.037154

 Total Charge           Charge          ....    0
 Multiplicity           Mult            ....    1
 Number of Electrons    NEL             ....   80
 Basis Dimension        Dim             ....  370

ORBITAL ENERGIES
----------------

  NO   OCC          E(Eh)            E(eV)
   0   2.0000     -21.691812      -590.2642
   1   2.0000     -21.688786      -590.1819
   2   2.0000     -21.684026      -590.0524
   3   2.0000     -21.681016      -589.9704
   4   2.0000     -21.678693      -589.9072
   5   2.0000     -12.150431      -330.6300
   6   2.0000     -12.102640      -329.3296
   7   2.0000     -12.101214      -329.2908
   8   2.0000     -12.099643      -329.2480
   9   2.0000     -12.091799      -329.0346
  10   2.0000      -1.719351       -46.7859
  11   2.0000      -1.689187       -45.9651
  12   2.0000      -1.684915       -45.8489
  13   2.0000      -1.676805       -45.6282
  14   2.0000      -1.676483       -45.6194
  15   2.0000      -1.329416       -36.1752
  16   2.0000      -1.300954       -35.4007
  17   2.0000      -1.194921       -32.5155
  18   2.0000      -1.189558       -32.3695
  19   2.0000      -1.129509       -30.7355
  20   2.0000      -1.081056       -29.4170
  21   2.0000      -1.064102       -28.9557
  22   2.0000      -1.038300       -28.2536
  23   2.0000      -1.034176       -28.1413
  24   2.0000      -1.015619       -27.6364
  25   2.0000      -0.995711       -27.0947
  26   2.0000      -0.985645       -26.8208
  27   2.0000      -0.973863       -26.5001
  28   2.0000      -0.967823       -26.3358
  29   2.0000      -0.948568       -25.8118
  30   2.0000      -0.940726       -25.5984
  31   2.0000      -0.924799       -25.1650
  32   2.0000      -0.919833       -25.0299
  33   2.0000      -0.895199       -24.3596
  34   2.0000      -0.876106       -23.8401
  35   2.0000      -0.851642       -23.1743
  36   2.0000      -0.827457       -22.5162
  37   2.0000      -0.816040       -22.2056
  38   2.0000      -0.794854       -21.6291
  39   2.0000      -0.772184       -21.0122
  40   0.0000      -0.233211        -6.3460
  41   0.0000      -0.172026        -4.6811
  42   0.0000      -0.160973        -4.3803
  43   0.0000      -0.148957        -4.0533
  44   0.0000      -0.112417        -3.0590

MULLIKEN ATOMIC CHARGES
-----------------------
   0 C :   -0.085255
   1 C :    0.053689
   2 H :    0.105657
   3 C :    0.089554
   4 H :    0.113788
   5 C :    0.074527
   6 H :    0.126340
   7 C :    0.121003
   8 H :    0.134925
   9 O :   -0.355467
  10 O :   -0.507836
  11 O :   -0.532345
  12 O :   -0.532571
  13 O :   -0.529264
  14 H :    0.152187
  15 H :    0.117637
  16 H :    0.371245
  17 H :    0.358597
  18 H :    0.357218
  19 H :    0.366371
Sum of atomic charges:   -0.0000000

LOEWDIN ATOMIC CHARGES
----------------------
   0 C :   -0.275367
   1 C :   -0.323417
   2 H :    0.148264
   3 C :   -0.311462
   4 H :    0.150240
   5 C :   -0.309926
   6 H :    0.160807
   7 C :   -0.403682
   8 H :    0.142636
   9 O :    0.137302
  10 O :   -0.020466
  11 O :   -0.041736
  12 O :   -0.050366
  13 O :   -0.046539
  14 H :    0.137262
  15 H :    0.129080
  16 H :    0.200506
  17 H :    0.191281
  18 H :    0.189248
  19 H :    0.196335

  Mayer bond orders larger than 0.100000
B(  0-C ,  1-C ) :   0.9640 B(  0-C ,  9-O ) :   0.9435 B(  0-C , 14-H ) :   0.9618
B(  0-C , 15-H ) :   0.9716 B(  1-C ,  2-H ) :   0.9752 B(  1-C ,  3-C ) :   0.9516
B(  1-C , 13-O ) :   1.0732 B(  3-C ,  4-H ) :   0.9585 B(  3-C ,  5-C ) :   0.9840
B(  3-C , 12-O ) :   1.0244 B(  5-C ,  6-H ) :   0.9427 B(  5-C ,  7-C ) :   0.9696
B(  5-C , 11-O ) :   0.9910 B(  7-C ,  8-H ) :   0.9585 B(  7-C ,  9-O ) :   1.0272
B(  7-C , 10-O ) :   1.1610 B( 10-O , 16-H ) :   0.8549 B( 11-O , 17-H ) :   0.8545
B( 12-O , 18-H ) :   0.8591 B( 13-O , 19-H ) :   0.8634

FINAL SINGLE POINT ENERGY      -572.737390563661

DIPOLE MOMENT
-------------

Method             : SCF
Type of density    : Electron Density
Multiplicity       :   1
Irrep              :   0
Energy             :  -572.7529554021613194 Eh
Relativity type    :
Basis              : AO
                                X                 Y                 Z
Electronic contribution:     -1.050820135      -0.440996960      -0.124976885
Nuclear contribution   :      0.211733715       1.713413117       0.265085061
                        -----------------------------------------
Total Dipole Moment    :     -0.839086420       1.272416157       0.140108176
                        -----------------------------------------
Magnitude (a.u.)       :      1.530600928
Magnitude (Debye)      :      3.890478377

Rotational constants in cm-1:             0.056559             0.044018             0.028633
Rotational constants in MHz :          1695.592091          1319.613167           858.409076

                             ****ORCA TERMINATED NORMALLY****
TOTAL RUN TIME: 0 days 0 hours 4 minutes 10 seconds 255 msec
