                         Program Version 6.0.1  -  RELEASE   -
|  1> ! pbe def2-sv(p) def2/J RI DEFGRID1 loosescf d4 GCP(DFT/SV(P)) printgap
|  2> %output
|  3>     printlevel normal
|  4> end
|  5> * xyz 0 1
|  6> C 4.5699921837 -3.8505508458 -1.2635581288
|  7> C 4.299896164 -2.4578182915 -0.7257352713
|  8> O 3.2781421888 -1.8458817419 -1.54005482
|  9> C 2.4236971131 -1.0217478122 -0.9814035499
| 10> O 2.4244911978 -0.7139688134 0.1937587278
| 11> C 1.4267203181 -0.4780775819 -1.9836766637
| 12> C 0.31561673 0.2580011192 -1.2478675985
| 13> H -0.3129170945 0.8162518097 -1.9498261437
| 14> C 0.9194004421 1.2613513939 -0.2780766178
| 15> O 1.8134115035 2.0086191393 -0.6057128667
| 16> O 0.3062726131 1.2725149342 0.8867666569
| 17> C 0.7848224701 2.1602158993 1.9158835604
| 18> C 1.6539626707 1.3927016621 2.897293675
| 19> S -0.759931135 -0.9368660515 -0.3865102788
| 20> P -2.2458959814 0.414542372 0.3064601542
| 21> S -2.4070398763 2.1150003734 -0.6514206296
| 22> O -3.5628018991 -0.4976121144 0.2308138465
| 23> C -4.1235066468 -0.8877100092 -1.0275827523
| 24> O -2.1333588417 0.5841815395 1.8727321301
| 25> C -2.0151059527 -0.5460041018 2.7586517133
| 26> H 3.6759494335 -4.4628074332 -1.1902998985
| 27> H 4.871676162 -3.7922010796 -2.3048510689
| 28> H 5.3650257351 -4.3088062644 -0.6848429526
| 29> H 5.1904887069 -1.8264434899 -0.7905995837
| 30> H 3.952126189 -2.4778465465 0.3112591571
| 31> H 1.0326677809 -1.291739774 -2.5913131067
| 32> H 1.9565199145 0.2236600332 -2.6317325629
| 33> H 1.3439396997 2.9666106745 1.4331750479
| 34> H -0.1160156629 2.5555420921 2.3890360051
| 35> H 2.4721917074 0.9147365713 2.3626070145
| 36> H 2.056573958 2.080303391 3.6333014002
| 37> H 1.070870922 0.6256719383 3.3986802368
| 38> H -3.4798785306 -1.6253870327 -1.5063638852
| 39> H -4.2374679539 -0.0153571086 -1.6730372083
| 40> H -5.0944685592 -1.3170193269 -0.7944783549
| 41> H -1.955684926 -0.1193971606 3.7566074021
| 42> H -1.1107155184 -1.1071748428 2.5225645031
| 43> H -2.8888937934 -1.1876944166 2.6636830425
| 44> *
| 45>
| 46>                          ****END OF INPUT****

CARTESIAN COORDINATES (ANGSTROEM)
---------------------------------
  C      4.569992   -3.850551   -1.263558
  C      4.299896   -2.457818   -0.725735
  O      3.278142   -1.845882   -1.540055
  C      2.423697   -1.021748   -0.981404
  O      2.424491   -0.713969    0.193759
  C      1.426720   -0.478078   -1.983677
  C      0.315617    0.258001   -1.247868
  H     -0.312917    0.816252   -1.949826
  C      0.919400    1.261351   -0.278077
  O      1.813412    2.008619   -0.605713
  O      0.306273    1.272515    0.886767
  C      0.784822    2.160216    1.915884
  C      1.653963    1.392702    2.897294
  S     -0.759931   -0.936866   -0.386510
  P     -2.245896    0.414542    0.306460
  S     -2.407040    2.115000   -0.651421
  O     -3.562802   -0.497612    0.230814
  C     -4.123507   -0.887710   -1.027583
  O     -2.133359    0.584182    1.872732
  C     -2.015106   -0.546004    2.758652
  H      3.675949   -4.462807   -1.190300
  H      4.871676   -3.792201   -2.304851
  H      5.365026   -4.308806   -0.684843
  H      5.190489   -1.826443   -0.790600
  H      3.952126   -2.477847    0.311259
  H      1.032668   -1.291740   -2.591313
  H      1.956520    0.223660   -2.631733
  H      1.343940    2.966611    1.433175
  H     -0.116016    2.555542    2.389036
  H      2.472192    0.914737    2.362607
  H      2.056574    2.080303    3.633301
  H      1.070871    0.625672    3.398680
  H     -3.479879   -1.625387   -1.506364
  H     -4.237468   -0.015357   -1.673037
  H     -5.094469   -1.317019   -0.794478
  H     -1.955685   -0.119397    3.756607
  H     -1.110716   -1.107175    2.522565
  H     -2.888894   -1.187694    2.663683

 Total Charge           Charge          ....    0
 Multiplicity           Mult            ....    1
 Number of Electrons    NEL             ....  174
 Basis Dimension        Dim             ....  316

ORBITAL ENERGIES
----------------

  NO   OCC          E(Eh)            E(eV)
   0   2.0000     -88.036920     -2395.6064
   1   2.0000     -87.978487     -2394.0163
   2   2.0000     -76.422870     -2079.5720
   3   2.0000     -18.812289      -511.9084
   4   2.0000     -18.796363      -511.4750
   5   2.0000     -18.791706      -511.3483
   6   2.0000     -18.788143      -511.2514
   7   2.0000     -18.751236      -510.2471
   8   2.0000     -18.725098      -509.5358
   9   2.0000     -10.020298      -272.6662
  10   2.0000     -10.007060      -272.3060
  11   2.0000      -9.955940      -270.9149
  12   2.0000      -9.948857      -270.7222
  13   2.0000      -9.942329      -270.5445
  14   2.0000      -9.942032      -270.5364
  15   2.0000      -9.935507      -270.3589
  16   2.0000      -9.918562      -269.8978
  17   2.0000      -9.896385      -269.2943
  18   2.0000      -9.876729      -268.7595
  19   2.0000      -7.681517      -209.0247
  20   2.0000      -7.623723      -207.4520
  21   2.0000      -6.419624      -174.6868
  22   2.0000      -5.709217      -155.3557
  23   2.0000      -5.706209      -155.2738
  24   2.0000      -5.698571      -155.0660
  25   2.0000      -5.652891      -153.8230
  26   2.0000      -5.644187      -153.5861
  27   2.0000      -5.643758      -153.5745
  28   2.0000      -4.642366      -126.3252
  29   2.0000      -4.641554      -126.3031
  30   2.0000      -4.639931      -126.2589
  31   2.0000      -1.021633       -27.8000
  32   2.0000      -1.003366       -27.3030
  33   2.0000      -0.984178       -26.7808
  34   2.0000      -0.939717       -25.5710
  35   2.0000      -0.927740       -25.2451
  36   2.0000      -0.907158       -24.6850
  37   2.0000      -0.763944       -20.7880
  38   2.0000      -0.722036       -19.6476
  39   2.0000      -0.696971       -18.9656
  40   2.0000      -0.692235       -18.8367
  41   2.0000      -0.660578       -17.9752
  42   2.0000      -0.634528       -17.2664
  43   2.0000      -0.619559       -16.8591
  44   2.0000      -0.611165       -16.6306
  45   2.0000      -0.594684       -16.1822
  46   2.0000      -0.559079       -15.2133
  47   2.0000      -0.516756       -14.0616
  48   2.0000      -0.512681       -13.9508
  49   2.0000      -0.491826       -13.3833
  50   2.0000      -0.481034       -13.0896
  51   2.0000      -0.472720       -12.8634
  52   2.0000      -0.464895       -12.6504
  53   2.0000      -0.452696       -12.3185
  54   2.0000      -0.434287       -11.8176
  55   2.0000      -0.427627       -11.6363
  56   2.0000      -0.425302       -11.5731
  57   2.0000      -0.422662       -11.5012
  58   2.0000      -0.415676       -11.3111
  59   2.0000      -0.410426       -11.1683
  60   2.0000      -0.399796       -10.8790
  61   2.0000      -0.395178       -10.7533
  62   2.0000      -0.389740       -10.6054
  63   2.0000      -0.378743       -10.3061
  64   2.0000      -0.373614       -10.1665
  65   2.0000      -0.369600       -10.0573
  66   2.0000      -0.364125        -9.9084
  67   2.0000      -0.352685        -9.5970
  68   2.0000      -0.344859        -9.3841
  69   2.0000      -0.339731        -9.2445
  70   2.0000      -0.332369        -9.0442
  71   2.0000      -0.324306        -8.8248
  72   2.0000      -0.319739        -8.7005
  73   2.0000      -0.317098        -8.6287
  74   2.0000      -0.305799        -8.3212
  75   2.0000      -0.300906        -8.1881
  76   2.0000      -0.295613        -8.0440
  77   2.0000      -0.285582        -7.7711
  78   2.0000      -0.270856        -7.3704
  79   2.0000      -0.267466        -7.2781
  80   2.0000      -0.257454        -7.0057
  81   2.0000      -0.249826        -6.7981
  82   2.0000      -0.239028        -6.5043
  83   2.0000      -0.232018        -6.3135
  84   2.0000      -0.204941        -5.5767
  85   2.0000      -0.198045        -5.3891
  86   2.0000      -0.194516        -5.2931
  87   0.0000      -0.039206        -1.0668
  88   0.0000      -0.026824        -0.7299
  89   0.0000      -0.011678        -0.3178
  90   0.0000       0.008804         0.2396
  91   0.0000       0.021802         0.5933

MULLIKEN ATOMIC CHARGES
-----------------------
   0 C :   -0.283391
   1 C :   -0.030012
   2 O :   -0.226811
   3 C :    0.117495
   4 O :   -0.193222
   5 C :   -0.102339
   6 C :   -0.303942
   7 H :    0.151849
   8 C :    0.237012
   9 O :   -0.207094
  10 O :   -0.235137
  11 C :   -0.011944
  12 C :   -0.300588
  13 S :   -0.105494
  14 P :    0.624300
  15 S :   -0.321307
  16 O :   -0.390692
  17 C :   -0.097984
  18 O :   -0.363225
  19 C :   -0.115280
  20 H :    0.116357
  21 H :    0.118392
  22 H :    0.115198
  23 H :    0.112309
  24 H :    0.118641
  25 H :    0.128108
  26 H :    0.146442
  27 H :    0.112237
  28 H :    0.107206
  29 H :    0.132499
  30 H :    0.106643
  31 H :    0.105514
  32 H :    0.111001
  33 H :    0.117146
  34 H :    0.123580
  35 H :    0.130480
  36 H :    0.131154
  37 H :    0.124902
Sum of atomic charges:   -0.0000000

LOEWDIN ATOMIC CHARGES
----------------------
   0 C :   -0.350709
   1 C :   -0.107329
   2 O :   -0.055099
   3 C :    0.039331
   4 O :   -0.150779
   5 C :   -0.249091
   6 C :   -0.267619
   7 H :    0.143015
   8 C :    0.019199
   9 O :   -0.169926
  10 O :   -0.054671
  11 C :   -0.108129
  12 C :   -0.354061
  13 S :    0.086099
  14 P :    0.579497
  15 S :   -0.316289
  16 O :   -0.263535
  17 C :   -0.217429
  18 O :   -0.235185
  19 C :   -0.212536
  20 H :    0.127323
  21 H :    0.127856
  22 H :    0.132099
  23 H :    0.120460
  24 H :    0.121290
  25 H :    0.142555
  26 H :    0.160964
  27 H :    0.121243
  28 H :    0.118131
  29 H :    0.133561
  30 H :    0.127064
  31 H :    0.119657
  32 H :    0.106342
  33 H :    0.111403
  34 H :    0.121522
  35 H :    0.124883
  36 H :    0.113226
  37 H :    0.115666

  Mayer bond orders larger than 0.100000
B(  0-C ,  1-C ) :   1.1623 B(  0-C , 20-H ) :   0.9520 B(  0-C , 21-H ) :   0.9484
B(  0-C , 22-H ) :   0.9438 B(  1-C ,  2-O ) :   0.8989 B(  1-C , 23-H ) :   0.9352
B(  1-C , 24-H ) :   0.9159 B(  2-O ,  3-C ) :   1.2499 B(  3-C ,  4-O ) :   1.9991
B(  3-C ,  5-C ) :   0.9946 B(  5-C ,  6-C ) :   1.0658 B(  5-C , 25-H ) :   0.9011
B(  5-C , 26-H ) :   0.8735 B(  6-C ,  7-H ) :   0.8486 B(  6-C ,  8-C ) :   0.8653
B(  6-C , 13-S ) :   1.0193 B(  8-C ,  9-O ) :   2.0580 B(  8-C , 10-O ) :   1.2326
B( 10-O , 11-C ) :   0.9011 B( 11-C , 12-C ) :   1.1782 B( 11-C , 27-H ) :   0.9104
B( 11-C , 28-H ) :   0.9306 B( 12-C , 29-H ) :   0.9393 B( 12-C , 30-H ) :   0.9445
B( 12-C , 31-H ) :   0.9498 B( 13-S , 14-P ) :   0.9582 B( 13-S , 15-S ) :   0.1138
B( 14-P , 15-S ) :   1.6380 B( 14-P , 16-O ) :   1.0654 B( 14-P , 18-O ) :   1.1170
B( 16-O , 17-C ) :   0.9345 B( 17-C , 32-H ) :   0.9454 B( 17-C , 33-H ) :   0.9354
B( 17-C , 34-H ) :   0.9587 B( 18-O , 19-C ) :   0.9189 B( 19-C , 35-H ) :   0.9584
B( 19-C , 36-H ) :   0.9353 B( 19-C , 37-H ) :   0.9454

Dispersion correction           -0.052441500
FINAL SINGLE POINT ENERGY     -1979.021007356247

DIPOLE MOMENT
-------------

Method             : SCF
Type of density    : Electron Density
Multiplicity       :   1
Irrep              :   0
Energy             : -1979.1515024671357423 Eh
Relativity type    :
Basis              : AO
                                X                 Y                 Z
Electronic contribution:    -14.545166434      10.901541536      -5.441059001
Nuclear contribution   :     15.069138671     -12.916278469       5.732336414
                        -----------------------------------------
Total Dipole Moment    :      0.523972236      -2.014736933       0.291277414
                        -----------------------------------------
Magnitude (a.u.)       :      2.102035762
Magnitude (Debye)      :      5.342950295

Rotational constants in cm-1:             0.014836             0.006237             0.005604
Rotational constants in MHz :           444.778478           186.977791           168.001985

                             ****ORCA TERMINATED NORMALLY****
TOTAL RUN TIME: 0 days 0 hours 0 minutes 45 seconds 415 msec
