                         Program Version 6.0.0  -   RELEASE  -
|  1> ! pbe def2-sv(p) def2/J RI DEFGRID1 loosescf d4 GCP(DFT/SV(P)) printgap
|  2> %output
|  3>     printlevel normal
|  4> end
|  5> * xyz 0 1
|  6> C 2.5227337325 -1.6244360106 -2.4813807481
|  7> C 3.7589881665 -1.2986217761 -1.6688852725
|  8> O 3.5139547616 -1.3985929632 -0.2548236981
|  9> P 2.5178482403 -0.418590656 0.4997063528
| 10> S 2.5588094623 1.4528323067 -0.1074831301
| 11> O 2.9027263479 -0.6297452779 2.0243099698
| 12> C 3.9204651667 0.1559218946 2.6780289068
| 13> C 5.306016914 -0.1785212856 2.1670092447
| 14> S 0.6835572358 -1.4586180418 0.5208851977
| 15> C -0.3336497616 -0.0762422446 1.1111944407
| 16> S -0.8230849522 1.0685415049 -0.2205285811
| 17> P -2.8375219189 0.3969531908 -0.4148310478
| 18> S -3.9142316324 1.2712434513 -1.7951904004
| 19> O -3.4170386434 0.4636385424 1.067073576
| 20> C -4.1221076853 1.62219553 1.5440515955
| 21> C -3.1977138631 2.8024729103 1.7711186626
| 22> O -2.7412676134 -1.1860690965 -0.4843989271
| 23> C -2.7659376809 -1.8859297516 -1.7412398067
| 24> C -1.4832965687 -1.6920967334 -2.5241963552
| 25> H 2.1259731231 -2.594526914 -2.192266423
| 26> H 1.7601444351 -0.8638228036 -2.3134306049
| 27> H 2.7752380016 -1.6372861697 -3.5367143091
| 28> H 4.1046116612 -0.2835068913 -1.8891519659
| 29> H 4.5624170842 -2.014162429 -1.8478676989
| 30> H 3.6966171069 1.2157731595 2.5177921303
| 31> H 3.8062856999 -0.095081959 3.733460631
| 32> H 5.4039675066 0.136397041 1.1291615273
| 33> H 6.0462724818 0.3432521907 2.7654900155
| 34> H 5.4794378334 -1.2496639305 2.2275245525
| 35> H 0.237947388 0.4988589322 1.8359935089
| 36> H -1.2277737222 -0.5038183645 1.5581988265
| 37> H -4.8994571333 1.87990491 0.8175816196
| 38> H -4.5821791009 1.2857021202 2.4743476884
| 39> H -2.3888504767 2.5309128245 2.4448437607
| 40> H -2.7713154105 3.1301180807 0.8232888764
| 41> H -3.7633584573 3.6218748613 2.2030491837
| 42> H -2.9097146306 -2.9290441074 -1.4572131056
| 43> H -3.6265325851 -1.532671761 -2.3184789725
| 44> H -0.6304285145 -2.0095867871 -1.9297131727
| 45> H -1.5256988158 -2.2780416939 -3.4364810845
| 46> H -1.3649369235 -0.6402237034 -2.7855348592
| 47> *
| 48>
| 49>                          ****END OF INPUT****

CARTESIAN COORDINATES (ANGSTROEM)
---------------------------------
  C      2.522734   -1.624436   -2.481381
  C      3.758988   -1.298622   -1.668885
  O      3.513955   -1.398593   -0.254824
  P      2.517848   -0.418591    0.499706
  S      2.558809    1.452832   -0.107483
  O      2.902726   -0.629745    2.024310
  C      3.920465    0.155922    2.678029
  C      5.306017   -0.178521    2.167009
  S      0.683557   -1.458618    0.520885
  C     -0.333650   -0.076242    1.111194
  S     -0.823085    1.068542   -0.220529
  P     -2.837522    0.396953   -0.414831
  S     -3.914232    1.271243   -1.795190
  O     -3.417039    0.463639    1.067074
  C     -4.122108    1.622196    1.544052
  C     -3.197714    2.802473    1.771119
  O     -2.741268   -1.186069   -0.484399
  C     -2.765938   -1.885930   -1.741240
  C     -1.483297   -1.692097   -2.524196
  H      2.125973   -2.594527   -2.192266
  H      1.760144   -0.863823   -2.313431
  H      2.775238   -1.637286   -3.536714
  H      4.104612   -0.283507   -1.889152
  H      4.562417   -2.014162   -1.847868
  H      3.696617    1.215773    2.517792
  H      3.806286   -0.095082    3.733461
  H      5.403968    0.136397    1.129162
  H      6.046272    0.343252    2.765490
  H      5.479438   -1.249664    2.227525
  H      0.237947    0.498859    1.835994
  H     -1.227774   -0.503818    1.558199
  H     -4.899457    1.879905    0.817582
  H     -4.582179    1.285702    2.474348
  H     -2.388850    2.530913    2.444844
  H     -2.771315    3.130118    0.823289
  H     -3.763358    3.621875    2.203049
  H     -2.909715   -2.929044   -1.457213
  H     -3.626533   -1.532672   -2.318479
  H     -0.630429   -2.009587   -1.929713
  H     -1.525699   -2.278042   -3.436481
  H     -1.364937   -0.640224   -2.785535

 Total Charge           Charge          ....    0
 Multiplicity           Mult            ....    1
 Number of Electrons    NEL             ....  202
 Basis Dimension        Dim             ....  334

ORBITAL ENERGIES
----------------

  NO   OCC          E(Eh)            E(eV)
   0   2.0000     -88.047389     -2395.8913
   1   2.0000     -88.039410     -2395.6741
   2   2.0000     -87.995966     -2394.4920
   3   2.0000     -87.987153     -2394.2522
   4   2.0000     -76.432614     -2079.8372
   5   2.0000     -76.422626     -2079.5654
   6   2.0000     -18.801482      -511.6143
   7   2.0000     -18.795190      -511.4431
   8   2.0000     -18.788376      -511.2577
   9   2.0000     -18.788168      -511.2521
  10   2.0000      -9.959395      -271.0089
  11   2.0000      -9.958425      -270.9825
  12   2.0000      -9.955431      -270.9011
  13   2.0000      -9.950391      -270.7639
  14   2.0000      -9.949032      -270.7269
  15   2.0000      -9.888455      -269.0785
  16   2.0000      -9.888182      -269.0711
  17   2.0000      -9.881943      -268.9013
  18   2.0000      -9.877596      -268.7831
  19   2.0000      -7.692584      -209.3258
  20   2.0000      -7.683636      -209.0824
  21   2.0000      -7.640624      -207.9120
  22   2.0000      -7.632311      -207.6857
  23   2.0000      -6.430260      -174.9763
  24   2.0000      -6.420364      -174.7070
  25   2.0000      -5.720340      -155.6584
  26   2.0000      -5.717241      -155.5740
  27   2.0000      -5.711796      -155.4259
  28   2.0000      -5.709457      -155.3622
  29   2.0000      -5.708160      -155.3269
  30   2.0000      -5.700486      -155.1181
  31   2.0000      -5.669433      -154.2731
  32   2.0000      -5.661384      -154.0541
  33   2.0000      -5.661243      -154.0503
  34   2.0000      -5.660874      -154.0402
  35   2.0000      -5.652872      -153.8225
  36   2.0000      -5.652526      -153.8131
  37   2.0000      -4.652727      -126.6071
  38   2.0000      -4.652015      -126.5878
  39   2.0000      -4.650804      -126.5548
  40   2.0000      -4.642648      -126.3329
  41   2.0000      -4.642604      -126.3317
  42   2.0000      -4.640587      -126.2768
  43   2.0000      -0.993109       -27.0239
  44   2.0000      -0.985941       -26.8288
  45   2.0000      -0.952772       -25.9262
  46   2.0000      -0.942865       -25.6567
  47   2.0000      -0.764832       -20.8121
  48   2.0000      -0.722573       -19.6622
  49   2.0000      -0.709077       -19.2950
  50   2.0000      -0.692423       -18.8418
  51   2.0000      -0.680097       -18.5064
  52   2.0000      -0.676447       -18.4071
  53   2.0000      -0.657796       -17.8995
  54   2.0000      -0.641972       -17.4689
  55   2.0000      -0.605618       -16.4797
  56   2.0000      -0.595210       -16.1965
  57   2.0000      -0.578267       -15.7354
  58   2.0000      -0.566673       -15.4199
  59   2.0000      -0.561860       -15.2890
  60   2.0000      -0.498759       -13.5719
  61   2.0000      -0.492910       -13.4128
  62   2.0000      -0.479545       -13.0491
  63   2.0000      -0.464882       -12.6501
  64   2.0000      -0.461349       -12.5539
  65   2.0000      -0.445744       -12.1293
  66   2.0000      -0.445094       -12.1116
  67   2.0000      -0.443773       -12.0757
  68   2.0000      -0.423251       -11.5172
  69   2.0000      -0.419768       -11.4225
  70   2.0000      -0.413277       -11.2458
  71   2.0000      -0.398285       -10.8379
  72   2.0000      -0.395596       -10.7647
  73   2.0000      -0.391900       -10.6641
  74   2.0000      -0.387457       -10.5432
  75   2.0000      -0.382175       -10.3995
  76   2.0000      -0.369082       -10.0432
  77   2.0000      -0.359624        -9.7859
  78   2.0000      -0.354350        -9.6424
  79   2.0000      -0.350564        -9.5393
  80   2.0000      -0.349717        -9.5163
  81   2.0000      -0.345357        -9.3976
  82   2.0000      -0.344261        -9.3678
  83   2.0000      -0.335255        -9.1228
  84   2.0000      -0.328830        -8.9479
  85   2.0000      -0.319963        -8.7066
  86   2.0000      -0.318837        -8.6760
  87   2.0000      -0.301969        -8.2170
  88   2.0000      -0.298708        -8.1283
  89   2.0000      -0.288927        -7.8621
  90   2.0000      -0.285613        -7.7719
  91   2.0000      -0.279232        -7.5983
  92   2.0000      -0.271566        -7.3897
  93   2.0000      -0.264533        -7.1983
  94   2.0000      -0.261525        -7.1165
  95   2.0000      -0.235433        -6.4064
  96   2.0000      -0.216366        -5.8876
  97   2.0000      -0.214251        -5.8301
  98   2.0000      -0.208031        -5.6608
  99   2.0000      -0.204998        -5.5783
 100   2.0000      -0.203041        -5.5250
 101   0.0000      -0.045613        -1.2412
 102   0.0000      -0.025735        -0.7003
 103   0.0000      -0.014946        -0.4067
 104   0.0000       0.001701         0.0463
 105   0.0000       0.014888         0.4051

MULLIKEN ATOMIC CHARGES
-----------------------
   0 C :   -0.338985
   1 C :   -0.001406
   2 O :   -0.370795
   3 P :    0.592139
   4 S :   -0.321171
   5 O :   -0.366321
   6 C :   -0.006106
   7 C :   -0.307346
   8 S :   -0.061479
   9 C :   -0.359170
  10 S :   -0.041566
  11 P :    0.567003
  12 S :   -0.317520
  13 O :   -0.370453
  14 C :   -0.003862
  15 C :   -0.311216
  16 O :   -0.372055
  17 C :    0.001173
  18 C :   -0.342126
  19 H :    0.122627
  20 H :    0.146235
  21 H :    0.116595
  22 H :    0.113956
  23 H :    0.107909
  24 H :    0.110500
  25 H :    0.106734
  26 H :    0.122145
  27 H :    0.113750
  28 H :    0.119313
  29 H :    0.187765
  30 H :    0.198429
  31 H :    0.112942
  32 H :    0.105054
  33 H :    0.111014
  34 H :    0.130427
  35 H :    0.111713
  36 H :    0.103962
  37 H :    0.111782
  38 H :    0.141185
  39 H :    0.107596
  40 H :    0.129626
Sum of atomic charges:    0.0000000

LOEWDIN ATOMIC CHARGES
----------------------
   0 C :   -0.371070
   1 C :   -0.118032
   2 O :   -0.241541
   3 P :    0.570789
   4 S :   -0.315777
   5 O :   -0.244908
   6 C :   -0.119163
   7 C :   -0.363794
   8 S :    0.106499
   9 C :   -0.476360
  10 S :    0.095382
  11 P :    0.566268
  12 S :   -0.317084
  13 O :   -0.246079
  14 C :   -0.119230
  15 C :   -0.367558
  16 O :   -0.245152
  17 C :   -0.117038
  18 C :   -0.374987
  19 H :    0.124490
  20 H :    0.126256
  21 H :    0.133392
  22 H :    0.112247
  23 H :    0.120018
  24 H :    0.109671
  25 H :    0.119481
  26 H :    0.122883
  27 H :    0.131151
  28 H :    0.127654
  29 H :    0.132364
  30 H :    0.137228
  31 H :    0.110784
  32 H :    0.118173
  33 H :    0.122210
  34 H :    0.122950
  35 H :    0.130225
  36 H :    0.118486
  37 H :    0.110015
  38 H :    0.117728
  39 H :    0.128792
  40 H :    0.122640

  Mayer bond orders larger than 0.100000
B(  0-C ,  1-C ) :   1.1644 B(  0-C , 19-H ) :   0.9424 B(  0-C , 20-H ) :   0.9285
B(  0-C , 21-H ) :   0.9362 B(  1-C ,  2-O ) :   0.9028 B(  1-C , 22-H ) :   0.9168
B(  1-C , 23-H ) :   0.9328 B(  2-O ,  3-P ) :   1.1125 B(  3-P ,  4-S ) :   1.5899
B(  3-P ,  5-O ) :   1.1191 B(  3-P ,  8-S ) :   0.9740 B(  4-S ,  8-S ) :   0.1144
B(  5-O ,  6-C ) :   0.9078 B(  6-C ,  7-C ) :   1.1653 B(  6-C , 24-H ) :   0.9152
B(  6-C , 25-H ) :   0.9345 B(  7-C , 26-H ) :   0.9388 B(  7-C , 27-H ) :   0.9388
B(  7-C , 28-H ) :   0.9461 B(  8-S ,  9-C ) :   0.9886 B(  9-C , 10-S ) :   0.9833
B(  9-C , 29-H ) :   0.8926 B(  9-C , 30-H ) :   0.8849 B( 10-S , 11-P ) :   0.9785
B( 11-P , 12-S ) :   1.6353 B( 11-P , 13-O ) :   1.0766 B( 11-P , 16-O ) :   1.0910
B( 13-O , 14-C ) :   0.9139 B( 14-C , 15-C ) :   1.1626 B( 14-C , 31-H ) :   0.9146
B( 14-C , 32-H ) :   0.9348 B( 15-C , 33-H ) :   0.9470 B( 15-C , 34-H ) :   0.9361
B( 15-C , 35-H ) :   0.9384 B( 16-O , 17-C ) :   0.9101 B( 17-C , 18-C ) :   1.1624
B( 17-C , 36-H ) :   0.9337 B( 17-C , 37-H ) :   0.9163 B( 18-C , 38-H ) :   0.9272
B( 18-C , 39-H ) :   0.9367 B( 18-C , 40-H ) :   0.9361

Dispersion correction           -0.064442496
FINAL SINGLE POINT ENERGY     -2929.521635635208

DIPOLE MOMENT
-------------

Method             : SCF
Type of density    : Electron Density
Multiplicity       :   1
Irrep              :   0
Energy             : -2929.6424976898069872 Eh
Relativity type    :
Basis              : AO
                                X                 Y                 Z
Electronic contribution:     -9.003259274       2.987039996      -0.000993141
Nuclear contribution   :     10.004031596      -3.831001762       0.778323018
                        -----------------------------------------
Total Dipole Moment    :      1.000772322      -0.843961765       0.777329876
                        -----------------------------------------
Magnitude (a.u.)       :      1.522517139
Magnitude (Debye)      :      3.869931019

Rotational constants in cm-1:             0.013389             0.004423             0.003850
Rotational constants in MHz :           401.395375           132.588649           115.415356

                             ****ORCA TERMINATED NORMALLY****
TOTAL RUN TIME: 0 days 0 hours 0 minutes 20 seconds 377 msec
