                         Program Version 6.0.0  -   RELEASE  -
|  1> ! pbe def2-sv(p) def2/J RI DEFGRID1 loosescf d4 GCP(DFT/SV(P)) printgap
|  2> %output
|  3>     printlevel normal
|  4> end
|  5> * xyz 0 1
|  6> C 1.6125216549 -2.1584284689 1.8260673052
|  7> C 3.0392951092 -1.9931685534 1.3446861125
|  8> O 3.3300507882 -0.6325129699 0.9789105333
|  9> P 2.8798597071 0.0031649166 -0.4090909165
| 10> S 2.9639198741 -1.2076579902 -1.9458105601
| 11> O 3.8784699696 1.2143856771 -0.554891756
| 12> C 4.4322768601 1.9819456563 0.5417646878
| 13> C 3.3648644032 2.673952801 1.3617378498
| 14> S 0.9682639753 0.9269640793 -0.0964201965
| 15> C -0.0418609672 0.0003972241 -1.2805557292
| 16> S -1.2177401073 -1.116363565 -0.485864589
| 17> P -2.6716974629 0.3729334899 -0.0174395306
| 18> S -2.9511186121 1.740385473 -1.3918924692
| 19> O -2.2219525177 1.0315939906 1.3395616903
| 20> C -1.6044734358 0.3758464933 2.4748096479
| 21> C -2.3787690375 -0.8320249259 2.9542795088
| 22> O -3.9706151853 -0.4466292819 0.3879224778
| 23> C -4.9571369889 -0.8603796539 -0.5719970731
| 24> C -4.424317589 -1.9047646082 -1.5319635548
| 25> H 1.477970616 -3.167828611 2.2007032322
| 26> H 1.4002408539 -1.4501758944 2.6227633669
| 27> H 0.9146236778 -1.9992117953 1.0054733498
| 28> H 3.236629859 -2.6366400438 0.4813430635
| 29> H 3.7564588116 -2.2088816967 2.138272006
| 30> H 5.0266269402 1.3088205135 1.1624036367
| 31> H 5.0833445091 2.6986106271 0.0390606671
| 32> H 2.7457606923 3.3051601325 0.7289163714
| 33> H 2.7281005792 1.9368007404 1.8476862791
| 34> H 3.8409611808 3.2865900474 2.1210061944
| 35> H 0.6178496774 -0.6044075213 -1.9078441409
| 36> H -0.6020719503 0.7230792362 -1.8761435783
| 37> H -0.5857287878 0.1034423189 2.1881600858
| 38> H -1.5749873278 1.165208453 3.2271815824
| 39> H -3.4089945483 -0.5586815117 3.1661885624
| 40> H -2.3706845963 -1.6114080482 2.1949427644
| 41> H -1.9147988302 -1.2138261399 3.8584876384
| 42> H -5.7673153799 -1.2552813464 0.0425997744
| 43> H -5.3015522469 0.0233483283 -1.1185735062
| 44> H -3.9763148603 -2.7303529969 -0.9849139309
| 45> H -5.2394249826 -2.277697053 -2.1438243796
| 46> H -3.6710543138 -1.4641155325 -2.1834389485
| 47> *
| 48>
| 49>                          ****END OF INPUT****

CARTESIAN COORDINATES (ANGSTROEM)
---------------------------------
  C      1.612522   -2.158428    1.826067
  C      3.039295   -1.993169    1.344686
  O      3.330051   -0.632513    0.978911
  P      2.879860    0.003165   -0.409091
  S      2.963920   -1.207658   -1.945811
  O      3.878470    1.214386   -0.554892
  C      4.432277    1.981946    0.541765
  C      3.364864    2.673953    1.361738
  S      0.968264    0.926964   -0.096420
  C     -0.041861    0.000397   -1.280556
  S     -1.217740   -1.116364   -0.485865
  P     -2.671697    0.372933   -0.017440
  S     -2.951119    1.740385   -1.391892
  O     -2.221953    1.031594    1.339562
  C     -1.604473    0.375846    2.474810
  C     -2.378769   -0.832025    2.954280
  O     -3.970615   -0.446629    0.387922
  C     -4.957137   -0.860380   -0.571997
  C     -4.424318   -1.904765   -1.531964
  H      1.477971   -3.167829    2.200703
  H      1.400241   -1.450176    2.622763
  H      0.914624   -1.999212    1.005473
  H      3.236630   -2.636640    0.481343
  H      3.756459   -2.208882    2.138272
  H      5.026627    1.308821    1.162404
  H      5.083345    2.698611    0.039061
  H      2.745761    3.305160    0.728916
  H      2.728101    1.936801    1.847686
  H      3.840961    3.286590    2.121006
  H      0.617850   -0.604408   -1.907844
  H     -0.602072    0.723079   -1.876144
  H     -0.585729    0.103442    2.188160
  H     -1.574987    1.165208    3.227182
  H     -3.408995   -0.558682    3.166189
  H     -2.370685   -1.611408    2.194943
  H     -1.914799   -1.213826    3.858488
  H     -5.767315   -1.255281    0.042600
  H     -5.301552    0.023348   -1.118574
  H     -3.976315   -2.730353   -0.984914
  H     -5.239425   -2.277697   -2.143824
  H     -3.671054   -1.464116   -2.183439

 Total Charge           Charge          ....    0
 Multiplicity           Mult            ....    1
 Number of Electrons    NEL             ....  202
 Basis Dimension        Dim             ....  334

ORBITAL ENERGIES
----------------

  NO   OCC          E(Eh)            E(eV)
   0   2.0000     -88.046767     -2395.8743
   1   2.0000     -88.043629     -2395.7890
   2   2.0000     -87.991959     -2394.3829
   3   2.0000     -87.984046     -2394.1676
   4   2.0000     -76.431013     -2079.7936
   5   2.0000     -76.427520     -2079.6985
   6   2.0000     -18.799192      -511.5520
   7   2.0000     -18.795514      -511.4519
   8   2.0000     -18.794992      -511.4377
   9   2.0000     -18.792010      -511.3566
  10   2.0000      -9.961645      -271.0701
  11   2.0000      -9.958707      -270.9902
  12   2.0000      -9.956740      -270.9367
  13   2.0000      -9.954389      -270.8727
  14   2.0000      -9.948085      -270.7011
  15   2.0000      -9.894117      -269.2326
  16   2.0000      -9.890178      -269.1254
  17   2.0000      -9.890013      -269.1209
  18   2.0000      -9.885127      -268.9880
  19   2.0000      -7.690873      -209.2793
  20   2.0000      -7.687976      -209.2005
  21   2.0000      -7.637042      -207.8145
  22   2.0000      -7.629273      -207.6031
  23   2.0000      -6.428599      -174.9311
  24   2.0000      -6.424954      -174.8319
  25   2.0000      -5.718481      -155.6078
  26   2.0000      -5.715832      -155.5357
  27   2.0000      -5.715468      -155.5258
  28   2.0000      -5.712486      -155.4446
  29   2.0000      -5.708174      -155.3273
  30   2.0000      -5.705109      -155.2439
  31   2.0000      -5.665935      -154.1779
  32   2.0000      -5.658251      -153.9688
  33   2.0000      -5.657506      -153.9486
  34   2.0000      -5.657343      -153.9441
  35   2.0000      -5.649891      -153.7413
  36   2.0000      -5.649342      -153.7264
  37   2.0000      -4.651557      -126.5753
  38   2.0000      -4.649958      -126.5318
  39   2.0000      -4.649077      -126.5078
  40   2.0000      -4.647751      -126.4717
  41   2.0000      -4.646758      -126.4447
  42   2.0000      -4.645177      -126.4017
  43   2.0000      -0.993508       -27.0347
  44   2.0000      -0.988741       -26.9050
  45   2.0000      -0.949234       -25.8300
  46   2.0000      -0.947733       -25.7891
  47   2.0000      -0.762601       -20.7514
  48   2.0000      -0.724860       -19.7244
  49   2.0000      -0.714661       -19.4469
  50   2.0000      -0.697323       -18.9751
  51   2.0000      -0.692255       -18.8372
  52   2.0000      -0.681587       -18.5469
  53   2.0000      -0.653243       -17.7756
  54   2.0000      -0.637633       -17.3509
  55   2.0000      -0.605002       -16.4630
  56   2.0000      -0.597805       -16.2671
  57   2.0000      -0.584899       -15.9159
  58   2.0000      -0.578665       -15.7463
  59   2.0000      -0.557646       -15.1743
  60   2.0000      -0.502958       -13.6862
  61   2.0000      -0.493750       -13.4356
  62   2.0000      -0.477618       -12.9966
  63   2.0000      -0.474293       -12.9062
  64   2.0000      -0.460173       -12.5219
  65   2.0000      -0.453609       -12.3433
  66   2.0000      -0.444590       -12.0979
  67   2.0000      -0.441559       -12.0154
  68   2.0000      -0.435058       -11.8385
  69   2.0000      -0.429953       -11.6996
  70   2.0000      -0.412779       -11.2323
  71   2.0000      -0.403849       -10.9893
  72   2.0000      -0.400741       -10.9047
  73   2.0000      -0.388875       -10.5818
  74   2.0000      -0.379317       -10.3217
  75   2.0000      -0.377535       -10.2732
  76   2.0000      -0.367727       -10.0064
  77   2.0000      -0.362866        -9.8741
  78   2.0000      -0.361711        -9.8427
  79   2.0000      -0.356075        -9.6893
  80   2.0000      -0.354490        -9.6462
  81   2.0000      -0.349110        -9.4998
  82   2.0000      -0.346304        -9.4234
  83   2.0000      -0.345149        -9.3920
  84   2.0000      -0.337267        -9.1775
  85   2.0000      -0.321477        -8.7478
  86   2.0000      -0.309512        -8.4223
  87   2.0000      -0.302939        -8.2434
  88   2.0000      -0.300581        -8.1792
  89   2.0000      -0.295207        -8.0330
  90   2.0000      -0.293384        -7.9834
  91   2.0000      -0.280889        -7.6434
  92   2.0000      -0.274214        -7.4617
  93   2.0000      -0.264920        -7.2088
  94   2.0000      -0.261248        -7.1089
  95   2.0000      -0.234596        -6.3837
  96   2.0000      -0.222532        -6.0554
  97   2.0000      -0.211929        -5.7669
  98   2.0000      -0.207320        -5.6415
  99   2.0000      -0.202755        -5.5173
 100   2.0000      -0.198747        -5.4082
 101   0.0000      -0.044473        -1.2102
 102   0.0000      -0.035048        -0.9537
 103   0.0000      -0.015482        -0.4213
 104   0.0000       0.002411         0.0656
 105   0.0000       0.006288         0.1711

MULLIKEN ATOMIC CHARGES
-----------------------
   0 C :   -0.330892
   1 C :   -0.001371
   2 O :   -0.386089
   3 P :    0.614783
   4 S :   -0.304955
   5 O :   -0.361998
   6 C :    0.009019
   7 C :   -0.338089
   8 S :   -0.108289
   9 C :   -0.348866
  10 S :   -0.113457
  11 P :    0.599064
  12 S :   -0.311101
  13 O :   -0.356565
  14 C :   -0.021699
  15 C :   -0.307927
  16 O :   -0.375017
  17 C :   -0.002467
  18 C :   -0.318483
  19 H :    0.112576
  20 H :    0.121344
  21 H :    0.137084
  22 H :    0.114451
  23 H :    0.104097
  24 H :    0.110003
  25 H :    0.114630
  26 H :    0.136923
  27 H :    0.126873
  28 H :    0.119153
  29 H :    0.194446
  30 H :    0.197348
  31 H :    0.130075
  32 H :    0.109011
  33 H :    0.123363
  34 H :    0.119399
  35 H :    0.111845
  36 H :    0.105119
  37 H :    0.115363
  38 H :    0.115429
  39 H :    0.114949
  40 H :    0.130921
Sum of atomic charges:   -0.0000000

LOEWDIN ATOMIC CHARGES
----------------------
   0 C :   -0.369736
   1 C :   -0.117551
   2 O :   -0.249302
   3 P :    0.572745
   4 S :   -0.293811
   5 O :   -0.237883
   6 C :   -0.107305
   7 C :   -0.372525
   8 S :    0.081269
   9 C :   -0.493643
  10 S :    0.085325
  11 P :    0.571897
  12 S :   -0.310153
  13 O :   -0.234199
  14 C :   -0.117197
  15 C :   -0.366611
  16 O :   -0.241781
  17 C :   -0.117440
  18 C :   -0.370850
  19 H :    0.131997
  20 H :    0.122488
  21 H :    0.112985
  22 H :    0.111332
  23 H :    0.118075
  24 H :    0.114939
  25 H :    0.124814
  26 H :    0.131411
  27 H :    0.117243
  28 H :    0.134468
  29 H :    0.125462
  30 H :    0.128279
  31 H :    0.104890
  32 H :    0.122896
  33 H :    0.129141
  34 H :    0.117418
  35 H :    0.130517
  36 H :    0.118755
  37 H :    0.113737
  38 H :    0.122804
  39 H :    0.132146
  40 H :    0.122955

  Mayer bond orders larger than 0.100000
B(  0-C ,  1-C ) :   1.1629 B(  0-C , 19-H ) :   0.9358 B(  0-C , 20-H ) :   0.9377
B(  0-C , 21-H ) :   0.9265 B(  1-C ,  2-O ) :   0.9104 B(  1-C , 22-H ) :   0.9111
B(  1-C , 23-H ) :   0.9335 B(  2-O ,  3-P ) :   1.0643 B(  3-P ,  4-S ) :   1.6341
B(  3-P ,  5-O ) :   1.1438 B(  3-P ,  8-S ) :   0.9472 B(  4-S ,  8-S ) :   0.1175
B(  4-S , 29-H ) :   0.1240 B(  5-O ,  6-C ) :   0.8993 B(  6-C ,  7-C ) :   1.1695
B(  6-C , 24-H ) :   0.9277 B(  6-C , 25-H ) :   0.9331 B(  7-C , 26-H ) :   0.9401
B(  7-C , 27-H ) :   0.9332 B(  7-C , 28-H ) :   0.9352 B(  8-S ,  9-C ) :   1.0084
B(  9-C , 10-S ) :   1.0034 B(  9-C , 29-H ) :   0.8453 B(  9-C , 30-H ) :   0.8610
B( 10-S , 11-P ) :   0.9376 B( 10-S , 12-S ) :   0.1067 B( 11-P , 12-S ) :   1.6270
B( 11-P , 13-O ) :   1.1505 B( 11-P , 16-O ) :   1.0954 B( 13-O , 14-C ) :   0.8962
B( 14-C , 15-C ) :   1.1721 B( 14-C , 31-H ) :   0.9037 B( 14-C , 32-H ) :   0.9333
B( 15-C , 33-H ) :   0.9425 B( 15-C , 34-H ) :   0.9373 B( 15-C , 35-H ) :   0.9357
B( 16-O , 17-C ) :   0.9051 B( 17-C , 18-C ) :   1.1656 B( 17-C , 36-H ) :   0.9338
B( 17-C , 37-H ) :   0.9162 B( 18-C , 38-H ) :   0.9449 B( 18-C , 39-H ) :   0.9374
B( 18-C , 40-H ) :   0.9344

Dispersion correction           -0.064598152
FINAL SINGLE POINT ENERGY     -2929.515858253132

DIPOLE MOMENT
-------------

Method             : SCF
Type of density    : Electron Density
Multiplicity       :   1
Irrep              :   0
Energy             : -2929.6375841635499455 Eh
Relativity type    :
Basis              : AO
                                X                 Y                 Z
Electronic contribution:      3.702729122       7.701435464     -16.159126062
Nuclear contribution   :     -3.526842361      -8.422731470      18.173878084
                        -----------------------------------------
Total Dipole Moment    :      0.175886760      -0.721296006       2.014752022
                        -----------------------------------------
Magnitude (a.u.)       :      2.147191140
Magnitude (Debye)      :      5.457726145

Rotational constants in cm-1:             0.012958             0.004308             0.004288
Rotational constants in MHz :           388.463123           129.154427           128.546666

                             ****ORCA TERMINATED NORMALLY****
TOTAL RUN TIME: 0 days 0 hours 0 minutes 21 seconds 72 msec
