                         Program Version 6.0.1  -  RELEASE   -
|  1> ! pbe def2-sv(p) def2/J RI DEFGRID1 loosescf d4 GCP(DFT/SV(P)) printgap
|  2> %output
|  3>     printlevel normal
|  4> end
|  5> * xyz 0 1
|  6> C 5.4598662579 -2.0090760606 -1.7279395921
|  7> C 4.9228144871 -1.0050795928 -0.7203237035
|  8> O 3.6512468023 -1.4321116709 -0.1947033009
|  9> C 2.5590690858 -1.1059033013 -0.8537802362
| 10> O 2.5332252129 -0.4419293572 -1.8661456553
| 11> C 1.3210175615 -1.6773750296 -0.1841313091
| 12> C 0.2187867781 -0.6285657866 -0.1919393143
| 13> H 0.0968414301 -0.2277458286 -1.208073591
| 14> C 0.5073076384 0.5535840767 0.709777589
| 15> O -0.3755625696 1.1619816872 1.2828804743
| 16> O 1.777844677 0.839127288 0.7857533584
| 17> C 2.16965998 1.9801708402 1.5834882249
| 18> C 3.6820138777 1.9886800192 1.6719635433
| 19> S -1.3826234551 -1.3286743763 0.3221612155
| 20> P -2.5911004541 0.3953969881 0.0181692815
| 21> S -1.9729742825 1.7022291243 -1.3031234741
| 22> O -3.969445564 -0.308403752 -0.422575378
| 23> C -4.1017898324 -0.9637325807 -1.6863663303
| 24> O -3.0628044794 0.9997152049 1.3975514676
| 25> C -3.6516340494 0.1865017648 2.431846188
| 26> H 6.4476677488 -1.6988906919 -2.0523201888
| 27> H 5.5236386303 -2.9951493121 -1.2764447496
| 28> H 4.8037368321 -2.0567297624 -2.5940299509
| 29> H 4.7954062535 -0.0228052972 -1.1836991888
| 30> H 5.5708116418 -0.9344647352 0.1532576429
| 31> H 1.5669272658 -1.9955846086 0.8275330006
| 32> H 0.9884363676 -2.5434271219 -0.7595297144
| 33> H 1.781062237 2.8803611587 1.0980026127
| 34> H 1.6983330367 1.8853851284 2.5663259724
| 35> H 4.0341039195 1.0694645924 2.1304686822
| 36> H 4.1113554541 2.0749203655 0.6781760266
| 37> H 3.9984178061 2.8349273201 2.2722933434
| 38> H -3.7175285325 -0.3233198429 -2.4822680767
| 39> H -5.1669913974 -1.1349461327 -1.8181306172
| 40> H -3.5583151212 -1.9084473587 -1.6723865616
| 41> H -2.9959021559 -0.6524368685 2.6659486374
| 42> H -4.6243637283 -0.1772936392 2.1058207051
| 43> H -3.7487613539 0.8486556491 3.2882106774
| 44> *
| 45>
| 46>                          ****END OF INPUT****

CARTESIAN COORDINATES (ANGSTROEM)
---------------------------------
  C      5.459866   -2.009076   -1.727940
  C      4.922814   -1.005080   -0.720324
  O      3.651247   -1.432112   -0.194703
  C      2.559069   -1.105903   -0.853780
  O      2.533225   -0.441929   -1.866146
  C      1.321018   -1.677375   -0.184131
  C      0.218787   -0.628566   -0.191939
  H      0.096841   -0.227746   -1.208074
  C      0.507308    0.553584    0.709778
  O     -0.375563    1.161982    1.282880
  O      1.777845    0.839127    0.785753
  C      2.169660    1.980171    1.583488
  C      3.682014    1.988680    1.671964
  S     -1.382623   -1.328674    0.322161
  P     -2.591100    0.395397    0.018169
  S     -1.972974    1.702229   -1.303123
  O     -3.969446   -0.308404   -0.422575
  C     -4.101790   -0.963733   -1.686366
  O     -3.062804    0.999715    1.397551
  C     -3.651634    0.186502    2.431846
  H      6.447668   -1.698891   -2.052320
  H      5.523639   -2.995149   -1.276445
  H      4.803737   -2.056730   -2.594030
  H      4.795406   -0.022805   -1.183699
  H      5.570812   -0.934465    0.153258
  H      1.566927   -1.995585    0.827533
  H      0.988436   -2.543427   -0.759530
  H      1.781062    2.880361    1.098003
  H      1.698333    1.885385    2.566326
  H      4.034104    1.069465    2.130469
  H      4.111355    2.074920    0.678176
  H      3.998418    2.834927    2.272293
  H     -3.717529   -0.323320   -2.482268
  H     -5.166991   -1.134946   -1.818131
  H     -3.558315   -1.908447   -1.672387
  H     -2.995902   -0.652437    2.665949
  H     -4.624364   -0.177294    2.105821
  H     -3.748761    0.848656    3.288211

 Total Charge           Charge          ....    0
 Multiplicity           Mult            ....    1
 Number of Electrons    NEL             ....  174
 Basis Dimension        Dim             ....  316

ORBITAL ENERGIES
----------------

  NO   OCC          E(Eh)            E(eV)
   0   2.0000     -88.035809     -2395.5762
   1   2.0000     -87.969160     -2393.7626
   2   2.0000     -76.415840     -2079.3807
   3   2.0000     -18.819539      -512.1057
   4   2.0000     -18.807422      -511.7760
   5   2.0000     -18.779816      -511.0248
   6   2.0000     -18.778052      -510.9768
   7   2.0000     -18.744510      -510.0641
   8   2.0000     -18.742359      -510.0055
   9   2.0000     -10.018719      -272.6232
  10   2.0000     -10.015825      -272.5444
  11   2.0000      -9.957636      -270.9611
  12   2.0000      -9.953674      -270.8532
  13   2.0000      -9.944512      -270.6039
  14   2.0000      -9.941264      -270.5155
  15   2.0000      -9.933568      -270.3061
  16   2.0000      -9.917060      -269.8569
  17   2.0000      -9.897125      -269.3145
  18   2.0000      -9.892216      -269.1809
  19   2.0000      -7.680640      -209.0008
  20   2.0000      -7.614431      -207.1992
  21   2.0000      -6.412083      -174.4817
  22   2.0000      -5.708370      -155.3326
  23   2.0000      -5.705275      -155.2484
  24   2.0000      -5.697695      -155.0422
  25   2.0000      -5.643771      -153.5748
  26   2.0000      -5.635018      -153.3366
  27   2.0000      -5.634165      -153.3134
  28   2.0000      -4.634835      -126.1203
  29   2.0000      -4.634134      -126.1012
  30   2.0000      -4.632375      -126.0533
  31   2.0000      -1.027512       -27.9600
  32   2.0000      -1.014957       -27.6184
  33   2.0000      -0.974559       -26.5191
  34   2.0000      -0.929543       -25.2942
  35   2.0000      -0.925143       -25.1744
  36   2.0000      -0.920095       -25.0371
  37   2.0000      -0.765955       -20.8427
  38   2.0000      -0.716797       -19.5050
  39   2.0000      -0.714868       -19.4526
  40   2.0000      -0.688689       -18.7402
  41   2.0000      -0.658295       -17.9131
  42   2.0000      -0.626375       -17.0445
  43   2.0000      -0.621893       -16.9226
  44   2.0000      -0.609320       -16.5804
  45   2.0000      -0.598459       -16.2849
  46   2.0000      -0.563514       -15.3340
  47   2.0000      -0.520064       -14.1517
  48   2.0000      -0.507813       -13.8183
  49   2.0000      -0.502173       -13.6648
  50   2.0000      -0.475741       -12.9456
  51   2.0000      -0.469083       -12.7644
  52   2.0000      -0.463622       -12.6158
  53   2.0000      -0.450929       -12.2704
  54   2.0000      -0.440362       -11.9829
  55   2.0000      -0.439243       -11.9524
  56   2.0000      -0.422644       -11.5007
  57   2.0000      -0.420348       -11.4382
  58   2.0000      -0.408366       -11.1122
  59   2.0000      -0.407132       -11.0786
  60   2.0000      -0.402510       -10.9528
  61   2.0000      -0.392160       -10.6712
  62   2.0000      -0.391107       -10.6426
  63   2.0000      -0.384852       -10.4724
  64   2.0000      -0.378807       -10.3079
  65   2.0000      -0.369693       -10.0599
  66   2.0000      -0.367299        -9.9947
  67   2.0000      -0.360933        -9.8215
  68   2.0000      -0.349329        -9.5057
  69   2.0000      -0.342501        -9.3199
  70   2.0000      -0.336664        -9.1611
  71   2.0000      -0.328625        -8.9424
  72   2.0000      -0.324866        -8.8401
  73   2.0000      -0.315581        -8.5874
  74   2.0000      -0.307831        -8.3765
  75   2.0000      -0.299543        -8.1510
  76   2.0000      -0.290549        -7.9062
  77   2.0000      -0.286516        -7.7965
  78   2.0000      -0.274900        -7.4804
  79   2.0000      -0.263275        -7.1641
  80   2.0000      -0.261121        -7.1055
  81   2.0000      -0.249618        -6.7925
  82   2.0000      -0.233964        -6.3665
  83   2.0000      -0.228082        -6.2064
  84   2.0000      -0.218621        -5.9490
  85   2.0000      -0.190840        -5.1930
  86   2.0000      -0.183006        -4.9799
  87   0.0000      -0.043331        -1.1791
  88   0.0000      -0.026463        -0.7201
  89   0.0000      -0.020599        -0.5605
  90   0.0000       0.013981         0.3804
  91   0.0000       0.027223         0.7408

MULLIKEN ATOMIC CHARGES
-----------------------
   0 C :   -0.300241
   1 C :   -0.024243
   2 O :   -0.230578
   3 C :    0.118819
   4 O :   -0.202417
   5 C :   -0.060204
   6 C :   -0.339539
   7 H :    0.176484
   8 C :    0.225716
   9 O :   -0.184756
  10 O :   -0.223586
  11 C :   -0.025590
  12 C :   -0.286337
  13 S :   -0.109284
  14 P :    0.626294
  15 S :   -0.323581
  16 O :   -0.397289
  17 C :   -0.098376
  18 O :   -0.352918
  19 C :   -0.101439
  20 H :    0.114480
  21 H :    0.114457
  22 H :    0.128383
  23 H :    0.115436
  24 H :    0.103152
  25 H :    0.105474
  26 H :    0.126037
  27 H :    0.122468
  28 H :    0.112502
  29 H :    0.118558
  30 H :    0.126624
  31 H :    0.116268
  32 H :    0.115554
  33 H :    0.119835
  34 H :    0.108304
  35 H :    0.113794
  36 H :    0.122230
  37 H :    0.129509
Sum of atomic charges:   -0.0000000

LOEWDIN ATOMIC CHARGES
----------------------
   0 C :   -0.355215
   1 C :   -0.111647
   2 O :   -0.055973
   3 C :    0.029396
   4 O :   -0.166847
   5 C :   -0.248122
   6 C :   -0.274612
   7 H :    0.151134
   8 C :    0.020528
   9 O :   -0.152587
  10 O :   -0.037713
  11 C :   -0.100321
  12 C :   -0.351600
  13 S :    0.087101
  14 P :    0.586490
  15 S :   -0.319699
  16 O :   -0.268312
  17 C :   -0.220160
  18 O :   -0.231157
  19 C :   -0.207942
  20 H :    0.131592
  21 H :    0.125220
  22 H :    0.131481
  23 H :    0.120453
  24 H :    0.117087
  25 H :    0.134176
  26 H :    0.148989
  27 H :    0.126216
  28 H :    0.120680
  29 H :    0.126865
  30 H :    0.129115
  31 H :    0.133552
  32 H :    0.109568
  33 H :    0.119580
  34 H :    0.104611
  35 H :    0.107856
  36 H :    0.114833
  37 H :    0.125384

  Mayer bond orders larger than 0.100000
B(  0-C ,  1-C ) :   1.1737 B(  0-C , 20-H ) :   0.9441 B(  0-C , 21-H ) :   0.9485
B(  0-C , 22-H ) :   0.9457 B(  1-C ,  2-O ) :   0.9153 B(  1-C , 23-H ) :   0.9100
B(  1-C , 24-H ) :   0.9359 B(  2-O ,  3-C ) :   1.2365 B(  3-C ,  4-O ) :   2.0402
B(  3-C ,  5-C ) :   1.0024 B(  5-C ,  6-C ) :   1.0507 B(  5-C , 25-H ) :   0.9064
B(  5-C , 26-H ) :   0.8789 B(  6-C ,  7-H ) :   0.8274 B(  6-C ,  8-C ) :   0.9039
B(  6-C , 13-S ) :   1.0335 B(  8-C ,  9-O ) :   2.0090 B(  8-C , 10-O ) :   1.2641
B( 10-O , 11-C ) :   0.8893 B( 11-C , 12-C ) :   1.1558 B( 11-C , 27-H ) :   0.9327
B( 11-C , 28-H ) :   0.9281 B( 12-C , 29-H ) :   0.9483 B( 12-C , 30-H ) :   0.9449
B( 12-C , 31-H ) :   0.9414 B( 13-S , 14-P ) :   0.9319 B( 13-S , 15-S ) :   0.1126
B( 14-P , 15-S ) :   1.6280 B( 14-P , 16-O ) :   1.0463 B( 14-P , 18-O ) :   1.1313
B( 16-O , 17-C ) :   0.9402 B( 17-C , 32-H ) :   0.9328 B( 17-C , 33-H ) :   0.9589
B( 17-C , 34-H ) :   0.9462 B( 18-O , 19-C ) :   0.9235 B( 19-C , 35-H ) :   0.9391
B( 19-C , 36-H ) :   0.9476 B( 19-C , 37-H ) :   0.9600

Dispersion correction           -0.050373314
FINAL SINGLE POINT ENERGY     -1979.015234370629

DIPOLE MOMENT
-------------

Method             : SCF
Type of density    : Electron Density
Multiplicity       :   1
Irrep              :   0
Energy             : -1979.1469564528151750 Eh
Relativity type    :
Basis              : AO
                                X                 Y                 Z
Electronic contribution:    -21.348622899       3.957286138      -1.515647300
Nuclear contribution   :     22.689592987      -5.115573721       2.596514539
                        -----------------------------------------
Total Dipole Moment    :      1.340970089      -1.158287583       1.080867239
                        -----------------------------------------
Magnitude (a.u.)       :      2.075597478
Magnitude (Debye)      :      5.275749519

Rotational constants in cm-1:             0.017550             0.005358             0.004794
Rotational constants in MHz :           526.121351           160.636675           143.712655

                             ****ORCA TERMINATED NORMALLY****
TOTAL RUN TIME: 0 days 0 hours 0 minutes 32 seconds 274 msec
