                         Program Version 6.0.1  -  RELEASE   -
|  1> ! pbe def2-sv(p) def2/J RI DEFGRID1 loosescf d4 GCP(DFT/SV(P)) printgap
|  2> %output
|  3>     printlevel normal
|  4> end
|  5> * xyz 0 1
|  6> C 3.5369106959 -2.4858336545 1.4431986773
|  7> C 2.8048078496 -2.9605158004 0.1988286575
|  8> O 2.7722714363 -1.9191472876 -0.7998023657
|  9> C 1.8132867383 -1.0341868617 -0.7570077891
| 10> O 0.9171112469 -1.043836897 0.076636525
| 11> C 1.9020717396 -0.0013940209 -1.8467776641
| 12> C 0.8156297799 1.0439694157 -1.6615863179
| 13> H 0.8185314656 1.7688003585 -2.4787845765
| 14> C 0.9334295735 1.7915573741 -0.342811546
| 15> O 1.8237745387 1.5948489479 0.4562397892
| 16> O -0.0197566208 2.6825857527 -0.2155995789
| 17> C -0.0684679699 3.5047229441 0.9666159016
| 18> C -0.4440140849 4.9167624806 0.5571023194
| 19> S -0.874932426 0.3254586538 -1.7967080219
| 20> P -1.3966008951 -0.5566148372 0.0553279492
| 21> S -1.4991145103 -2.4954894055 0.3925118937
| 22> O -0.9796784621 0.3472003276 1.317268485
| 23> C -0.1555558179 -0.0855195077 2.3973184921
| 24> O -2.8899173872 0.0188550362 -0.168565358
| 25> C -3.9941450529 -0.3682232325 0.6490809605
| 26> H 3.5743703618 -3.2934131174 2.1665011713
| 27> H 4.548190016 -2.1811007455 1.1892209974
| 28> H 3.0139349557 -1.6403670812 1.8856661553
| 29> H 1.7777274405 -3.254893624 0.4348331631
| 30> H 3.3313530091 -3.7821566966 -0.286047694
| 31> H 1.7906888273 -0.4947349656 -2.8133470222
| 32> H 2.8908152436 0.459007658 -1.8020497331
| 33> H -0.8237857042 3.0670509055 1.6254905751
| 34> H 0.9079791199 3.4646561345 1.4584097781
| 35> H -1.3897465498 4.9062733949 0.023518651
| 36> H -0.5395444481 5.5315361059 1.4459245831
| 37> H 0.3200021014 5.3393040015 -0.0891692883
| 38> H -0.1446127083 -1.175462977 2.4476774036
| 39> H -0.5929976359 0.3332889001 3.3012826523
| 40> H 0.8573103536 0.2893416942 2.2492218586
| 41> H -3.9645581213 0.1714696731 1.5954623262
| 42> H -3.9647464983 -1.4443059586 0.8367179206
| 43> H -4.8863561438 -0.1062123724 0.085777396
| 44> *
| 45>
| 46>                          ****END OF INPUT****

CARTESIAN COORDINATES (ANGSTROEM)
---------------------------------
  C      3.536911   -2.485834    1.443199
  C      2.804808   -2.960516    0.198829
  O      2.772271   -1.919147   -0.799802
  C      1.813287   -1.034187   -0.757008
  O      0.917111   -1.043837    0.076637
  C      1.902072   -0.001394   -1.846778
  C      0.815630    1.043969   -1.661586
  H      0.818531    1.768800   -2.478785
  C      0.933430    1.791557   -0.342812
  O      1.823775    1.594849    0.456240
  O     -0.019757    2.682586   -0.215600
  C     -0.068468    3.504723    0.966616
  C     -0.444014    4.916762    0.557102
  S     -0.874932    0.325459   -1.796708
  P     -1.396601   -0.556615    0.055328
  S     -1.499115   -2.495489    0.392512
  O     -0.979678    0.347200    1.317268
  C     -0.155556   -0.085520    2.397318
  O     -2.889917    0.018855   -0.168565
  C     -3.994145   -0.368223    0.649081
  H      3.574370   -3.293413    2.166501
  H      4.548190   -2.181101    1.189221
  H      3.013935   -1.640367    1.885666
  H      1.777727   -3.254894    0.434833
  H      3.331353   -3.782157   -0.286048
  H      1.790689   -0.494735   -2.813347
  H      2.890815    0.459008   -1.802050
  H     -0.823786    3.067051    1.625491
  H      0.907979    3.464656    1.458410
  H     -1.389747    4.906273    0.023519
  H     -0.539544    5.531536    1.445925
  H      0.320002    5.339304   -0.089169
  H     -0.144613   -1.175463    2.447677
  H     -0.592998    0.333289    3.301283
  H      0.857310    0.289342    2.249222
  H     -3.964558    0.171470    1.595462
  H     -3.964746   -1.444306    0.836718
  H     -4.886356   -0.106212    0.085777

 Total Charge           Charge          ....    0
 Multiplicity           Mult            ....    1
 Number of Electrons    NEL             ....  174
 Basis Dimension        Dim             ....  316

ORBITAL ENERGIES
----------------

  NO   OCC          E(Eh)            E(eV)
   0   2.0000     -88.030915     -2395.4430
   1   2.0000     -87.960906     -2393.5379
   2   2.0000     -76.414381     -2079.3410
   3   2.0000     -18.816390      -512.0200
   4   2.0000     -18.809145      -511.8229
   5   2.0000     -18.781794      -511.0786
   6   2.0000     -18.763315      -510.5758
   7   2.0000     -18.759885      -510.4824
   8   2.0000     -18.746052      -510.1060
   9   2.0000     -10.026894      -272.8457
  10   2.0000     -10.022854      -272.7357
  11   2.0000      -9.952608      -270.8242
  12   2.0000      -9.952009      -270.8079
  13   2.0000      -9.949143      -270.7299
  14   2.0000      -9.926867      -270.1238
  15   2.0000      -9.923414      -270.0298
  16   2.0000      -9.920047      -269.9382
  17   2.0000      -9.891103      -269.1506
  18   2.0000      -9.890424      -269.1321
  19   2.0000      -7.675751      -208.8678
  20   2.0000      -7.606244      -206.9764
  21   2.0000      -6.409628      -174.4148
  22   2.0000      -5.704524      -155.2280
  23   2.0000      -5.700183      -155.1099
  24   2.0000      -5.691891      -154.8842
  25   2.0000      -5.635446      -153.3483
  26   2.0000      -5.626966      -153.1175
  27   2.0000      -5.625935      -153.0895
  28   2.0000      -4.632662      -126.0611
  29   2.0000      -4.631678      -126.0344
  30   2.0000      -4.629920      -125.9865
  31   2.0000      -1.027652       -27.9638
  32   2.0000      -1.018455       -27.7136
  33   2.0000      -0.964231       -26.2381
  34   2.0000      -0.935146       -25.4466
  35   2.0000      -0.923771       -25.1371
  36   2.0000      -0.919888       -25.0314
  37   2.0000      -0.765592       -20.8328
  38   2.0000      -0.720776       -19.6133
  39   2.0000      -0.706316       -19.2198
  40   2.0000      -0.689273       -18.7561
  41   2.0000      -0.652377       -17.7521
  42   2.0000      -0.621052       -16.8997
  43   2.0000      -0.611920       -16.6512
  44   2.0000      -0.606963       -16.5163
  45   2.0000      -0.602550       -16.3962
  46   2.0000      -0.563104       -15.3228
  47   2.0000      -0.513294       -13.9674
  48   2.0000      -0.507986       -13.8230
  49   2.0000      -0.497005       -13.5242
  50   2.0000      -0.489386       -13.3169
  51   2.0000      -0.470985       -12.8162
  52   2.0000      -0.459163       -12.4945
  53   2.0000      -0.450412       -12.2563
  54   2.0000      -0.444775       -12.1029
  55   2.0000      -0.437695       -11.9103
  56   2.0000      -0.422525       -11.4975
  57   2.0000      -0.413205       -11.2439
  58   2.0000      -0.410397       -11.1675
  59   2.0000      -0.403400       -10.9771
  60   2.0000      -0.393700       -10.7131
  61   2.0000      -0.390615       -10.6292
  62   2.0000      -0.386348       -10.5131
  63   2.0000      -0.384752       -10.4696
  64   2.0000      -0.380884       -10.3644
  65   2.0000      -0.369735       -10.0610
  66   2.0000      -0.362388        -9.8611
  67   2.0000      -0.358135        -9.7454
  68   2.0000      -0.349107        -9.4997
  69   2.0000      -0.338910        -9.2222
  70   2.0000      -0.337258        -9.1772
  71   2.0000      -0.331362        -9.0168
  72   2.0000      -0.325204        -8.8493
  73   2.0000      -0.306919        -8.3517
  74   2.0000      -0.301992        -8.2176
  75   2.0000      -0.300047        -8.1647
  76   2.0000      -0.288339        -7.8461
  77   2.0000      -0.275737        -7.5032
  78   2.0000      -0.267953        -7.2914
  79   2.0000      -0.264982        -7.2105
  80   2.0000      -0.257445        -7.0054
  81   2.0000      -0.248988        -6.7753
  82   2.0000      -0.240596        -6.5470
  83   2.0000      -0.232445        -6.3251
  84   2.0000      -0.208622        -5.6769
  85   2.0000      -0.180922        -4.9231
  86   2.0000      -0.173582        -4.7234
  87   0.0000      -0.047636        -1.2963
  88   0.0000      -0.044552        -1.2123
  89   0.0000      -0.022741        -0.6188
  90   0.0000       0.000672         0.0183
  91   0.0000       0.037340         1.0161

MULLIKEN ATOMIC CHARGES
-----------------------
   0 C :   -0.313114
   1 C :   -0.024768
   2 O :   -0.216707
   3 C :    0.161723
   4 O :   -0.224946
   5 C :   -0.042766
   6 C :   -0.321641
   7 H :    0.148626
   8 C :    0.192776
   9 O :   -0.196280
  10 O :   -0.214236
  11 C :   -0.030013
  12 C :   -0.283533
  13 S :   -0.062536
  14 P :    0.658324
  15 S :   -0.345602
  16 O :   -0.400477
  17 C :   -0.119842
  18 O :   -0.397817
  19 C :   -0.097334
  20 H :    0.117405
  21 H :    0.115018
  22 H :    0.135370
  23 H :    0.132399
  24 H :    0.107212
  25 H :    0.128191
  26 H :    0.126451
  27 H :    0.116593
  28 H :    0.112335
  29 H :    0.123082
  30 H :    0.112147
  31 H :    0.110328
  32 H :    0.118325
  33 H :    0.108809
  34 H :    0.139044
  35 H :    0.100098
  36 H :    0.112035
  37 H :    0.115322
Sum of atomic charges:    0.0000000

LOEWDIN ATOMIC CHARGES
----------------------
   0 C :   -0.354867
   1 C :   -0.109075
   2 O :   -0.038103
   3 C :    0.060008
   4 O :   -0.161241
   5 C :   -0.250637
   6 C :   -0.264917
   7 H :    0.151649
   8 C :    0.011442
   9 O :   -0.161064
  10 O :   -0.044148
  11 C :   -0.109102
  12 C :   -0.350523
  13 S :    0.125318
  14 P :    0.590999
  15 S :   -0.344052
  16 O :   -0.250868
  17 C :   -0.226724
  18 O :   -0.275091
  19 C :   -0.220649
  20 H :    0.133287
  21 H :    0.125557
  22 H :    0.131903
  23 H :    0.127200
  24 H :    0.120580
  25 H :    0.149882
  26 H :    0.150887
  27 H :    0.120639
  28 H :    0.117831
  29 H :    0.129787
  30 H :    0.130680
  31 H :    0.124565
  32 H :    0.107428
  33 H :    0.112024
  34 H :    0.112060
  35 H :    0.106098
  36 H :    0.104139
  37 H :    0.117100

  Mayer bond orders larger than 0.100000
B(  0-C ,  1-C ) :   1.1730 B(  0-C , 20-H ) :   0.9431 B(  0-C , 21-H ) :   0.9478
B(  0-C , 22-H ) :   0.9430 B(  1-C ,  2-O ) :   0.8971 B(  1-C , 23-H ) :   0.9089
B(  1-C , 24-H ) :   0.9366 B(  2-O ,  3-C ) :   1.2856 B(  3-C ,  4-O ) :   1.8311
B(  3-C ,  5-C ) :   1.0208 B(  4-O , 14-P ) :   0.1538 B(  5-C ,  6-C ) :   1.0207
B(  5-C , 25-H ) :   0.8818 B(  5-C , 26-H ) :   0.8754 B(  6-C ,  7-H ) :   0.8739
B(  6-C ,  8-C ) :   0.8946 B(  6-C , 13-S ) :   1.0216 B(  8-C ,  9-O ) :   2.0280
B(  8-C , 10-O ) :   1.2613 B(  9-O , 10-O ) :   0.1001 B( 10-O , 11-C ) :   0.9039
B( 11-C , 12-C ) :   1.1637 B( 11-C , 27-H ) :   0.9257 B( 11-C , 28-H ) :   0.9141
B( 12-C , 29-H ) :   0.9484 B( 12-C , 30-H ) :   0.9441 B( 12-C , 31-H ) :   0.9518
B( 13-S , 14-P ) :   0.9482 B( 14-P , 15-S ) :   1.5746 B( 14-P , 16-O ) :   1.0453
B( 14-P , 18-O ) :   1.0501 B( 16-O , 17-C ) :   0.9246 B( 17-C , 32-H ) :   0.9276
B( 17-C , 33-H ) :   0.9515 B( 17-C , 34-H ) :   0.9319 B( 18-O , 19-C ) :   0.9474
B( 19-C , 35-H ) :   0.9526 B( 19-C , 36-H ) :   0.9254 B( 19-C , 37-H ) :   0.9603

Dispersion correction           -0.054818675
FINAL SINGLE POINT ENERGY     -1979.003490447974

DIPOLE MOMENT
-------------

Method             : SCF
Type of density    : Electron Density
Multiplicity       :   1
Irrep              :   0
Energy             : -1979.1355853692234632 Eh
Relativity type    :
Basis              : AO
                                X                 Y                 Z
Electronic contribution:     -7.290322234      -7.056499545     -12.139710886
Nuclear contribution   :      8.399968213       8.051090929      12.456529872
                        -----------------------------------------
Total Dipole Moment    :      1.109645979       0.994591384       0.316818986
                        -----------------------------------------
Magnitude (a.u.)       :      1.523450193
Magnitude (Debye)      :      3.872302654

Rotational constants in cm-1:             0.011673             0.009269             0.006855
Rotational constants in MHz :           349.962610           277.883909           205.509198

                             ****ORCA TERMINATED NORMALLY****
TOTAL RUN TIME: 0 days 0 hours 0 minutes 45 seconds 776 msec
