                         Program Version 6.0.0  -   RELEASE  -
|  1> ! pbe def2-sv(p) def2/J RI DEFGRID1 loosescf d4 GCP(DFT/SV(P)) printgap
|  2> %output
|  3>     printlevel normal
|  4> end
|  5> * xyz 0 1
|  6> C 3.4053529412 1.435811042 -1.758079429
|  7> C 2.1923551 1.9827418814 -1.0375695456
|  8> O 2.084184411 1.5465061613 0.3398072489
|  9> P 2.1294535834 0.0624704481 0.8752465155
| 10> S 1.4784668365 0.0088839455 2.7186192097
| 11> O 3.6576191235 -0.3180297917 0.6502094404
| 12> C 4.1972888936 -1.6495374679 0.689794855
| 13> C 4.1482564223 -2.2595376027 2.0762475608
| 14> S 1.0878827559 -1.1193374643 -0.5720384584
| 15> C -0.2698943235 -1.7458285582 0.4483034734
| 16> S -1.4729547229 -0.4946600522 0.9679492518
| 17> P -2.1042140419 0.1749890916 -0.9596007739
| 18> S -1.7367178997 -0.9839159536 -2.491756186
| 19> O -1.4119187013 1.5777115542 -1.1891613273
| 20> C -1.2168608097 2.630105129 -0.2125710219
| 21> C -2.4744555879 3.0218911089 0.5322469907
| 22> O -3.6220568818 0.5899700447 -0.7409502252
| 23> C -4.6414285485 -0.2340691894 -0.1485720547
| 24> C -4.7449183983 -1.6025523826 -0.78857912
| 25> H 3.482754784 1.9205132711 -2.7267496831
| 26> H 4.3065461162 1.6319862146 -1.1832777427
| 27> H 3.3054137109 0.362989932 -1.9121135202
| 28> H 1.2749504559 1.6944079504 -1.559813524
| 29> H 2.2385886195 3.0691811307 -0.9466938564
| 30> H 3.6511507633 -2.2684400363 -0.0286696028
| 31> H 5.227463206 -1.5192291227 0.353046588
| 32> H 4.6386871836 -1.605256974 2.79253923
| 33> H 3.1176679302 -2.4019800175 2.3951742693
| 34> H 4.65207332 -3.2207144388 2.0632708863
| 35> H 0.1211215601 -2.1694940412 1.371535944
| 36> H -0.7633301795 -2.497024446 -0.1661191006
| 37> H -0.4431135433 2.3058829418 0.4907920828
| 38> H -0.8390197915 3.457250457 -0.8159550538
| 39> H -3.2759717939 3.2405179584 -0.1682976407
| 40> H -2.7893784449 2.2214015649 1.1988214806
| 41> H -2.2633706431 3.9060361529 1.1264853175
| 42> H -4.4287170366 -0.3234220385 0.9207664615
| 43> H -5.555580795 0.343591782 -0.29647917
| 44> H -4.8766971345 -1.5096849379 -1.864009211
| 45> H -3.837233496 -2.1751857527 -0.603680872
| 46> H -5.5912422181 -2.1345993244 -0.3660422888
| 47> *
| 48>
| 49>                          ****END OF INPUT****

CARTESIAN COORDINATES (ANGSTROEM)
---------------------------------
  C      3.405353    1.435811   -1.758079
  C      2.192355    1.982742   -1.037570
  O      2.084184    1.546506    0.339807
  P      2.129454    0.062470    0.875247
  S      1.478467    0.008884    2.718619
  O      3.657619   -0.318030    0.650209
  C      4.197289   -1.649537    0.689795
  C      4.148256   -2.259538    2.076248
  S      1.087883   -1.119337   -0.572038
  C     -0.269894   -1.745829    0.448303
  S     -1.472955   -0.494660    0.967949
  P     -2.104214    0.174989   -0.959601
  S     -1.736718   -0.983916   -2.491756
  O     -1.411919    1.577712   -1.189161
  C     -1.216861    2.630105   -0.212571
  C     -2.474456    3.021891    0.532247
  O     -3.622057    0.589970   -0.740950
  C     -4.641429   -0.234069   -0.148572
  C     -4.744918   -1.602552   -0.788579
  H      3.482755    1.920513   -2.726750
  H      4.306546    1.631986   -1.183278
  H      3.305414    0.362990   -1.912114
  H      1.274950    1.694408   -1.559814
  H      2.238589    3.069181   -0.946694
  H      3.651151   -2.268440   -0.028670
  H      5.227463   -1.519229    0.353047
  H      4.638687   -1.605257    2.792539
  H      3.117668   -2.401980    2.395174
  H      4.652073   -3.220714    2.063271
  H      0.121122   -2.169494    1.371536
  H     -0.763330   -2.497024   -0.166119
  H     -0.443114    2.305883    0.490792
  H     -0.839020    3.457250   -0.815955
  H     -3.275972    3.240518   -0.168298
  H     -2.789378    2.221402    1.198821
  H     -2.263371    3.906036    1.126485
  H     -4.428717   -0.323422    0.920766
  H     -5.555581    0.343592   -0.296479
  H     -4.876697   -1.509685   -1.864009
  H     -3.837233   -2.175186   -0.603681
  H     -5.591242   -2.134599   -0.366042

 Total Charge           Charge          ....    0
 Multiplicity           Mult            ....    1
 Number of Electrons    NEL             ....  202
 Basis Dimension        Dim             ....  334

ORBITAL ENERGIES
----------------

  NO   OCC          E(Eh)            E(eV)
   0   2.0000     -88.046918     -2395.8784
   1   2.0000     -88.045117     -2395.8294
   2   2.0000     -87.983364     -2394.1490
   3   2.0000     -87.980840     -2394.0804
   4   2.0000     -76.426464     -2079.6698
   5   2.0000     -76.425838     -2079.6528
   6   2.0000     -18.792042      -511.3574
   7   2.0000     -18.791859      -511.3525
   8   2.0000     -18.791460      -511.3416
   9   2.0000     -18.788460      -511.2600
  10   2.0000      -9.960236      -271.0318
  11   2.0000      -9.957826      -270.9662
  12   2.0000      -9.956274      -270.9240
  13   2.0000      -9.955327      -270.8982
  14   2.0000      -9.951992      -270.8075
  15   2.0000      -9.888908      -269.0909
  16   2.0000      -9.886589      -269.0278
  17   2.0000      -9.883633      -268.9473
  18   2.0000      -9.882706      -268.9221
  19   2.0000      -7.690792      -209.2771
  20   2.0000      -7.689439      -209.2403
  21   2.0000      -7.628624      -207.5854
  22   2.0000      -7.626173      -207.5187
  23   2.0000      -6.423512      -174.7927
  24   2.0000      -6.422673      -174.7698
  25   2.0000      -5.718654      -155.6125
  26   2.0000      -5.717286      -155.5753
  27   2.0000      -5.715151      -155.5172
  28   2.0000      -5.713860      -155.4820
  29   2.0000      -5.708120      -155.3259
  30   2.0000      -5.706659      -155.2861
  31   2.0000      -5.657741      -153.9550
  32   2.0000      -5.655283      -153.8881
  33   2.0000      -5.649259      -153.7242
  34   2.0000      -5.648544      -153.7047
  35   2.0000      -5.646785      -153.6568
  36   2.0000      -5.646114      -153.6386
  37   2.0000      -4.646091      -126.4266
  38   2.0000      -4.645622      -126.4138
  39   2.0000      -4.645295      -126.4049
  40   2.0000      -4.644897      -126.3941
  41   2.0000      -4.643720      -126.3620
  42   2.0000      -4.642782      -126.3365
  43   2.0000      -0.986521       -26.8446
  44   2.0000      -0.984850       -26.7991
  45   2.0000      -0.944616       -25.7043
  46   2.0000      -0.942566       -25.6485
  47   2.0000      -0.764465       -20.8022
  48   2.0000      -0.720146       -19.5962
  49   2.0000      -0.712873       -19.3983
  50   2.0000      -0.691294       -18.8111
  51   2.0000      -0.690487       -18.7891
  52   2.0000      -0.677317       -18.4307
  53   2.0000      -0.650711       -17.7067
  54   2.0000      -0.641031       -17.4434
  55   2.0000      -0.593655       -16.1542
  56   2.0000      -0.590120       -16.0580
  57   2.0000      -0.578336       -15.7373
  58   2.0000      -0.576654       -15.6916
  59   2.0000      -0.573251       -15.5989
  60   2.0000      -0.500540       -13.6204
  61   2.0000      -0.490506       -13.3473
  62   2.0000      -0.473975       -12.8975
  63   2.0000      -0.468641       -12.7524
  64   2.0000      -0.460994       -12.5443
  65   2.0000      -0.445630       -12.1262
  66   2.0000      -0.441808       -12.0222
  67   2.0000      -0.438554       -11.9337
  68   2.0000      -0.434217       -11.8156
  69   2.0000      -0.413518       -11.2524
  70   2.0000      -0.406693       -11.0667
  71   2.0000      -0.405016       -11.0211
  72   2.0000      -0.397339       -10.8122
  73   2.0000      -0.396065       -10.7775
  74   2.0000      -0.391796       -10.6613
  75   2.0000      -0.376570       -10.2470
  76   2.0000      -0.355796        -9.6817
  77   2.0000      -0.354507        -9.6466
  78   2.0000      -0.352365        -9.5883
  79   2.0000      -0.350465        -9.5366
  80   2.0000      -0.347728        -9.4621
  81   2.0000      -0.345910        -9.4127
  82   2.0000      -0.345252        -9.3948
  83   2.0000      -0.340451        -9.2641
  84   2.0000      -0.337342        -9.1795
  85   2.0000      -0.323559        -8.8045
  86   2.0000      -0.313398        -8.5280
  87   2.0000      -0.295296        -8.0354
  88   2.0000      -0.294456        -8.0126
  89   2.0000      -0.289187        -7.8692
  90   2.0000      -0.286808        -7.8044
  91   2.0000      -0.276330        -7.5193
  92   2.0000      -0.271980        -7.4009
  93   2.0000      -0.265541        -7.2257
  94   2.0000      -0.259008        -7.0480
  95   2.0000      -0.239771        -6.5245
  96   2.0000      -0.219763        -5.9801
  97   2.0000      -0.211283        -5.7493
  98   2.0000      -0.202327        -5.5056
  99   2.0000      -0.190916        -5.1951
 100   2.0000      -0.189661        -5.1609
 101   0.0000      -0.046569        -1.2672
 102   0.0000      -0.030859        -0.8397
 103   0.0000      -0.006163        -0.1677
 104   0.0000       0.001800         0.0490
 105   0.0000       0.012125         0.3299

MULLIKEN ATOMIC CHARGES
-----------------------
   0 C :   -0.298015
   1 C :   -0.038435
   2 O :   -0.367160
   3 P :    0.602193
   4 S :   -0.313063
   5 O :   -0.370475
   6 C :   -0.009220
   7 C :   -0.303781
   8 S :   -0.101522
   9 C :   -0.320381
  10 S :   -0.100735
  11 P :    0.597072
  12 S :   -0.315549
  13 O :   -0.365725
  14 C :   -0.038943
  15 C :   -0.293016
  16 O :   -0.372861
  17 C :   -0.004663
  18 C :   -0.309133
  19 H :    0.116418
  20 H :    0.123497
  21 H :    0.120744
  22 H :    0.142560
  23 H :    0.107416
  24 H :    0.104486
  25 H :    0.106161
  26 H :    0.122358
  27 H :    0.123720
  28 H :    0.108521
  29 H :    0.183055
  30 H :    0.188097
  31 H :    0.139861
  32 H :    0.104605
  33 H :    0.122138
  34 H :    0.117568
  35 H :    0.115265
  36 H :    0.108432
  37 H :    0.108146
  38 H :    0.128957
  39 H :    0.120853
  40 H :    0.110553
Sum of atomic charges:   -0.0000000

LOEWDIN ATOMIC CHARGES
----------------------
   0 C :   -0.364051
   1 C :   -0.119406
   2 O :   -0.236047
   3 P :    0.560864
   4 S :   -0.309957
   5 O :   -0.241507
   6 C :   -0.118724
   7 C :   -0.366856
   8 S :    0.086756
   9 C :   -0.475256
  10 S :    0.078647
  11 P :    0.564687
  12 S :   -0.314523
  13 O :   -0.238203
  14 C :   -0.120693
  15 C :   -0.363784
  16 O :   -0.241508
  17 C :   -0.115166
  18 C :   -0.368868
  19 H :    0.133287
  20 H :    0.128747
  21 H :    0.118717
  22 H :    0.117388
  23 H :    0.120891
  24 H :    0.103212
  25 H :    0.119437
  26 H :    0.129986
  27 H :    0.119365
  28 H :    0.128644
  29 H :    0.130979
  30 H :    0.132663
  31 H :    0.115167
  32 H :    0.119211
  33 H :    0.127797
  34 H :    0.118145
  35 H :    0.132789
  36 H :    0.107136
  37 H :    0.120945
  38 H :    0.130678
  39 H :    0.118835
  40 H :    0.129576

  Mayer bond orders larger than 0.100000
B(  0-C ,  1-C ) :   1.1720 B(  0-C , 19-H ) :   0.9346 B(  0-C , 20-H ) :   0.9415
B(  0-C , 21-H ) :   0.9414 B(  1-C ,  2-O ) :   0.8916 B(  1-C , 22-H ) :   0.9090
B(  1-C , 23-H ) :   0.9342 B(  2-O ,  3-P ) :   1.1253 B(  3-P ,  4-S ) :   1.6371
B(  3-P ,  5-O ) :   1.0869 B(  3-P ,  8-S ) :   0.9358 B(  4-S ,  8-S ) :   0.1118
B(  5-O ,  6-C ) :   0.9175 B(  6-C ,  7-C ) :   1.1648 B(  6-C , 24-H ) :   0.9177
B(  6-C , 25-H ) :   0.9343 B(  7-C , 26-H ) :   0.9455 B(  7-C , 27-H ) :   0.9346
B(  7-C , 28-H ) :   0.9366 B(  8-S ,  9-C ) :   1.0075 B(  9-C , 10-S ) :   1.0030
B(  9-C , 29-H ) :   0.8897 B(  9-C , 30-H ) :   0.8896 B( 10-S , 11-P ) :   0.9357
B( 10-S , 12-S ) :   0.1115 B( 11-P , 12-S ) :   1.6311 B( 11-P , 13-O ) :   1.1278
B( 11-P , 16-O ) :   1.0926 B( 13-O , 14-C ) :   0.8900 B( 14-C , 15-C ) :   1.1721
B( 14-C , 31-H ) :   0.9070 B( 14-C , 32-H ) :   0.9338 B( 15-C , 33-H ) :   0.9416
B( 15-C , 34-H ) :   0.9415 B( 15-C , 35-H ) :   0.9347 B( 16-O , 17-C ) :   0.9131
B( 17-C , 18-C ) :   1.1673 B( 17-C , 36-H ) :   0.9251 B( 17-C , 37-H ) :   0.9336
B( 18-C , 38-H ) :   0.9415 B( 18-C , 39-H ) :   0.9352 B( 18-C , 40-H ) :   0.9345

Dispersion correction           -0.067608456
FINAL SINGLE POINT ENERGY     -2929.515463331581

DIPOLE MOMENT
-------------

Method             : SCF
Type of density    : Electron Density
Multiplicity       :   1
Irrep              :   0
Energy             : -2929.6338576072075739 Eh
Relativity type    :
Basis              : AO
                                X                 Y                 Z
Electronic contribution:     -1.209918742      -2.005125334      -0.109939849
Nuclear contribution   :      1.275677507       2.097818796       0.113343287
                        -----------------------------------------
Total Dipole Moment    :      0.065758765       0.092693462       0.003403438
                        -----------------------------------------
Magnitude (a.u.)       :      0.113700820
Magnitude (Debye)      :      0.289004516

Rotational constants in cm-1:             0.013048             0.005059             0.004858
Rotational constants in MHz :           391.161267           151.663426           145.640045

                             ****ORCA TERMINATED NORMALLY****
TOTAL RUN TIME: 0 days 0 hours 0 minutes 21 seconds 701 msec
