                         Program Version 6.0.0  -   RELEASE  -
|  1> ! pbe def2-sv(p) def2/J RI DEFGRID1 loosescf d4 GCP(DFT/SV(P)) printgap
|  2> %output
|  3>     printlevel normal
|  4> end
|  5> * xyz 0 1
|  6> C 3.9490981976 -1.1389993526 -2.8827078677
|  7> C 4.4491187435 -0.7540585144 -1.506702018
|  8> O 3.6189400511 0.2356439916 -0.8665367161
|  9> P 2.0578850196 0.0986196833 -0.6106929485
| 10> S 0.8484594769 0.4232953464 -2.1149627789
| 11> O 1.8305294435 1.1858567414 0.5054375687
| 12> C 2.6022125369 1.3049239277 1.7272552973
| 13> C 1.831488641 0.7411282619 2.9045344861
| 14> S 1.8790285199 -1.8295564161 0.2598890248
| 15> C 0.0920549302 -2.0040870159 0.066489008
| 16> S -0.8675265617 -1.1699644248 1.3764084995
| 17> P -1.8806324805 0.4213382961 0.4281241166
| 18> S -1.1582912489 2.2331188271 0.2997005246
| 19> O -3.2059805739 0.5103154255 1.2993084599
| 20> C -4.0769362832 -0.6164093214 1.561037198
| 21> C -3.9684484654 -1.0377248368 3.0130105782
| 22> O -2.2574737851 -0.3185901733 -0.9408486047
| 23> C -2.6516935034 0.4173981171 -2.1112708006
| 24> C -4.0327697713 1.0171994397 -1.9503490773
| 25> H 2.9800717588 -1.6300027406 -2.8080897893
| 26> H 3.8371128405 -0.2553411785 -3.506703689
| 27> H 4.657281802 -1.8189240977 -3.345014348
| 28> H 5.4261195477 -0.2702141009 -1.5575510728
| 29> H 4.4995448114 -1.6295414561 -0.8537325179
| 30> H 3.5618937158 0.8017080945 1.5941534219
| 31> H 2.7595568423 2.3790428248 1.838158517
| 32> H 0.8435391887 1.1954133593 2.9489601339
| 33> H 1.7170758584 -0.3371595652 2.8191464931
| 34> H 2.3684744284 0.9696341791 3.8194804551
| 35> H -0.1240030805 -3.0654483898 0.1515317257
| 36> H -0.2032918325 -1.6059326154 -0.9053587974
| 37> H -5.0805691409 -0.2540329114 1.3307973629
| 38> H -3.8180537642 -1.4364401895 0.8863085502
| 39> H -4.1833644467 -0.1916253436 3.6595682225
| 40> H -4.6843729452 -1.8299381105 3.2072686213
| 41> H -2.9657547062 -1.3986233006 3.230305952
| 42> H -1.9055043033 1.195514714 -2.3020843416
| 43> H -2.6132840542 -0.3207254832 -2.9138425109
| 44> H -4.7607374068 0.2391115647 -1.7351856954
| 45> H -4.0261051366 1.7381707224 -1.1329123859
| 46> H -4.3096502405 1.5273648624 -2.867427145
| 47> *
| 48>
| 49>                          ****END OF INPUT****

CARTESIAN COORDINATES (ANGSTROEM)
---------------------------------
  C      3.949098   -1.138999   -2.882708
  C      4.449119   -0.754059   -1.506702
  O      3.618940    0.235644   -0.866537
  P      2.057885    0.098620   -0.610693
  S      0.848459    0.423295   -2.114963
  O      1.830529    1.185857    0.505438
  C      2.602213    1.304924    1.727255
  C      1.831489    0.741128    2.904534
  S      1.879029   -1.829556    0.259889
  C      0.092055   -2.004087    0.066489
  S     -0.867527   -1.169964    1.376408
  P     -1.880632    0.421338    0.428124
  S     -1.158291    2.233119    0.299701
  O     -3.205981    0.510315    1.299308
  C     -4.076936   -0.616409    1.561037
  C     -3.968448   -1.037725    3.013011
  O     -2.257474   -0.318590   -0.940849
  C     -2.651694    0.417398   -2.111271
  C     -4.032770    1.017199   -1.950349
  H      2.980072   -1.630003   -2.808090
  H      3.837113   -0.255341   -3.506704
  H      4.657282   -1.818924   -3.345014
  H      5.426120   -0.270214   -1.557551
  H      4.499545   -1.629541   -0.853733
  H      3.561894    0.801708    1.594153
  H      2.759557    2.379043    1.838159
  H      0.843539    1.195413    2.948960
  H      1.717076   -0.337160    2.819146
  H      2.368474    0.969634    3.819480
  H     -0.124003   -3.065448    0.151532
  H     -0.203292   -1.605933   -0.905359
  H     -5.080569   -0.254033    1.330797
  H     -3.818054   -1.436440    0.886309
  H     -4.183364   -0.191625    3.659568
  H     -4.684373   -1.829938    3.207269
  H     -2.965755   -1.398623    3.230306
  H     -1.905504    1.195515   -2.302084
  H     -2.613284   -0.320725   -2.913843
  H     -4.760737    0.239112   -1.735186
  H     -4.026105    1.738171   -1.132912
  H     -4.309650    1.527365   -2.867427

 Total Charge           Charge          ....    0
 Multiplicity           Mult            ....    1
 Number of Electrons    NEL             ....  202
 Basis Dimension        Dim             ....  334

ORBITAL ENERGIES
----------------

  NO   OCC          E(Eh)            E(eV)
   0   2.0000     -88.047173     -2395.8854
   1   2.0000     -88.040565     -2395.7056
   2   2.0000     -87.980909     -2394.0823
   3   2.0000     -87.968748     -2393.7513
   4   2.0000     -76.424457     -2079.6152
   5   2.0000     -76.415827     -2079.3804
   6   2.0000     -18.794382      -511.4211
   7   2.0000     -18.785020      -511.1664
   8   2.0000     -18.783507      -511.1252
   9   2.0000     -18.781311      -511.0655
  10   2.0000      -9.960448      -271.0376
  11   2.0000      -9.958963      -270.9972
  12   2.0000      -9.951315      -270.7890
  13   2.0000      -9.948113      -270.7019
  14   2.0000      -9.941870      -270.5320
  15   2.0000      -9.884644      -268.9748
  16   2.0000      -9.884433      -268.9691
  17   2.0000      -9.878930      -268.8194
  18   2.0000      -9.873968      -268.6843
  19   2.0000      -7.692273      -209.3174
  20   2.0000      -7.685646      -209.1371
  21   2.0000      -7.625917      -207.5117
  22   2.0000      -7.613991      -207.1872
  23   2.0000      -6.421724      -174.7440
  24   2.0000      -6.413464      -174.5192
  25   2.0000      -5.719895      -155.6463
  26   2.0000      -5.716661      -155.5582
  27   2.0000      -5.713816      -155.4808
  28   2.0000      -5.709723      -155.3695
  29   2.0000      -5.709610      -155.3664
  30   2.0000      -5.702671      -155.1776
  31   2.0000      -5.654907      -153.8778
  32   2.0000      -5.646558      -153.6507
  33   2.0000      -5.645923      -153.6334
  34   2.0000      -5.643284      -153.5616
  35   2.0000      -5.634586      -153.3249
  36   2.0000      -5.633764      -153.3025
  37   2.0000      -4.644510      -126.3835
  38   2.0000      -4.643789      -126.3639
  39   2.0000      -4.641750      -126.3085
  40   2.0000      -4.636436      -126.1638
  41   2.0000      -4.635227      -126.1310
  42   2.0000      -4.633568      -126.0858
  43   2.0000      -0.985726       -26.8230
  44   2.0000      -0.976846       -26.5813
  45   2.0000      -0.939983       -25.5782
  46   2.0000      -0.937221       -25.5031
  47   2.0000      -0.762885       -20.7591
  48   2.0000      -0.717963       -19.5368
  49   2.0000      -0.708162       -19.2701
  50   2.0000      -0.688582       -18.7373
  51   2.0000      -0.686011       -18.6673
  52   2.0000      -0.671568       -18.2743
  53   2.0000      -0.646979       -17.6052
  54   2.0000      -0.630571       -17.1587
  55   2.0000      -0.591320       -16.0906
  56   2.0000      -0.582094       -15.8396
  57   2.0000      -0.572370       -15.5750
  58   2.0000      -0.569948       -15.5091
  59   2.0000      -0.562141       -15.2966
  60   2.0000      -0.501873       -13.6566
  61   2.0000      -0.493966       -13.4415
  62   2.0000      -0.472588       -12.8598
  63   2.0000      -0.469233       -12.7685
  64   2.0000      -0.453897       -12.3512
  65   2.0000      -0.447405       -12.1745
  66   2.0000      -0.437344       -11.9007
  67   2.0000      -0.433296       -11.7906
  68   2.0000      -0.425943       -11.5905
  69   2.0000      -0.417512       -11.3611
  70   2.0000      -0.410279       -11.1643
  71   2.0000      -0.397316       -10.8115
  72   2.0000      -0.395314       -10.7570
  73   2.0000      -0.382973       -10.4212
  74   2.0000      -0.377280       -10.2663
  75   2.0000      -0.363086        -9.8801
  76   2.0000      -0.354812        -9.6549
  77   2.0000      -0.353839        -9.6285
  78   2.0000      -0.351093        -9.5537
  79   2.0000      -0.346625        -9.4321
  80   2.0000      -0.342539        -9.3209
  81   2.0000      -0.342237        -9.3127
  82   2.0000      -0.338869        -9.2211
  83   2.0000      -0.336933        -9.1684
  84   2.0000      -0.328732        -8.9453
  85   2.0000      -0.314209        -8.5501
  86   2.0000      -0.308313        -8.3896
  87   2.0000      -0.298306        -8.1173
  88   2.0000      -0.297485        -8.0950
  89   2.0000      -0.288100        -7.8396
  90   2.0000      -0.273662        -7.4467
  91   2.0000      -0.271271        -7.3817
  92   2.0000      -0.267662        -7.2834
  93   2.0000      -0.262416        -7.1407
  94   2.0000      -0.256374        -6.9763
  95   2.0000      -0.235953        -6.4206
  96   2.0000      -0.221579        -6.0295
  97   2.0000      -0.207159        -5.6371
  98   2.0000      -0.199074        -5.4171
  99   2.0000      -0.185677        -5.0525
 100   2.0000      -0.172499        -4.6939
 101   0.0000      -0.040589        -1.1045
 102   0.0000      -0.025251        -0.6871
 103   0.0000      -0.019827        -0.5395
 104   0.0000       0.003061         0.0833
 105   0.0000       0.016484         0.4486

MULLIKEN ATOMIC CHARGES
-----------------------
   0 C :   -0.305730
   1 C :   -0.012868
   2 O :   -0.378320
   3 P :    0.607247
   4 S :   -0.303008
   5 O :   -0.331644
   6 C :   -0.005971
   7 C :   -0.295072
   8 S :   -0.123904
   9 C :   -0.344508
  10 S :   -0.110995
  11 P :    0.608975
  12 S :   -0.284426
  13 O :   -0.368304
  14 C :   -0.023465
  15 C :   -0.286201
  16 O :   -0.390038
  17 C :   -0.013869
  18 C :   -0.309735
  19 H :    0.122191
  20 H :    0.128170
  21 H :    0.110449
  22 H :    0.110398
  23 H :    0.112515
  24 H :    0.094725
  25 H :    0.111738
  26 H :    0.126884
  27 H :    0.120432
  28 H :    0.102108
  29 H :    0.181427
  30 H :    0.209716
  31 H :    0.107928
  32 H :    0.101956
  33 H :    0.120113
  34 H :    0.107199
  35 H :    0.123031
  36 H :    0.130499
  37 H :    0.099756
  38 H :    0.106679
  39 H :    0.131730
  40 H :    0.112196
Sum of atomic charges:    0.0000000

LOEWDIN ATOMIC CHARGES
----------------------
   0 C :   -0.369264
   1 C :   -0.114763
   2 O :   -0.243281
   3 P :    0.567970
   4 S :   -0.288554
   5 O :   -0.220565
   6 C :   -0.109363
   7 C :   -0.366109
   8 S :    0.062795
   9 C :   -0.476859
  10 S :    0.085675
  11 P :    0.556651
  12 S :   -0.292403
  13 O :   -0.244588
  14 C :   -0.123434
  15 C :   -0.359703
  16 O :   -0.252601
  17 C :   -0.123941
  18 C :   -0.366191
  19 H :    0.120076
  20 H :    0.131383
  21 H :    0.129680
  22 H :    0.121846
  23 H :    0.107058
  24 H :    0.104789
  25 H :    0.123672
  26 H :    0.128217
  27 H :    0.113175
  28 H :    0.125892
  29 H :    0.137519
  30 H :    0.129521
  31 H :    0.118619
  32 H :    0.105317
  33 H :    0.129096
  34 H :    0.128630
  35 H :    0.119270
  36 H :    0.111566
  37 H :    0.115750
  38 H :    0.119823
  39 H :    0.126565
  40 H :    0.131063

  Mayer bond orders larger than 0.100000
B(  0-C ,  1-C ) :   1.1671 B(  0-C , 19-H ) :   0.9320 B(  0-C , 20-H ) :   0.9432
B(  0-C , 21-H ) :   0.9347 B(  1-C ,  2-O ) :   0.9109 B(  1-C , 22-H ) :   0.9333
B(  1-C , 23-H ) :   0.9262 B(  2-O ,  3-P ) :   1.0925 B(  3-P ,  4-S ) :   1.6330
B(  3-P ,  5-O ) :   1.1651 B(  3-P ,  8-S ) :   0.9241 B(  4-S ,  8-S ) :   0.1072
B(  5-O ,  6-C ) :   0.8908 B(  6-C ,  7-C ) :   1.1683 B(  6-C , 24-H ) :   0.9200
B(  6-C , 25-H ) :   0.9337 B(  7-C , 26-H ) :   0.9393 B(  7-C , 27-H ) :   0.9335
B(  7-C , 28-H ) :   0.9374 B(  8-S ,  9-C ) :   1.0143 B(  9-C , 10-S ) :   0.9920
B(  9-C , 29-H ) :   0.9107 B(  9-C , 30-H ) :   0.8519 B( 10-S , 11-P ) :   0.9496
B( 10-S , 12-S ) :   0.1033 B( 11-P , 12-S ) :   1.6801 B( 11-P , 13-O ) :   1.0981
B( 11-P , 16-O ) :   1.0656 B( 13-O , 14-C ) :   0.9009 B( 14-C , 15-C ) :   1.1657
B( 14-C , 31-H ) :   0.9311 B( 14-C , 32-H ) :   0.9135 B( 15-C , 33-H ) :   0.9460
B( 15-C , 34-H ) :   0.9404 B( 15-C , 35-H ) :   0.9396 B( 16-O , 17-C ) :   0.8995
B( 17-C , 18-C ) :   1.1608 B( 17-C , 36-H ) :   0.9074 B( 17-C , 37-H ) :   0.9357
B( 18-C , 38-H ) :   0.9455 B( 18-C , 39-H ) :   0.9338 B( 18-C , 40-H ) :   0.9402

Dispersion correction           -0.068194421
FINAL SINGLE POINT ENERGY     -2929.510528774703

DIPOLE MOMENT
-------------

Method             : SCF
Type of density    : Electron Density
Multiplicity       :   1
Irrep              :   0
Energy             : -2929.6283101230837929 Eh
Relativity type    :
Basis              : AO
                                X                 Y                 Z
Electronic contribution:      6.096233059       4.495300720      -1.444655308
Nuclear contribution   :     -5.830460361      -6.057905301       1.629730264
                        -----------------------------------------
Total Dipole Moment    :      0.265772698      -1.562604581       0.185074956
                        -----------------------------------------
Magnitude (a.u.)       :      1.595813567
Magnitude (Debye)      :      4.056235734

Rotational constants in cm-1:             0.012669             0.005488             0.004962
Rotational constants in MHz :           379.793515           164.531077           148.747035

                             ****ORCA TERMINATED NORMALLY****
TOTAL RUN TIME: 0 days 0 hours 0 minutes 21 seconds 555 msec
