                         Program Version 6.0.0  -   RELEASE  -
|  1> ! pbe def2-sv(p) def2/J RI DEFGRID1 loosescf d4 GCP(DFT/SV(P)) printgap
|  2> %output
|  3>     printlevel normal
|  4> end
|  5> * xyz 0 1
|  6> C 0.7017807797 -0.0002549987 -1.1794690341
|  7> C -0.368817785 -1.99372e-05 -0.1091813816
|  8> Cl -1.9660440311 0.0014725025 -0.893568135
|  9> Cl -0.249823003 -1.444837403 0.9238313419
| 10> Cl -0.2479988907 1.4434861863 0.9255117925
| 11> Cl 2.3157312011 6.9397e-06 -0.4173109419
| 12> H 0.6211751517 0.8972171697 -1.7924911151
| 13> H 0.6216365094 -0.8984511568 -1.791541789
| 14> *
| 15>
| 16>                          ****END OF INPUT****

CARTESIAN COORDINATES (ANGSTROEM)
---------------------------------
  C      0.701781   -0.000255   -1.179469
  C     -0.368818   -0.000020   -0.109181
  Cl    -1.966044    0.001473   -0.893568
  Cl    -0.249823   -1.444837    0.923831
  Cl    -0.247999    1.443486    0.925512
  Cl     2.315731    0.000007   -0.417311
  H      0.621175    0.897217   -1.792491
  H      0.621637   -0.898451   -1.791542

 Total Charge           Charge          ....    0
 Multiplicity           Mult            ....    1
 Number of Electrons    NEL             ....   82
 Basis Dimension        Dim             ....  104

ORBITAL ENERGIES
----------------

  NO   OCC          E(Eh)            E(eV)
   0   2.0000    -100.662394     -2739.1630
   1   2.0000    -100.655960     -2738.9879
   2   2.0000    -100.655919     -2738.9868
   3   2.0000    -100.642264     -2738.6152
   4   2.0000     -10.074268      -274.1348
   5   2.0000      -9.979880      -271.5664
   6   2.0000      -9.198957      -250.3163
   7   2.0000      -9.192456      -250.1395
   8   2.0000      -9.192421      -250.1385
   9   2.0000      -9.178131      -249.7496
  10   2.0000      -7.030853      -191.3192
  11   2.0000      -7.024556      -191.1479
  12   2.0000      -7.024538      -191.1474
  13   2.0000      -7.018388      -190.9800
  14   2.0000      -7.018250      -190.9763
  15   2.0000      -7.011822      -190.8014
  16   2.0000      -7.011804      -190.8009
  17   2.0000      -7.011605      -190.7955
  18   2.0000      -7.011596      -190.7952
  19   2.0000      -7.010219      -190.7578
  20   2.0000      -6.997690      -190.4168
  21   2.0000      -6.997250      -190.4048
  22   2.0000      -0.882497       -24.0140
  23   2.0000      -0.792568       -21.5669
  24   2.0000      -0.767392       -20.8818
  25   2.0000      -0.765020       -20.8173
  26   2.0000      -0.658379       -17.9154
  27   2.0000      -0.545363       -14.8401
  28   2.0000      -0.469824       -12.7846
  29   2.0000      -0.460140       -12.5210
  30   2.0000      -0.443674       -12.0730
  31   2.0000      -0.400980       -10.9112
  32   2.0000      -0.386402       -10.5145
  33   2.0000      -0.314222        -8.5504
  34   2.0000      -0.312650        -8.5076
  35   2.0000      -0.296396        -8.0654
  36   2.0000      -0.284710        -7.7474
  37   2.0000      -0.277241        -7.5441
  38   2.0000      -0.268068        -7.2945
  39   2.0000      -0.265031        -7.2119
  40   2.0000      -0.259426        -7.0594
  41   0.0000      -0.047847        -1.3020
  42   0.0000      -0.042658        -1.1608
  43   0.0000      -0.022686        -0.6173
  44   0.0000       0.013488         0.3670
  45   0.0000       0.056954         1.5498

MULLIKEN ATOMIC CHARGES
-----------------------
   0 C :   -0.058709
   1 C :   -0.147193
   2 Cl:   -0.008618
   3 Cl:   -0.005814
   4 Cl:   -0.005787
   5 Cl:   -0.100046
   6 H :    0.163076
   7 H :    0.163091
Sum of atomic charges:    0.0000000

LOEWDIN ATOMIC CHARGES
----------------------
   0 C :   -0.326004
   1 C :   -0.327133
   2 Cl:    0.104547
   3 Cl:    0.100878
   4 Cl:    0.100863
   5 Cl:    0.064533
   6 H :    0.141149
   7 H :    0.141166

  Mayer bond orders larger than 0.100000
B(  0-C ,  1-C ) :   0.9496 B(  0-C ,  5-Cl) :   1.0792 B(  0-C ,  6-H ) :   0.9021
B(  0-C ,  7-H ) :   0.9021 B(  1-C ,  2-Cl) :   1.0457 B(  1-C ,  3-Cl) :   1.0594
B(  1-C ,  4-Cl) :   1.0594

Dispersion correction           -0.012039168
FINAL SINGLE POINT ENERGY     -1916.693173081147

DIPOLE MOMENT
-------------

Method             : SCF
Type of density    : Electron Density
Multiplicity       :   1
Irrep              :   0
Energy             : -1916.7083259023729624 Eh
Relativity type    :
Basis              : AO
                                X                 Y                 Z
Electronic contribution:     -1.463838970       0.001176961       3.510775701
Nuclear contribution   :      1.364807289      -0.001329806      -4.085196415
                        -----------------------------------------
Total Dipole Moment    :     -0.099031681      -0.000152844      -0.574420713
                        -----------------------------------------
Magnitude (a.u.)       :      0.582894890
Magnitude (Debye)      :      1.481601067

Rotational constants in cm-1:             0.062915             0.036782             0.034447
Rotational constants in MHz :          1886.157928          1102.694575          1032.680740

                             ****ORCA TERMINATED NORMALLY****
TOTAL RUN TIME: 0 days 0 hours 0 minutes 5 seconds 394 msec
