                         Program Version 6.0.1  -  RELEASE   -
|  1> ! pbe def2-sv(p) def2/J RI DEFGRID1 loosescf d4 GCP(DFT/SV(P)) printgap
|  2> %output
|  3>     printlevel normal
|  4> end
|  5> * xyz 0 1
|  6> C 4.8064552521 0.2422559474 -2.0087283905
|  7> C 4.5218989241 -1.0790153494 -1.3144287627
|  8> O 3.0989596681 -1.3031780015 -1.2766022823
|  9> C 2.4837874187 -1.3635231887 -0.1130402514
| 10> O 3.0293785947 -1.3132007826 0.9653883318
| 11> C 0.9844316784 -1.5282559676 -0.2997216616
| 12> C 0.4130695121 -0.335198069 -1.0716831985
| 13> H 0.9081626149 -0.252478693 -2.0426299094
| 14> C 0.6004004525 0.9492988069 -0.2901069967
| 15> O -0.3334738046 1.608383873 0.1216124143
| 16> O 1.8619719413 1.2415748619 -0.1229567532
| 17> C 2.1976245177 2.3348430905 0.761221746
| 18> C 2.1884578999 1.8621017541 2.2051892427
| 19> S -1.3564833494 -0.5368615903 -1.435765954
| 20> P -2.3049633233 0.0476287047 0.3843109122
| 21> S -1.4493475424 -0.2870715488 2.1177572658
| 22> O -2.9692311554 1.4737485381 0.2311700964
| 23> C -3.8001834543 1.8246854786 -0.8917399765
| 24> O -3.6398958243 -0.8437354906 0.2235447582
| 25> C -3.6206278424 -2.2624603783 0.3884155389
| 26> H 4.3242616373 1.0552801573 -1.4723584898
| 27> H 5.8776130542 0.413303572 -2.0295227326
| 28> H 4.4275812449 0.2196267485 -3.0262013579
| 29> H 4.9022302939 -1.0842215413 -0.2894356304
| 30> H 4.94455716 -1.9169994142 -1.8722173489
| 31> H 0.5191928286 -1.6129223455 0.6849155409
| 32> H 0.7982498936 -2.4361088191 -0.8746080799
| 33> H 3.1954945173 2.6406969718 0.4475871004
| 34> H 1.4786434055 3.1435061781 0.6062316368
| 35> H 2.8301574062 0.9907684319 2.3158958719
| 36> H 2.5422631375 2.6586075562 2.8506696454
| 37> H 1.179679061 1.5835399483 2.5066419949
| 38> H -3.2539489382 1.6742736149 -1.8230564853
| 39> H -4.0339972238 2.8765842419 -0.7494132882
| 40> H -4.7051497966 1.2196757959 -0.8867123782
| 41> H -4.6609301628 -2.5619688632 0.486793537
| 42> H -3.0627733055 -2.5275648911 1.2885254031
| 43> H -3.1668416269 -2.7308761528 -0.4847936839
| 44> *
| 45>
| 46>                          ****END OF INPUT****

CARTESIAN COORDINATES (ANGSTROEM)
---------------------------------
  C      4.806455    0.242256   -2.008728
  C      4.521899   -1.079015   -1.314429
  O      3.098960   -1.303178   -1.276602
  C      2.483787   -1.363523   -0.113040
  O      3.029379   -1.313201    0.965388
  C      0.984432   -1.528256   -0.299722
  C      0.413070   -0.335198   -1.071683
  H      0.908163   -0.252479   -2.042630
  C      0.600400    0.949299   -0.290107
  O     -0.333474    1.608384    0.121612
  O      1.861972    1.241575   -0.122957
  C      2.197625    2.334843    0.761222
  C      2.188458    1.862102    2.205189
  S     -1.356483   -0.536862   -1.435766
  P     -2.304963    0.047629    0.384311
  S     -1.449348   -0.287072    2.117757
  O     -2.969231    1.473749    0.231170
  C     -3.800183    1.824685   -0.891740
  O     -3.639896   -0.843735    0.223545
  C     -3.620628   -2.262460    0.388416
  H      4.324262    1.055280   -1.472358
  H      5.877613    0.413304   -2.029523
  H      4.427581    0.219627   -3.026201
  H      4.902230   -1.084222   -0.289436
  H      4.944557   -1.916999   -1.872217
  H      0.519193   -1.612922    0.684916
  H      0.798250   -2.436109   -0.874608
  H      3.195495    2.640697    0.447587
  H      1.478643    3.143506    0.606232
  H      2.830157    0.990768    2.315896
  H      2.542263    2.658608    2.850670
  H      1.179679    1.583540    2.506642
  H     -3.253949    1.674274   -1.823056
  H     -4.033997    2.876584   -0.749413
  H     -4.705150    1.219676   -0.886712
  H     -4.660930   -2.561969    0.486794
  H     -3.062773   -2.527565    1.288525
  H     -3.166842   -2.730876   -0.484794

 Total Charge           Charge          ....    0
 Multiplicity           Mult            ....    1
 Number of Electrons    NEL             ....  174
 Basis Dimension        Dim             ....  316

ORBITAL ENERGIES
----------------

  NO   OCC          E(Eh)            E(eV)
   0   2.0000     -88.039203     -2395.6685
   1   2.0000     -87.973343     -2393.8764
   2   2.0000     -76.421343     -2079.5305
   3   2.0000     -18.823070      -512.2018
   4   2.0000     -18.805763      -511.7308
   5   2.0000     -18.781233      -511.0633
   6   2.0000     -18.779716      -511.0221
   7   2.0000     -18.756105      -510.3796
   8   2.0000     -18.740175      -509.9461
   9   2.0000     -10.027455      -272.8609
  10   2.0000     -10.012709      -272.4597
  11   2.0000      -9.955112      -270.8924
  12   2.0000      -9.954602      -270.8785
  13   2.0000      -9.951219      -270.7864
  14   2.0000      -9.942005      -270.5357
  15   2.0000      -9.934949      -270.3437
  16   2.0000      -9.908568      -269.6258
  17   2.0000      -9.894092      -269.2319
  18   2.0000      -9.877806      -268.7888
  19   2.0000      -7.684052      -209.0937
  20   2.0000      -7.618393      -207.3070
  21   2.0000      -6.417021      -174.6160
  22   2.0000      -5.711992      -155.4312
  23   2.0000      -5.708421      -155.3340
  24   2.0000      -5.701097      -155.1347
  25   2.0000      -5.647680      -153.6812
  26   2.0000      -5.639109      -153.4479
  27   2.0000      -5.638026      -153.4185
  28   2.0000      -4.639934      -126.2590
  29   2.0000      -4.639110      -126.2366
  30   2.0000      -4.637304      -126.1874
  31   2.0000      -1.032281       -28.0898
  32   2.0000      -1.012857       -27.5612
  33   2.0000      -0.976144       -26.5622
  34   2.0000      -0.936862       -25.4933
  35   2.0000      -0.929243       -25.2860
  36   2.0000      -0.917589       -24.9689
  37   2.0000      -0.769826       -20.9480
  38   2.0000      -0.714941       -19.4545
  39   2.0000      -0.709306       -19.3012
  40   2.0000      -0.687498       -18.7078
  41   2.0000      -0.659140       -17.9361
  42   2.0000      -0.627363       -17.0714
  43   2.0000      -0.621814       -16.9204
  44   2.0000      -0.612526       -16.6677
  45   2.0000      -0.594042       -16.1647
  46   2.0000      -0.569958       -15.5093
  47   2.0000      -0.512596       -13.9485
  48   2.0000      -0.508209       -13.8291
  49   2.0000      -0.502405       -13.6711
  50   2.0000      -0.487078       -13.2541
  51   2.0000      -0.467325       -12.7166
  52   2.0000      -0.463358       -12.6086
  53   2.0000      -0.451350       -12.2819
  54   2.0000      -0.444026       -12.0825
  55   2.0000      -0.434359       -11.8195
  56   2.0000      -0.422514       -11.4972
  57   2.0000      -0.422365       -11.4931
  58   2.0000      -0.409445       -11.1416
  59   2.0000      -0.406512       -11.0618
  60   2.0000      -0.404468       -11.0061
  61   2.0000      -0.396929       -10.8010
  62   2.0000      -0.390228       -10.6186
  63   2.0000      -0.383056       -10.4235
  64   2.0000      -0.378385       -10.2964
  65   2.0000      -0.366653        -9.9771
  66   2.0000      -0.362427        -9.8621
  67   2.0000      -0.355739        -9.6802
  68   2.0000      -0.344966        -9.3870
  69   2.0000      -0.341045        -9.2803
  70   2.0000      -0.337719        -9.1898
  71   2.0000      -0.333761        -9.0821
  72   2.0000      -0.325408        -8.8548
  73   2.0000      -0.314245        -8.5510
  74   2.0000      -0.301016        -8.1911
  75   2.0000      -0.298775        -8.1301
  76   2.0000      -0.292614        -7.9624
  77   2.0000      -0.288581        -7.8527
  78   2.0000      -0.275127        -7.4866
  79   2.0000      -0.264591        -7.1999
  80   2.0000      -0.261099        -7.1049
  81   2.0000      -0.251530        -6.8445
  82   2.0000      -0.241671        -6.5762
  83   2.0000      -0.232409        -6.3242
  84   2.0000      -0.217607        -5.9214
  85   2.0000      -0.192490        -5.2379
  86   2.0000      -0.185550        -5.0491
  87   0.0000      -0.045044        -1.2257
  88   0.0000      -0.037924        -1.0320
  89   0.0000      -0.022298        -0.6068
  90   0.0000       0.006914         0.1881
  91   0.0000       0.026528         0.7219

MULLIKEN ATOMIC CHARGES
-----------------------
   0 C :   -0.301221
   1 C :   -0.023738
   2 O :   -0.244034
   3 C :    0.103808
   4 O :   -0.186941
   5 C :   -0.043048
   6 C :   -0.324678
   7 H :    0.155262
   8 C :    0.220574
   9 O :   -0.179047
  10 O :   -0.222614
  11 C :   -0.017287
  12 C :   -0.327166
  13 S :   -0.094768
  14 P :    0.620537
  15 S :   -0.312606
  16 O :   -0.357670
  17 C :   -0.101437
  18 O :   -0.399315
  19 C :   -0.099161
  20 H :    0.122278
  21 H :    0.113539
  22 H :    0.113508
  23 H :    0.117279
  24 H :    0.106762
  25 H :    0.121261
  26 H :    0.117771
  27 H :    0.107465
  28 H :    0.115237
  29 H :    0.137703
  30 H :    0.109963
  31 H :    0.143601
  32 H :    0.113564
  33 H :    0.128769
  34 H :    0.122754
  35 H :    0.120303
  36 H :    0.114601
  37 H :    0.108192
Sum of atomic charges:   -0.0000000

LOEWDIN ATOMIC CHARGES
----------------------
   0 C :   -0.353846
   1 C :   -0.111570
   2 O :   -0.064394
   3 C :    0.024063
   4 O :   -0.157765
   5 C :   -0.248686
   6 C :   -0.267444
   7 H :    0.148793
   8 C :    0.025371
   9 O :   -0.145656
  10 O :   -0.032419
  11 C :   -0.105199
  12 C :   -0.362996
  13 S :    0.095421
  14 P :    0.589529
  15 S :   -0.313923
  16 O :   -0.234122
  17 C :   -0.208824
  18 O :   -0.269350
  19 C :   -0.221087
  20 H :    0.125959
  21 H :    0.130588
  22 H :    0.124793
  23 H :    0.121913
  24 H :    0.118412
  25 H :    0.134445
  26 H :    0.141884
  27 H :    0.116312
  28 H :    0.122980
  29 H :    0.133536
  30 H :    0.129689
  31 H :    0.133761
  32 H :    0.107669
  33 H :    0.125008
  34 H :    0.114832
  35 H :    0.119965
  36 H :    0.108186
  37 H :    0.104173

  Mayer bond orders larger than 0.100000
B(  0-C ,  1-C ) :   1.1714 B(  0-C , 20-H ) :   0.9425 B(  0-C , 21-H ) :   0.9437
B(  0-C , 22-H ) :   0.9494 B(  1-C ,  2-O ) :   0.9105 B(  1-C , 23-H ) :   0.9051
B(  1-C , 24-H ) :   0.9365 B(  2-O ,  3-C ) :   1.1938 B(  3-C ,  4-O ) :   2.0572
B(  3-C ,  5-C ) :   1.0096 B(  5-C ,  6-C ) :   1.0283 B(  5-C , 25-H ) :   0.8758
B(  5-C , 26-H ) :   0.8872 B(  6-C ,  7-H ) :   0.8665 B(  6-C ,  8-C ) :   0.9008
B(  6-C , 13-S ) :   1.0280 B(  8-C ,  9-O ) :   1.9751 B(  8-C , 10-O ) :   1.2559
B(  9-O , 14-P ) :   0.1175 B( 10-O , 11-C ) :   0.8895 B( 11-C , 12-C ) :   1.1793
B( 11-C , 27-H ) :   0.9307 B( 11-C , 28-H ) :   0.9166 B( 12-C , 29-H ) :   0.9364
B( 12-C , 30-H ) :   0.9400 B( 12-C , 31-H ) :   0.9324 B( 13-S , 14-P ) :   0.9331
B( 13-S , 15-S ) :   0.1118 B( 14-P , 15-S ) :   1.6016 B( 14-P , 16-O ) :   1.1255
B( 14-P , 18-O ) :   1.0358 B( 16-O , 17-C ) :   0.9248 B( 17-C , 32-H ) :   0.9396
B( 17-C , 33-H ) :   0.9595 B( 17-C , 34-H ) :   0.9466 B( 18-O , 19-C ) :   0.9414
B( 19-C , 35-H ) :   0.9589 B( 19-C , 36-H ) :   0.9316 B( 19-C , 37-H ) :   0.9465

Dispersion correction           -0.053050982
FINAL SINGLE POINT ENERGY     -1979.013225413016

DIPOLE MOMENT
-------------

Method             : SCF
Type of density    : Electron Density
Multiplicity       :   1
Irrep              :   0
Energy             : -1979.1443038125999010 Eh
Relativity type    :
Basis              : AO
                                X                 Y                 Z
Electronic contribution:    -15.556057431      -2.917233924       2.704707763
Nuclear contribution   :     16.270508554       3.139513349      -4.454909383
                        -----------------------------------------
Total Dipole Moment    :      0.714451123       0.222279425      -1.750201620
                        -----------------------------------------
Magnitude (a.u.)       :      1.903432232
Magnitude (Debye)      :      4.838140239

Rotational constants in cm-1:             0.017141             0.006166             0.005773
Rotational constants in MHz :           513.876510           184.843958           173.081471

                             ****ORCA TERMINATED NORMALLY****
TOTAL RUN TIME: 0 days 0 hours 0 minutes 42 seconds 569 msec
