                         Program Version 6.0.0  -   RELEASE  -
|  1> ! pbe def2-sv(p) def2/J RI DEFGRID1 loosescf d4 GCP(DFT/SV(P)) printgap
|  2> %output
|  3>     printlevel normal
|  4> end
|  5> * xyz 0 1
|  6> C 3.7064472472 -2.1902980461 1.5163555957
|  7> C 2.3387624074 -2.112001341 0.8697875842
|  8> O 1.9195378666 -0.7422142186 0.7280953481
|  9> P 2.4511475784 0.1945747397 -0.453214524
| 10> S 3.1808187722 -0.7794225329 -1.9826595634
| 11> O 3.5171678996 1.1915469857 0.157953174
| 12> C 3.2366720472 2.3193704473 1.0198832842
| 13> C 2.5485538901 1.9138407036 2.306146875
| 14> S 0.7517910448 1.4025005545 -0.8245910297
| 15> C -0.1454337902 0.1448548719 -1.7711888022
| 16> S -0.9496208476 -1.0854398616 -0.7254766757
| 17> P -2.4517414514 0.2318398507 0.0406423452
| 18> S -3.1477167518 1.5002890982 -1.2806956631
| 19> O -1.8194470955 0.9757161816 1.2798106623
| 20> C -1.7388638096 0.4665420812 2.6339702545
| 21> C -0.9032139762 -0.7917096255 2.733594156
| 22> O -3.5220291208 -0.7247688604 0.7189185465
| 23> C -4.6272075726 -1.2884899503 -0.0109966726
| 24> C -4.1773488534 -2.2783525961 -1.0655107109
| 25> H 4.4363141183 -1.6823513181 0.8861120242
| 26> H 3.693272795 -1.7161788244 2.493855427
| 27> H 3.9960858452 -3.2305198196 1.6246883329
| 28> H 1.5656660461 -2.5732360445 1.4854403204
| 29> H 2.3512411421 -2.5808207955 -0.1189093194
| 30> H 4.2251452514 2.7427355106 1.2056960848
| 31> H 2.6274737212 3.0342154338 0.4601574514
| 32> H 2.4503054472 2.7863155213 2.9446718545
| 33> H 1.557356094 1.5201109628 2.0910116979
| 34> H 3.1301583423 1.1547751763 2.822401143
| 35> H 0.5530938484 -0.3833126946 -2.4217175664
| 36> H -0.9045835179 0.6742205871 -2.3484953479
| 37> H -1.2892551495 1.295866701 3.1827744066
| 38> H -2.7547537714 0.2905410104 2.9925801454
| 39> H 0.0833923824 -0.6251501304 2.3089488333
| 40> H -0.8009856688 -1.0668691174 3.7787056178
| 41> H -1.3843960018 -1.6056668044 2.1946051348
| 42> H -5.228449717 -1.7690373773 0.762198424
| 43> H -5.1914600533 -0.4701630115 -0.4685600287
| 44> H -3.5202520447 -3.0270250396 -0.6303654817
| 45> H -5.0478661858 -2.766360387 -1.4919477255
| 46> H -3.641740041 -1.7599744378 -1.8593313442
| 47> *
| 48>
| 49>                          ****END OF INPUT****

CARTESIAN COORDINATES (ANGSTROEM)
---------------------------------
  C      3.706447   -2.190298    1.516356
  C      2.338762   -2.112001    0.869788
  O      1.919538   -0.742214    0.728095
  P      2.451148    0.194575   -0.453215
  S      3.180819   -0.779423   -1.982660
  O      3.517168    1.191547    0.157953
  C      3.236672    2.319370    1.019883
  C      2.548554    1.913841    2.306147
  S      0.751791    1.402501   -0.824591
  C     -0.145434    0.144855   -1.771189
  S     -0.949621   -1.085440   -0.725477
  P     -2.451741    0.231840    0.040642
  S     -3.147717    1.500289   -1.280696
  O     -1.819447    0.975716    1.279811
  C     -1.738864    0.466542    2.633970
  C     -0.903214   -0.791710    2.733594
  O     -3.522029   -0.724769    0.718919
  C     -4.627208   -1.288490   -0.010997
  C     -4.177349   -2.278353   -1.065511
  H      4.436314   -1.682351    0.886112
  H      3.693273   -1.716179    2.493855
  H      3.996086   -3.230520    1.624688
  H      1.565666   -2.573236    1.485440
  H      2.351241   -2.580821   -0.118909
  H      4.225145    2.742736    1.205696
  H      2.627474    3.034215    0.460157
  H      2.450305    2.786316    2.944672
  H      1.557356    1.520111    2.091012
  H      3.130158    1.154775    2.822401
  H      0.553094   -0.383313   -2.421718
  H     -0.904584    0.674221   -2.348495
  H     -1.289255    1.295867    3.182774
  H     -2.754754    0.290541    2.992580
  H      0.083392   -0.625150    2.308949
  H     -0.800986   -1.066869    3.778706
  H     -1.384396   -1.605667    2.194605
  H     -5.228450   -1.769037    0.762198
  H     -5.191460   -0.470163   -0.468560
  H     -3.520252   -3.027025   -0.630365
  H     -5.047866   -2.766360   -1.491948
  H     -3.641740   -1.759974   -1.859331

 Total Charge           Charge          ....    0
 Multiplicity           Mult            ....    1
 Number of Electrons    NEL             ....  202
 Basis Dimension        Dim             ....  334

ORBITAL ENERGIES
----------------

  NO   OCC          E(Eh)            E(eV)
   0   2.0000     -88.041171     -2395.7221
   1   2.0000     -88.040744     -2395.7104
   2   2.0000     -87.986881     -2394.2448
   3   2.0000     -87.984924     -2394.1915
   4   2.0000     -76.429563     -2079.7541
   5   2.0000     -76.426729     -2079.6770
   6   2.0000     -18.801892      -511.6255
   7   2.0000     -18.797176      -511.4972
   8   2.0000     -18.792739      -511.3764
   9   2.0000     -18.791101      -511.3319
  10   2.0000      -9.964010      -271.1345
  11   2.0000      -9.959106      -271.0010
  12   2.0000      -9.958899      -270.9954
  13   2.0000      -9.950901      -270.7778
  14   2.0000      -9.950870      -270.7769
  15   2.0000      -9.894611      -269.2461
  16   2.0000      -9.888044      -269.0674
  17   2.0000      -9.887553      -269.0540
  18   2.0000      -9.886135      -269.0154
  19   2.0000      -7.686312      -209.1552
  20   2.0000      -7.685584      -209.1354
  21   2.0000      -7.632093      -207.6798
  22   2.0000      -7.630188      -207.6280
  23   2.0000      -6.426813      -174.8825
  24   2.0000      -6.424530      -174.8204
  25   2.0000      -5.714091      -155.4883
  26   2.0000      -5.713326      -155.4675
  27   2.0000      -5.711003      -155.4043
  28   2.0000      -5.710306      -155.3853
  29   2.0000      -5.703181      -155.1914
  30   2.0000      -5.702507      -155.1731
  31   2.0000      -5.661082      -154.0459
  32   2.0000      -5.659219      -153.9952
  33   2.0000      -5.652777      -153.8199
  34   2.0000      -5.652094      -153.8013
  35   2.0000      -5.650996      -153.7714
  36   2.0000      -5.649973      -153.7436
  37   2.0000      -4.650017      -126.5334
  38   2.0000      -4.648231      -126.4848
  39   2.0000      -4.647417      -126.4626
  40   2.0000      -4.647053      -126.4528
  41   2.0000      -4.646068      -126.4259
  42   2.0000      -4.644890      -126.3939
  43   2.0000      -0.992812       -27.0158
  44   2.0000      -0.986790       -26.8519
  45   2.0000      -0.948884       -25.8205
  46   2.0000      -0.948045       -25.7976
  47   2.0000      -0.764596       -20.8057
  48   2.0000      -0.723905       -19.6985
  49   2.0000      -0.713552       -19.4167
  50   2.0000      -0.695368       -18.9219
  51   2.0000      -0.694749       -18.9051
  52   2.0000      -0.677432       -18.4339
  53   2.0000      -0.652336       -17.7510
  54   2.0000      -0.637364       -17.3436
  55   2.0000      -0.602000       -16.3812
  56   2.0000      -0.597328       -16.2541
  57   2.0000      -0.583106       -15.8671
  58   2.0000      -0.578808       -15.7502
  59   2.0000      -0.559514       -15.2251
  60   2.0000      -0.500723       -13.6254
  61   2.0000      -0.497160       -13.5284
  62   2.0000      -0.480878       -13.0853
  63   2.0000      -0.474675       -12.9166
  64   2.0000      -0.461999       -12.5716
  65   2.0000      -0.453531       -12.3412
  66   2.0000      -0.446278       -12.1438
  67   2.0000      -0.436643       -11.8816
  68   2.0000      -0.429133       -11.6773
  69   2.0000      -0.424186       -11.5427
  70   2.0000      -0.415177       -11.2975
  71   2.0000      -0.403388       -10.9767
  72   2.0000      -0.395638       -10.7659
  73   2.0000      -0.389943       -10.6109
  74   2.0000      -0.377768       -10.2796
  75   2.0000      -0.374879       -10.2010
  76   2.0000      -0.371979       -10.1221
  77   2.0000      -0.360857        -9.8194
  78   2.0000      -0.359988        -9.7958
  79   2.0000      -0.354612        -9.6495
  80   2.0000      -0.351008        -9.5514
  81   2.0000      -0.350105        -9.5269
  82   2.0000      -0.347832        -9.4650
  83   2.0000      -0.341411        -9.2903
  84   2.0000      -0.339391        -9.2353
  85   2.0000      -0.323393        -8.8000
  86   2.0000      -0.313867        -8.5407
  87   2.0000      -0.309268        -8.4156
  88   2.0000      -0.299673        -8.1545
  89   2.0000      -0.298471        -8.1218
  90   2.0000      -0.282948        -7.6994
  91   2.0000      -0.278840        -7.5876
  92   2.0000      -0.276064        -7.5121
  93   2.0000      -0.268412        -7.3039
  94   2.0000      -0.256424        -6.9776
  95   2.0000      -0.231710        -6.3052
  96   2.0000      -0.218876        -5.9559
  97   2.0000      -0.211703        -5.7607
  98   2.0000      -0.203960        -5.5500
  99   2.0000      -0.198749        -5.4082
 100   2.0000      -0.197635        -5.3779
 101   0.0000      -0.046419        -1.2631
 102   0.0000      -0.024748        -0.6734
 103   0.0000      -0.006151        -0.1674
 104   0.0000      -0.001146        -0.0312
 105   0.0000       0.014971         0.4074

MULLIKEN ATOMIC CHARGES
-----------------------
   0 C :   -0.307983
   1 C :   -0.007052
   2 O :   -0.379458
   3 P :    0.612980
   4 S :   -0.314039
   5 O :   -0.370212
   6 C :   -0.018911
   7 C :   -0.338181
   8 S :   -0.083153
   9 C :   -0.368969
  10 S :   -0.091942
  11 P :    0.616617
  12 S :   -0.316783
  13 O :   -0.360343
  14 C :    0.017583
  15 C :   -0.379182
  16 O :   -0.386164
  17 C :   -0.001806
  18 C :   -0.317553
  19 H :    0.126647
  20 H :    0.112431
  21 H :    0.112677
  22 H :    0.104098
  23 H :    0.113557
  24 H :    0.116606
  25 H :    0.125743
  26 H :    0.115784
  27 H :    0.151222
  28 H :    0.122128
  29 H :    0.188294
  30 H :    0.198435
  31 H :    0.108952
  32 H :    0.108306
  33 H :    0.175472
  34 H :    0.109285
  35 H :    0.119991
  36 H :    0.105173
  37 H :    0.115941
  38 H :    0.116522
  39 H :    0.115629
  40 H :    0.131656
Sum of atomic charges:   -0.0000000

LOEWDIN ATOMIC CHARGES
----------------------
   0 C :   -0.362705
   1 C :   -0.124280
   2 O :   -0.246797
   3 P :    0.574103
   4 S :   -0.309656
   5 O :   -0.242025
   6 C :   -0.112880
   7 C :   -0.370076
   8 S :    0.086338
   9 C :   -0.489032
  10 S :    0.079475
  11 P :    0.576599
  12 S :   -0.310995
  13 O :   -0.238033
  14 C :   -0.105743
  15 C :   -0.378739
  16 O :   -0.245854
  17 C :   -0.116014
  18 C :   -0.370704
  19 H :    0.125928
  20 H :    0.121249
  21 H :    0.131021
  22 H :    0.114520
  23 H :    0.108364
  24 H :    0.125273
  25 H :    0.113706
  26 H :    0.132866
  27 H :    0.124467
  28 H :    0.126852
  29 H :    0.128386
  30 H :    0.129337
  31 H :    0.120622
  32 H :    0.113958
  33 H :    0.131110
  34 H :    0.129459
  35 H :    0.117652
  36 H :    0.118667
  37 H :    0.114429
  38 H :    0.123327
  39 H :    0.132616
  40 H :    0.123207

  Mayer bond orders larger than 0.100000
B(  0-C ,  1-C ) :   1.1649 B(  0-C , 19-H ) :   0.9374 B(  0-C , 20-H ) :   0.9457
B(  0-C , 21-H ) :   0.9402 B(  1-C ,  2-O ) :   0.8931 B(  1-C , 22-H ) :   0.9288
B(  1-C , 23-H ) :   0.9069 B(  2-O ,  3-P ) :   1.0671 B(  3-P ,  4-S ) :   1.6216
B(  3-P ,  5-O ) :   1.1303 B(  3-P ,  8-S ) :   0.9687 B(  5-O ,  6-C ) :   0.9049
B(  6-C ,  7-C ) :   1.1656 B(  6-C , 24-H ) :   0.9347 B(  6-C , 25-H ) :   0.9211
B(  7-C , 26-H ) :   0.9341 B(  7-C , 27-H ) :   0.9279 B(  7-C , 28-H ) :   0.9428
B(  8-S ,  9-C ) :   1.0059 B(  9-C , 10-S ) :   1.0109 B(  9-C , 29-H ) :   0.8658
B(  9-C , 30-H ) :   0.8677 B( 10-S , 11-P ) :   0.9401 B( 10-S , 12-S ) :   0.1127
B( 11-P , 12-S ) :   1.6309 B( 11-P , 13-O ) :   1.1356 B( 11-P , 16-O ) :   1.0791
B( 13-O , 14-C ) :   0.8986 B( 14-C , 15-C ) :   1.1719 B( 14-C , 31-H ) :   0.9311
B( 14-C , 32-H ) :   0.9292 B( 15-C , 33-H ) :   0.9138 B( 15-C , 34-H ) :   0.9338
B( 15-C , 35-H ) :   0.9375 B( 16-O , 17-C ) :   0.9008 B( 17-C , 18-C ) :   1.1673
B( 17-C , 36-H ) :   0.9340 B( 17-C , 37-H ) :   0.9176 B( 18-C , 38-H ) :   0.9446
B( 18-C , 39-H ) :   0.9365 B( 18-C , 40-H ) :   0.9331

Dispersion correction           -0.066790175
FINAL SINGLE POINT ENERGY     -2929.515962083112

DIPOLE MOMENT
-------------

Method             : SCF
Type of density    : Electron Density
Multiplicity       :   1
Irrep              :   0
Energy             : -2929.6364054880027652 Eh
Relativity type    :
Basis              : AO
                                X                 Y                 Z
Electronic contribution:     -1.218116036      10.718296172     -18.992761041
Nuclear contribution   :      0.856470564     -11.431593538      21.091516198
                        -----------------------------------------
Total Dipole Moment    :     -0.361645472      -0.713297367       2.098755157
                        -----------------------------------------
Magnitude (a.u.)       :      2.245963888
Magnitude (Debye)      :      5.708786520

Rotational constants in cm-1:             0.012531             0.004981             0.004885
Rotational constants in MHz :           375.671903           149.315638           146.456808

                             ****ORCA TERMINATED NORMALLY****
TOTAL RUN TIME: 0 days 0 hours 0 minutes 21 seconds 891 msec
