                         Program Version 6.0.0  -   RELEASE  -
|  1> ! pbe def2-sv(p) def2/J RI DEFGRID1 loosescf d4 GCP(DFT/SV(P)) printgap
|  2> %output
|  3>     printlevel normal
|  4> end
|  5> * xyz 0 1
|  6> C 3.475824182 -0.7099182159 -2.8643870868
|  7> C 2.0451937941 -0.2941581012 -2.5972873133
|  8> O 1.5264681124 -0.8748452398 -1.3854779913
|  9> P 2.1280026103 -0.5428432788 0.0430175694
| 10> S 2.8505788474 1.2572002497 0.3527986507
| 11> O 3.2001634786 -1.7105453374 0.1816331861
| 12> C 4.2406517721 -1.6966485236 1.172892927
| 13> C 3.6958676334 -1.8249775544 2.5810448832
| 14> S 0.5368077064 -1.1915308413 1.2638894009
| 15> C -0.0517467901 0.4100901885 1.9314021439
| 16> S -1.841803525 0.5815895701 1.8438902395
| 17> P -2.0956356928 0.992060436 -0.234779844
| 18> S -0.4874698256 1.6590038473 -1.1351623624
| 19> O -3.2735136211 2.0249649351 -0.3344705422
| 20> C -4.6824630987 1.7241571867 -0.1603640505
| 21> C -4.9957382788 1.1837395034 1.2175915077
| 22> O -2.750350615 -0.3128348845 -0.8718894873
| 23> C -2.0113213084 -1.5156441064 -1.1499934211
| 24> C -2.7798439325 -2.3009583396 -2.1934878975
| 25> H 4.1312562603 -0.2944215936 -2.0996299438
| 26> H 3.5591393709 -1.7935826525 -2.8508475641
| 27> H 3.7832457323 -0.3320901443 -3.834448326
| 28> H 1.3657007796 -0.6564637996 -3.3702717851
| 29> H 1.9562407769 0.7948556478 -2.519311104
| 30> H 4.8682595558 -2.5473136815 0.904075263
| 31> H 4.8060888312 -0.7653203717 1.0656951669
| 32> H 4.5217247568 -1.9375546468 3.2760842377
| 33> H 3.1348016646 -0.9287668924 2.8433252633
| 34> H 3.0381989396 -2.6872784423 2.6557883108
| 35> H 0.4333299507 1.2167305901 1.375883022
| 36> H 0.1974097055 0.4531754588 2.9884617767
| 37> H -5.1609683558 2.6891432905 -0.3338127708
| 38> H -4.976279945 1.0166102999 -0.9372797534
| 39> H -4.6341069224 1.8637660835 1.9845510802
| 40> H -6.070909839 1.070902147 1.3171367565
| 41> H -4.5233233616 0.2139331221 1.3617937348
| 42> H -1.0122104295 -1.2455630991 -1.5084643629
| 43> H -1.9111963868 -2.0803186941 -0.2183682267
| 44> H -2.2448202485 -3.2197544748 -2.409744732
| 45> H -3.7715409377 -2.5409037159 -1.8215802284
| 46> H -2.8751761111 -1.7177069373 -3.1053257328
| 47> *
| 48>
| 49>                          ****END OF INPUT****

CARTESIAN COORDINATES (ANGSTROEM)
---------------------------------
  C      3.475824   -0.709918   -2.864387
  C      2.045194   -0.294158   -2.597287
  O      1.526468   -0.874845   -1.385478
  P      2.128003   -0.542843    0.043018
  S      2.850579    1.257200    0.352799
  O      3.200163   -1.710545    0.181633
  C      4.240652   -1.696649    1.172893
  C      3.695868   -1.824978    2.581045
  S      0.536808   -1.191531    1.263889
  C     -0.051747    0.410090    1.931402
  S     -1.841804    0.581590    1.843890
  P     -2.095636    0.992060   -0.234780
  S     -0.487470    1.659004   -1.135162
  O     -3.273514    2.024965   -0.334471
  C     -4.682463    1.724157   -0.160364
  C     -4.995738    1.183740    1.217592
  O     -2.750351   -0.312835   -0.871889
  C     -2.011321   -1.515644   -1.149993
  C     -2.779844   -2.300958   -2.193488
  H      4.131256   -0.294422   -2.099630
  H      3.559139   -1.793583   -2.850848
  H      3.783246   -0.332090   -3.834448
  H      1.365701   -0.656464   -3.370272
  H      1.956241    0.794856   -2.519311
  H      4.868260   -2.547314    0.904075
  H      4.806089   -0.765320    1.065695
  H      4.521725   -1.937555    3.276084
  H      3.134802   -0.928767    2.843325
  H      3.038199   -2.687278    2.655788
  H      0.433330    1.216731    1.375883
  H      0.197410    0.453175    2.988462
  H     -5.160968    2.689143   -0.333813
  H     -4.976280    1.016610   -0.937280
  H     -4.634107    1.863766    1.984551
  H     -6.070910    1.070902    1.317137
  H     -4.523323    0.213933    1.361794
  H     -1.012210   -1.245563   -1.508464
  H     -1.911196   -2.080319   -0.218368
  H     -2.244820   -3.219754   -2.409745
  H     -3.771541   -2.540904   -1.821580
  H     -2.875176   -1.717707   -3.105326

 Total Charge           Charge          ....    0
 Multiplicity           Mult            ....    1
 Number of Electrons    NEL             ....  202
 Basis Dimension        Dim             ....  334

ORBITAL ENERGIES
----------------

  NO   OCC          E(Eh)            E(eV)
   0   2.0000     -88.042397     -2395.7554
   1   2.0000     -88.040043     -2395.6914
   2   2.0000     -87.986051     -2394.2222
   3   2.0000     -87.978339     -2394.0123
   4   2.0000     -76.424094     -2079.6053
   5   2.0000     -76.423484     -2079.5887
   6   2.0000     -18.792698      -511.3753
   7   2.0000     -18.789640      -511.2921
   8   2.0000     -18.788434      -511.2593
   9   2.0000     -18.785259      -511.1729
  10   2.0000      -9.959067      -271.0000
  11   2.0000      -9.952037      -270.8087
  12   2.0000      -9.950267      -270.7605
  13   2.0000      -9.945750      -270.6376
  14   2.0000      -9.945678      -270.6357
  15   2.0000      -9.892779      -269.1962
  16   2.0000      -9.885534      -268.9991
  17   2.0000      -9.882750      -268.9233
  18   2.0000      -9.879539      -268.8359
  19   2.0000      -7.687369      -209.1839
  20   2.0000      -7.685015      -209.1199
  21   2.0000      -7.630906      -207.6475
  22   2.0000      -7.623234      -207.4387
  23   2.0000      -6.421430      -174.7360
  24   2.0000      -6.420913      -174.7219
  25   2.0000      -5.715411      -155.5242
  26   2.0000      -5.712860      -155.4548
  27   2.0000      -5.711574      -155.4198
  28   2.0000      -5.709657      -155.3677
  29   2.0000      -5.704548      -155.2286
  30   2.0000      -5.701837      -155.1549
  31   2.0000      -5.659779      -154.0104
  32   2.0000      -5.652261      -153.8059
  33   2.0000      -5.651686      -153.7902
  34   2.0000      -5.650980      -153.7710
  35   2.0000      -5.643609      -153.5704
  36   2.0000      -5.643510      -153.5677
  37   2.0000      -4.643845      -126.3654
  38   2.0000      -4.643666      -126.3606
  39   2.0000      -4.643116      -126.3456
  40   2.0000      -4.642553      -126.3303
  41   2.0000      -4.642304      -126.3235
  42   2.0000      -4.641160      -126.2924
  43   2.0000      -0.987300       -26.8658
  44   2.0000      -0.983231       -26.7551
  45   2.0000      -0.942470       -25.6459
  46   2.0000      -0.941139       -25.6097
  47   2.0000      -0.759447       -20.6656
  48   2.0000      -0.720913       -19.6170
  49   2.0000      -0.709398       -19.3037
  50   2.0000      -0.692607       -18.8468
  51   2.0000      -0.684240       -18.6191
  52   2.0000      -0.673753       -18.3338
  53   2.0000      -0.649345       -17.6696
  54   2.0000      -0.632214       -17.2034
  55   2.0000      -0.600922       -16.3519
  56   2.0000      -0.590157       -16.0590
  57   2.0000      -0.572253       -15.5718
  58   2.0000      -0.569139       -15.4871
  59   2.0000      -0.559971       -15.2376
  60   2.0000      -0.502221       -13.6661
  61   2.0000      -0.488274       -13.2866
  62   2.0000      -0.475187       -12.9305
  63   2.0000      -0.468338       -12.7441
  64   2.0000      -0.448442       -12.2027
  65   2.0000      -0.445476       -12.1220
  66   2.0000      -0.445071       -12.1110
  67   2.0000      -0.437165       -11.8959
  68   2.0000      -0.427640       -11.6367
  69   2.0000      -0.417043       -11.3483
  70   2.0000      -0.413338       -11.2475
  71   2.0000      -0.394899       -10.7458
  72   2.0000      -0.391131       -10.6432
  73   2.0000      -0.386863       -10.5271
  74   2.0000      -0.380691       -10.3591
  75   2.0000      -0.376616       -10.2482
  76   2.0000      -0.365703        -9.9513
  77   2.0000      -0.358166        -9.7462
  78   2.0000      -0.353094        -9.6082
  79   2.0000      -0.350207        -9.5296
  80   2.0000      -0.345201        -9.3934
  81   2.0000      -0.344195        -9.3660
  82   2.0000      -0.339771        -9.2457
  83   2.0000      -0.337022        -9.1708
  84   2.0000      -0.333982        -9.0881
  85   2.0000      -0.311538        -8.4774
  86   2.0000      -0.310127        -8.4390
  87   2.0000      -0.299659        -8.1541
  88   2.0000      -0.293865        -7.9965
  89   2.0000      -0.292137        -7.9495
  90   2.0000      -0.280214        -7.6250
  91   2.0000      -0.273898        -7.4531
  92   2.0000      -0.268364        -7.3026
  93   2.0000      -0.263628        -7.1737
  94   2.0000      -0.254637        -6.9290
  95   2.0000      -0.234562        -6.3828
  96   2.0000      -0.216289        -5.8855
  97   2.0000      -0.212678        -5.7873
  98   2.0000      -0.201132        -5.4731
  99   2.0000      -0.195412        -5.3174
 100   2.0000      -0.187232        -5.0949
 101   0.0000      -0.039579        -1.0770
 102   0.0000      -0.032531        -0.8852
 103   0.0000      -0.011745        -0.3196
 104   0.0000       0.009640         0.2623
 105   0.0000       0.017603         0.4790

MULLIKEN ATOMIC CHARGES
-----------------------
   0 C :   -0.304336
   1 C :   -0.002616
   2 O :   -0.360932
   3 P :    0.618664
   4 S :   -0.316629
   5 O :   -0.372853
   6 C :   -0.002463
   7 C :   -0.310363
   8 S :   -0.105341
   9 C :   -0.338791
  10 S :   -0.127143
  11 P :    0.611484
  12 S :   -0.306877
  13 O :   -0.359763
  14 C :    0.007727
  15 C :   -0.338280
  16 O :   -0.389759
  17 C :   -0.039646
  18 C :   -0.273106
  19 H :    0.123032
  20 H :    0.114063
  21 H :    0.111298
  22 H :    0.101405
  23 H :    0.122987
  24 H :    0.103681
  25 H :    0.109321
  26 H :    0.111554
  27 H :    0.119346
  28 H :    0.118247
  29 H :    0.214870
  30 H :    0.180097
  31 H :    0.112770
  32 H :    0.112045
  33 H :    0.131635
  34 H :    0.119395
  35 H :    0.132032
  36 H :    0.131456
  37 H :    0.105440
  38 H :    0.111487
  39 H :    0.109344
  40 H :    0.115519
Sum of atomic charges:    0.0000000

LOEWDIN ATOMIC CHARGES
----------------------
   0 C :   -0.366961
   1 C :   -0.116411
   2 O :   -0.236385
   3 P :    0.575071
   4 S :   -0.306789
   5 O :   -0.246065
   6 C :   -0.119535
   7 C :   -0.369257
   8 S :    0.083720
   9 C :   -0.479151
  10 S :    0.069585
  11 P :    0.564144
  12 S :   -0.293306
  13 O :   -0.234609
  14 C :   -0.107313
  15 C :   -0.373580
  16 O :   -0.252753
  17 C :   -0.126796
  18 C :   -0.351008
  19 H :    0.121607
  20 H :    0.125029
  21 H :    0.130279
  22 H :    0.116965
  23 H :    0.111707
  24 H :    0.117975
  25 H :    0.109500
  26 H :    0.129893
  27 H :    0.119095
  28 H :    0.123998
  29 H :    0.127078
  30 H :    0.134768
  31 H :    0.123834
  32 H :    0.115880
  33 H :    0.129351
  34 H :    0.134753
  35 H :    0.119038
  36 H :    0.111387
  37 H :    0.104947
  38 H :    0.130752
  39 H :    0.123078
  40 H :    0.126483

  Mayer bond orders larger than 0.100000
B(  0-C ,  1-C ) :   1.1629 B(  0-C , 19-H ) :   0.9347 B(  0-C , 20-H ) :   0.9446
B(  0-C , 21-H ) :   0.9385 B(  1-C ,  2-O ) :   0.9012 B(  1-C , 22-H ) :   0.9351
B(  1-C , 23-H ) :   0.9173 B(  2-O ,  3-P ) :   1.1256 B(  3-P ,  4-S ) :   1.5929
B(  3-P ,  5-O ) :   1.0989 B(  3-P ,  8-S ) :   0.9616 B(  4-S ,  8-S ) :   0.1155
B(  5-O ,  6-C ) :   0.9142 B(  6-C ,  7-C ) :   1.1666 B(  6-C , 24-H ) :   0.9342
B(  6-C , 25-H ) :   0.9156 B(  7-C , 26-H ) :   0.9378 B(  7-C , 27-H ) :   0.9373
B(  7-C , 28-H ) :   0.9434 B(  8-S ,  9-C ) :   0.9833 B(  9-C , 10-S ) :   1.0170
B(  9-C , 29-H ) :   0.8459 B(  9-C , 30-H ) :   0.9079 B( 10-S , 11-P ) :   0.9265
B( 10-S , 12-S ) :   0.1107 B( 11-P , 12-S ) :   1.6699 B( 11-P , 13-O ) :   1.1495
B( 11-P , 16-O ) :   1.0674 B( 13-O , 14-C ) :   0.8964 B( 14-C , 15-C ) :   1.1704
B( 14-C , 31-H ) :   0.9339 B( 14-C , 32-H ) :   0.9272 B( 15-C , 33-H ) :   0.9411
B( 15-C , 34-H ) :   0.9348 B( 15-C , 35-H ) :   0.9310 B( 16-O , 17-C ) :   0.8994
B( 17-C , 18-C ) :   1.1548 B( 17-C , 36-H ) :   0.9034 B( 17-C , 37-H ) :   0.9237
B( 18-C , 38-H ) :   0.9426 B( 18-C , 39-H ) :   0.9506 B( 18-C , 40-H ) :   0.9504

Dispersion correction           -0.066417138
FINAL SINGLE POINT ENERGY     -2929.518568505101

DIPOLE MOMENT
-------------

Method             : SCF
Type of density    : Electron Density
Multiplicity       :   1
Irrep              :   0
Energy             : -2929.6378913703306353 Eh
Relativity type    :
Basis              : AO
                                X                 Y                 Z
Electronic contribution:      0.696268850      11.809134264       4.954284557
Nuclear contribution   :     -1.378257505     -13.078769206      -4.844208896
                        -----------------------------------------
Total Dipole Moment    :     -0.681988656      -1.269634942       0.110075661
                        -----------------------------------------
Magnitude (a.u.)       :      1.445405847
Magnitude (Debye)      :      3.673929692

Rotational constants in cm-1:             0.013155             0.004975             0.004596
Rotational constants in MHz :           394.372740           149.147572           137.778702

                             ****ORCA TERMINATED NORMALLY****
TOTAL RUN TIME: 0 days 0 hours 0 minutes 21 seconds 362 msec
