                         Program Version 6.0.0  -   RELEASE  -
|  1> ! pbe def2-sv(p) def2/J RI DEFGRID1 loosescf d4 GCP(DFT/SV(P)) printgap
|  2> %output
|  3>     printlevel normal
|  4> end
|  5> * xyz 0 1
|  6> C 3.5210124305 1.9679365802 -0.8247214436
|  7> C 2.9375595013 2.3326343415 0.5235879064
|  8> O 1.7295384596 1.5903102448 0.8255576051
|  9> P 1.6712393365 0.027032298 1.0441280839
| 10> S 0.268930784 -0.5305348805 2.2934522175
| 11> O 3.1485103467 -0.2565155654 1.5782831979
| 12> C 3.4950139673 -1.4382247264 2.3162974552
| 13> C 3.3718391977 -2.700436335 1.4867965403
| 14> S 1.6369268538 -0.8700619584 -0.8961040087
| 15> C 0.1700407571 -1.9230706458 -0.7753306443
| 16> S -1.1710439757 -1.466156957 -1.9269402298
| 17> P -2.0484759284 0.1164999464 -0.8717442328
| 18> S -3.570793086 1.0399858361 -1.6854726551
| 19> O -0.8403685573 1.1029695625 -0.477064337
| 20> C -0.5811883943 2.2723196911 -1.2762212241
| 21> C -0.0940699855 1.9154828653 -2.6667009422
| 22> O -2.3356329842 -0.6355846559 0.4921719598
| 23> C -3.1324653661 -0.0394057982 1.5391212354
| 24> C -4.5266437834 -0.6309512605 1.5313247758
| 25> H 3.8035954154 0.916553434 -0.8395433786
| 26> H 2.8006458974 2.1488517834 -1.6174334695
| 27> H 4.4042164221 2.5738510677 -1.0020380194
| 28> H 2.6085437914 3.37275822 0.554164537
| 29> H 3.6591594953 2.1509285286 1.3220298226
| 30> H 4.5268486324 -1.2588618339 2.621911616
| 31> H 2.8505857477 -1.4957657882 3.1992412803
| 32> H 2.3236141212 -2.9040988121 1.2726543057
| 33> H 3.9123534074 -2.5947242701 0.5497119226
| 34> H 3.7812310047 -3.5353357367 2.0464866961
| 35> H -0.2077217855 -1.8928084959 0.249086473
| 36> H 0.4553609916 -2.9290845104 -1.0706271529
| 37> H -1.5053406638 2.855962064 -1.3359308593
| 38> H 0.1670093134 2.8200214038 -0.7030221981
| 39> H 0.7729578351 1.2605381571 -2.6176777539
| 40> H -0.8864906899 1.402584069 -3.2124906909
| 41> H 0.165924694 2.8249606112 -3.1989549766
| 42> H -2.5967538169 -0.2688608809 2.4630165169
| 43> H -3.1615874631 1.0447185519 1.3971134785
| 44> H -4.4714983688 -1.7118785116 1.6229159581
| 45> H -5.0906603039 -0.2253254144 2.3649319257
| 46> H -5.0326514774 -0.380046485 0.6012209515
| 47> *
| 48>
| 49>                          ****END OF INPUT****

CARTESIAN COORDINATES (ANGSTROEM)
---------------------------------
  C      3.521012    1.967937   -0.824721
  C      2.937560    2.332634    0.523588
  O      1.729538    1.590310    0.825558
  P      1.671239    0.027032    1.044128
  S      0.268931   -0.530535    2.293452
  O      3.148510   -0.256516    1.578283
  C      3.495014   -1.438225    2.316297
  C      3.371839   -2.700436    1.486797
  S      1.636927   -0.870062   -0.896104
  C      0.170041   -1.923071   -0.775331
  S     -1.171044   -1.466157   -1.926940
  P     -2.048476    0.116500   -0.871744
  S     -3.570793    1.039986   -1.685473
  O     -0.840369    1.102970   -0.477064
  C     -0.581188    2.272320   -1.276221
  C     -0.094070    1.915483   -2.666701
  O     -2.335633   -0.635585    0.492172
  C     -3.132465   -0.039406    1.539121
  C     -4.526644   -0.630951    1.531325
  H      3.803595    0.916553   -0.839543
  H      2.800646    2.148852   -1.617433
  H      4.404216    2.573851   -1.002038
  H      2.608544    3.372758    0.554165
  H      3.659159    2.150929    1.322030
  H      4.526849   -1.258862    2.621912
  H      2.850586   -1.495766    3.199241
  H      2.323614   -2.904099    1.272654
  H      3.912353   -2.594724    0.549712
  H      3.781231   -3.535336    2.046487
  H     -0.207722   -1.892808    0.249086
  H      0.455361   -2.929085   -1.070627
  H     -1.505341    2.855962   -1.335931
  H      0.167009    2.820021   -0.703022
  H      0.772958    1.260538   -2.617678
  H     -0.886491    1.402584   -3.212491
  H      0.165925    2.824961   -3.198955
  H     -2.596754   -0.268861    2.463017
  H     -3.161587    1.044719    1.397113
  H     -4.471498   -1.711879    1.622916
  H     -5.090660   -0.225325    2.364932
  H     -5.032651   -0.380046    0.601221

 Total Charge           Charge          ....    0
 Multiplicity           Mult            ....    1
 Number of Electrons    NEL             ....  202
 Basis Dimension        Dim             ....  334

ORBITAL ENERGIES
----------------

  NO   OCC          E(Eh)            E(eV)
   0   2.0000     -88.046752     -2395.8739
   1   2.0000     -88.040386     -2395.7007
   2   2.0000     -87.991429     -2394.3685
   3   2.0000     -87.982379     -2394.1222
   4   2.0000     -76.432981     -2079.8471
   5   2.0000     -76.419687     -2079.4854
   6   2.0000     -18.798324      -511.5284
   7   2.0000     -18.797672      -511.5106
   8   2.0000     -18.782037      -511.0852
   9   2.0000     -18.781574      -511.0726
  10   2.0000      -9.964529      -271.1486
  11   2.0000      -9.958602      -270.9873
  12   2.0000      -9.956951      -270.9424
  13   2.0000      -9.942263      -270.5427
  14   2.0000      -9.940387      -270.4917
  15   2.0000      -9.897783      -269.3324
  16   2.0000      -9.890286      -269.1284
  17   2.0000      -9.874455      -268.6976
  18   2.0000      -9.873191      -268.6632
  19   2.0000      -7.691190      -209.2879
  20   2.0000      -7.686075      -209.1487
  21   2.0000      -7.636396      -207.7969
  22   2.0000      -7.627536      -207.5558
  23   2.0000      -6.430032      -174.9701
  24   2.0000      -6.417545      -174.6303
  25   2.0000      -5.719152      -155.6260
  26   2.0000      -5.715685      -155.5317
  27   2.0000      -5.714307      -155.4942
  28   2.0000      -5.710300      -155.3852
  29   2.0000      -5.708154      -155.3268
  30   2.0000      -5.702869      -155.1829
  31   2.0000      -5.665417      -154.1638
  32   2.0000      -5.656958      -153.9336
  33   2.0000      -5.656550      -153.9226
  34   2.0000      -5.656446      -153.9197
  35   2.0000      -5.648298      -153.6980
  36   2.0000      -5.647450      -153.6749
  37   2.0000      -4.653041      -126.6157
  38   2.0000      -4.651450      -126.5724
  39   2.0000      -4.650479      -126.5460
  40   2.0000      -4.639963      -126.2598
  41   2.0000      -4.639449      -126.2458
  42   2.0000      -4.638034      -126.2073
  43   2.0000      -0.994768       -27.0690
  44   2.0000      -0.975573       -26.5467
  45   2.0000      -0.949437       -25.8355
  46   2.0000      -0.934957       -25.4415
  47   2.0000      -0.761985       -20.7347
  48   2.0000      -0.724051       -19.7024
  49   2.0000      -0.707098       -19.2411
  50   2.0000      -0.697587       -18.9823
  51   2.0000      -0.678012       -18.4497
  52   2.0000      -0.674718       -18.3600
  53   2.0000      -0.653719       -17.7886
  54   2.0000      -0.638441       -17.3729
  55   2.0000      -0.603796       -16.4301
  56   2.0000      -0.587238       -15.9795
  57   2.0000      -0.584950       -15.9173
  58   2.0000      -0.564453       -15.3595
  59   2.0000      -0.559379       -15.2215
  60   2.0000      -0.503106       -13.6902
  61   2.0000      -0.492270       -13.3954
  62   2.0000      -0.476783       -12.9739
  63   2.0000      -0.462956       -12.5977
  64   2.0000      -0.457038       -12.4366
  65   2.0000      -0.454257       -12.3610
  66   2.0000      -0.443177       -12.0595
  67   2.0000      -0.434646       -11.8273
  68   2.0000      -0.427568       -11.6347
  69   2.0000      -0.418702       -11.3935
  70   2.0000      -0.410464       -11.1693
  71   2.0000      -0.406681       -11.0664
  72   2.0000      -0.393029       -10.6949
  73   2.0000      -0.385028       -10.4771
  74   2.0000      -0.378093       -10.2884
  75   2.0000      -0.373189       -10.1550
  76   2.0000      -0.368204       -10.0194
  77   2.0000      -0.364688        -9.9237
  78   2.0000      -0.359110        -9.7719
  79   2.0000      -0.350848        -9.5471
  80   2.0000      -0.347400        -9.4532
  81   2.0000      -0.343229        -9.3397
  82   2.0000      -0.339397        -9.2355
  83   2.0000      -0.331284        -9.0147
  84   2.0000      -0.326840        -8.8938
  85   2.0000      -0.315373        -8.5817
  86   2.0000      -0.309848        -8.4314
  87   2.0000      -0.303721        -8.2647
  88   2.0000      -0.300965        -8.1897
  89   2.0000      -0.289869        -7.8877
  90   2.0000      -0.282502        -7.6873
  91   2.0000      -0.278693        -7.5836
  92   2.0000      -0.269278        -7.3274
  93   2.0000      -0.264160        -7.1882
  94   2.0000      -0.257535        -7.0079
  95   2.0000      -0.226439        -6.1617
  96   2.0000      -0.217424        -5.9164
  97   2.0000      -0.208908        -5.6847
  98   2.0000      -0.207623        -5.6497
  99   2.0000      -0.202454        -5.5091
 100   2.0000      -0.196456        -5.3459
 101   0.0000      -0.044870        -1.2210
 102   0.0000      -0.031113        -0.8466
 103   0.0000      -0.018086        -0.4922
 104   0.0000       0.002159         0.0588
 105   0.0000       0.003635         0.0989

MULLIKEN ATOMIC CHARGES
-----------------------
   0 C :   -0.340632
   1 C :    0.001863
   2 O :   -0.369319
   3 P :    0.633868
   4 S :   -0.305038
   5 O :   -0.389008
   6 C :    0.002633
   7 C :   -0.317869
   8 S :   -0.107030
   9 C :   -0.363347
  10 S :   -0.067795
  11 P :    0.613370
  12 S :   -0.323319
  13 O :   -0.381600
  14 C :   -0.014268
  15 C :   -0.336067
  16 O :   -0.369341
  17 C :   -0.003761
  18 C :   -0.283892
  19 H :    0.130326
  20 H :    0.134997
  21 H :    0.118376
  22 H :    0.114414
  23 H :    0.114931
  24 H :    0.103652
  25 H :    0.113312
  26 H :    0.122428
  27 H :    0.119442
  28 H :    0.114723
  29 H :    0.212844
  30 H :    0.183779
  31 H :    0.110852
  32 H :    0.107814
  33 H :    0.140460
  34 H :    0.121777
  35 H :    0.104885
  36 H :    0.111227
  37 H :    0.100516
  38 H :    0.111419
  39 H :    0.105332
  40 H :    0.123045
Sum of atomic charges:   -0.0000000

LOEWDIN ATOMIC CHARGES
----------------------
   0 C :   -0.369129
   1 C :   -0.110633
   2 O :   -0.232030
   3 P :    0.583324
   4 S :   -0.282518
   5 O :   -0.251539
   6 C :   -0.117615
   7 C :   -0.370278
   8 S :    0.085272
   9 C :   -0.482430
  10 S :    0.091502
  11 P :    0.571632
  12 S :   -0.318664
  13 O :   -0.251075
  14 C :   -0.128412
  15 C :   -0.377742
  16 O :   -0.241227
  17 C :   -0.114732
  18 C :   -0.359627
  19 H :    0.119215
  20 H :    0.129823
  21 H :    0.134994
  22 H :    0.121561
  23 H :    0.116513
  24 H :    0.118158
  25 H :    0.111772
  26 H :    0.119802
  27 H :    0.124040
  28 H :    0.131665
  29 H :    0.127694
  30 H :    0.138306
  31 H :    0.107842
  32 H :    0.112885
  33 H :    0.115189
  34 H :    0.120181
  35 H :    0.127082
  36 H :    0.112240
  37 H :    0.109024
  38 H :    0.125105
  39 H :    0.127591
  40 H :    0.125242

  Mayer bond orders larger than 0.100000
B(  0-C ,  1-C ) :   1.1723 B(  0-C , 19-H ) :   0.9311 B(  0-C , 20-H ) :   0.9382
B(  0-C , 21-H ) :   0.9347 B(  1-C ,  2-O ) :   0.8948 B(  1-C , 22-H ) :   0.9291
B(  1-C , 23-H ) :   0.9238 B(  2-O ,  3-P ) :   1.1202 B(  3-P ,  4-S ) :   1.6289
B(  3-P ,  5-O ) :   1.0565 B(  3-P ,  8-S ) :   0.9412 B(  4-S ,  8-S ) :   0.1186
B(  5-O ,  6-C ) :   0.9133 B(  6-C ,  7-C ) :   1.1657 B(  6-C , 24-H ) :   0.9340
B(  6-C , 25-H ) :   0.9163 B(  7-C , 26-H ) :   0.9379 B(  7-C , 27-H ) :   0.9421
B(  7-C , 28-H ) :   0.9368 B(  8-S ,  9-C ) :   1.0022 B(  9-C , 10-S ) :   0.9858
B(  9-C , 29-H ) :   0.8447 B(  9-C , 30-H ) :   0.9085 B( 10-S , 11-P ) :   0.9852
B( 11-P , 12-S ) :   1.6247 B( 11-P , 13-O ) :   1.0672 B( 11-P , 16-O ) :   1.1242
B( 13-O , 14-C ) :   0.9075 B( 14-C , 15-C ) :   1.1661 B( 14-C , 31-H ) :   0.9128
B( 14-C , 32-H ) :   0.9204 B( 15-C , 33-H ) :   0.9219 B( 15-C , 34-H ) :   0.9282
B( 15-C , 35-H ) :   0.9387 B( 16-O , 17-C ) :   0.8866 B( 17-C , 18-C ) :   1.1685
B( 17-C , 36-H ) :   0.9239 B( 17-C , 37-H ) :   0.9153 B( 18-C , 38-H ) :   0.9476
B( 18-C , 39-H ) :   0.9413 B( 18-C , 40-H ) :   0.9378

Dispersion correction           -0.069600119
FINAL SINGLE POINT ENERGY     -2929.515327802076

DIPOLE MOMENT
-------------

Method             : SCF
Type of density    : Electron Density
Multiplicity       :   1
Irrep              :   0
Energy             : -2929.6354307012761637 Eh
Relativity type    :
Basis              : AO
                                X                 Y                 Z
Electronic contribution:    -10.790825554      -3.793899310      -3.742767025
Nuclear contribution   :     12.902668643       3.868117294       4.324148321
                        -----------------------------------------
Total Dipole Moment    :      2.111843090       0.074217984       0.581381296
                        -----------------------------------------
Magnitude (a.u.)       :      2.191664609
Magnitude (Debye)      :      5.570768719

Rotational constants in cm-1:             0.011940             0.005902             0.005235
Rotational constants in MHz :           357.956124           176.951206           156.951364

                             ****ORCA TERMINATED NORMALLY****
TOTAL RUN TIME: 0 days 0 hours 0 minutes 22 seconds 404 msec
