                         Program Version 6.0.0  -   RELEASE  -
|  1> ! pbe def2-sv(p) def2/J RI DEFGRID1 loosescf d4 GCP(DFT/SV(P)) printgap
|  2> %output
|  3>     printlevel normal
|  4> end
|  5> * xyz 0 1
|  6> C -2.5115010721 -0.7573716856 0.0004984033
|  7> C -1.2152390917 0.0045989698 8.76127e-05
|  8> C -1.2067256431 1.3925492797 -2.58322e-05
|  9> C -0.0191695101 2.0996804801 -0.000252077
| 10> C 1.1854602162 1.4184471019 -0.0001460431
| 11> C 1.2174475344 0.0340887523 -1.9504e-05
| 12> C 0.0082136243 -0.6689265172 -0.0001472372
| 13> O 0.0864073809 -2.03323075 -0.0005784014
| 14> C 2.5049006958 -0.7313672853 0.0005494801
| 15> H -2.5976759957 -1.3827489259 -0.8882874347
| 16> H -2.5935981065 -1.3888627692 0.8853324611
| 17> H -3.3476150762 -0.0639771412 0.0047863398
| 18> H -2.1476061609 1.9232859362 0.0001213599
| 19> H -0.0315250863 3.1789615188 -0.0003400461
| 20> H 2.1162650558 1.9662366258 -6.03377e-05
| 21> H -0.801241964 -2.4187744742 -0.001400198
| 22> H 2.5538753645 -1.3792556339 -0.8734195848
| 23> H 3.3558657912 -0.056607921 -0.0044365272
| 24> H 2.5579406222 -1.3710400076 0.8803931745
| 25> *
| 26>
| 27>                          ****END OF INPUT****

CARTESIAN COORDINATES (ANGSTROEM)
---------------------------------
  C     -2.511501   -0.757372    0.000498
  C     -1.215239    0.004599    0.000088
  C     -1.206726    1.392549   -0.000026
  C     -0.019170    2.099680   -0.000252
  C      1.185460    1.418447   -0.000146
  C      1.217448    0.034089   -0.000020
  C      0.008214   -0.668927   -0.000147
  O      0.086407   -2.033231   -0.000578
  C      2.504901   -0.731367    0.000549
  H     -2.597676   -1.382749   -0.888287
  H     -2.593598   -1.388863    0.885332
  H     -3.347615   -0.063977    0.004786
  H     -2.147606    1.923286    0.000121
  H     -0.031525    3.178962   -0.000340
  H      2.116265    1.966237   -0.000060
  H     -0.801242   -2.418774   -0.001400
  H      2.553875   -1.379256   -0.873420
  H      3.355866   -0.056608   -0.004437
  H      2.557941   -1.371040    0.880393

 Total Charge           Charge          ....    0
 Multiplicity           Mult            ....    1
 Number of Electrons    NEL             ....   66
 Basis Dimension        Dim             ....  146

ORBITAL ENERGIES
----------------

  NO   OCC          E(Eh)            E(eV)
   0   2.0000     -18.780391      -511.0404
   1   2.0000      -9.940859      -270.5045
   2   2.0000      -9.895680      -269.2751
   3   2.0000      -9.895616      -269.2734
   4   2.0000      -9.890370      -269.1306
   5   2.0000      -9.883564      -268.9454
   6   2.0000      -9.881705      -268.8949
   7   2.0000      -9.877944      -268.7925
   8   2.0000      -9.873822      -268.6804
   9   2.0000      -0.960535       -26.1375
  10   2.0000      -0.769567       -20.9410
  11   2.0000      -0.706787       -19.2327
  12   2.0000      -0.672474       -18.2990
  13   2.0000      -0.623823       -16.9751
  14   2.0000      -0.603585       -16.4244
  15   2.0000      -0.546181       -14.8623
  16   2.0000      -0.515500       -14.0275
  17   2.0000      -0.483189       -13.1483
  18   2.0000      -0.434320       -11.8184
  19   2.0000      -0.413059       -11.2399
  20   2.0000      -0.395500       -10.7621
  21   2.0000      -0.372921       -10.1477
  22   2.0000      -0.370090       -10.0707
  23   2.0000      -0.362713        -9.8699
  24   2.0000      -0.356637        -9.7046
  25   2.0000      -0.336145        -9.1470
  26   2.0000      -0.329059        -8.9542
  27   2.0000      -0.328393        -8.9360
  28   2.0000      -0.299978        -8.1628
  29   2.0000      -0.290301        -7.8995
  30   2.0000      -0.284802        -7.7499
  31   2.0000      -0.211334        -5.7507
  32   2.0000      -0.186655        -5.0791
  33   0.0000      -0.022121        -0.6019
  34   0.0000      -0.013904        -0.3784
  35   0.0000       0.016836         0.4581
  36   0.0000       0.053776         1.4633
  37   0.0000       0.070037         1.9058

MULLIKEN ATOMIC CHARGES
-----------------------
   0 C :   -0.289144
   1 C :    0.019478
   2 C :   -0.147899
   3 C :   -0.033505
   4 C :   -0.144631
   5 C :   -0.020211
   6 C :    0.074336
   7 O :   -0.336336
   8 C :   -0.204080
   9 H :    0.118539
  10 H :    0.118328
  11 H :    0.111941
  12 H :    0.029215
  13 H :    0.039879
  14 H :    0.031609
  15 H :    0.312593
  16 H :    0.113635
  17 H :    0.092567
  18 H :    0.113686
Sum of atomic charges:   -0.0000000

LOEWDIN ATOMIC CHARGES
----------------------
   0 C :   -0.335755
   1 C :   -0.093830
   2 C :   -0.128254
   3 C :   -0.146160
   4 C :   -0.125086
   5 C :   -0.070346
   6 C :    0.026488
   7 O :   -0.234812
   8 C :   -0.319025
   9 H :    0.126359
  10 H :    0.126221
  11 H :    0.134117
  12 H :    0.119003
  13 H :    0.120608
  14 H :    0.120509
  15 H :    0.295334
  16 H :    0.131591
  17 H :    0.121395
  18 H :    0.131642

  Mayer bond orders larger than 0.100000
B(  0-C ,  1-C ) :   1.0796 B(  0-C ,  9-H ) :   0.9312 B(  0-C , 10-H ) :   0.9312
B(  0-C , 11-H ) :   0.9323 B(  1-C ,  2-C ) :   1.3965 B(  1-C ,  6-C ) :   1.3219
B(  2-C ,  3-C ) :   1.3539 B(  2-C , 12-H ) :   0.9604 B(  3-C ,  4-C ) :   1.3329
B(  3-C , 13-H ) :   0.9652 B(  4-C ,  5-C ) :   1.4245 B(  4-C , 14-H ) :   0.9639
B(  5-C ,  6-C ) :   1.3747 B(  5-C ,  8-C ) :   1.1088 B(  6-C ,  7-O ) :   1.2625
B(  7-O , 15-H ) :   0.8292 B(  8-C , 16-H ) :   0.9330 B(  8-C , 17-H ) :   0.9387
B(  8-C , 18-H ) :   0.9331

Dispersion correction           -0.019307243
FINAL SINGLE POINT ENERGY      -385.241380378614

DIPOLE MOMENT
-------------

Method             : SCF
Type of density    : Electron Density
Multiplicity       :   1
Irrep              :   0
Energy             :  -385.3007254420886625 Eh
Relativity type    :
Basis              : AO
                                X                 Y                 Z
Electronic contribution:      0.319757707       0.659556253      -0.002655598
Nuclear contribution   :     -0.876203239      -0.961530376       0.002514358
                        -----------------------------------------
Total Dipole Moment    :     -0.556445532      -0.301974124      -0.000141241
                        -----------------------------------------
Magnitude (a.u.)       :      0.633103484
Magnitude (Debye)      :      1.609221170

Rotational constants in cm-1:             0.076699             0.059461             0.033917
Rotational constants in MHz :          2299.373512          1782.601011          1016.808305

                             ****ORCA TERMINATED NORMALLY****
TOTAL RUN TIME: 0 days 0 hours 0 minutes 10 seconds 220 msec
