                         Program Version 6.0.0  -   RELEASE  -
|  1> ! r2scan-3c def2/J RI DEFGRID2 scfconv6 printgap
|  2> %output
|  3>     printlevel normal
|  4> end
|  5> * xyz 0 1
|  6> C 4.2903148263 0.4055912851 -2.3011107449
|  7> C 4.5567068727 0.0272324326 -0.8580277402
|  8> O 3.3651019368 -0.4222534387 -0.1938568488
|  9> P 2.1716216805 0.5813766555 0.1648569724
| 10> S 2.7570008298 2.3632499558 0.7301324698
| 11> O 1.3772725544 -0.2680636358 1.2357386267
| 12> C 1.8631127056 -0.4272890111 2.5869035578
| 13> C 0.7663062442 -1.1009770069 3.3848388028
| 14> S 0.8089689028 0.4935342236 -1.4390197232
| 15> C 0.5079634982 -1.2927630326 -1.524012814
| 16> S -0.55629527 -1.9507278824 -0.1978011236
| 17> P -2.0403675687 -0.4711679481 -0.2049813896
| 18> S -2.6637597332 0.2005944529 -1.9442225495
| 19> O -1.4459622296 0.5785546483 0.8254202842
| 20> C -2.0692360553 1.8660628445 1.0320849134
| 21> C -1.3413557321 2.9471514478 0.2582330781
| 22> O -3.1981028806 -1.1181431212 0.6743931631
| 23> C -4.192787066 -2.0038875866 0.1210760967
| 24> C -5.4857499309 -1.8060183771 0.8870382117
| 25> H 3.6107203069 1.2568575922 -2.3405241176
| 26> H 5.2251975603 0.6805306412 -2.7786608016
| 27> H 3.8427884118 -0.4255624389 -2.8398814232
| 28> H 4.9573247239 0.8833592903 -0.3060235786
| 29> H 5.2400976907 -0.8193904502 -0.7797031906
| 30> H 2.7704113093 -1.035812291 2.5565641496
| 31> H 2.1079190245 0.5635584651 2.9841797215
| 32> H 0.5516753824 -2.0805239064 2.9662345035
| 33> H 1.0862062131 -1.2072333719 4.4162933621
| 34> H -0.1403114379 -0.5025173481 3.3463937298
| 35> H 1.4479593169 -1.8355335624 -1.457418762
| 36> H 0.0212520705 -1.4525469617 -2.4846163206
| 37> H -3.1185280269 1.8096848669 0.7293750546
| 38> H -2.0067471885 2.0370885097 2.1081545598
| 39> H -1.7829030642 3.9117531608 0.4868759497
| 40> H -0.2878969324 2.9651861134 0.5313221234
| 41> H -1.4182599491 2.7641773243 -0.8119030487
| 42> H -4.319632112 -1.7691701277 -0.9411587942
| 43> H -3.8194937259 -3.0252093326 0.2247097818
| 44> H -5.8510886595 -0.7915828937 0.7522302529
| 45> H -6.2285488767 -2.5043827053 0.5157826395
| 46> H -5.3205292503 -1.983552444 1.945737096
| 47> *
| 48>
| 49>                          ****END OF INPUT****

CARTESIAN COORDINATES (ANGSTROEM)
---------------------------------
  C      4.290315    0.405591   -2.301111
  C      4.556707    0.027232   -0.858028
  O      3.365102   -0.422253   -0.193857
  P      2.171622    0.581377    0.164857
  S      2.757001    2.363250    0.730132
  O      1.377273   -0.268064    1.235739
  C      1.863113   -0.427289    2.586904
  C      0.766306   -1.100977    3.384839
  S      0.808969    0.493534   -1.439020
  C      0.507963   -1.292763   -1.524013
  S     -0.556295   -1.950728   -0.197801
  P     -2.040368   -0.471168   -0.204981
  S     -2.663760    0.200594   -1.944223
  O     -1.445962    0.578555    0.825420
  C     -2.069236    1.866063    1.032085
  C     -1.341356    2.947151    0.258233
  O     -3.198103   -1.118143    0.674393
  C     -4.192787   -2.003888    0.121076
  C     -5.485750   -1.806018    0.887038
  H      3.610720    1.256858   -2.340524
  H      5.225198    0.680531   -2.778661
  H      3.842788   -0.425562   -2.839881
  H      4.957325    0.883359   -0.306024
  H      5.240098   -0.819390   -0.779703
  H      2.770411   -1.035812    2.556564
  H      2.107919    0.563558    2.984180
  H      0.551675   -2.080524    2.966235
  H      1.086206   -1.207233    4.416293
  H     -0.140311   -0.502517    3.346394
  H      1.447959   -1.835534   -1.457419
  H      0.021252   -1.452547   -2.484616
  H     -3.118528    1.809685    0.729375
  H     -2.006747    2.037089    2.108155
  H     -1.782903    3.911753    0.486876
  H     -0.287897    2.965186    0.531322
  H     -1.418260    2.764177   -0.811903
  H     -4.319632   -1.769170   -0.941159
  H     -3.819494   -3.025209    0.224710
  H     -5.851089   -0.791583    0.752230
  H     -6.228549   -2.504383    0.515783
  H     -5.320529   -1.983552    1.945737

 Total Charge           Charge          ....    0
 Multiplicity           Mult            ....    1
 Number of Electrons    NEL             ....  202
 Basis Dimension        Dim             ....  539

ORBITAL ENERGIES
----------------

  NO   OCC          E(Eh)            E(eV)
   0   2.0000     -88.577229     -2410.3089
   1   2.0000     -88.574696     -2410.2400
   2   2.0000     -88.521413     -2408.7901
   3   2.0000     -88.517185     -2408.6751
   4   2.0000     -76.912638     -2092.8993
   5   2.0000     -76.912429     -2092.8936
   6   2.0000     -18.991355      -516.7810
   7   2.0000     -18.990035      -516.7451
   8   2.0000     -18.985252      -516.6150
   9   2.0000     -18.983397      -516.5645
  10   2.0000     -10.113676      -275.2071
  11   2.0000     -10.098087      -274.7829
  12   2.0000     -10.096619      -274.7430
  13   2.0000     -10.096242      -274.7327
  14   2.0000     -10.092589      -274.6333
  15   2.0000     -10.031938      -272.9829
  16   2.0000     -10.029698      -272.9220
  17   2.0000     -10.028367      -272.8857
  18   2.0000     -10.013159      -272.4719
  19   2.0000      -7.871436      -214.1927
  20   2.0000      -7.869420      -214.1378
  21   2.0000      -7.816025      -212.6849
  22   2.0000      -7.811928      -212.5734
  23   2.0000      -6.590955      -179.3490
  24   2.0000      -6.590844      -179.3460
  25   2.0000      -5.818855      -158.3391
  26   2.0000      -5.816463      -158.2740
  27   2.0000      -5.814926      -158.2322
  28   2.0000      -5.813285      -158.1875
  29   2.0000      -5.808341      -158.0530
  30   2.0000      -5.806266      -157.9965
  31   2.0000      -5.763633      -156.8364
  32   2.0000      -5.759610      -156.7270
  33   2.0000      -5.756420      -156.6401
  34   2.0000      -5.755982      -156.6282
  35   2.0000      -5.752337      -156.5291
  36   2.0000      -5.751788      -156.5141
  37   2.0000      -4.736396      -128.8839
  38   2.0000      -4.736393      -128.8838
  39   2.0000      -4.736011      -128.8734
  40   2.0000      -4.735761      -128.8666
  41   2.0000      -4.734639      -128.8361
  42   2.0000      -4.734595      -128.8349
  43   2.0000      -1.048516       -28.5316
  44   2.0000      -1.045351       -28.4455
  45   2.0000      -1.008499       -27.4427
  46   2.0000      -1.004787       -27.3416
  47   2.0000      -0.803569       -21.8662
  48   2.0000      -0.758936       -20.6517
  49   2.0000      -0.747910       -20.3517
  50   2.0000      -0.730991       -19.8913
  51   2.0000      -0.725881       -19.7522
  52   2.0000      -0.708799       -19.2874
  53   2.0000      -0.686031       -18.6679
  54   2.0000      -0.668312       -18.1857
  55   2.0000      -0.627342       -17.0708
  56   2.0000      -0.618446       -16.8288
  57   2.0000      -0.606719       -16.5097
  58   2.0000      -0.599555       -16.3147
  59   2.0000      -0.588315       -16.0089
  60   2.0000      -0.530479       -14.4351
  61   2.0000      -0.528043       -14.3688
  62   2.0000      -0.492954       -13.4140
  63   2.0000      -0.490776       -13.3547
  64   2.0000      -0.476007       -12.9528
  65   2.0000      -0.462969       -12.5980
  66   2.0000      -0.457535       -12.4502
  67   2.0000      -0.447545       -12.1783
  68   2.0000      -0.444894       -12.1062
  69   2.0000      -0.433731       -11.8024
  70   2.0000      -0.426222       -11.5981
  71   2.0000      -0.413260       -11.2454
  72   2.0000      -0.407155       -11.0793
  73   2.0000      -0.399898       -10.8818
  74   2.0000      -0.392246       -10.6736
  75   2.0000      -0.390383       -10.6229
  76   2.0000      -0.382355       -10.4044
  77   2.0000      -0.370453       -10.0805
  78   2.0000      -0.366685        -9.9780
  79   2.0000      -0.365832        -9.9548
  80   2.0000      -0.358761        -9.7624
  81   2.0000      -0.358359        -9.7515
  82   2.0000      -0.350648        -9.5416
  83   2.0000      -0.348398        -9.4804
  84   2.0000      -0.342583        -9.3222
  85   2.0000      -0.335995        -9.1429
  86   2.0000      -0.321060        -8.7365
  87   2.0000      -0.312165        -8.4944
  88   2.0000      -0.311732        -8.4827
  89   2.0000      -0.306371        -8.3368
  90   2.0000      -0.298647        -8.1266
  91   2.0000      -0.286741        -7.8026
  92   2.0000      -0.281626        -7.6634
  93   2.0000      -0.278300        -7.5729
  94   2.0000      -0.275754        -7.5037
  95   2.0000      -0.241827        -6.5805
  96   2.0000      -0.232050        -6.3144
  97   2.0000      -0.223356        -6.0778
  98   2.0000      -0.218251        -5.9389
  99   2.0000      -0.211173        -5.7463
 100   2.0000      -0.209745        -5.7075
 101   0.0000      -0.049183        -1.3383
 102   0.0000      -0.022443        -0.6107
 103   0.0000      -0.008707        -0.2369
 104   0.0000       0.003753         0.1021
 105   0.0000       0.006636         0.1806

MULLIKEN ATOMIC CHARGES
-----------------------
   0 C :   -0.431221
   1 C :   -0.162599
   2 O :   -0.311416
   3 P :    0.684854
   4 S :   -0.477161
   5 O :   -0.218206
   6 C :   -0.153824
   7 C :   -0.448249
   8 S :   -0.105300
   9 C :   -0.259744
  10 S :   -0.121490
  11 P :    0.684299
  12 S :   -0.473169
  13 O :   -0.264103
  14 C :   -0.117404
  15 C :   -0.474535
  16 O :   -0.293924
  17 C :   -0.138396
  18 C :   -0.449516
  19 H :    0.172788
  20 H :    0.147788
  21 H :    0.147720
  22 H :    0.171889
  23 H :    0.146565
  24 H :    0.149774
  25 H :    0.166537
  26 H :    0.155622
  27 H :    0.142755
  28 H :    0.165084
  29 H :    0.187897
  30 H :    0.205921
  31 H :    0.149215
  32 H :    0.146597
  33 H :    0.141494
  34 H :    0.178883
  35 H :    0.178782
  36 H :    0.170890
  37 H :    0.147725
  38 H :    0.157567
  39 H :    0.146513
  40 H :    0.153099
Sum of atomic charges:   -0.0000000

LOEWDIN ATOMIC CHARGES
----------------------
   0 C :   -0.403407
   1 C :    0.016417
   2 O :   -0.679228
   3 P :    0.370011
   4 S :   -0.118577
   5 O :   -0.691966
   6 C :    0.027324
   7 C :   -0.387660
   8 S :    0.200552
   9 C :   -0.405461
  10 S :    0.192783
  11 P :    0.364493
  12 S :   -0.130626
  13 O :   -0.668551
  14 C :    0.027244
  15 C :   -0.405875
  16 O :   -0.666053
  17 C :    0.018791
  18 C :   -0.387771
  19 H :    0.166498
  20 H :    0.159516
  21 H :    0.156595
  22 H :    0.180469
  23 H :    0.178038
  24 H :    0.171119
  25 H :    0.179373
  26 H :    0.161308
  27 H :    0.157363
  28 H :    0.165745
  29 H :    0.186859
  30 H :    0.189458
  31 H :    0.174567
  32 H :    0.177462
  33 H :    0.156466
  34 H :    0.167754
  35 H :    0.167221
  36 H :    0.181887
  37 H :    0.170572
  38 H :    0.160395
  39 H :    0.159690
  40 H :    0.159205

  Mayer bond orders larger than 0.100000
B(  0-C ,  1-C ) :   0.9325 B(  0-C , 19-H ) :   0.9600 B(  0-C , 20-H ) :   0.9604
B(  0-C , 21-H ) :   0.9706 B(  1-C ,  2-O ) :   0.8158 B(  1-C , 22-H ) :   0.9618
B(  1-C , 23-H ) :   0.9598 B(  2-O ,  3-P ) :   1.0255 B(  3-P ,  4-S ) :   1.7846
B(  3-P ,  5-O ) :   1.1505 B(  3-P ,  8-S ) :   1.0603 B(  5-O ,  6-C ) :   0.7872
B(  6-C ,  7-C ) :   0.9574 B(  6-C , 24-H ) :   0.9464 B(  6-C , 25-H ) :   0.9518
B(  7-C , 26-H ) :   0.9678 B(  7-C , 27-H ) :   0.9624 B(  7-C , 28-H ) :   0.9708
B(  8-S ,  9-C ) :   0.9142 B(  9-C , 10-S ) :   0.9088 B(  9-C , 29-H ) :   0.9226
B(  9-C , 30-H ) :   0.9164 B( 10-S , 11-P ) :   1.0932 B( 11-P , 12-S ) :   1.7537
B( 11-P , 13-O ) :   1.1611 B( 11-P , 16-O ) :   1.0720 B( 13-O , 14-C ) :   0.7607
B( 14-C , 15-C ) :   0.9395 B( 14-C , 31-H ) :   0.9655 B( 14-C , 32-H ) :   0.9613
B( 15-C , 33-H ) :   0.9627 B( 15-C , 34-H ) :   0.9607 B( 15-C , 35-H ) :   0.9624
B( 16-O , 17-C ) :   0.7703 B( 17-C , 18-C ) :   0.9609 B( 17-C , 36-H ) :   0.9514
B( 17-C , 37-H ) :   0.9474 B( 18-C , 38-H ) :   0.9722 B( 18-C , 39-H ) :   0.9651
B( 18-C , 40-H ) :   0.9721

Dispersion correction           -0.021923300
FINAL SINGLE POINT ENERGY     -2932.458872348792

DIPOLE MOMENT
-------------

Method             : SCF
Type of density    : Electron Density
Multiplicity       :   1
Irrep              :   0
Energy             : -2932.4833383247528218 Eh
Relativity type    :
Basis              : AO
                                X                 Y                 Z
Electronic contribution:      3.528975709       1.271477346      -7.811370418
Nuclear contribution   :     -3.346002364      -2.551212477       8.434413496
                        -----------------------------------------
Total Dipole Moment    :      0.182973345      -1.279735131       0.623043078
                        -----------------------------------------
Magnitude (a.u.)       :      1.435055375
Magnitude (Debye)      :      3.647620881

Rotational constants in cm-1:             0.013084             0.005045             0.004910
Rotational constants in MHz :           392.242839           151.238787           147.207664

                             ****ORCA TERMINATED NORMALLY****
TOTAL RUN TIME: 0 days 0 hours 1 minutes 22 seconds 363 msec
