                         Program Version 6.0.0  -   RELEASE  -
|  1> ! r2scan-3c def2/J RI DEFGRID2 scfconv6 printgap
|  2> %output
|  3>     printlevel normal
|  4> end
|  5> %cpcm
|  6>     smd true
|  7>     smdsolvent "water"
|  8> end
|  9> * xyz 0 1
| 10> C 4.2903148263 0.4055912851 -2.3011107449
| 11> C 4.5567068727 0.0272324326 -0.8580277402
| 12> O 3.3651019368 -0.4222534387 -0.1938568488
| 13> P 2.1716216805 0.5813766555 0.1648569724
| 14> S 2.7570008298 2.3632499558 0.7301324698
| 15> O 1.3772725544 -0.2680636358 1.2357386267
| 16> C 1.8631127056 -0.4272890111 2.5869035578
| 17> C 0.7663062442 -1.1009770069 3.3848388028
| 18> S 0.8089689028 0.4935342236 -1.4390197232
| 19> C 0.5079634982 -1.2927630326 -1.524012814
| 20> S -0.55629527 -1.9507278824 -0.1978011236
| 21> P -2.0403675687 -0.4711679481 -0.2049813896
| 22> S -2.6637597332 0.2005944529 -1.9442225495
| 23> O -1.4459622296 0.5785546483 0.8254202842
| 24> C -2.0692360553 1.8660628445 1.0320849134
| 25> C -1.3413557321 2.9471514478 0.2582330781
| 26> O -3.1981028806 -1.1181431212 0.6743931631
| 27> C -4.192787066 -2.0038875866 0.1210760967
| 28> C -5.4857499309 -1.8060183771 0.8870382117
| 29> H 3.6107203069 1.2568575922 -2.3405241176
| 30> H 5.2251975603 0.6805306412 -2.7786608016
| 31> H 3.8427884118 -0.4255624389 -2.8398814232
| 32> H 4.9573247239 0.8833592903 -0.3060235786
| 33> H 5.2400976907 -0.8193904502 -0.7797031906
| 34> H 2.7704113093 -1.035812291 2.5565641496
| 35> H 2.1079190245 0.5635584651 2.9841797215
| 36> H 0.5516753824 -2.0805239064 2.9662345035
| 37> H 1.0862062131 -1.2072333719 4.4162933621
| 38> H -0.1403114379 -0.5025173481 3.3463937298
| 39> H 1.4479593169 -1.8355335624 -1.457418762
| 40> H 0.0212520705 -1.4525469617 -2.4846163206
| 41> H -3.1185280269 1.8096848669 0.7293750546
| 42> H -2.0067471885 2.0370885097 2.1081545598
| 43> H -1.7829030642 3.9117531608 0.4868759497
| 44> H -0.2878969324 2.9651861134 0.5313221234
| 45> H -1.4182599491 2.7641773243 -0.8119030487
| 46> H -4.319632112 -1.7691701277 -0.9411587942
| 47> H -3.8194937259 -3.0252093326 0.2247097818
| 48> H -5.8510886595 -0.7915828937 0.7522302529
| 49> H -6.2285488767 -2.5043827053 0.5157826395
| 50> H -5.3205292503 -1.983552444 1.945737096
| 51> *
| 52>
| 53>                          ****END OF INPUT****

CARTESIAN COORDINATES (ANGSTROEM)
---------------------------------
  C      4.290315    0.405591   -2.301111
  C      4.556707    0.027232   -0.858028
  O      3.365102   -0.422253   -0.193857
  P      2.171622    0.581377    0.164857
  S      2.757001    2.363250    0.730132
  O      1.377273   -0.268064    1.235739
  C      1.863113   -0.427289    2.586904
  C      0.766306   -1.100977    3.384839
  S      0.808969    0.493534   -1.439020
  C      0.507963   -1.292763   -1.524013
  S     -0.556295   -1.950728   -0.197801
  P     -2.040368   -0.471168   -0.204981
  S     -2.663760    0.200594   -1.944223
  O     -1.445962    0.578555    0.825420
  C     -2.069236    1.866063    1.032085
  C     -1.341356    2.947151    0.258233
  O     -3.198103   -1.118143    0.674393
  C     -4.192787   -2.003888    0.121076
  C     -5.485750   -1.806018    0.887038
  H      3.610720    1.256858   -2.340524
  H      5.225198    0.680531   -2.778661
  H      3.842788   -0.425562   -2.839881
  H      4.957325    0.883359   -0.306024
  H      5.240098   -0.819390   -0.779703
  H      2.770411   -1.035812    2.556564
  H      2.107919    0.563558    2.984180
  H      0.551675   -2.080524    2.966235
  H      1.086206   -1.207233    4.416293
  H     -0.140311   -0.502517    3.346394
  H      1.447959   -1.835534   -1.457419
  H      0.021252   -1.452547   -2.484616
  H     -3.118528    1.809685    0.729375
  H     -2.006747    2.037089    2.108155
  H     -1.782903    3.911753    0.486876
  H     -0.287897    2.965186    0.531322
  H     -1.418260    2.764177   -0.811903
  H     -4.319632   -1.769170   -0.941159
  H     -3.819494   -3.025209    0.224710
  H     -5.851089   -0.791583    0.752230
  H     -6.228549   -2.504383    0.515783
  H     -5.320529   -1.983552    1.945737

 Total Charge           Charge          ....    0
 Multiplicity           Mult            ....    1
 Number of Electrons    NEL             ....  202
 Basis Dimension        Dim             ....  539

ORBITAL ENERGIES
----------------

  NO   OCC          E(Eh)            E(eV)
   0   2.0000     -88.579541     -2410.3719
   1   2.0000     -88.577163     -2410.3071
   2   2.0000     -88.529173     -2409.0013
   3   2.0000     -88.525035     -2408.8887
   4   2.0000     -76.918368     -2093.0552
   5   2.0000     -76.916913     -2093.0156
   6   2.0000     -18.993009      -516.8261
   7   2.0000     -18.991172      -516.7761
   8   2.0000     -18.989417      -516.7283
   9   2.0000     -18.987769      -516.6835
  10   2.0000     -10.108505      -275.0664
  11   2.0000     -10.089260      -274.5427
  12   2.0000     -10.088824      -274.5309
  13   2.0000     -10.087991      -274.5082
  14   2.0000     -10.087511      -274.4951
  15   2.0000     -10.018869      -272.6273
  16   2.0000     -10.018373      -272.6138
  17   2.0000     -10.017946      -272.6022
  18   2.0000     -10.014221      -272.5008
  19   2.0000      -7.873850      -214.2584
  20   2.0000      -7.871799      -214.2025
  21   2.0000      -7.824148      -212.9059
  22   2.0000      -7.820095      -212.7956
  23   2.0000      -6.596630      -179.5034
  24   2.0000      -6.595475      -179.4720
  25   2.0000      -5.821232      -158.4038
  26   2.0000      -5.818823      -158.3382
  27   2.0000      -5.817316      -158.2972
  28   2.0000      -5.815643      -158.2517
  29   2.0000      -5.810816      -158.1203
  30   2.0000      -5.808712      -158.0631
  31   2.0000      -5.771653      -157.0547
  32   2.0000      -5.767706      -156.9473
  33   2.0000      -5.764558      -156.8616
  34   2.0000      -5.764123      -156.8498
  35   2.0000      -5.760493      -156.7510
  36   2.0000      -5.759977      -156.7370
  37   2.0000      -4.742148      -129.0404
  38   2.0000      -4.741554      -129.0242
  39   2.0000      -4.740845      -129.0049
  40   2.0000      -4.740523      -128.9962
  41   2.0000      -4.740434      -128.9938
  42   2.0000      -4.739270      -128.9621
  43   2.0000      -1.050141       -28.5758
  44   2.0000      -1.048735       -28.5375
  45   2.0000      -1.009307       -27.4646
  46   2.0000      -1.008046       -27.4303
  47   2.0000      -0.803006       -21.8509
  48   2.0000      -0.756844       -20.5948
  49   2.0000      -0.742802       -20.2127
  50   2.0000      -0.721827       -19.6419
  51   2.0000      -0.721531       -19.6339
  52   2.0000      -0.708362       -19.2755
  53   2.0000      -0.690199       -18.7813
  54   2.0000      -0.674254       -18.3474
  55   2.0000      -0.626170       -17.0390
  56   2.0000      -0.615388       -16.7456
  57   2.0000      -0.600308       -16.3352
  58   2.0000      -0.594817       -16.1858
  59   2.0000      -0.585859       -15.9420
  60   2.0000      -0.527982       -14.3671
  61   2.0000      -0.524606       -14.2753
  62   2.0000      -0.491053       -13.3622
  63   2.0000      -0.488507       -13.2929
  64   2.0000      -0.474679       -12.9167
  65   2.0000      -0.459001       -12.4900
  66   2.0000      -0.454544       -12.3688
  67   2.0000      -0.444241       -12.0884
  68   2.0000      -0.437581       -11.9072
  69   2.0000      -0.433636       -11.7998
  70   2.0000      -0.422879       -11.5071
  71   2.0000      -0.410269       -11.1640
  72   2.0000      -0.403809       -10.9882
  73   2.0000      -0.398474       -10.8430
  74   2.0000      -0.391826       -10.6621
  75   2.0000      -0.386463       -10.5162
  76   2.0000      -0.380455       -10.3527
  77   2.0000      -0.363592        -9.8938
  78   2.0000      -0.358233        -9.7480
  79   2.0000      -0.357652        -9.7322
  80   2.0000      -0.356080        -9.6894
  81   2.0000      -0.353215        -9.6115
  82   2.0000      -0.347179        -9.4472
  83   2.0000      -0.343342        -9.3428
  84   2.0000      -0.339529        -9.2390
  85   2.0000      -0.333691        -9.0802
  86   2.0000      -0.318857        -8.6765
  87   2.0000      -0.311511        -8.4766
  88   2.0000      -0.309381        -8.4187
  89   2.0000      -0.302088        -8.2202
  90   2.0000      -0.299945        -8.1619
  91   2.0000      -0.288228        -7.8431
  92   2.0000      -0.280798        -7.6409
  93   2.0000      -0.277712        -7.5569
  94   2.0000      -0.276166        -7.5148
  95   2.0000      -0.245441        -6.6788
  96   2.0000      -0.237076        -6.4512
  97   2.0000      -0.232421        -6.3245
  98   2.0000      -0.226768        -6.1707
  99   2.0000      -0.217548        -5.9198
 100   2.0000      -0.217048        -5.9062
 101   0.0000      -0.051768        -1.4087
 102   0.0000      -0.027524        -0.7490
 103   0.0000      -0.011933        -0.3247
 104   0.0000       0.000931         0.0253
 105   0.0000       0.003983         0.1084

MULLIKEN ATOMIC CHARGES
-----------------------
   0 C :   -0.470582
   1 C :   -0.155831
   2 O :   -0.328203
   3 P :    0.717976
   4 S :   -0.533763
   5 O :   -0.247690
   6 C :   -0.142665
   7 C :   -0.493505
   8 S :   -0.131396
   9 C :   -0.267090
  10 S :   -0.123787
  11 P :    0.708909
  12 S :   -0.525670
  13 O :   -0.289002
  14 C :   -0.127071
  15 C :   -0.500237
  16 O :   -0.319199
  17 C :   -0.134674
  18 C :   -0.488664
  19 H :    0.164591
  20 H :    0.170626
  21 H :    0.168810
  22 H :    0.173234
  23 H :    0.173460
  24 H :    0.172513
  25 H :    0.170724
  26 H :    0.167460
  27 H :    0.167582
  28 H :    0.168062
  29 H :    0.226400
  30 H :    0.233922
  31 H :    0.168220
  32 H :    0.175402
  33 H :    0.168108
  34 H :    0.167511
  35 H :    0.173323
  36 H :    0.169993
  37 H :    0.171317
  38 H :    0.166214
  39 H :    0.169238
  40 H :    0.165434
Sum of atomic charges:   -0.0000000

LOEWDIN ATOMIC CHARGES
----------------------
   0 C :   -0.407219
   1 C :    0.022336
   2 O :   -0.682383
   3 P :    0.374860
   4 S :   -0.158085
   5 O :   -0.703978
   6 C :    0.031683
   7 C :   -0.391028
   8 S :    0.187724
   9 C :   -0.393123
  10 S :    0.194485
  11 P :    0.367913
  12 S :   -0.164521
  13 O :   -0.685187
  14 C :    0.030985
  15 C :   -0.410715
  16 O :   -0.679062
  17 C :    0.023123
  18 C :   -0.391784
  19 H :    0.160982
  20 H :    0.167506
  21 H :    0.162837
  22 H :    0.180441
  23 H :    0.189721
  24 H :    0.180246
  25 H :    0.181096
  26 H :    0.163248
  27 H :    0.167227
  28 H :    0.163957
  29 H :    0.201726
  30 H :    0.199472
  31 H :    0.180893
  32 H :    0.188978
  33 H :    0.165322
  34 H :    0.162347
  35 H :    0.162984
  36 H :    0.181792
  37 H :    0.179970
  38 H :    0.161893
  39 H :    0.168503
  40 H :    0.162834

  Mayer bond orders larger than 0.100000
B(  0-C ,  1-C ) :   0.9219 B(  0-C , 19-H ) :   0.9620 B(  0-C , 20-H ) :   0.9558
B(  0-C , 21-H ) :   0.9671 B(  1-C ,  2-O ) :   0.8029 B(  1-C , 22-H ) :   0.9607
B(  1-C , 23-H ) :   0.9499 B(  2-O ,  3-P ) :   1.0402 B(  3-P ,  4-S ) :   1.7404
B(  3-P ,  5-O ) :   1.1572 B(  3-P ,  8-S ) :   1.0693 B(  5-O ,  6-C ) :   0.7798
B(  6-C ,  7-C ) :   0.9471 B(  6-C , 24-H ) :   0.9369 B(  6-C , 25-H ) :   0.9474
B(  7-C , 26-H ) :   0.9666 B(  7-C , 27-H ) :   0.9565 B(  7-C , 28-H ) :   0.9706
B(  8-S ,  9-C ) :   0.9104 B(  9-C , 10-S ) :   0.9005 B(  9-C , 29-H ) :   0.9100
B(  9-C , 30-H ) :   0.9060 B( 10-S , 11-P ) :   1.1207 B( 11-P , 12-S ) :   1.7085
B( 11-P , 13-O ) :   1.1588 B( 11-P , 16-O ) :   1.0780 B( 13-O , 14-C ) :   0.7482
B( 14-C , 15-C ) :   0.9309 B( 14-C , 31-H ) :   0.9619 B( 14-C , 32-H ) :   0.9518
B( 15-C , 33-H ) :   0.9587 B( 15-C , 34-H ) :   0.9626 B( 15-C , 35-H ) :   0.9654
B( 16-O , 17-C ) :   0.7615 B( 17-C , 18-C ) :   0.9568 B( 17-C , 36-H ) :   0.9491
B( 17-C , 37-H ) :   0.9385 B( 18-C , 38-H ) :   0.9695 B( 18-C , 39-H ) :   0.9594
B( 18-C , 40-H ) :   0.9691

Dispersion correction           -0.021923300
FINAL SINGLE POINT ENERGY     -2932.468125828819

DIPOLE MOMENT
-------------

Method             : SCF
Type of density    : Electron Density
Multiplicity       :   1
Irrep              :   0
Energy             : -2932.4925918047792948 Eh
Relativity type    :
Basis              : AO
                                X                 Y                 Z
Electronic contribution:      3.705629208       0.621980247      -7.716076034
Nuclear contribution   :     -3.346002364      -2.551212477       8.434413496
                        -----------------------------------------
Total Dipole Moment    :      0.359626843      -1.929232230       0.718337462
                        -----------------------------------------
Magnitude (a.u.)       :      2.089803143
Magnitude (Debye)      :      5.311857448

Rotational constants in cm-1:             0.013084             0.005045             0.004910
Rotational constants in MHz :           392.242839           151.238787           147.207664

                             ****ORCA TERMINATED NORMALLY****
TOTAL RUN TIME: 0 days 0 hours 1 minutes 52 seconds 298 msec
