                         Program Version 6.0.0  -   RELEASE  -
|  1> ! pbe def2-sv(p) def2/J RI DEFGRID1 loosescf d4 GCP(DFT/SV(P)) printgap
|  2> %output
|  3>     printlevel normal
|  4> end
|  5> * xyz 0 1
|  6> C 3.4571803797 2.3889524307 -1.6003446658
|  7> C 4.2450740473 1.7816248727 -0.4573873524
|  8> O 3.8731305684 0.4131227122 -0.2254893445
|  9> P 2.466545727 0.0094695566 0.3978157016
| 10> S 1.9060575993 1.1814935278 1.872414467
| 11> O 2.7240537963 -1.5070863422 0.7697165554
| 12> C 2.8629894083 -1.9822594429 2.1275347115
| 13> C 1.6255790315 -2.7538686986 2.5418569446
| 14> S 1.2291065146 -0.2274791108 -1.3063089733
| 15> C 0.0216494431 -1.392677456 -0.6124301393
| 16> S -1.0108529413 -0.6875056782 0.7004609565
| 17> P -2.5907735818 0.0941493308 -0.4993299684
| 18> S -2.7483538883 -0.7060379259 -2.287977539
| 19> O -2.46871066 1.6726687943 -0.4626832999
| 20> C -1.5024305691 2.4001275981 -1.2472815824
| 21> C -0.5777377278 3.1769131159 -0.3311733638
| 22> O -3.8640207985 0.0145579772 0.4284338434
| 23> C -4.7311851374 -1.135790454 0.4354994547
| 24> C -4.0569077193 -2.3628417686 1.0158436227
| 25> H 3.8190549338 3.3930573438 -1.796439683
| 26> H 3.5632577672 1.7831799588 -2.4965946846
| 27> H 2.4012668204 2.4363253383 -1.3354167511
| 28> H 4.0830348585 2.3461049858 0.4670519837
| 29> H 5.3114559174 1.7325592251 -0.6810451958
| 30> H 3.7500464437 -2.6171599531 2.1192310529
| 31> H 3.0262503046 -1.1278945219 2.7913732557
| 32> H 0.7525549968 -2.1026573998 2.5186669808
| 33> H 1.4605974525 -3.5948186544 1.8738072473
| 34> H 1.7616329326 -3.1247011413 3.5525761874
| 35> H 0.5484459261 -2.2443663168 -0.1920686523
| 36> H -0.6181470302 -1.6907383669 -1.4465388891
| 37> H -0.9452203489 1.707021037 -1.8877177199
| 38> H -2.0832025333 3.0757297486 -1.8794059519
| 39> H -1.1591263943 3.8271379535 0.3158962619
| 40> H 0.0041653736 2.5050097905 0.2967669497
| 41> H 0.0974525505 3.7784789635 -0.9315445191
| 42> H -5.578468032 -0.8164064166 1.0438806888
| 43> H -5.0621019016 -1.3269910235 -0.5903102989
| 44> H -3.6285384527 -2.1335187508 1.9883856642
| 45> H -4.7898334055 -3.1562176301 1.1224693714
| 46> H -3.263635427 -2.702214297 0.3512381432
| 47> *
| 48>
| 49>                          ****END OF INPUT****

CARTESIAN COORDINATES (ANGSTROEM)
---------------------------------
  C      3.457180    2.388952   -1.600345
  C      4.245074    1.781625   -0.457387
  O      3.873131    0.413123   -0.225489
  P      2.466546    0.009470    0.397816
  S      1.906058    1.181494    1.872414
  O      2.724054   -1.507086    0.769717
  C      2.862989   -1.982259    2.127535
  C      1.625579   -2.753869    2.541857
  S      1.229107   -0.227479   -1.306309
  C      0.021649   -1.392677   -0.612430
  S     -1.010853   -0.687506    0.700461
  P     -2.590774    0.094149   -0.499330
  S     -2.748354   -0.706038   -2.287978
  O     -2.468711    1.672669   -0.462683
  C     -1.502431    2.400128   -1.247282
  C     -0.577738    3.176913   -0.331173
  O     -3.864021    0.014558    0.428434
  C     -4.731185   -1.135790    0.435499
  C     -4.056908   -2.362842    1.015844
  H      3.819055    3.393057   -1.796440
  H      3.563258    1.783180   -2.496595
  H      2.401267    2.436325   -1.335417
  H      4.083035    2.346105    0.467052
  H      5.311456    1.732559   -0.681045
  H      3.750046   -2.617160    2.119231
  H      3.026250   -1.127895    2.791373
  H      0.752555   -2.102657    2.518667
  H      1.460597   -3.594819    1.873807
  H      1.761633   -3.124701    3.552576
  H      0.548446   -2.244366   -0.192069
  H     -0.618147   -1.690738   -1.446539
  H     -0.945220    1.707021   -1.887718
  H     -2.083203    3.075730   -1.879406
  H     -1.159126    3.827138    0.315896
  H      0.004165    2.505010    0.296767
  H      0.097453    3.778479   -0.931545
  H     -5.578468   -0.816406    1.043881
  H     -5.062102   -1.326991   -0.590310
  H     -3.628538   -2.133519    1.988386
  H     -4.789833   -3.156218    1.122469
  H     -3.263635   -2.702214    0.351238

 Total Charge           Charge          ....    0
 Multiplicity           Mult            ....    1
 Number of Electrons    NEL             ....  202
 Basis Dimension        Dim             ....  334

ORBITAL ENERGIES
----------------

  NO   OCC          E(Eh)            E(eV)
   0   2.0000     -88.046157     -2395.8577
   1   2.0000     -88.043628     -2395.7889
   2   2.0000     -87.991718     -2394.3764
   3   2.0000     -87.991424     -2394.3684
   4   2.0000     -76.431002     -2079.7933
   5   2.0000     -76.427119     -2079.6876
   6   2.0000     -18.798817      -511.5418
   7   2.0000     -18.793693      -511.4024
   8   2.0000     -18.792452      -511.3686
   9   2.0000     -18.784539      -511.1533
  10   2.0000      -9.957755      -270.9643
  11   2.0000      -9.956638      -270.9339
  12   2.0000      -9.954991      -270.8891
  13   2.0000      -9.954116      -270.8653
  14   2.0000      -9.945355      -270.6269
  15   2.0000      -9.891392      -269.1585
  16   2.0000      -9.889991      -269.1203
  17   2.0000      -9.885043      -268.9857
  18   2.0000      -9.871930      -268.6289
  19   2.0000      -7.691148      -209.2868
  20   2.0000      -7.688191      -209.2063
  21   2.0000      -7.636349      -207.7956
  22   2.0000      -7.636282      -207.7938
  23   2.0000      -6.428638      -174.9321
  24   2.0000      -6.424613      -174.8226
  25   2.0000      -5.719093      -155.6244
  26   2.0000      -5.716015      -155.5407
  27   2.0000      -5.715703      -155.5322
  28   2.0000      -5.712704      -155.4506
  29   2.0000      -5.708023      -155.3232
  30   2.0000      -5.705278      -155.2485
  31   2.0000      -5.665070      -154.1544
  32   2.0000      -5.665036      -154.1535
  33   2.0000      -5.657114      -153.9379
  34   2.0000      -5.656978      -153.9342
  35   2.0000      -5.656591      -153.9237
  36   2.0000      -5.656584      -153.9235
  37   2.0000      -4.651229      -126.5664
  38   2.0000      -4.650441      -126.5449
  39   2.0000      -4.649003      -126.5058
  40   2.0000      -4.646855      -126.4473
  41   2.0000      -4.646475      -126.4370
  42   2.0000      -4.645217      -126.4028
  43   2.0000      -0.991318       -26.9751
  44   2.0000      -0.988082       -26.8871
  45   2.0000      -0.951080       -25.8802
  46   2.0000      -0.942492       -25.6465
  47   2.0000      -0.764492       -20.8029
  48   2.0000      -0.724160       -19.7054
  49   2.0000      -0.711963       -19.3735
  50   2.0000      -0.691058       -18.8046
  51   2.0000      -0.682851       -18.5813
  52   2.0000      -0.675346       -18.3771
  53   2.0000      -0.655016       -17.8239
  54   2.0000      -0.640113       -17.4184
  55   2.0000      -0.604765       -16.4565
  56   2.0000      -0.597360       -16.2550
  57   2.0000      -0.578020       -15.7287
  58   2.0000      -0.562747       -15.3131
  59   2.0000      -0.560282       -15.2460
  60   2.0000      -0.504653       -13.7323
  61   2.0000      -0.497826       -13.5465
  62   2.0000      -0.476077       -12.9547
  63   2.0000      -0.470732       -12.8093
  64   2.0000      -0.463558       -12.6141
  65   2.0000      -0.445724       -12.1288
  66   2.0000      -0.442310       -12.0359
  67   2.0000      -0.435680       -11.8555
  68   2.0000      -0.427356       -11.6290
  69   2.0000      -0.419998       -11.4287
  70   2.0000      -0.414018       -11.2660
  71   2.0000      -0.397392       -10.8136
  72   2.0000      -0.392910       -10.6916
  73   2.0000      -0.392031       -10.6677
  74   2.0000      -0.383526       -10.4363
  75   2.0000      -0.379390       -10.3237
  76   2.0000      -0.367927       -10.0118
  77   2.0000      -0.361854        -9.8465
  78   2.0000      -0.358936        -9.7672
  79   2.0000      -0.354437        -9.6447
  80   2.0000      -0.348114        -9.4727
  81   2.0000      -0.345746        -9.4082
  82   2.0000      -0.341701        -9.2981
  83   2.0000      -0.337390        -9.1808
  84   2.0000      -0.329362        -8.9624
  85   2.0000      -0.324896        -8.8409
  86   2.0000      -0.308250        -8.3879
  87   2.0000      -0.301836        -8.2134
  88   2.0000      -0.296623        -8.0715
  89   2.0000      -0.290601        -7.9077
  90   2.0000      -0.287796        -7.8313
  91   2.0000      -0.277334        -7.5466
  92   2.0000      -0.268878        -7.3165
  93   2.0000      -0.266222        -7.2443
  94   2.0000      -0.259957        -7.0738
  95   2.0000      -0.242316        -6.5938
  96   2.0000      -0.221049        -6.0151
  97   2.0000      -0.212139        -5.7726
  98   2.0000      -0.211740        -5.7617
  99   2.0000      -0.202999        -5.5239
 100   2.0000      -0.198959        -5.4140
 101   0.0000      -0.049946        -1.3591
 102   0.0000      -0.030347        -0.8258
 103   0.0000      -0.018620        -0.5067
 104   0.0000      -0.005767        -0.1569
 105   0.0000       0.007734         0.2105

MULLIKEN ATOMIC CHARGES
-----------------------
   0 C :   -0.343893
   1 C :   -0.001006
   2 O :   -0.363555
   3 P :    0.603245
   4 S :   -0.310619
   5 O :   -0.373881
   6 C :   -0.005267
   7 C :   -0.315822
   8 S :   -0.086794
   9 C :   -0.373464
  10 S :   -0.086507
  11 P :    0.599379
  12 S :   -0.331910
  13 O :   -0.354005
  14 C :   -0.011484
  15 C :   -0.309096
  16 O :   -0.356742
  17 C :   -0.000228
  18 C :   -0.313553
  19 H :    0.117609
  20 H :    0.124299
  21 H :    0.141141
  22 H :    0.111486
  23 H :    0.108263
  24 H :    0.110060
  25 H :    0.113673
  26 H :    0.132848
  27 H :    0.121517
  28 H :    0.116452
  29 H :    0.197201
  30 H :    0.194387
  31 H :    0.103500
  32 H :    0.104991
  33 H :    0.111421
  34 H :    0.141005
  35 H :    0.108840
  36 H :    0.109359
  37 H :    0.113578
  38 H :    0.119784
  39 H :    0.112978
  40 H :    0.120811
Sum of atomic charges:   -0.0000000

LOEWDIN ATOMIC CHARGES
----------------------
   0 C :   -0.371376
   1 C :   -0.120009
   2 O :   -0.242902
   3 P :    0.567949
   4 S :   -0.301666
   5 O :   -0.242034
   6 C :   -0.116378
   7 C :   -0.361639
   8 S :    0.092990
   9 C :   -0.487395
  10 S :    0.088184
  11 P :    0.574033
  12 S :   -0.317273
  13 O :   -0.236890
  14 C :   -0.116822
  15 C :   -0.366798
  16 O :   -0.231914
  17 C :   -0.114964
  18 C :   -0.369605
  19 H :    0.133481
  20 H :    0.127454
  21 H :    0.121767
  22 H :    0.109553
  23 H :    0.120251
  24 H :    0.120093
  25 H :    0.109435
  26 H :    0.121915
  27 H :    0.124501
  28 H :    0.133877
  29 H :    0.132481
  30 H :    0.126949
  31 H :    0.098424
  32 H :    0.117189
  33 H :    0.126057
  34 H :    0.117476
  35 H :    0.125428
  36 H :    0.120950
  37 H :    0.112336
  38 H :    0.125107
  39 H :    0.130786
  40 H :    0.118999

  Mayer bond orders larger than 0.100000
B(  0-C ,  1-C ) :   1.1613 B(  0-C , 19-H ) :   0.9384 B(  0-C , 20-H ) :   0.9431
B(  0-C , 21-H ) :   0.9278 B(  1-C ,  2-O ) :   0.9118 B(  1-C , 22-H ) :   0.9125
B(  1-C , 23-H ) :   0.9327 B(  2-O ,  3-P ) :   1.1180 B(  3-P ,  4-S ) :   1.6131
B(  3-P ,  5-O ) :   1.1157 B(  3-P ,  8-S ) :   0.9622 B(  4-S ,  8-S ) :   0.1062
B(  5-O ,  6-C ) :   0.8943 B(  6-C ,  7-C ) :   1.1703 B(  6-C , 24-H ) :   0.9314
B(  6-C , 25-H ) :   0.9044 B(  7-C , 26-H ) :   0.9350 B(  7-C , 27-H ) :   0.9418
B(  7-C , 28-H ) :   0.9377 B(  8-S ,  9-C ) :   0.9978 B(  9-C , 10-S ) :   1.0190
B(  9-C , 29-H ) :   0.8865 B(  9-C , 30-H ) :   0.8549 B( 10-S , 11-P ) :   0.9337
B( 10-S , 12-S ) :   0.1207 B( 11-P , 12-S ) :   1.5873 B( 11-P , 13-O ) :   1.1416
B( 11-P , 16-O ) :   1.1397 B( 12-S , 30-H ) :   0.1137 B( 13-O , 14-C ) :   0.8990
B( 14-C , 15-C ) :   1.1681 B( 14-C , 31-H ) :   0.9007 B( 14-C , 32-H ) :   0.9345
B( 15-C , 33-H ) :   0.9435 B( 15-C , 34-H ) :   0.9194 B( 15-C , 35-H ) :   0.9327
B( 16-O , 17-C ) :   0.9089 B( 17-C , 18-C ) :   1.1649 B( 17-C , 36-H ) :   0.9344
B( 17-C , 37-H ) :   0.9184 B( 18-C , 38-H ) :   0.9438 B( 18-C , 39-H ) :   0.9374
B( 18-C , 40-H ) :   0.9376

Dispersion correction           -0.065604044
FINAL SINGLE POINT ENERGY     -2929.523277071952

DIPOLE MOMENT
-------------

Method             : SCF
Type of density    : Electron Density
Multiplicity       :   1
Irrep              :   0
Energy             : -2929.6420134455602238 Eh
Relativity type    :
Basis              : AO
                                X                 Y                 Z
Electronic contribution:     -2.756611455      -0.331332566      -4.610818618
Nuclear contribution   :      3.370556337      -0.120872726       5.010314755
                        -----------------------------------------
Total Dipole Moment    :      0.613944882      -0.452205292       0.399496137
                        -----------------------------------------
Magnitude (a.u.)       :      0.860822344
Magnitude (Debye)      :      2.188036512

Rotational constants in cm-1:             0.011817             0.005226             0.004415
Rotational constants in MHz :           354.270936           156.683393           132.344763

                             ****ORCA TERMINATED NORMALLY****
TOTAL RUN TIME: 0 days 0 hours 0 minutes 20 seconds 981 msec
