                         Program Version 6.0.0  -   RELEASE  -
|  1> ! pbe def2-sv(p) def2/J RI DEFGRID1 loosescf d4 GCP(DFT/SV(P)) printgap
|  2> %output
|  3>     printlevel normal
|  4> end
|  5> * xyz 0 1
|  6> C 5.5310089587 -0.0649331832 0.6101152661
|  7> C 4.4464933453 -1.0778239884 0.3062410062
|  8> O 3.7033388047 -0.7037736858 -0.8810805173
|  9> P 2.3539261817 0.1078796826 -0.8600001637
| 10> S 1.6746602787 0.3651870649 -2.6739805704
| 11> O 2.7636311426 1.4205098922 -0.061917545
| 12> C 1.9052175369 2.5662227642 0.0889304913
| 13> C 1.2540571234 2.5781234674 1.4578726557
| 14> S 1.1045819014 -0.9799785397 0.4870278182
| 15> C -0.0101201789 -1.7567766035 -0.7286349297
| 16> S -1.6641321803 -1.9953444592 -0.0569684158
| 17> P -2.1167687978 0.0539090657 0.3478426003
| 18> S -1.4627198554 1.3836375218 -0.9294043834
| 19> O -1.5604025588 0.3167138636 1.7984991328
| 20> C -1.8851774025 -0.494602056 2.9555541004
| 21> C -3.0224177173 0.1229650546 3.7425792831
| 22> O -3.6904509577 0.035129021 0.5750976489
| 23> C -4.635790713 0.1983942982 -0.4962663346
| 24> C -4.5965203288 -0.9499434689 -1.4836226979
| 25> H 5.0922861118 0.9008850828 0.844970537
| 26> H 6.111992346 -0.4121173456 1.4588422952
| 27> H 6.1844981919 0.0486029819 -0.2504679601
| 28> H 3.748475512 -1.1777670059 1.1425222378
| 29> H 4.8711785425 -2.0526650815 0.0602410441
| 30> H 2.5650115689 3.4261139092 -0.0419992513
| 31> H 1.1540723964 2.5652792748 -0.7077231671
| 32> H 0.5482338384 1.7558738798 1.5547403076
| 33> H 2.0101562438 2.4913344725 2.2328513359
| 34> H 0.7141634673 3.5116437719 1.5805399217
| 35> H 0.3625674503 -2.7460023973 -0.9830673019
| 36> H -0.0517006531 -1.1104098068 -1.6104933937
| 37> H -2.1357485666 -1.5049173919 2.6210015839
| 38> H -0.9611472568 -0.5179202216 3.5361197763
| 39> H -3.9314711217 0.1326205644 3.1475704422
| 40> H -3.1885121319 -0.4623717735 4.6415015446
| 41> H -2.7731546557 1.1435346981 4.019435215
| 42> H -5.5985973737 0.2565018833 0.0134808598
| 43> H -4.4244674517 1.1464454413 -1.000502511
| 44> H -3.6585073876 -0.9355558116 -2.0370512831
| 45> H -4.6831820627 -1.9007982664 -0.9637410116
| 46> H -5.4170844921 -0.8457841934 -2.1863087449
| 47> *
| 48>
| 49>                          ****END OF INPUT****

CARTESIAN COORDINATES (ANGSTROEM)
---------------------------------
  C      5.531009   -0.064933    0.610115
  C      4.446493   -1.077824    0.306241
  O      3.703339   -0.703774   -0.881081
  P      2.353926    0.107880   -0.860000
  S      1.674660    0.365187   -2.673981
  O      2.763631    1.420510   -0.061918
  C      1.905218    2.566223    0.088930
  C      1.254057    2.578123    1.457873
  S      1.104582   -0.979979    0.487028
  C     -0.010120   -1.756777   -0.728635
  S     -1.664132   -1.995344   -0.056968
  P     -2.116769    0.053909    0.347843
  S     -1.462720    1.383638   -0.929404
  O     -1.560403    0.316714    1.798499
  C     -1.885177   -0.494602    2.955554
  C     -3.022418    0.122965    3.742579
  O     -3.690451    0.035129    0.575098
  C     -4.635791    0.198394   -0.496266
  C     -4.596520   -0.949943   -1.483623
  H      5.092286    0.900885    0.844971
  H      6.111992   -0.412117    1.458842
  H      6.184498    0.048603   -0.250468
  H      3.748476   -1.177767    1.142522
  H      4.871179   -2.052665    0.060241
  H      2.565012    3.426114   -0.041999
  H      1.154072    2.565279   -0.707723
  H      0.548234    1.755874    1.554740
  H      2.010156    2.491334    2.232851
  H      0.714163    3.511644    1.580540
  H      0.362567   -2.746002   -0.983067
  H     -0.051701   -1.110410   -1.610493
  H     -2.135749   -1.504917    2.621002
  H     -0.961147   -0.517920    3.536120
  H     -3.931471    0.132621    3.147570
  H     -3.188512   -0.462372    4.641502
  H     -2.773155    1.143535    4.019435
  H     -5.598597    0.256502    0.013481
  H     -4.424467    1.146445   -1.000503
  H     -3.658507   -0.935556   -2.037051
  H     -4.683182   -1.900798   -0.963741
  H     -5.417084   -0.845784   -2.186309

 Total Charge           Charge          ....    0
 Multiplicity           Mult            ....    1
 Number of Electrons    NEL             ....  202
 Basis Dimension        Dim             ....  334

ORBITAL ENERGIES
----------------

  NO   OCC          E(Eh)            E(eV)
   0   2.0000     -88.047398     -2395.8915
   1   2.0000     -88.038235     -2395.6422
   2   2.0000     -87.985730     -2394.2134
   3   2.0000     -87.977938     -2394.0014
   4   2.0000     -76.428737     -2079.7317
   5   2.0000     -76.419892     -2079.4910
   6   2.0000     -18.797450      -511.5046
   7   2.0000     -18.794567      -511.4262
   8   2.0000     -18.787817      -511.2425
   9   2.0000     -18.785686      -511.1845
  10   2.0000      -9.958035      -270.9719
  11   2.0000      -9.956330      -270.9255
  12   2.0000      -9.953641      -270.8523
  13   2.0000      -9.951647      -270.7981
  14   2.0000      -9.941554      -270.5234
  15   2.0000      -9.888920      -269.0912
  16   2.0000      -9.886250      -269.0185
  17   2.0000      -9.883515      -268.9441
  18   2.0000      -9.871600      -268.6199
  19   2.0000      -7.692188      -209.3151
  20   2.0000      -7.682780      -209.0591
  21   2.0000      -7.630591      -207.6389
  22   2.0000      -7.623273      -207.4398
  23   2.0000      -6.425944      -174.8588
  24   2.0000      -6.417545      -174.6303
  25   2.0000      -5.720048      -155.6504
  26   2.0000      -5.716581      -155.5561
  27   2.0000      -5.710584      -155.3929
  28   2.0000      -5.709352      -155.3594
  29   2.0000      -5.707391      -155.3060
  30   2.0000      -5.699796      -155.0993
  31   2.0000      -5.659655      -154.0070
  32   2.0000      -5.652287      -153.8066
  33   2.0000      -5.650933      -153.7697
  34   2.0000      -5.650882      -153.7683
  35   2.0000      -5.643756      -153.5744
  36   2.0000      -5.643401      -153.5647
  37   2.0000      -4.648813      -126.5006
  38   2.0000      -4.647722      -126.4709
  39   2.0000      -4.646162      -126.4285
  40   2.0000      -4.640327      -126.2697
  41   2.0000      -4.639283      -126.2413
  42   2.0000      -4.637820      -126.2015
  43   2.0000      -0.991705       -26.9857
  44   2.0000      -0.982343       -26.7309
  45   2.0000      -0.949248       -25.8303
  46   2.0000      -0.939201       -25.5570
  47   2.0000      -0.761709       -20.7272
  48   2.0000      -0.720151       -19.5963
  49   2.0000      -0.710266       -19.3273
  50   2.0000      -0.693120       -18.8608
  51   2.0000      -0.683153       -18.5895
  52   2.0000      -0.674073       -18.3425
  53   2.0000      -0.649822       -17.6826
  54   2.0000      -0.632074       -17.1996
  55   2.0000      -0.597198       -16.2506
  56   2.0000      -0.585858       -15.9420
  57   2.0000      -0.578701       -15.7472
  58   2.0000      -0.569169       -15.4879
  59   2.0000      -0.558272       -15.1913
  60   2.0000      -0.504238       -13.7210
  61   2.0000      -0.495925       -13.4948
  62   2.0000      -0.477548       -12.9947
  63   2.0000      -0.473670       -12.8892
  64   2.0000      -0.451924       -12.2975
  65   2.0000      -0.443981       -12.0813
  66   2.0000      -0.441971       -12.0266
  67   2.0000      -0.438395       -11.9293
  68   2.0000      -0.431521       -11.7423
  69   2.0000      -0.416617       -11.3367
  70   2.0000      -0.412789       -11.2326
  71   2.0000      -0.395663       -10.7665
  72   2.0000      -0.387362       -10.5407
  73   2.0000      -0.381567       -10.3830
  74   2.0000      -0.380708       -10.3596
  75   2.0000      -0.369161       -10.0454
  76   2.0000      -0.364087        -9.9073
  77   2.0000      -0.357434        -9.7263
  78   2.0000      -0.354889        -9.6570
  79   2.0000      -0.352986        -9.6052
  80   2.0000      -0.348671        -9.4878
  81   2.0000      -0.346911        -9.4399
  82   2.0000      -0.339892        -9.2489
  83   2.0000      -0.339203        -9.2302
  84   2.0000      -0.325740        -8.8638
  85   2.0000      -0.318474        -8.6661
  86   2.0000      -0.312619        -8.5068
  87   2.0000      -0.299959        -8.1623
  88   2.0000      -0.295247        -8.0341
  89   2.0000      -0.288203        -7.8424
  90   2.0000      -0.282454        -7.6860
  91   2.0000      -0.275853        -7.5063
  92   2.0000      -0.269618        -7.3367
  93   2.0000      -0.265630        -7.2281
  94   2.0000      -0.255451        -6.9512
  95   2.0000      -0.233167        -6.3448
  96   2.0000      -0.222014        -6.0413
  97   2.0000      -0.208610        -5.6766
  98   2.0000      -0.201791        -5.4910
  99   2.0000      -0.194702        -5.2981
 100   2.0000      -0.187236        -5.0949
 101   0.0000      -0.043627        -1.1872
 102   0.0000      -0.030402        -0.8273
 103   0.0000      -0.010975        -0.2986
 104   0.0000       0.009025         0.2456
 105   0.0000       0.015954         0.4341

MULLIKEN ATOMIC CHARGES
-----------------------
   0 C :   -0.289559
   1 C :   -0.013072
   2 O :   -0.356347
   3 P :    0.612308
   4 S :   -0.294553
   5 O :   -0.383062
   6 C :   -0.009456
   7 C :   -0.316506
   8 S :   -0.138339
   9 C :   -0.342889
  10 S :   -0.107131
  11 P :    0.599340
  12 S :   -0.296860
  13 O :   -0.346950
  14 C :   -0.010045
  15 C :   -0.289894
  16 O :   -0.379892
  17 C :    0.000335
  18 C :   -0.322032
  19 H :    0.123716
  20 H :    0.106991
  21 H :    0.119798
  22 H :    0.101055
  23 H :    0.108146
  24 H :    0.101131
  25 H :    0.124377
  26 H :    0.149987
  27 H :    0.099173
  28 H :    0.106806
  29 H :    0.180661
  30 H :    0.212064
  31 H :    0.102879
  32 H :    0.109199
  33 H :    0.122251
  34 H :    0.109985
  35 H :    0.119337
  36 H :    0.104858
  37 H :    0.114586
  38 H :    0.134497
  39 H :    0.117194
  40 H :    0.115914
Sum of atomic charges:   -0.0000000

LOEWDIN ATOMIC CHARGES
----------------------
   0 C :   -0.360267
   1 C :   -0.114750
   2 O :   -0.239678
   3 P :    0.567411
   4 S :   -0.289302
   5 O :   -0.244610
   6 C :   -0.117064
   7 C :   -0.368481
   8 S :    0.053252
   9 C :   -0.480790
  10 S :    0.079246
  11 P :    0.567964
  12 S :   -0.290694
  13 O :   -0.229330
  14 C :   -0.116234
  15 C :   -0.359418
  16 O :   -0.247776
  17 C :   -0.116638
  18 C :   -0.371343
  19 H :    0.126322
  20 H :    0.128038
  21 H :    0.129005
  22 H :    0.101344
  23 H :    0.120504
  24 H :    0.116053
  25 H :    0.109304
  26 H :    0.122505
  27 H :    0.118069
  28 H :    0.130071
  29 H :    0.134592
  30 H :    0.123436
  31 H :    0.102973
  32 H :    0.119953
  33 H :    0.126374
  34 H :    0.129643
  35 H :    0.128568
  36 H :    0.118343
  37 H :    0.114043
  38 H :    0.123982
  39 H :    0.122826
  40 H :    0.132553

  Mayer bond orders larger than 0.100000
B(  0-C ,  1-C ) :   1.1627 B(  0-C , 19-H ) :   0.9407 B(  0-C , 20-H ) :   0.9396
B(  0-C , 21-H ) :   0.9470 B(  1-C ,  2-O ) :   0.9000 B(  1-C , 22-H ) :   0.9125
B(  1-C , 23-H ) :   0.9369 B(  2-O ,  3-P ) :   1.1351 B(  3-P ,  4-S ) :   1.6645
B(  3-P ,  5-O ) :   1.0950 B(  3-P ,  8-S ) :   0.9360 B(  4-S ,  8-S ) :   0.1181
B(  4-S , 30-H ) :   0.1010 B(  5-O ,  6-C ) :   0.8919 B(  6-C ,  7-C ) :   1.1722
B(  6-C , 24-H ) :   0.9350 B(  6-C , 25-H ) :   0.9018 B(  7-C , 26-H ) :   0.9234
B(  7-C , 27-H ) :   0.9470 B(  7-C , 28-H ) :   0.9399 B(  8-S ,  9-C ) :   0.9889
B(  9-C , 10-S ) :   1.0045 B(  9-C , 29-H ) :   0.9099 B(  9-C , 30-H ) :   0.8438
B( 10-S , 11-P ) :   0.9387 B( 10-S , 12-S ) :   0.1090 B( 11-P , 12-S ) :   1.6512
B( 11-P , 13-O ) :   1.1207 B( 11-P , 16-O ) :   1.0838 B( 13-O , 14-C ) :   0.8908
B( 14-C , 15-C ) :   1.1647 B( 14-C , 31-H ) :   0.9105 B( 14-C , 32-H ) :   0.9345
B( 15-C , 33-H ) :   0.9419 B( 15-C , 34-H ) :   0.9399 B( 15-C , 35-H ) :   0.9474
B( 16-O , 17-C ) :   0.9042 B( 17-C , 18-C ) :   1.1666 B( 17-C , 36-H ) :   0.9340
B( 17-C , 37-H ) :   0.9182 B( 18-C , 38-H ) :   0.9348 B( 18-C , 39-H ) :   0.9433
B( 18-C , 40-H ) :   0.9368

Dispersion correction           -0.065713071
FINAL SINGLE POINT ENERGY     -2929.519190069597

DIPOLE MOMENT
-------------

Method             : SCF
Type of density    : Electron Density
Multiplicity       :   1
Irrep              :   0
Energy             : -2929.6388400401356193 Eh
Relativity type    :
Basis              : AO
                                X                 Y                 Z
Electronic contribution:      2.859054956      -4.002840115     -14.817526208
Nuclear contribution   :     -3.430782114       3.389758318      16.587564809
                        -----------------------------------------
Total Dipole Moment    :     -0.571727157      -0.613081798       1.770038601
                        -----------------------------------------
Magnitude (a.u.)       :      1.958514202
Magnitude (Debye)      :      4.978147483

Rotational constants in cm-1:             0.012961             0.004909             0.004622
Rotational constants in MHz :           388.575022           147.159170           138.562285

                             ****ORCA TERMINATED NORMALLY****
TOTAL RUN TIME: 0 days 0 hours 0 minutes 20 seconds 948 msec
