                         Program Version 6.0.0  -   RELEASE  -
|  1> ! pbe def2-sv(p) def2/J RI DEFGRID1 loosescf d4 GCP(DFT/SV(P)) printgap
|  2> %output
|  3>     printlevel normal
|  4> end
|  5> * xyz 0 1
|  6> C 3.1086986161 1.1540585597 2.9515922458
|  7> C 1.7073438558 0.7148641166 2.5849106977
|  8> O 1.4967933674 0.770714782 1.1566906839
|  9> P 2.2156954461 -0.2416386008 0.1764504501
| 10> S 2.6203917585 -2.0093834754 0.9298847843
| 11> O 3.4361621879 0.6404890802 -0.3286860391
| 12> C 4.3761144955 0.1759807077 -1.3180653092
| 13> C 5.5604453953 -0.5116014598 -0.6661786999
| 14> S 0.9188093289 -0.2403942793 -1.4975331354
| 15> C -0.1542201478 -1.5824345059 -0.9173763624
| 16> S -1.1833419413 -1.1022227209 0.4881014665
| 17> P -2.3787291671 0.3118072742 -0.5839650839
| 18> S -2.7579624487 -0.1251420762 -2.4490650027
| 19> O -1.6186536623 1.6862731572 -0.4377667019
| 20> C -1.3450860291 2.311205445 0.839629785
| 21> C -2.3542561873 3.4041580813 1.1241621726
| 22> O -3.6435835007 0.5169515275 0.3568009307
| 23> C -4.8218921648 -0.3049579927 0.2598372925
| 24> C -4.5556443072 -1.7472680338 0.6380212109
| 25> H 3.2097645409 1.1777486815 4.0320188434
| 26> H 3.831614337 0.4490308631 2.5426101344
| 27> H 3.3126850597 2.1407040139 2.5442970964
| 28> H 0.9503904406 1.386500463 2.9912896045
| 29> H 1.5185314703 -0.3087459206 2.9238792542
| 30> H 3.8647297597 -0.4949143773 -2.014722944
| 31> H 4.6831551693 1.0803776892 -1.8467953581
| 32> H 5.2347343883 -1.4024637644 -0.1337009842
| 33> H 6.2722326394 -0.7993760118 -1.4331440487
| 34> H 6.0428186192 0.1616018405 0.0370007226
| 35> H 0.4578217921 -2.4226620305 -0.5884571618
| 36> H -0.7916092232 -1.8534533666 -1.7588631424
| 37> H -1.3602554303 1.5431962441 1.6184487867
| 38> H -0.3343567948 2.7123276374 0.7382252502
| 39> H -3.3498509724 2.9798661052 1.2226266585
| 40> H -2.0842053188 3.9060527071 2.0480385655
| 41> H -2.3586183022 4.1249758952 0.3111842726
| 42> H -5.5243695214 0.1677385528 0.9477358477
| 43> H -5.2012395541 -0.2401809081 -0.7643676241
| 44> H -3.9115162875 -2.2150530601 -0.1050671437
| 45> H -4.0694609751 -1.8029678572 1.6089119242
| 46> H -5.4969461058 -2.2862341454 0.674173955
| 47> *
| 48>
| 49>                          ****END OF INPUT****

CARTESIAN COORDINATES (ANGSTROEM)
---------------------------------
  C      3.108699    1.154059    2.951592
  C      1.707344    0.714864    2.584911
  O      1.496793    0.770715    1.156691
  P      2.215695   -0.241639    0.176450
  S      2.620392   -2.009383    0.929885
  O      3.436162    0.640489   -0.328686
  C      4.376114    0.175981   -1.318065
  C      5.560445   -0.511601   -0.666179
  S      0.918809   -0.240394   -1.497533
  C     -0.154220   -1.582435   -0.917376
  S     -1.183342   -1.102223    0.488101
  P     -2.378729    0.311807   -0.583965
  S     -2.757962   -0.125142   -2.449065
  O     -1.618654    1.686273   -0.437767
  C     -1.345086    2.311205    0.839630
  C     -2.354256    3.404158    1.124162
  O     -3.643584    0.516952    0.356801
  C     -4.821892   -0.304958    0.259837
  C     -4.555644   -1.747268    0.638021
  H      3.209765    1.177749    4.032019
  H      3.831614    0.449031    2.542610
  H      3.312685    2.140704    2.544297
  H      0.950390    1.386500    2.991290
  H      1.518531   -0.308746    2.923879
  H      3.864730   -0.494914   -2.014723
  H      4.683155    1.080378   -1.846795
  H      5.234734   -1.402464   -0.133701
  H      6.272233   -0.799376   -1.433144
  H      6.042819    0.161602    0.037001
  H      0.457822   -2.422662   -0.588457
  H     -0.791609   -1.853453   -1.758863
  H     -1.360255    1.543196    1.618449
  H     -0.334357    2.712328    0.738225
  H     -3.349851    2.979866    1.222627
  H     -2.084205    3.906053    2.048039
  H     -2.358618    4.124976    0.311184
  H     -5.524370    0.167739    0.947736
  H     -5.201240   -0.240181   -0.764368
  H     -3.911516   -2.215053   -0.105067
  H     -4.069461   -1.802968    1.608912
  H     -5.496946   -2.286234    0.674174

 Total Charge           Charge          ....    0
 Multiplicity           Mult            ....    1
 Number of Electrons    NEL             ....  202
 Basis Dimension        Dim             ....  334

ORBITAL ENERGIES
----------------

  NO   OCC          E(Eh)            E(eV)
   0   2.0000     -88.040898     -2395.7146
   1   2.0000     -88.039985     -2395.6898
   2   2.0000     -87.991435     -2394.3687
   3   2.0000     -87.986338     -2394.2300
   4   2.0000     -76.428763     -2079.7324
   5   2.0000     -76.425816     -2079.6522
   6   2.0000     -18.797071      -511.4943
   7   2.0000     -18.796587      -511.4811
   8   2.0000     -18.794264      -511.4179
   9   2.0000     -18.788189      -511.2526
  10   2.0000      -9.957459      -270.9562
  11   2.0000      -9.955471      -270.9021
  12   2.0000      -9.955057      -270.8909
  13   2.0000      -9.951956      -270.8065
  14   2.0000      -9.950525      -270.7676
  15   2.0000      -9.886879      -269.0357
  16   2.0000      -9.885041      -268.9856
  17   2.0000      -9.884817      -268.9795
  18   2.0000      -9.883452      -268.9424
  19   2.0000      -7.686041      -209.1478
  20   2.0000      -7.684746      -209.1126
  21   2.0000      -7.636336      -207.7953
  22   2.0000      -7.631648      -207.6677
  23   2.0000      -6.426458      -174.8728
  24   2.0000      -6.423293      -174.7867
  25   2.0000      -5.713829      -155.4812
  26   2.0000      -5.712493      -155.4448
  27   2.0000      -5.710641      -155.3944
  28   2.0000      -5.709396      -155.3606
  29   2.0000      -5.702999      -155.1865
  30   2.0000      -5.701757      -155.1527
  31   2.0000      -5.665047      -154.1538
  32   2.0000      -5.660602      -154.0328
  33   2.0000      -5.656942      -153.9332
  34   2.0000      -5.656726      -153.9273
  35   2.0000      -5.652116      -153.8019
  36   2.0000      -5.651879      -153.7955
  37   2.0000      -4.648908      -126.5032
  38   2.0000      -4.648238      -126.4850
  39   2.0000      -4.646982      -126.4508
  40   2.0000      -4.646235      -126.4305
  41   2.0000      -4.644917      -126.3946
  42   2.0000      -4.643567      -126.3579
  43   2.0000      -0.990904       -26.9639
  44   2.0000      -0.988597       -26.9011
  45   2.0000      -0.949677       -25.8420
  46   2.0000      -0.944837       -25.7103
  47   2.0000      -0.763458       -20.7748
  48   2.0000      -0.721372       -19.6295
  49   2.0000      -0.709745       -19.3131
  50   2.0000      -0.690743       -18.7961
  51   2.0000      -0.689386       -18.7591
  52   2.0000      -0.675227       -18.3738
  53   2.0000      -0.652341       -17.7511
  54   2.0000      -0.639225       -17.3942
  55   2.0000      -0.601300       -16.3622
  56   2.0000      -0.594119       -16.1668
  57   2.0000      -0.573850       -15.6153
  58   2.0000      -0.572154       -15.5691
  59   2.0000      -0.561377       -15.2758
  60   2.0000      -0.505356       -13.7514
  61   2.0000      -0.496730       -13.5167
  62   2.0000      -0.478829       -13.0296
  63   2.0000      -0.474769       -12.9191
  64   2.0000      -0.457752       -12.4561
  65   2.0000      -0.449346       -12.2273
  66   2.0000      -0.441828       -12.0228
  67   2.0000      -0.436406       -11.8752
  68   2.0000      -0.426846       -11.6151
  69   2.0000      -0.418122       -11.3777
  70   2.0000      -0.406927       -11.0730
  71   2.0000      -0.397015       -10.8033
  72   2.0000      -0.395107       -10.7514
  73   2.0000      -0.390768       -10.6334
  74   2.0000      -0.378112       -10.2889
  75   2.0000      -0.375656       -10.2221
  76   2.0000      -0.367528       -10.0009
  77   2.0000      -0.360754        -9.8166
  78   2.0000      -0.355426        -9.6716
  79   2.0000      -0.352848        -9.6015
  80   2.0000      -0.348988        -9.4964
  81   2.0000      -0.344626        -9.3777
  82   2.0000      -0.343658        -9.3514
  83   2.0000      -0.340452        -9.2642
  84   2.0000      -0.336587        -9.1590
  85   2.0000      -0.323655        -8.8071
  86   2.0000      -0.311701        -8.4818
  87   2.0000      -0.300264        -8.1706
  88   2.0000      -0.297549        -8.0967
  89   2.0000      -0.294141        -8.0040
  90   2.0000      -0.289830        -7.8867
  91   2.0000      -0.279343        -7.6013
  92   2.0000      -0.269699        -7.3389
  93   2.0000      -0.265479        -7.2240
  94   2.0000      -0.258633        -7.0378
  95   2.0000      -0.233505        -6.3540
  96   2.0000      -0.218148        -5.9361
  97   2.0000      -0.213661        -5.8140
  98   2.0000      -0.205835        -5.6011
  99   2.0000      -0.202322        -5.5055
 100   2.0000      -0.200889        -5.4665
 101   0.0000      -0.043443        -1.1821
 102   0.0000      -0.022976        -0.6252
 103   0.0000      -0.002685        -0.0731
 104   0.0000      -0.000474        -0.0129
 105   0.0000       0.013533         0.3683

MULLIKEN ATOMIC CHARGES
-----------------------
   0 C :   -0.304715
   1 C :   -0.010262
   2 O :   -0.358575
   3 P :    0.609891
   4 S :   -0.338360
   5 O :   -0.370903
   6 C :   -0.012513
   7 C :   -0.297547
   8 S :   -0.060126
   9 C :   -0.374926
  10 S :   -0.090971
  11 P :    0.601907
  12 S :   -0.313910
  13 O :   -0.348373
  14 C :   -0.023229
  15 C :   -0.282159
  16 O :   -0.383819
  17 C :   -0.000161
  18 C :   -0.316478
  19 H :    0.112354
  20 H :    0.126422
  21 H :    0.116221
  22 H :    0.101595
  23 H :    0.116312
  24 H :    0.105543
  25 H :    0.110344
  26 H :    0.131270
  27 H :    0.109583
  28 H :    0.114151
  29 H :    0.193748
  30 H :    0.193415
  31 H :    0.103574
  32 H :    0.118456
  33 H :    0.117889
  34 H :    0.105397
  35 H :    0.119765
  36 H :    0.104466
  37 H :    0.114087
  38 H :    0.128858
  39 H :    0.117662
  40 H :    0.114115
Sum of atomic charges:   -0.0000000

LOEWDIN ATOMIC CHARGES
----------------------
   0 C :   -0.364855
   1 C :   -0.117910
   2 O :   -0.234842
   3 P :    0.571276
   4 S :   -0.319193
   5 O :   -0.244093
   6 C :   -0.115563
   7 C :   -0.364472
   8 S :    0.095562
   9 C :   -0.488298
  10 S :    0.074554
  11 P :    0.573162
  12 S :   -0.308633
  13 O :   -0.231348
  14 C :   -0.115485
  15 C :   -0.358469
  16 O :   -0.248710
  17 C :   -0.115869
  18 C :   -0.370804
  19 H :    0.130802
  20 H :    0.123346
  21 H :    0.126260
  22 H :    0.113870
  23 H :    0.111575
  24 H :    0.108209
  25 H :    0.120378
  26 H :    0.124551
  27 H :    0.129787
  28 H :    0.125251
  29 H :    0.128075
  30 H :    0.128727
  31 H :    0.102290
  32 H :    0.120509
  33 H :    0.125082
  34 H :    0.127442
  35 H :    0.128918
  36 H :    0.118201
  37 H :    0.113772
  38 H :    0.121912
  39 H :    0.123404
  40 H :    0.131628

  Mayer bond orders larger than 0.100000
B(  0-C ,  1-C ) :   1.1654 B(  0-C , 19-H ) :   0.9385 B(  0-C , 20-H ) :   0.9334
B(  0-C , 21-H ) :   0.9461 B(  1-C ,  2-O ) :   0.9011 B(  1-C , 22-H ) :   0.9294
B(  1-C , 23-H ) :   0.9145 B(  2-O ,  3-P ) :   1.1215 B(  3-P ,  4-S ) :   1.5896
B(  3-P ,  5-O ) :   1.1147 B(  3-P ,  8-S ) :   0.9709 B(  4-S ,  8-S ) :   0.1114
B(  5-O ,  6-C ) :   0.9037 B(  6-C ,  7-C ) :   1.1671 B(  6-C , 24-H ) :   0.9157
B(  6-C , 25-H ) :   0.9357 B(  7-C , 26-H ) :   0.9316 B(  7-C , 27-H ) :   0.9392
B(  7-C , 28-H ) :   0.9465 B(  8-S ,  9-C ) :   1.0059 B(  9-C , 10-S ) :   1.0054
B(  9-C , 29-H ) :   0.8732 B(  9-C , 30-H ) :   0.8763 B( 10-S , 11-P ) :   0.9438
B( 10-S , 12-S ) :   0.1093 B( 11-P , 12-S ) :   1.6338 B( 11-P , 13-O ) :   1.1436
B( 11-P , 16-O ) :   1.0794 B( 13-O , 14-C ) :   0.8924 B( 14-C , 15-C ) :   1.1560
B( 14-C , 31-H ) :   0.9115 B( 14-C , 32-H ) :   0.9297 B( 15-C , 33-H ) :   0.9427
B( 15-C , 34-H ) :   0.9408 B( 15-C , 35-H ) :   0.9467 B( 16-O , 17-C ) :   0.9049
B( 17-C , 18-C ) :   1.1667 B( 17-C , 36-H ) :   0.9341 B( 17-C , 37-H ) :   0.9191
B( 18-C , 38-H ) :   0.9346 B( 18-C , 39-H ) :   0.9435 B( 18-C , 40-H ) :   0.9367

Dispersion correction           -0.065617394
FINAL SINGLE POINT ENERGY     -2929.524657536900

DIPOLE MOMENT
-------------

Method             : SCF
Type of density    : Electron Density
Multiplicity       :   1
Irrep              :   0
Energy             : -2929.6444546994916891 Eh
Relativity type    :
Basis              : AO
                                X                 Y                 Z
Electronic contribution:     -4.595564919      -6.936034226     -13.905482413
Nuclear contribution   :      4.745770306       7.600680034      15.079468383
                        -----------------------------------------
Total Dipole Moment    :      0.150205387       0.664645807       1.173985970
                        -----------------------------------------
Magnitude (a.u.)       :      1.357408843
Magnitude (Debye)      :      3.450259081

Rotational constants in cm-1:             0.013421             0.004719             0.004409
Rotational constants in MHz :           402.341632           141.463690           132.191340

                             ****ORCA TERMINATED NORMALLY****
TOTAL RUN TIME: 0 days 0 hours 0 minutes 21 seconds 64 msec
