                         Program Version 6.0.0  -   RELEASE  -
|  1> ! pbe def2-sv(p) def2/J RI DEFGRID1 loosescf d4 GCP(DFT/SV(P)) printgap
|  2> %output
|  3>     printlevel normal
|  4> end
|  5> * xyz 0 1
|  6> C 5.604651095 -0.3353066004 0.5392428292
|  7> C 4.4483064914 -1.2415983927 0.1695468972
|  8> O 3.6718736527 -0.667331376 -0.9107090425
|  9> P 2.3422741206 0.1488815312 -0.696920589
| 10> S 1.6641332801 0.7458725455 -2.4297364543
| 11> O 2.7885313076 1.2263845627 0.3826256064
| 12> C 1.9053714324 2.1630102608 1.0223719168
| 13> C 1.6354907524 3.3707564989 0.1483923164
| 14> S 1.065350964 -1.144735866 0.4364760975
| 15> C 0.0162058756 -1.7179115582 -0.9362100725
| 16> S -1.6411833841 -2.1684570197 -0.3828469921
| 17> P -2.2276773898 -0.3049711142 0.4216267536
| 18> S -1.4768889655 1.3375790685 -0.3584675848
| 19> O -1.8594499562 -0.5148122348 1.947779233
| 20> C -1.7179892175 0.5782915116 2.874235516
| 21> C -3.0651195411 1.1587419746 3.2498122234
| 22> O -3.8129013374 -0.4140168688 0.4696520267
| 23> C -4.6678700121 -0.7741224527 -0.6299698846
| 24> C -4.392024821 0.0321938571 -1.882323765
| 25> H 6.2041400265 -0.8183254562 1.30452421
| 26> H 6.2214807871 -0.1466468162 -0.3350425665
| 27> H 5.2347900735 0.6140321081 0.9167335714
| 28> H 3.7895437499 -1.4180980428 1.0247655048
| 29> H 4.8023107465 -2.1949456734 -0.2267442309
| 30> H 0.970244135 1.6558616877 1.276330796
| 31> H 2.4319348856 2.4418337449 1.9370869956
| 32> H 1.0683703913 4.1027617755 0.714269548
| 33> H 2.5714763852 3.8122258689 -0.182562486
| 34> H 1.053725762 3.0815639917 -0.7250438775
| 35> H 0.4439562766 -2.6188744886 -1.3697920157
| 36> H -0.0388270201 -0.9129406242 -1.6758484994
| 37> H -1.2078879063 0.1351475209 3.7302999231
| 38> H -1.0840729366 1.3460097528 2.4173016658
| 39> H -3.7133488151 0.3792277221 3.6404180771
| 40> H -2.9302312709 1.9308030529 4.0007334307
| 41> H -3.533466687 1.5945594545 2.3681223165
| 42> H -4.5402462552 -1.8431263357 -0.8220629606
| 43> H -5.6722310608 -0.5838228259 -0.2472213838
| 44> H -5.1173004355 -0.227610049 -2.6467051976
| 45> H -4.4568188023 1.0974975152 -1.6723746744
| 46> H -3.3919211451 -0.1838126573 -2.257782268
| 47> *
| 48>
| 49>                          ****END OF INPUT****

CARTESIAN COORDINATES (ANGSTROEM)
---------------------------------
  C      5.604651   -0.335307    0.539243
  C      4.448306   -1.241598    0.169547
  O      3.671874   -0.667331   -0.910709
  P      2.342274    0.148882   -0.696921
  S      1.664133    0.745873   -2.429736
  O      2.788531    1.226385    0.382626
  C      1.905371    2.163010    1.022372
  C      1.635491    3.370756    0.148392
  S      1.065351   -1.144736    0.436476
  C      0.016206   -1.717912   -0.936210
  S     -1.641183   -2.168457   -0.382847
  P     -2.227677   -0.304971    0.421627
  S     -1.476889    1.337579   -0.358468
  O     -1.859450   -0.514812    1.947779
  C     -1.717989    0.578292    2.874236
  C     -3.065120    1.158742    3.249812
  O     -3.812901   -0.414017    0.469652
  C     -4.667870   -0.774122   -0.629970
  C     -4.392025    0.032194   -1.882324
  H      6.204140   -0.818325    1.304524
  H      6.221481   -0.146647   -0.335043
  H      5.234790    0.614032    0.916734
  H      3.789544   -1.418098    1.024766
  H      4.802311   -2.194946   -0.226744
  H      0.970244    1.655862    1.276331
  H      2.431935    2.441834    1.937087
  H      1.068370    4.102762    0.714270
  H      2.571476    3.812226   -0.182562
  H      1.053726    3.081564   -0.725044
  H      0.443956   -2.618874   -1.369792
  H     -0.038827   -0.912941   -1.675848
  H     -1.207888    0.135148    3.730300
  H     -1.084073    1.346010    2.417302
  H     -3.713349    0.379228    3.640418
  H     -2.930231    1.930803    4.000733
  H     -3.533467    1.594559    2.368122
  H     -4.540246   -1.843126   -0.822063
  H     -5.672231   -0.583823   -0.247221
  H     -5.117300   -0.227610   -2.646705
  H     -4.456819    1.097498   -1.672375
  H     -3.391921   -0.183813   -2.257782

 Total Charge           Charge          ....    0
 Multiplicity           Mult            ....    1
 Number of Electrons    NEL             ....  202
 Basis Dimension        Dim             ....  334

ORBITAL ENERGIES
----------------

  NO   OCC          E(Eh)            E(eV)
   0   2.0000     -88.048003     -2395.9080
   1   2.0000     -88.039219     -2395.6689
   2   2.0000     -87.984900     -2394.1909
   3   2.0000     -87.980540     -2394.0722
   4   2.0000     -76.427394     -2079.6951
   5   2.0000     -76.422696     -2079.5673
   6   2.0000     -18.793815      -511.4057
   7   2.0000     -18.793167      -511.3881
   8   2.0000     -18.787439      -511.2322
   9   2.0000     -18.786565      -511.2084
  10   2.0000      -9.958871      -270.9947
  11   2.0000      -9.954196      -270.8674
  12   2.0000      -9.952658      -270.8256
  13   2.0000      -9.951295      -270.7885
  14   2.0000      -9.949834      -270.7487
  15   2.0000      -9.884785      -268.9787
  16   2.0000      -9.883738      -268.9502
  17   2.0000      -9.883445      -268.9422
  18   2.0000      -9.874178      -268.6901
  19   2.0000      -7.693332      -209.3462
  20   2.0000      -7.683638      -209.0824
  21   2.0000      -7.629606      -207.6121
  22   2.0000      -7.625815      -207.5090
  23   2.0000      -6.424519      -174.8201
  24   2.0000      -6.420141      -174.7009
  25   2.0000      -5.721219      -155.6823
  26   2.0000      -5.717729      -155.5873
  27   2.0000      -5.711468      -155.4169
  28   2.0000      -5.710379      -155.3873
  29   2.0000      -5.708277      -155.3301
  30   2.0000      -5.700644      -155.1224
  31   2.0000      -5.658498      -153.9755
  32   2.0000      -5.654866      -153.8767
  33   2.0000      -5.650457      -153.7568
  34   2.0000      -5.649597      -153.7333
  35   2.0000      -5.646342      -153.6448
  36   2.0000      -5.645854      -153.6315
  37   2.0000      -4.646997      -126.4512
  38   2.0000      -4.646500      -126.4377
  39   2.0000      -4.644928      -126.3949
  40   2.0000      -4.642956      -126.3412
  41   2.0000      -4.641972      -126.3145
  42   2.0000      -4.640336      -126.2700
  43   2.0000      -0.986589       -26.8465
  44   2.0000      -0.986033       -26.8313
  45   2.0000      -0.944765       -25.7084
  46   2.0000      -0.942949       -25.6590
  47   2.0000      -0.763025       -20.7630
  48   2.0000      -0.720348       -19.6017
  49   2.0000      -0.709295       -19.3009
  50   2.0000      -0.688291       -18.7293
  51   2.0000      -0.686550       -18.6820
  52   2.0000      -0.673639       -18.3306
  53   2.0000      -0.651225       -17.7207
  54   2.0000      -0.635914       -17.3041
  55   2.0000      -0.597050       -16.2466
  56   2.0000      -0.585512       -15.9326
  57   2.0000      -0.575787       -15.6680
  58   2.0000      -0.571245       -15.5444
  59   2.0000      -0.563423       -15.3315
  60   2.0000      -0.503460       -13.6998
  61   2.0000      -0.493265       -13.4224
  62   2.0000      -0.475923       -12.9505
  63   2.0000      -0.470671       -12.8076
  64   2.0000      -0.453511       -12.3407
  65   2.0000      -0.447082       -12.1657
  66   2.0000      -0.436154       -11.8684
  67   2.0000      -0.434686       -11.8284
  68   2.0000      -0.428502       -11.6601
  69   2.0000      -0.419235       -11.4080
  70   2.0000      -0.414081       -11.2677
  71   2.0000      -0.397936       -10.8284
  72   2.0000      -0.391288       -10.6475
  73   2.0000      -0.386948       -10.5294
  74   2.0000      -0.384615       -10.4659
  75   2.0000      -0.374113       -10.1801
  76   2.0000      -0.357317        -9.7231
  77   2.0000      -0.355216        -9.6659
  78   2.0000      -0.350822        -9.5464
  79   2.0000      -0.348828        -9.4921
  80   2.0000      -0.347234        -9.4487
  81   2.0000      -0.342783        -9.3276
  82   2.0000      -0.340247        -9.2586
  83   2.0000      -0.336963        -9.1692
  84   2.0000      -0.329182        -8.9575
  85   2.0000      -0.317560        -8.6412
  86   2.0000      -0.314046        -8.5456
  87   2.0000      -0.298136        -8.1127
  88   2.0000      -0.291796        -7.9402
  89   2.0000      -0.287982        -7.8364
  90   2.0000      -0.287385        -7.8202
  91   2.0000      -0.275166        -7.4877
  92   2.0000      -0.272262        -7.4086
  93   2.0000      -0.262820        -7.1517
  94   2.0000      -0.258444        -7.0326
  95   2.0000      -0.234825        -6.3899
  96   2.0000      -0.224044        -6.0965
  97   2.0000      -0.209810        -5.7092
  98   2.0000      -0.196601        -5.3498
  99   2.0000      -0.195332        -5.3153
 100   2.0000      -0.189316        -5.1515
 101   0.0000      -0.045039        -1.2256
 102   0.0000      -0.031178        -0.8484
 103   0.0000      -0.012418        -0.3379
 104   0.0000       0.013725         0.3735
 105   0.0000       0.017414         0.4739

MULLIKEN ATOMIC CHARGES
-----------------------
   0 C :   -0.288520
   1 C :   -0.009416
   2 O :   -0.355909
   3 P :    0.609505
   4 S :   -0.293413
   5 O :   -0.380758
   6 C :   -0.041209
   7 C :   -0.300518
   8 S :   -0.121965
   9 C :   -0.345163
  10 S :   -0.100132
  11 P :    0.613047
  12 S :   -0.322852
  13 O :   -0.357936
  14 C :   -0.026360
  15 C :   -0.297647
  16 O :   -0.374136
  17 C :   -0.009203
  18 C :   -0.314618
  19 H :    0.107778
  20 H :    0.119980
  21 H :    0.121580
  22 H :    0.099268
  23 H :    0.108273
  24 H :    0.141662
  25 H :    0.098733
  26 H :    0.105025
  27 H :    0.112122
  28 H :    0.143616
  29 H :    0.181697
  30 H :    0.210154
  31 H :    0.104372
  32 H :    0.122319
  33 H :    0.116378
  34 H :    0.108568
  35 H :    0.122978
  36 H :    0.113245
  37 H :    0.109239
  38 H :    0.112073
  39 H :    0.127274
  40 H :    0.130870
Sum of atomic charges:    0.0000000

LOEWDIN ATOMIC CHARGES
----------------------
   0 C :   -0.359054
   1 C :   -0.114745
   2 O :   -0.238930
   3 P :    0.566810
   4 S :   -0.283236
   5 O :   -0.241746
   6 C :   -0.121299
   7 C :   -0.363964
   8 S :    0.054738
   9 C :   -0.479588
  10 S :    0.086895
  11 P :    0.568345
  12 S :   -0.303727
  13 O :   -0.240046
  14 C :   -0.119152
  15 C :   -0.362247
  16 O :   -0.245490
  17 C :   -0.114061
  18 C :   -0.369894
  19 H :    0.128279
  20 H :    0.129019
  21 H :    0.126242
  22 H :    0.102205
  23 H :    0.120522
  24 H :    0.104722
  25 H :    0.114672
  26 H :    0.128334
  27 H :    0.125165
  28 H :    0.125682
  29 H :    0.135067
  30 H :    0.122400
  31 H :    0.118457
  32 H :    0.105789
  33 H :    0.126625
  34 H :    0.128664
  35 H :    0.124343
  36 H :    0.109684
  37 H :    0.121555
  38 H :    0.130358
  39 H :    0.129877
  40 H :    0.122730

  Mayer bond orders larger than 0.100000
B(  0-C ,  1-C ) :   1.1634 B(  0-C , 19-H ) :   0.9401 B(  0-C , 20-H ) :   0.9470
B(  0-C , 21-H ) :   0.9425 B(  1-C ,  2-O ) :   0.8973 B(  1-C , 22-H ) :   0.9137
B(  1-C , 23-H ) :   0.9365 B(  2-O ,  3-P ) :   1.1347 B(  3-P ,  4-S ) :   1.6622
B(  3-P ,  5-O ) :   1.0852 B(  3-P ,  8-S ) :   0.9402 B(  4-S ,  8-S ) :   0.1202
B(  4-S , 30-H ) :   0.1030 B(  5-O ,  6-C ) :   0.9026 B(  6-C ,  7-C ) :   1.1734
B(  6-C , 24-H ) :   0.8968 B(  6-C , 25-H ) :   0.9345 B(  7-C , 26-H ) :   0.9382
B(  7-C , 27-H ) :   0.9464 B(  7-C , 28-H ) :   0.9292 B(  8-S ,  9-C ) :   0.9893
B(  9-C , 10-S ) :   1.0073 B(  9-C , 29-H ) :   0.9102 B(  9-C , 30-H ) :   0.8461
B( 10-S , 11-P ) :   0.9449 B( 10-S , 12-S ) :   0.1148 B( 11-P , 12-S ) :   1.6090
B( 11-P , 13-O ) :   1.1240 B( 11-P , 16-O ) :   1.1046 B( 13-O , 14-C ) :   0.9115
B( 14-C , 15-C ) :   1.1630 B( 14-C , 31-H ) :   0.9350 B( 14-C , 32-H ) :   0.8984
B( 15-C , 33-H ) :   0.9464 B( 15-C , 34-H ) :   0.9396 B( 15-C , 35-H ) :   0.9379
B( 16-O , 17-C ) :   0.9138 B( 17-C , 18-C ) :   1.1638 B( 17-C , 36-H ) :   0.9284
B( 17-C , 37-H ) :   0.9340 B( 18-C , 38-H ) :   0.9346 B( 18-C , 39-H ) :   0.9420
B( 18-C , 40-H ) :   0.9335

Dispersion correction           -0.065479321
FINAL SINGLE POINT ENERGY     -2929.516802811354

DIPOLE MOMENT
-------------

Method             : SCF
Type of density    : Electron Density
Multiplicity       :   1
Irrep              :   0
Energy             : -2929.6357447386985768 Eh
Relativity type    :
Basis              : AO
                                X                 Y                 Z
Electronic contribution:      0.639246527     -11.101568827      -9.470488380
Nuclear contribution   :     -0.918554329      10.717754909      10.831938161
                        -----------------------------------------
Total Dipole Moment    :     -0.279307802      -0.383813918       1.361449781
                        -----------------------------------------
Magnitude (a.u.)       :      1.441829212
Magnitude (Debye)      :      3.664838608

Rotational constants in cm-1:             0.012776             0.004845             0.004607
Rotational constants in MHz :           383.003292           145.256064           138.123291

                             ****ORCA TERMINATED NORMALLY****
TOTAL RUN TIME: 0 days 0 hours 0 minutes 21 seconds 24 msec
