                         Program Version 6.0.0  -   RELEASE  -
|  1> ! pbe def2-sv(p) def2/J RI DEFGRID1 loosescf d4 GCP(DFT/SV(P)) printgap
|  2> %output
|  3>     printlevel normal
|  4> end
|  5> * xyz 0 1
|  6> C 2.8029850675 -2.7896553473 1.2887901199
|  7> C 1.5703484301 -2.2605084882 0.5847058956
|  8> O 1.4660087368 -0.8351056963 0.745029832
|  9> P 2.2712321243 0.2073852601 -0.1663619277
| 10> S 3.1691043931 -0.5195065433 -1.7372329457
| 11> O 3.2813732428 0.9270223297 0.8127135112
| 12> C 2.8703873365 1.5440438304 2.0604999517
| 13> C 4.1010907851 2.1639804796 2.6878168709
| 14> S 0.7781461233 1.689600054 -0.4870686762
| 15> C 0.119092702 0.9771713439 -2.014944645
| 16> S -0.5359093677 -0.6991417145 -1.7917807723
| 17> P -2.1487577361 -0.1860887273 -0.5114033382
| 18> S -2.9922070266 1.5613438143 -0.7940708745
| 19> O -1.6558461823 -0.466708935 0.9748328287
| 20> C -1.3487901602 0.5376447512 1.9576495695
| 21> C -2.0746927081 0.2096459731 3.24766793
| 22> O -3.0090690884 -1.47306413 -0.8324044054
| 23> C -4.4418716832 -1.5094384056 -0.659778998
| 24> C -4.8450258306 -1.3784844012 0.7939880425
| 25> H 2.7741328598 -2.5403330301 2.3460878155
| 26> H 2.8482692549 -3.8678679341 1.1738129928
| 27> H 3.6939797636 -2.3476958937 0.8437760981
| 28> H 0.6475872945 -2.651141045 1.0173389504
| 29> H 1.6011415602 -2.4957524414 -0.4838987975
| 30> H 2.1108865622 2.2982013736 1.8354180076
| 31> H 2.4381635056 0.7711543079 2.7003978596
| 32> H 4.8502886194 1.4001661807 2.8749075093
| 33> H 4.522787934 2.9096490956 2.0202463015
| 34> H 3.8237819441 2.6355692743 3.62497224
| 35> H 0.9143583115 0.9014100146 -2.7555094736
| 36> H -0.6751827612 1.6446702934 -2.3480050442
| 37> H -0.2654930815 0.5215500944 2.0997613879
| 38> H -1.6459099701 1.5184918373 1.5709548056
| 39> H -1.8243328225 -0.7965646697 3.570860755
| 40> H -1.7713852726 0.9187886475 4.0109971233
| 41> H -3.1499294863 0.2780878163 3.1074421931
| 42> H -4.8816212476 -0.7037682999 -1.2556471254
| 43> H -4.727336081 -2.4765724507 -1.0757944964
| 44> H -5.9165879881 -1.5265591398 0.8851391824
| 45> H -4.323860912 -2.1173226174 1.3971097365
| 46> H -4.594612234 -0.3815847722 1.1545214799
| 47> *
| 48>
| 49>                          ****END OF INPUT****

CARTESIAN COORDINATES (ANGSTROEM)
---------------------------------
  C      2.802985   -2.789655    1.288790
  C      1.570348   -2.260508    0.584706
  O      1.466009   -0.835106    0.745030
  P      2.271232    0.207385   -0.166362
  S      3.169104   -0.519507   -1.737233
  O      3.281373    0.927022    0.812714
  C      2.870387    1.544044    2.060500
  C      4.101091    2.163980    2.687817
  S      0.778146    1.689600   -0.487069
  C      0.119093    0.977171   -2.014945
  S     -0.535909   -0.699142   -1.791781
  P     -2.148758   -0.186089   -0.511403
  S     -2.992207    1.561344   -0.794071
  O     -1.655846   -0.466709    0.974833
  C     -1.348790    0.537645    1.957650
  C     -2.074693    0.209646    3.247668
  O     -3.009069   -1.473064   -0.832404
  C     -4.441872   -1.509438   -0.659779
  C     -4.845026   -1.378484    0.793988
  H      2.774133   -2.540333    2.346088
  H      2.848269   -3.867868    1.173813
  H      3.693980   -2.347696    0.843776
  H      0.647587   -2.651141    1.017339
  H      1.601142   -2.495752   -0.483899
  H      2.110887    2.298201    1.835418
  H      2.438164    0.771154    2.700398
  H      4.850289    1.400166    2.874908
  H      4.522788    2.909649    2.020246
  H      3.823782    2.635569    3.624972
  H      0.914358    0.901410   -2.755509
  H     -0.675183    1.644670   -2.348005
  H     -0.265493    0.521550    2.099761
  H     -1.645910    1.518492    1.570955
  H     -1.824333   -0.796565    3.570861
  H     -1.771385    0.918789    4.010997
  H     -3.149929    0.278088    3.107442
  H     -4.881621   -0.703768   -1.255647
  H     -4.727336   -2.476572   -1.075794
  H     -5.916588   -1.526559    0.885139
  H     -4.323861   -2.117323    1.397110
  H     -4.594612   -0.381585    1.154521

 Total Charge           Charge          ....    0
 Multiplicity           Mult            ....    1
 Number of Electrons    NEL             ....  202
 Basis Dimension        Dim             ....  334

ORBITAL ENERGIES
----------------

  NO   OCC          E(Eh)            E(eV)
   0   2.0000     -88.041573     -2395.7330
   1   2.0000     -88.038714     -2395.6552
   2   2.0000     -87.991927     -2394.3821
   3   2.0000     -87.988802     -2394.2970
   4   2.0000     -76.427377     -2079.6946
   5   2.0000     -76.427140     -2079.6882
   6   2.0000     -18.797713      -511.5118
   7   2.0000     -18.793174      -511.3883
   8   2.0000     -18.790989      -511.3288
   9   2.0000     -18.790045      -511.3031
  10   2.0000      -9.965160      -271.1658
  11   2.0000      -9.956674      -270.9349
  12   2.0000      -9.953415      -270.8462
  13   2.0000      -9.948294      -270.7068
  14   2.0000      -9.947256      -270.6786
  15   2.0000      -9.895446      -269.2688
  16   2.0000      -9.888689      -269.0849
  17   2.0000      -9.888167      -269.0707
  18   2.0000      -9.883344      -268.9395
  19   2.0000      -7.686419      -209.1581
  20   2.0000      -7.683641      -209.0825
  21   2.0000      -7.636845      -207.8091
  22   2.0000      -7.634067      -207.7335
  23   2.0000      -6.424991      -174.8329
  24   2.0000      -6.424776      -174.8270
  25   2.0000      -5.714158      -155.4901
  26   2.0000      -5.711628      -155.4213
  27   2.0000      -5.711094      -155.4068
  28   2.0000      -5.708333      -155.3316
  29   2.0000      -5.703386      -155.1970
  30   2.0000      -5.700306      -155.1132
  31   2.0000      -5.665593      -154.1686
  32   2.0000      -5.663138      -154.1018
  33   2.0000      -5.657703      -153.9539
  34   2.0000      -5.656946      -153.9333
  35   2.0000      -5.654674      -153.8715
  36   2.0000      -5.654031      -153.8540
  37   2.0000      -4.647606      -126.4678
  38   2.0000      -4.647359      -126.4611
  39   2.0000      -4.646712      -126.4435
  40   2.0000      -4.646216      -126.4300
  41   2.0000      -4.645655      -126.4147
  42   2.0000      -4.645329      -126.4058
  43   2.0000      -0.987687       -26.8763
  44   2.0000      -0.986350       -26.8399
  45   2.0000      -0.946063       -25.7437
  46   2.0000      -0.944760       -25.7082
  47   2.0000      -0.764264       -20.7967
  48   2.0000      -0.725809       -19.7503
  49   2.0000      -0.713931       -19.4271
  50   2.0000      -0.691441       -18.8151
  51   2.0000      -0.690064       -18.7776
  52   2.0000      -0.671789       -18.2803
  53   2.0000      -0.653027       -17.7698
  54   2.0000      -0.641528       -17.4569
  55   2.0000      -0.603674       -16.4268
  56   2.0000      -0.588371       -16.0104
  57   2.0000      -0.578500       -15.7418
  58   2.0000      -0.569208       -15.4889
  59   2.0000      -0.562131       -15.2964
  60   2.0000      -0.510116       -13.8810
  61   2.0000      -0.499581       -13.5943
  62   2.0000      -0.481689       -13.1074
  63   2.0000      -0.478277       -13.0146
  64   2.0000      -0.458825       -12.4853
  65   2.0000      -0.448603       -12.2071
  66   2.0000      -0.443452       -12.0669
  67   2.0000      -0.434303       -11.8180
  68   2.0000      -0.429435       -11.6855
  69   2.0000      -0.408801       -11.1240
  70   2.0000      -0.404559       -11.0086
  71   2.0000      -0.398554       -10.8452
  72   2.0000      -0.392154       -10.6711
  73   2.0000      -0.389905       -10.6099
  74   2.0000      -0.378905       -10.3105
  75   2.0000      -0.377569       -10.2742
  76   2.0000      -0.371125       -10.0988
  77   2.0000      -0.361984        -9.8501
  78   2.0000      -0.360134        -9.7998
  79   2.0000      -0.356332        -9.6963
  80   2.0000      -0.352078        -9.5805
  81   2.0000      -0.347129        -9.4459
  82   2.0000      -0.342608        -9.3228
  83   2.0000      -0.341893        -9.3034
  84   2.0000      -0.334353        -9.0982
  85   2.0000      -0.323863        -8.8128
  86   2.0000      -0.315301        -8.5798
  87   2.0000      -0.313975        -8.5437
  88   2.0000      -0.295349        -8.0368
  89   2.0000      -0.287576        -7.8253
  90   2.0000      -0.283202        -7.7063
  91   2.0000      -0.277163        -7.5420
  92   2.0000      -0.274164        -7.4604
  93   2.0000      -0.269410        -7.3310
  94   2.0000      -0.258194        -7.0258
  95   2.0000      -0.230737        -6.2787
  96   2.0000      -0.218598        -5.9483
  97   2.0000      -0.213958        -5.8221
  98   2.0000      -0.209875        -5.7110
  99   2.0000      -0.202272        -5.5041
 100   2.0000      -0.199426        -5.4266
 101   0.0000      -0.047060        -1.2806
 102   0.0000      -0.026457        -0.7199
 103   0.0000      -0.000647        -0.0176
 104   0.0000       0.005568         0.1515
 105   0.0000       0.009420         0.2563

MULLIKEN ATOMIC CHARGES
-----------------------
   0 C :   -0.298275
   1 C :   -0.008470
   2 O :   -0.387710
   3 P :    0.624794
   4 S :   -0.304096
   5 O :   -0.366927
   6 C :   -0.054251
   7 C :   -0.265461
   8 S :   -0.118418
   9 C :   -0.349150
  10 S :   -0.077669
  11 P :    0.635895
  12 S :   -0.338010
  13 O :   -0.372455
  14 C :   -0.026337
  15 C :   -0.283296
  16 O :   -0.378079
  17 C :    0.002983
  18 C :   -0.324533
  19 H :    0.105881
  20 H :    0.111738
  21 H :    0.123476
  22 H :    0.102833
  23 H :    0.117919
  24 H :    0.119553
  25 H :    0.117179
  26 H :    0.122332
  27 H :    0.125444
  28 H :    0.111759
  29 H :    0.193147
  30 H :    0.192758
  31 H :    0.107181
  32 H :    0.110578
  33 H :    0.112822
  34 H :    0.106124
  35 H :    0.120817
  36 H :    0.113826
  37 H :    0.108545
  38 H :    0.114370
  39 H :    0.119322
  40 H :    0.131861
Sum of atomic charges:    0.0000000

LOEWDIN ATOMIC CHARGES
----------------------
   0 C :   -0.362823
   1 C :   -0.123912
   2 O :   -0.249327
   3 P :    0.571418
   4 S :   -0.300731
   5 O :   -0.244883
   6 C :   -0.118538
   7 C :   -0.348019
   8 S :    0.075299
   9 C :   -0.478746
  10 S :    0.097480
  11 P :    0.574006
  12 S :   -0.320230
  13 O :   -0.240912
  14 C :   -0.127971
  15 C :   -0.353075
  16 O :   -0.246443
  17 C :   -0.111342
  18 C :   -0.367152
  19 H :    0.120042
  20 H :    0.130556
  21 H :    0.124447
  22 H :    0.115978
  23 H :    0.107771
  24 H :    0.108499
  25 H :    0.111592
  26 H :    0.130703
  27 H :    0.132367
  28 H :    0.131159
  29 H :    0.132666
  30 H :    0.130628
  31 H :    0.103780
  32 H :    0.103688
  33 H :    0.124601
  34 H :    0.128561
  35 H :    0.124586
  36 H :    0.113629
  37 H :    0.120818
  38 H :    0.131849
  39 H :    0.126894
  40 H :    0.121088

  Mayer bond orders larger than 0.100000
B(  0-C ,  1-C ) :   1.1615 B(  0-C , 19-H ) :   0.9479 B(  0-C , 20-H ) :   0.9412
B(  0-C , 21-H ) :   0.9385 B(  1-C ,  2-O ) :   0.8969 B(  1-C , 22-H ) :   0.9319
B(  1-C , 23-H ) :   0.9087 B(  2-O ,  3-P ) :   1.0637 B(  3-P ,  4-S ) :   1.6395
B(  3-P ,  5-O ) :   1.1278 B(  3-P ,  8-S ) :   0.9471 B(  4-S ,  8-S ) :   0.1013
B(  5-O ,  6-C ) :   0.9035 B(  6-C ,  7-C ) :   1.1617 B(  6-C , 24-H ) :   0.9183
B(  6-C , 25-H ) :   0.9199 B(  7-C , 26-H ) :   0.9496 B(  7-C , 27-H ) :   0.9487
B(  7-C , 28-H ) :   0.9402 B(  8-S ,  9-C ) :   1.0005 B(  9-C , 10-S ) :   1.0141
B(  9-C , 29-H ) :   0.8868 B(  9-C , 30-H ) :   0.8832 B( 10-S , 11-P ) :   0.9394
B( 10-S , 12-S ) :   0.1043 B( 11-P , 12-S ) :   1.5924 B( 11-P , 13-O ) :   1.1087
B( 11-P , 16-O ) :   1.1313 B( 13-O , 14-C ) :   0.9036 B( 14-C , 15-C ) :   1.1577
B( 14-C , 31-H ) :   0.9160 B( 14-C , 32-H ) :   0.9031 B( 15-C , 33-H ) :   0.9491
B( 15-C , 34-H ) :   0.9413 B( 15-C , 35-H ) :   0.9446 B( 16-O , 17-C ) :   0.9085
B( 17-C , 18-C ) :   1.1617 B( 17-C , 36-H ) :   0.9207 B( 17-C , 37-H ) :   0.9354
B( 18-C , 38-H ) :   0.9364 B( 18-C , 39-H ) :   0.9457 B( 18-C , 40-H ) :   0.9281

Dispersion correction           -0.066276929
FINAL SINGLE POINT ENERGY     -2929.524153011184

DIPOLE MOMENT
-------------

Method             : SCF
Type of density    : Electron Density
Multiplicity       :   1
Irrep              :   0
Energy             : -2929.6433829427674027 Eh
Relativity type    :
Basis              : AO
                                X                 Y                 Z
Electronic contribution:      2.934634754       5.456831646     -25.494914402
Nuclear contribution   :     -3.451673053      -5.835037369      27.334238175
                        -----------------------------------------
Total Dipole Moment    :     -0.517038299      -0.378205723       1.839323773
                        -----------------------------------------
Magnitude (a.u.)       :      1.947685835
Magnitude (Debye)      :      4.950623961

Rotational constants in cm-1:             0.012023             0.005192             0.004919
Rotational constants in MHz :           360.438807           155.652150           147.469765

                             ****ORCA TERMINATED NORMALLY****
TOTAL RUN TIME: 0 days 0 hours 0 minutes 21 seconds 603 msec
