                         Program Version 6.0.0  -   RELEASE  -
|  1> ! pbe def2-sv(p) def2/J RI DEFGRID1 loosescf d4 GCP(DFT/SV(P)) printgap
|  2> %output
|  3>     printlevel normal
|  4> end
|  5> * xyz 0 1
|  6> C 1.9656340411 -0.1916920281 3.4916137702
|  7> C 1.9237324569 0.9585431775 2.5070348399
|  8> O 1.1971951602 0.6192649579 1.3059166492
|  9> P 1.6446789487 -0.5095411471 0.292905317
| 10> S 1.1260318658 -2.3789849509 0.6220470234
| 11> O 3.2253946355 -0.298592459 0.3051644685
| 12> C 4.1055265082 -1.1801319014 -0.417257982
| 13> C 5.5073011053 -0.9937920612 0.1276766117
| 14> S 1.116754164 0.2391574317 -1.611837896
| 15> C -0.2140894321 -0.901398437 -2.0692527854
| 16> S -1.8757927483 -0.1588091446 -2.1367401273
| 17> P -2.0370299759 0.6562263186 -0.1853907364
| 18> S -3.8333411949 1.1987033616 0.365701676
| 19> O -0.9391309388 1.7994615967 -0.0869267431
| 20> C -1.2214726348 3.1564689404 -0.4734572949
| 21> C -1.3414208475 3.3097686616 -1.977197397
| 22> O -1.2988813702 -0.4070527925 0.7420705535
| 23> C -2.0644008194 -1.3675818165 1.4959503913
| 24> C -2.6576648661 -2.4460697045 0.6121317414
| 25> H 0.9566389923 -0.5074235965 3.7473717211
| 26> H 2.4928208561 -1.0392663657 3.0546930754
| 27> H 2.4828321245 0.1216446213 4.3931460595
| 28> H 2.931379519 1.2720593586 2.2265480756
| 29> H 1.3662026167 1.8070688962 2.9073866075
| 30> H 3.7559886028 -2.2093978556 -0.2818935468
| 31> H 4.0516038777 -0.9210713949 -1.4779349932
| 32> H 6.1886678759 -1.6344433583 -0.4222782608
| 33> H 5.815916867 0.0413122086 0.0130576677
| 34> H 5.5407198421 -1.2578277722 1.1810804605
| 35> H -0.2019620485 -1.7392467009 -1.367002489
| 36> H -0.0268495086 -1.2405573877 -3.0850478069
| 37> H -2.1441401233 3.473016262 0.0244742586
| 38> H -0.3746407316 3.7204206966 -0.0794317777
| 39> H -1.4343807428 4.3632021444 -2.2213019545
| 40> H -0.4612454722 2.9016397969 -2.469187749
| 41> H -2.2246103619 2.7840422588 -2.3386749742
| 42> H -1.3448039796 -1.7867830309 2.2012582399
| 43> H -2.8514777861 -0.8323106153 2.0355926569
| 44> H -3.3336784373 -2.0007267952 -0.1175787129
| 45> H -1.8695940067 -2.9869740151 0.09310134
| 46> H -3.2145933771 -3.1429084197 1.230211931
| 47> *
| 48>
| 49>                          ****END OF INPUT****

CARTESIAN COORDINATES (ANGSTROEM)
---------------------------------
  C      1.965634   -0.191692    3.491614
  C      1.923732    0.958543    2.507035
  O      1.197195    0.619265    1.305917
  P      1.644679   -0.509541    0.292905
  S      1.126032   -2.378985    0.622047
  O      3.225395   -0.298592    0.305164
  C      4.105527   -1.180132   -0.417258
  C      5.507301   -0.993792    0.127677
  S      1.116754    0.239157   -1.611838
  C     -0.214089   -0.901398   -2.069253
  S     -1.875793   -0.158809   -2.136740
  P     -2.037030    0.656226   -0.185391
  S     -3.833341    1.198703    0.365702
  O     -0.939131    1.799462   -0.086927
  C     -1.221473    3.156469   -0.473457
  C     -1.341421    3.309769   -1.977197
  O     -1.298881   -0.407053    0.742071
  C     -2.064401   -1.367582    1.495950
  C     -2.657665   -2.446070    0.612132
  H      0.956639   -0.507424    3.747372
  H      2.492821   -1.039266    3.054693
  H      2.482832    0.121645    4.393146
  H      2.931380    1.272059    2.226548
  H      1.366203    1.807069    2.907387
  H      3.755989   -2.209398   -0.281894
  H      4.051604   -0.921071   -1.477935
  H      6.188668   -1.634443   -0.422278
  H      5.815917    0.041312    0.013058
  H      5.540720   -1.257828    1.181080
  H     -0.201962   -1.739247   -1.367002
  H     -0.026850   -1.240557   -3.085048
  H     -2.144140    3.473016    0.024474
  H     -0.374641    3.720421   -0.079432
  H     -1.434381    4.363202   -2.221302
  H     -0.461245    2.901640   -2.469188
  H     -2.224610    2.784042   -2.338675
  H     -1.344804   -1.786783    2.201258
  H     -2.851478   -0.832311    2.035593
  H     -3.333678   -2.000727   -0.117579
  H     -1.869594   -2.986974    0.093101
  H     -3.214593   -3.142908    1.230212

 Total Charge           Charge          ....    0
 Multiplicity           Mult            ....    1
 Number of Electrons    NEL             ....  202
 Basis Dimension        Dim             ....  334

ORBITAL ENERGIES
----------------

  NO   OCC          E(Eh)            E(eV)
   0   2.0000     -88.046484     -2395.8666
   1   2.0000     -88.039434     -2395.6748
   2   2.0000     -87.990001     -2394.3296
   3   2.0000     -87.983746     -2394.1594
   4   2.0000     -76.431051     -2079.7946
   5   2.0000     -76.421304     -2079.5294
   6   2.0000     -18.798777      -511.5407
   7   2.0000     -18.789554      -511.2898
   8   2.0000     -18.785350      -511.1754
   9   2.0000     -18.781342      -511.0663
  10   2.0000      -9.956844      -270.9395
  11   2.0000      -9.956001      -270.9166
  12   2.0000      -9.954692      -270.8809
  13   2.0000      -9.946473      -270.6573
  14   2.0000      -9.941379      -270.5187
  15   2.0000      -9.892556      -269.1901
  16   2.0000      -9.886669      -269.0299
  17   2.0000      -9.878363      -268.8039
  18   2.0000      -9.873169      -268.6626
  19   2.0000      -7.691367      -209.2927
  20   2.0000      -7.684535      -209.1068
  21   2.0000      -7.634789      -207.7532
  22   2.0000      -7.628981      -207.5951
  23   2.0000      -6.427941      -174.9132
  24   2.0000      -6.418867      -174.6662
  25   2.0000      -5.719234      -155.6283
  26   2.0000      -5.715971      -155.5395
  27   2.0000      -5.712746      -155.4517
  28   2.0000      -5.708723      -155.3423
  29   2.0000      -5.708212      -155.3283
  30   2.0000      -5.701506      -155.1459
  31   2.0000      -5.663578      -154.1138
  32   2.0000      -5.657951      -153.9607
  33   2.0000      -5.655678      -153.8988
  34   2.0000      -5.654762      -153.8739
  35   2.0000      -5.649575      -153.7327
  36   2.0000      -5.649099      -153.7198
  37   2.0000      -4.650908      -126.5576
  38   2.0000      -4.649440      -126.5177
  39   2.0000      -4.648384      -126.4890
  40   2.0000      -4.641190      -126.2932
  41   2.0000      -4.640963      -126.2870
  42   2.0000      -4.639226      -126.2398
  43   2.0000      -0.991460       -26.9790
  44   2.0000      -0.980548       -26.6821
  45   2.0000      -0.945291       -25.7227
  46   2.0000      -0.938324       -25.5331
  47   2.0000      -0.761713       -20.7273
  48   2.0000      -0.721511       -19.6333
  49   2.0000      -0.705572       -19.1996
  50   2.0000      -0.693600       -18.8738
  51   2.0000      -0.677722       -18.4417
  52   2.0000      -0.674429       -18.3521
  53   2.0000      -0.652907       -17.7665
  54   2.0000      -0.637535       -17.3482
  55   2.0000      -0.598599       -16.2887
  56   2.0000      -0.591653       -16.0997
  57   2.0000      -0.575315       -15.6551
  58   2.0000      -0.563365       -15.3299
  59   2.0000      -0.561520       -15.2797
  60   2.0000      -0.508744       -13.8436
  61   2.0000      -0.487712       -13.2713
  62   2.0000      -0.477356       -12.9895
  63   2.0000      -0.460466       -12.5299
  64   2.0000      -0.456781       -12.4296
  65   2.0000      -0.445810       -12.1311
  66   2.0000      -0.441856       -12.0235
  67   2.0000      -0.435149       -11.8410
  68   2.0000      -0.420157       -11.4331
  69   2.0000      -0.416489       -11.3332
  70   2.0000      -0.411775       -11.2050
  71   2.0000      -0.402733       -10.9589
  72   2.0000      -0.390904       -10.6370
  73   2.0000      -0.387539       -10.5455
  74   2.0000      -0.384555       -10.4643
  75   2.0000      -0.371860       -10.1188
  76   2.0000      -0.366820        -9.9817
  77   2.0000      -0.358208        -9.7473
  78   2.0000      -0.350945        -9.5497
  79   2.0000      -0.347224        -9.4485
  80   2.0000      -0.344998        -9.3879
  81   2.0000      -0.340978        -9.2785
  82   2.0000      -0.339371        -9.2348
  83   2.0000      -0.332849        -9.0573
  84   2.0000      -0.327920        -8.9232
  85   2.0000      -0.318800        -8.6750
  86   2.0000      -0.318631        -8.6704
  87   2.0000      -0.304958        -8.2983
  88   2.0000      -0.296619        -8.0714
  89   2.0000      -0.292889        -7.9699
  90   2.0000      -0.277208        -7.5432
  91   2.0000      -0.274155        -7.4601
  92   2.0000      -0.264137        -7.1875
  93   2.0000      -0.262232        -7.1357
  94   2.0000      -0.255480        -6.9520
  95   2.0000      -0.227045        -6.1782
  96   2.0000      -0.220509        -6.0004
  97   2.0000      -0.211250        -5.7484
  98   2.0000      -0.205101        -5.5811
  99   2.0000      -0.198644        -5.4054
 100   2.0000      -0.198398        -5.3987
 101   0.0000      -0.042125        -1.1463
 102   0.0000      -0.028919        -0.7869
 103   0.0000      -0.018329        -0.4987
 104   0.0000       0.002479         0.0675
 105   0.0000       0.011395         0.3101

MULLIKEN ATOMIC CHARGES
-----------------------
   0 C :   -0.320498
   1 C :    0.000404
   2 O :   -0.356130
   3 P :    0.655658
   4 S :   -0.335791
   5 O :   -0.392779
   6 C :   -0.008168
   7 C :   -0.283184
   8 S :   -0.090932
   9 C :   -0.360904
  10 S :   -0.090225
  11 P :    0.592373
  12 S :   -0.323040
  13 O :   -0.346797
  14 C :   -0.000911
  15 C :   -0.313711
  16 O :   -0.369799
  17 C :   -0.000318
  18 C :   -0.323374
  19 H :    0.127873
  20 H :    0.126155
  21 H :    0.110836
  22 H :    0.109179
  23 H :    0.109333
  24 H :    0.106308
  25 H :    0.099350
  26 H :    0.113733
  27 H :    0.115954
  28 H :    0.117300
  29 H :    0.211669
  30 H :    0.179405
  31 H :    0.109783
  32 H :    0.100461
  33 H :    0.108655
  34 H :    0.117473
  35 H :    0.124458
  36 H :    0.109864
  37 H :    0.111708
  38 H :    0.123847
  39 H :    0.126934
  40 H :    0.107848
Sum of atomic charges:   -0.0000000

LOEWDIN ATOMIC CHARGES
----------------------
   0 C :   -0.366071
   1 C :   -0.109523
   2 O :   -0.227782
   3 P :    0.584260
   4 S :   -0.301111
   5 O :   -0.253200
   6 C :   -0.124139
   7 C :   -0.350898
   8 S :    0.096528
   9 C :   -0.483204
  10 S :    0.076563
  11 P :    0.566621
  12 S :   -0.318797
  13 O :   -0.233215
  14 C :   -0.118400
  15 C :   -0.369360
  16 O :   -0.238127
  17 C :   -0.125269
  18 C :   -0.369163
  19 H :    0.129554
  20 H :    0.121444
  21 H :    0.129748
  22 H :    0.112291
  23 H :    0.121823
  24 H :    0.106749
  25 H :    0.108149
  26 H :    0.131868
  27 H :    0.126130
  28 H :    0.126595
  29 H :    0.122055
  30 H :    0.138930
  31 H :    0.108670
  32 H :    0.116838
  33 H :    0.128398
  34 H :    0.121060
  35 H :    0.119958
  36 H :    0.113795
  37 H :    0.108581
  38 H :    0.119807
  39 H :    0.121893
  40 H :    0.129951

  Mayer bond orders larger than 0.100000
B(  0-C ,  1-C ) :   1.1675 B(  0-C , 19-H ) :   0.9446 B(  0-C , 20-H ) :   0.9345
B(  0-C , 21-H ) :   0.9365 B(  1-C ,  2-O ) :   0.9098 B(  1-C , 22-H ) :   0.9266
B(  1-C , 23-H ) :   0.9324 B(  2-O ,  3-P ) :   1.1407 B(  3-P ,  4-S ) :   1.5830
B(  3-P ,  5-O ) :   1.0652 B(  3-P ,  8-S ) :   0.9694 B(  4-S ,  8-S ) :   0.1250
B(  4-S , 29-H ) :   0.1036 B(  5-O ,  6-C ) :   0.9066 B(  6-C ,  7-C ) :   1.1585
B(  6-C , 24-H ) :   0.9067 B(  6-C , 25-H ) :   0.9265 B(  7-C , 26-H ) :   0.9421
B(  7-C , 27-H ) :   0.9507 B(  7-C , 28-H ) :   0.9519 B(  8-S ,  9-C ) :   1.0161
B(  9-C , 10-S ) :   0.9785 B(  9-C , 29-H ) :   0.8445 B(  9-C , 30-H ) :   0.9102
B( 10-S , 11-P ) :   0.9684 B( 11-P , 12-S ) :   1.6357 B( 11-P , 13-O ) :   1.1064
B( 11-P , 16-O ) :   1.0891 B( 13-O , 14-C ) :   0.9169 B( 14-C , 15-C ) :   1.1628
B( 14-C , 31-H ) :   0.9150 B( 14-C , 32-H ) :   0.9335 B( 15-C , 33-H ) :   0.9384
B( 15-C , 34-H ) :   0.9430 B( 15-C , 35-H ) :   0.9381 B( 16-O , 17-C ) :   0.8980
B( 17-C , 18-C ) :   1.1702 B( 17-C , 36-H ) :   0.9155 B( 17-C , 37-H ) :   0.9152
B( 18-C , 38-H ) :   0.9348 B( 18-C , 39-H ) :   0.9361 B( 18-C , 40-H ) :   0.9386

Dispersion correction           -0.069147721
FINAL SINGLE POINT ENERGY     -2929.515686930580

DIPOLE MOMENT
-------------

Method             : SCF
Type of density    : Electron Density
Multiplicity       :   1
Irrep              :   0
Energy             : -2929.6346139001902884 Eh
Relativity type    :
Basis              : AO
                                X                 Y                 Z
Electronic contribution:    -13.763652323       1.078596263      -8.544505877
Nuclear contribution   :     15.588574205      -0.838022844       8.693244765
                        -----------------------------------------
Total Dipole Moment    :      1.824921882       0.240573419       0.148738888
                        -----------------------------------------
Magnitude (a.u.)       :      1.846710237
Magnitude (Debye)      :      4.693964388

Rotational constants in cm-1:             0.012102             0.005746             0.005455
Rotational constants in MHz :           362.811041           172.250196           163.535242

                             ****ORCA TERMINATED NORMALLY****
TOTAL RUN TIME: 0 days 0 hours 0 minutes 22 seconds 32 msec
