                         Program Version 6.0.0  -   RELEASE  -
|  1> ! pbe def2-sv(p) def2/J RI DEFGRID1 loosescf d4 GCP(DFT/SV(P)) printgap
|  2> %output
|  3>     printlevel normal
|  4> end
|  5> * xyz 0 1
|  6> C 4.0480420005 1.5491035111 -1.4130981902
|  7> C 2.7836452313 0.9010914839 -1.9332413532
|  8> O 2.4849231731 -0.3241596277 -1.235046476
|  9> P 2.133585746 -0.3666333335 0.3044154178
| 10> S 1.1143184036 1.1481308232 1.025936613
| 11> O 3.5577660508 -0.5927579461 0.9707848974
| 12> C 3.7411096951 -0.6228613025 2.4018921294
| 13> C 4.2532584852 0.7142496479 2.9017408908
| 14> S 1.3151974655 -2.3078217493 0.4478066997
| 15> C -0.281291072 -2.0788551293 -0.3798292647
| 16> S -1.5041224632 -1.2069815683 0.6485651332
| 17> P -2.1355494155 0.2240411992 -0.8018968271
| 18> S -0.7853294338 0.8285516952 -2.0822266179
| 19> O -2.9033937898 1.3380596656 0.0206368106
| 20> C -2.2763578241 2.3276032913 0.860163463
| 21> C -2.2995098819 1.8959527632 2.3124467654
| 22> O -3.3044312066 -0.4897673763 -1.5819601251
| 23> C -4.4773695727 -1.0532543438 -0.943233276
| 24> C -5.6242738893 -0.0637587279 -0.9459403999
| 25> H 3.8985894275 1.8737843448 -0.3839851707
| 26> H 4.8714467733 0.8402218012 -1.4434004222
| 27> H 4.2868581404 2.4128290638 -2.0255320891
| 28> H 2.8790090506 0.5878619447 -2.973664061
| 29> H 1.924780389 1.5733665807 -1.8376231291
| 30> H 2.7948107947 -0.8835206333 2.8839417899
| 31> H 4.4676478631 -1.4190690234 2.5727655824
| 32> H 3.510831247 1.4895133673 2.7243399833
| 33> H 4.4457451689 0.6469995185 3.9675315086
| 34> H 5.1717637155 0.9792471538 2.385631747
| 35> H -0.6494010795 -3.0809729985 -0.5827821861
| 36> H -0.134282681 -1.5100626511 -1.3015510046
| 37> H -1.2517920092 2.5003230436 0.5187681331
| 38> H -2.8679212733 3.2316458727 0.7042507352
| 39> H -3.3149373093 1.66274189 2.6192875013
| 40> H -1.671975904 1.0197520467 2.4577949211
| 41> H -1.9114908339 2.7039766298 2.9237756574
| 42> H -4.7125008945 -1.9340607017 -1.5433350107
| 43> H -4.2141121889 -1.3557614492 0.0743402669
| 44> H -5.8360188085 0.2576531254 -1.962079282
| 45> H -6.5053063708 -0.5424268252 -0.5300399586
| 46> H -5.3733627147 0.8084585798 -0.3489115255
| 47> *
| 48>
| 49>                          ****END OF INPUT****

CARTESIAN COORDINATES (ANGSTROEM)
---------------------------------
  C      4.048042    1.549104   -1.413098
  C      2.783645    0.901091   -1.933241
  O      2.484923   -0.324160   -1.235046
  P      2.133586   -0.366633    0.304415
  S      1.114318    1.148131    1.025937
  O      3.557766   -0.592758    0.970785
  C      3.741110   -0.622861    2.401892
  C      4.253258    0.714250    2.901741
  S      1.315197   -2.307822    0.447807
  C     -0.281291   -2.078855   -0.379829
  S     -1.504122   -1.206982    0.648565
  P     -2.135549    0.224041   -0.801897
  S     -0.785329    0.828552   -2.082227
  O     -2.903394    1.338060    0.020637
  C     -2.276358    2.327603    0.860163
  C     -2.299510    1.895953    2.312447
  O     -3.304431   -0.489767   -1.581960
  C     -4.477370   -1.053254   -0.943233
  C     -5.624274   -0.063759   -0.945940
  H      3.898589    1.873784   -0.383985
  H      4.871447    0.840222   -1.443400
  H      4.286858    2.412829   -2.025532
  H      2.879009    0.587862   -2.973664
  H      1.924780    1.573367   -1.837623
  H      2.794811   -0.883521    2.883942
  H      4.467648   -1.419069    2.572766
  H      3.510831    1.489513    2.724340
  H      4.445745    0.647000    3.967532
  H      5.171764    0.979247    2.385632
  H     -0.649401   -3.080973   -0.582782
  H     -0.134283   -1.510063   -1.301551
  H     -1.251792    2.500323    0.518768
  H     -2.867921    3.231646    0.704251
  H     -3.314937    1.662742    2.619288
  H     -1.671976    1.019752    2.457795
  H     -1.911491    2.703977    2.923776
  H     -4.712501   -1.934061   -1.543335
  H     -4.214112   -1.355761    0.074340
  H     -5.836019    0.257653   -1.962079
  H     -6.505306   -0.542427   -0.530040
  H     -5.373363    0.808459   -0.348912

 Total Charge           Charge          ....    0
 Multiplicity           Mult            ....    1
 Number of Electrons    NEL             ....  202
 Basis Dimension        Dim             ....  334

ORBITAL ENERGIES
----------------

  NO   OCC          E(Eh)            E(eV)
   0   2.0000     -88.040481     -2395.7033
   1   2.0000     -88.038676     -2395.6542
   2   2.0000     -87.982858     -2394.1353
   3   2.0000     -87.979597     -2394.0465
   4   2.0000     -76.423956     -2079.6016
   5   2.0000     -76.423117     -2079.5787
   6   2.0000     -18.795008      -511.4382
   7   2.0000     -18.790200      -511.3073
   8   2.0000     -18.786626      -511.2101
   9   2.0000     -18.786005      -511.1932
  10   2.0000      -9.954282      -270.8698
  11   2.0000      -9.953680      -270.8534
  12   2.0000      -9.953494      -270.8483
  13   2.0000      -9.950121      -270.7566
  14   2.0000      -9.942937      -270.5611
  15   2.0000      -9.884551      -268.9723
  16   2.0000      -9.881497      -268.8892
  17   2.0000      -9.880697      -268.8674
  18   2.0000      -9.878325      -268.8029
  19   2.0000      -7.686115      -209.1498
  20   2.0000      -7.683457      -209.0775
  21   2.0000      -7.627645      -207.5588
  22   2.0000      -7.624793      -207.4812
  23   2.0000      -6.421414      -174.7356
  24   2.0000      -6.420726      -174.7168
  25   2.0000      -5.713966      -155.4849
  26   2.0000      -5.711273      -155.4116
  27   2.0000      -5.710610      -155.3936
  28   2.0000      -5.708052      -155.3240
  29   2.0000      -5.703035      -155.1875
  30   2.0000      -5.700442      -155.1169
  31   2.0000      -5.656361      -153.9174
  32   2.0000      -5.653859      -153.8493
  33   2.0000      -5.648285      -153.6977
  34   2.0000      -5.647971      -153.6891
  35   2.0000      -5.645538      -153.6229
  36   2.0000      -5.644596      -153.5973
  37   2.0000      -4.643924      -126.3676
  38   2.0000      -4.643581      -126.3583
  39   2.0000      -4.643248      -126.3492
  40   2.0000      -4.642494      -126.3287
  41   2.0000      -4.641919      -126.3130
  42   2.0000      -4.640905      -126.2855
  43   2.0000      -0.986763       -26.8512
  44   2.0000      -0.983881       -26.7728
  45   2.0000      -0.943311       -25.6688
  46   2.0000      -0.942956       -25.6591
  47   2.0000      -0.759235       -20.6598
  48   2.0000      -0.719789       -19.5865
  49   2.0000      -0.707572       -19.2540
  50   2.0000      -0.688817       -18.7437
  51   2.0000      -0.683976       -18.6119
  52   2.0000      -0.670647       -18.2492
  53   2.0000      -0.649939       -17.6857
  54   2.0000      -0.633110       -17.2278
  55   2.0000      -0.595345       -16.2002
  56   2.0000      -0.588751       -16.0207
  57   2.0000      -0.572195       -15.5702
  58   2.0000      -0.566798       -15.4234
  59   2.0000      -0.559576       -15.2268
  60   2.0000      -0.503369       -13.6974
  61   2.0000      -0.495299       -13.4778
  62   2.0000      -0.478103       -13.0099
  63   2.0000      -0.471492       -12.8299
  64   2.0000      -0.450080       -12.2473
  65   2.0000      -0.443396       -12.0654
  66   2.0000      -0.438309       -11.9270
  67   2.0000      -0.436894       -11.8885
  68   2.0000      -0.426971       -11.6185
  69   2.0000      -0.413866       -11.2619
  70   2.0000      -0.403679       -10.9847
  71   2.0000      -0.394661       -10.7393
  72   2.0000      -0.391105       -10.6425
  73   2.0000      -0.387123       -10.5342
  74   2.0000      -0.382423       -10.4063
  75   2.0000      -0.371603       -10.1118
  76   2.0000      -0.361363        -9.8332
  77   2.0000      -0.354775        -9.6539
  78   2.0000      -0.351701        -9.5703
  79   2.0000      -0.350611        -9.5406
  80   2.0000      -0.345545        -9.4028
  81   2.0000      -0.344320        -9.3694
  82   2.0000      -0.337255        -9.1772
  83   2.0000      -0.330839        -9.0026
  84   2.0000      -0.330647        -8.9974
  85   2.0000      -0.316529        -8.6132
  86   2.0000      -0.314025        -8.5451
  87   2.0000      -0.296127        -8.0580
  88   2.0000      -0.291916        -7.9434
  89   2.0000      -0.288675        -7.8553
  90   2.0000      -0.281747        -7.6667
  91   2.0000      -0.272256        -7.4085
  92   2.0000      -0.267552        -7.2805
  93   2.0000      -0.263130        -7.1601
  94   2.0000      -0.258737        -7.0406
  95   2.0000      -0.240831        -6.5534
  96   2.0000      -0.223299        -6.0763
  97   2.0000      -0.205190        -5.5835
  98   2.0000      -0.200106        -5.4452
  99   2.0000      -0.191825        -5.2198
 100   2.0000      -0.182758        -4.9731
 101   0.0000      -0.037131        -1.0104
 102   0.0000      -0.029824        -0.8116
 103   0.0000      -0.011365        -0.3093
 104   0.0000       0.003051         0.0830
 105   0.0000       0.021903         0.5960

MULLIKEN ATOMIC CHARGES
-----------------------
   0 C :   -0.311205
   1 C :   -0.011978
   2 O :   -0.363423
   3 P :    0.621830
   4 S :   -0.334600
   5 O :   -0.374564
   6 C :   -0.010302
   7 C :   -0.292200
   8 S :   -0.090419
   9 C :   -0.347583
  10 S :   -0.100873
  11 P :    0.607397
  12 S :   -0.308492
  13 O :   -0.380640
  14 C :   -0.011976
  15 C :   -0.309468
  16 O :   -0.356555
  17 C :   -0.012076
  18 C :   -0.289870
  19 H :    0.124556
  20 H :    0.115194
  21 H :    0.111014
  22 H :    0.105057
  23 H :    0.131220
  24 H :    0.104347
  25 H :    0.107826
  26 H :    0.127773
  27 H :    0.107475
  28 H :    0.114998
  29 H :    0.182107
  30 H :    0.195918
  31 H :    0.128004
  32 H :    0.105322
  33 H :    0.107974
  34 H :    0.141480
  35 H :    0.111705
  36 H :    0.106959
  37 H :    0.098600
  38 H :    0.119717
  39 H :    0.107804
  40 H :    0.121948
Sum of atomic charges:   -0.0000000

LOEWDIN ATOMIC CHARGES
----------------------
   0 C :   -0.367043
   1 C :   -0.118331
   2 O :   -0.234024
   3 P :    0.571107
   4 S :   -0.315837
   5 O :   -0.246261
   6 C :   -0.115501
   7 C :   -0.362626
   8 S :    0.080420
   9 C :   -0.479762
  10 S :    0.069038
  11 P :    0.570753
  12 S :   -0.299391
  13 O :   -0.239570
  14 C :   -0.114963
  15 C :   -0.365304
  16 O :   -0.240187
  17 C :   -0.117076
  18 C :   -0.360150
  19 H :    0.121433
  20 H :    0.125220
  21 H :    0.130274
  22 H :    0.119890
  23 H :    0.110672
  24 H :    0.109429
  25 H :    0.118677
  26 H :    0.124481
  27 H :    0.128646
  28 H :    0.125528
  29 H :    0.136414
  30 H :    0.124403
  31 H :    0.110675
  32 H :    0.118610
  33 H :    0.121922
  34 H :    0.122718
  35 H :    0.132029
  36 H :    0.119896
  37 H :    0.101043
  38 H :    0.128794
  39 H :    0.128445
  40 H :    0.125507

  Mayer bond orders larger than 0.100000
B(  0-C ,  1-C ) :   1.1623 B(  0-C , 19-H ) :   0.9330 B(  0-C , 20-H ) :   0.9448
B(  0-C , 21-H ) :   0.9383 B(  1-C ,  2-O ) :   0.8969 B(  1-C , 22-H ) :   0.9358
B(  1-C , 23-H ) :   0.9096 B(  2-O ,  3-P ) :   1.1402 B(  3-P ,  4-S ) :   1.6111
B(  3-P ,  5-O ) :   1.1028 B(  3-P ,  8-S ) :   0.9663 B(  4-S ,  8-S ) :   0.1172
B(  5-O ,  6-C ) :   0.9021 B(  6-C ,  7-C ) :   1.1696 B(  6-C , 24-H ) :   0.9146
B(  6-C , 25-H ) :   0.9349 B(  7-C , 26-H ) :   0.9322 B(  7-C , 27-H ) :   0.9395
B(  7-C , 28-H ) :   0.9460 B(  8-S ,  9-C ) :   1.0034 B(  9-C , 10-S ) :   0.9857
B(  9-C , 29-H ) :   0.9116 B(  9-C , 30-H ) :   0.8528 B( 10-S , 11-P ) :   0.9507
B( 10-S , 12-S ) :   0.1141 B( 11-P , 12-S ) :   1.6348 B( 11-P , 13-O ) :   1.1047
B( 11-P , 16-O ) :   1.1300 B( 12-S , 30-H ) :   0.1039 B( 13-O , 14-C ) :   0.8896
B( 14-C , 15-C ) :   1.1728 B( 14-C , 31-H ) :   0.9037 B( 14-C , 32-H ) :   0.9342
B( 15-C , 33-H ) :   0.9477 B( 15-C , 34-H ) :   0.9302 B( 15-C , 35-H ) :   0.9398
B( 16-O , 17-C ) :   0.9002 B( 17-C , 18-C ) :   1.1635 B( 17-C , 36-H ) :   0.9368
B( 17-C , 37-H ) :   0.9096 B( 18-C , 38-H ) :   0.9471 B( 18-C , 39-H ) :   0.9398
B( 18-C , 40-H ) :   0.9414

Dispersion correction           -0.066084342
FINAL SINGLE POINT ENERGY     -2929.517914834725

DIPOLE MOMENT
-------------

Method             : SCF
Type of density    : Electron Density
Multiplicity       :   1
Irrep              :   0
Energy             : -2929.6364184351687072 Eh
Relativity type    :
Basis              : AO
                                X                 Y                 Z
Electronic contribution:     -0.081144807     -11.471266954      -7.984588427
Nuclear contribution   :     -0.184517627      11.299978453       8.765587272
                        -----------------------------------------
Total Dipole Moment    :     -0.265662435      -0.171288501       0.780998845
                        -----------------------------------------
Magnitude (a.u.)       :      0.842541082
Magnitude (Debye)      :      2.141569237

Rotational constants in cm-1:             0.013404             0.004776             0.004730
Rotational constants in MHz :           401.848627           143.189353           141.810472

                             ****ORCA TERMINATED NORMALLY****
TOTAL RUN TIME: 0 days 0 hours 0 minutes 21 seconds 254 msec
