                         Program Version 6.0.0  -   RELEASE  -
|  1> ! pbe def2-sv(p) def2/J RI DEFGRID1 loosescf d4 GCP(DFT/SV(P)) printgap
|  2> %output
|  3>     printlevel normal
|  4> end
|  5> * xyz 0 1
|  6> C 4.3874700592 1.5298456215 1.3627258312
|  7> C 3.1965797516 1.7141405015 0.4452510073
|  8> O 2.7976206973 0.4590584972 -0.1431669096
|  9> P 1.990734459 -0.6359686782 0.6931406918
| 10> S 1.0561930616 0.0072772383 2.2795041672
| 11> O 3.0150987914 -1.7706008767 1.1111535969
| 12> C 3.9638078786 -2.3549091055 0.182157449
| 13> C 5.2561651597 -2.6163901284 0.9285346487
| 14> S 0.9084125688 -1.5614564684 -0.8815030503
| 15> C 0.4535409177 -0.0930063523 -1.8573417032
| 16> S -0.4054978536 1.1836946003 -0.91273397
| 17> P -2.2754124057 0.1757675367 -0.6497977774
| 18> S -2.6210675194 -1.2805841865 -1.9046263283
| 19> O -3.3092965655 1.3805992587 -0.6997293353
| 20> C -3.5989646588 2.0508414463 -1.9448475532
| 21> C -4.8456965188 2.8873850163 -1.7422005105
| 22> O -2.3474609407 -0.2806539525 0.8531451348
| 23> C -2.3370840146 0.6511634643 1.9646413847
| 24> C -3.7472963108 0.9452083774 2.4287024555
| 25> H 4.1167658775 0.8642607354 2.1822933357
| 26> H 5.2246217129 1.1017016766 0.8174152586
| 27> H 4.6793396243 2.4915617714 1.7722913777
| 28> H 3.4317778658 2.3480841346 -0.4103670271
| 29> H 2.3453784347 2.1289176637 0.9935316599
| 30> H 3.5210499934 -3.2815480701 -0.189598658
| 31> H 4.1156195631 -1.6654574745 -0.6519698664
| 32> H 5.9626697293 -3.0956075797 0.2584183891
| 33> H 5.6793350824 -1.6836730796 1.2914372151
| 34> H 5.0678040759 -3.266516408 1.7780932104
| 35> H -0.2022193168 -0.467011267 -2.6445675678
| 36> H 1.3492751049 0.3673786633 -2.2644841214
| 37> H -2.7378458255 2.6719069344 -2.206233433
| 38> H -3.7448094366 1.2920196471 -2.7204569813
| 39> H -4.6828313069 3.6134047658 -0.9509452824
| 40> H -5.0774174306 3.4081059795 -2.6653795321
| 41> H -5.6829937159 2.2504330716 -1.4711306392
| 42> H -1.7519184621 0.1503170855 2.7384029955
| 43> H -1.8153602728 1.5622658321 1.6596012215
| 44> H -3.7015116934 1.5860734984 3.3035176555
| 45> H -4.3072845001 1.4448409072 1.6428583792
| 46> H -4.2525895652 0.0188520722 2.6876399218
| 47> *
| 48>
| 49>                          ****END OF INPUT****

CARTESIAN COORDINATES (ANGSTROEM)
---------------------------------
  C      4.387470    1.529846    1.362726
  C      3.196580    1.714141    0.445251
  O      2.797621    0.459058   -0.143167
  P      1.990734   -0.635969    0.693141
  S      1.056193    0.007277    2.279504
  O      3.015099   -1.770601    1.111154
  C      3.963808   -2.354909    0.182157
  C      5.256165   -2.616390    0.928535
  S      0.908413   -1.561456   -0.881503
  C      0.453541   -0.093006   -1.857342
  S     -0.405498    1.183695   -0.912734
  P     -2.275412    0.175768   -0.649798
  S     -2.621068   -1.280584   -1.904626
  O     -3.309297    1.380599   -0.699729
  C     -3.598965    2.050841   -1.944848
  C     -4.845697    2.887385   -1.742201
  O     -2.347461   -0.280654    0.853145
  C     -2.337084    0.651163    1.964641
  C     -3.747296    0.945208    2.428702
  H      4.116766    0.864261    2.182293
  H      5.224622    1.101702    0.817415
  H      4.679340    2.491562    1.772291
  H      3.431778    2.348084   -0.410367
  H      2.345378    2.128918    0.993532
  H      3.521050   -3.281548   -0.189599
  H      4.115620   -1.665457   -0.651970
  H      5.962670   -3.095608    0.258418
  H      5.679335   -1.683673    1.291437
  H      5.067804   -3.266516    1.778093
  H     -0.202219   -0.467011   -2.644568
  H      1.349275    0.367379   -2.264484
  H     -2.737846    2.671907   -2.206233
  H     -3.744809    1.292020   -2.720457
  H     -4.682831    3.613405   -0.950945
  H     -5.077417    3.408106   -2.665380
  H     -5.682994    2.250433   -1.471131
  H     -1.751918    0.150317    2.738403
  H     -1.815360    1.562266    1.659601
  H     -3.701512    1.586073    3.303518
  H     -4.307285    1.444841    1.642858
  H     -4.252590    0.018852    2.687640

 Total Charge           Charge          ....    0
 Multiplicity           Mult            ....    1
 Number of Electrons    NEL             ....  202
 Basis Dimension        Dim             ....  334

ORBITAL ENERGIES
----------------

  NO   OCC          E(Eh)            E(eV)
   0   2.0000     -88.040404     -2395.7012
   1   2.0000     -88.036379     -2395.5917
   2   2.0000     -87.982998     -2394.1391
   3   2.0000     -87.980607     -2394.0740
   4   2.0000     -76.423699     -2079.5946
   5   2.0000     -76.422930     -2079.5737
   6   2.0000     -18.797723      -511.5121
   7   2.0000     -18.793714      -511.4029
   8   2.0000     -18.791207      -511.3347
   9   2.0000     -18.785932      -511.1912
  10   2.0000      -9.956173      -270.9212
  11   2.0000      -9.954793      -270.8837
  12   2.0000      -9.953995      -270.8620
  13   2.0000      -9.953492      -270.8483
  14   2.0000      -9.945421      -270.6287
  15   2.0000      -9.891322      -269.1565
  16   2.0000      -9.889952      -269.1193
  17   2.0000      -9.888687      -269.0849
  18   2.0000      -9.878769      -268.8150
  19   2.0000      -7.685131      -209.1230
  20   2.0000      -7.681581      -209.0264
  21   2.0000      -7.628315      -207.5770
  22   2.0000      -7.625959      -207.5129
  23   2.0000      -6.421404      -174.7353
  24   2.0000      -6.420670      -174.7153
  25   2.0000      -5.712936      -155.4569
  26   2.0000      -5.709676      -155.3682
  27   2.0000      -5.709597      -155.3660
  28   2.0000      -5.705993      -155.2680
  29   2.0000      -5.702269      -155.1666
  30   2.0000      -5.698417      -155.0618
  31   2.0000      -5.657320      -153.9435
  32   2.0000      -5.654938      -153.8787
  33   2.0000      -5.648736      -153.7099
  34   2.0000      -5.648532      -153.7044
  35   2.0000      -5.646384      -153.6459
  36   2.0000      -5.646151      -153.6396
  37   2.0000      -4.644578      -126.3854
  38   2.0000      -4.643483      -126.3556
  39   2.0000      -4.642929      -126.3405
  40   2.0000      -4.642400      -126.3261
  41   2.0000      -4.641548      -126.3030
  42   2.0000      -4.640909      -126.2855
  43   2.0000      -0.986815       -26.8526
  44   2.0000      -0.986601       -26.8468
  45   2.0000      -0.946906       -25.7666
  46   2.0000      -0.942168       -25.6377
  47   2.0000      -0.759962       -20.6796
  48   2.0000      -0.721142       -19.6233
  49   2.0000      -0.710016       -19.3205
  50   2.0000      -0.694280       -18.8923
  51   2.0000      -0.689371       -18.7587
  52   2.0000      -0.668880       -18.2011
  53   2.0000      -0.648440       -17.6449
  54   2.0000      -0.636926       -17.3316
  55   2.0000      -0.592228       -16.1154
  56   2.0000      -0.585639       -15.9360
  57   2.0000      -0.573352       -15.6017
  58   2.0000      -0.565612       -15.3911
  59   2.0000      -0.564826       -15.3697
  60   2.0000      -0.510911       -13.9026
  61   2.0000      -0.501826       -13.6554
  62   2.0000      -0.483584       -13.1590
  63   2.0000      -0.476518       -12.9667
  64   2.0000      -0.457612       -12.4523
  65   2.0000      -0.444232       -12.0882
  66   2.0000      -0.442939       -12.0530
  67   2.0000      -0.436515       -11.8782
  68   2.0000      -0.426974       -11.6186
  69   2.0000      -0.406429       -11.0595
  70   2.0000      -0.403403       -10.9772
  71   2.0000      -0.397414       -10.8142
  72   2.0000      -0.393630       -10.7112
  73   2.0000      -0.385091       -10.4788
  74   2.0000      -0.380279       -10.3479
  75   2.0000      -0.370446       -10.0803
  76   2.0000      -0.365068        -9.9340
  77   2.0000      -0.358703        -9.7608
  78   2.0000      -0.357451        -9.7267
  79   2.0000      -0.350975        -9.5505
  80   2.0000      -0.349484        -9.5099
  81   2.0000      -0.345591        -9.4040
  82   2.0000      -0.344856        -9.3840
  83   2.0000      -0.340348        -9.2613
  84   2.0000      -0.331306        -9.0153
  85   2.0000      -0.321091        -8.7373
  86   2.0000      -0.311769        -8.4837
  87   2.0000      -0.309123        -8.4117
  88   2.0000      -0.299957        -8.1622
  89   2.0000      -0.287944        -7.8354
  90   2.0000      -0.284845        -7.7510
  91   2.0000      -0.271111        -7.3773
  92   2.0000      -0.267985        -7.2922
  93   2.0000      -0.266951        -7.2641
  94   2.0000      -0.257529        -7.0077
  95   2.0000      -0.238623        -6.4933
  96   2.0000      -0.216511        -5.8916
  97   2.0000      -0.204736        -5.5711
  98   2.0000      -0.201964        -5.4957
  99   2.0000      -0.195080        -5.3084
 100   2.0000      -0.191121        -5.2007
 101   0.0000      -0.044894        -1.2216
 102   0.0000      -0.019541        -0.5317
 103   0.0000      -0.008413        -0.2289
 104   0.0000       0.004060         0.1105
 105   0.0000       0.016953         0.4613

MULLIKEN ATOMIC CHARGES
-----------------------
   0 C :   -0.315443
   1 C :   -0.009849
   2 O :   -0.394834
   3 P :    0.615956
   4 S :   -0.311723
   5 O :   -0.368363
   6 C :   -0.021301
   7 C :   -0.284619
   8 S :   -0.079835
   9 C :   -0.339310
  10 S :   -0.118355
  11 P :    0.613618
  12 S :   -0.311858
  13 O :   -0.385167
  14 C :   -0.009360
  15 C :   -0.282971
  16 O :   -0.346008
  17 C :   -0.019823
  18 C :   -0.282774
  19 H :    0.133137
  20 H :    0.114887
  21 H :    0.114285
  22 H :    0.101476
  23 H :    0.116363
  24 H :    0.114130
  25 H :    0.105087
  26 H :    0.111475
  27 H :    0.117056
  28 H :    0.124522
  29 H :    0.188097
  30 H :    0.181597
  31 H :    0.100454
  32 H :    0.104617
  33 H :    0.116445
  34 H :    0.112820
  35 H :    0.123451
  36 H :    0.127604
  37 H :    0.099890
  38 H :    0.107481
  39 H :    0.118185
  40 H :    0.118957
Sum of atomic charges:    0.0000000

LOEWDIN ATOMIC CHARGES
----------------------
   0 C :   -0.365539
   1 C :   -0.122220
   2 O :   -0.254381
   3 P :    0.564518
   4 S :   -0.301126
   5 O :   -0.245636
   6 C :   -0.120166
   7 C :   -0.351334
   8 S :    0.081921
   9 C :   -0.479329
  10 S :    0.061083
  11 P :    0.572922
  12 S :   -0.304906
  13 O :   -0.248620
  14 C :   -0.122064
  15 C :   -0.350725
  16 O :   -0.224573
  17 C :   -0.115172
  18 C :   -0.360077
  19 H :    0.126672
  20 H :    0.121732
  21 H :    0.132236
  22 H :    0.115900
  23 H :    0.110730
  24 H :    0.116942
  25 H :    0.107480
  26 H :    0.130395
  27 H :    0.125607
  28 H :    0.131404
  29 H :    0.127666
  30 H :    0.131157
  31 H :    0.106624
  32 H :    0.109222
  33 H :    0.125944
  34 H :    0.131302
  35 H :    0.129621
  36 H :    0.119623
  37 H :    0.104335
  38 H :    0.128863
  39 H :    0.123239
  40 H :    0.128730

  Mayer bond orders larger than 0.100000
B(  0-C ,  1-C ) :   1.1640 B(  0-C , 19-H ) :   0.9333 B(  0-C , 20-H ) :   0.9434
B(  0-C , 21-H ) :   0.9386 B(  1-C ,  2-O ) :   0.9001 B(  1-C , 22-H ) :   0.9334
B(  1-C , 23-H ) :   0.9094 B(  2-O ,  3-P ) :   1.0531 B(  3-P ,  4-S ) :   1.6480
B(  3-P ,  5-O ) :   1.1256 B(  3-P ,  8-S ) :   0.9758 B(  4-S ,  8-S ) :   0.1007
B(  5-O ,  6-C ) :   0.8940 B(  6-C ,  7-C ) :   1.1627 B(  6-C , 24-H ) :   0.9319
B(  6-C , 25-H ) :   0.9161 B(  7-C , 26-H ) :   0.9407 B(  7-C , 27-H ) :   0.9475
B(  7-C , 28-H ) :   0.9482 B(  8-S ,  9-C ) :   0.9958 B(  9-C , 10-S ) :   1.0177
B(  9-C , 29-H ) :   0.8757 B(  9-C , 30-H ) :   0.9016 B( 10-S , 11-P ) :   0.9309
B( 10-S , 12-S ) :   0.1120 B( 11-P , 12-S ) :   1.6497 B( 11-P , 13-O ) :   1.0716
B( 11-P , 16-O ) :   1.1684 B( 13-O , 14-C ) :   0.9063 B( 14-C , 15-C ) :   1.1595
B( 14-C , 31-H ) :   0.9245 B( 14-C , 32-H ) :   0.9105 B( 15-C , 33-H ) :   0.9506
B( 15-C , 34-H ) :   0.9419 B( 15-C , 35-H ) :   0.9506 B( 16-O , 17-C ) :   0.8823
B( 17-C , 18-C ) :   1.1587 B( 17-C , 36-H ) :   0.9243 B( 17-C , 37-H ) :   0.9203
B( 18-C , 38-H ) :   0.9404 B( 18-C , 39-H ) :   0.9408 B( 18-C , 40-H ) :   0.9462

Dispersion correction           -0.063873636
FINAL SINGLE POINT ENERGY     -2929.519801771700

DIPOLE MOMENT
-------------

Method             : SCF
Type of density    : Electron Density
Multiplicity       :   1
Irrep              :   0
Energy             : -2929.6402053696119765 Eh
Relativity type    :
Basis              : AO
                                X                 Y                 Z
Electronic contribution:     -6.244799516     -12.011052155      -5.168871602
Nuclear contribution   :      7.358277179      13.440441306       4.663262802
                        -----------------------------------------
Total Dipole Moment    :      1.113477663       1.429389151      -0.505608801
                        -----------------------------------------
Magnitude (a.u.)       :      1.881123630
Magnitude (Debye)      :      4.781436280

Rotational constants in cm-1:             0.014050             0.004395             0.004173
Rotational constants in MHz :           421.198877           131.770857           125.115209

                             ****ORCA TERMINATED NORMALLY****
TOTAL RUN TIME: 0 days 0 hours 0 minutes 20 seconds 375 msec
