                         Program Version 6.0.0  -   RELEASE  -
|  1> ! r2scan-3c def2/J RI DEFGRID2 scfconv6 printgap
|  2> %output
|  3>     printlevel normal
|  4> end
|  5> * xyz 0 1
|  6> C 1.2628662734 -0.290285732 0.0031684276
|  7> C 0.006523242 0.5660711097 -0.0499146804
|  8> O -1.1261848807 -0.2799215662 0.0446774602
|  9> H 1.290085176 -0.8459701258 0.9364209436
| 10> H 1.2588408621 -0.999493388 -0.8200228963
| 11> H 2.1433218897 0.340585405 -0.0676663236
| 12> H -0.0206542932 1.1256573914 -0.9947548454
| 13> H 0.0097885367 1.2831675851 0.7821250889
| 14> H -1.9312347079 0.2530587876 0.0117503195
| 15> *
| 16>
| 17>                          ****END OF INPUT****

CARTESIAN COORDINATES (ANGSTROEM)
---------------------------------
  C      1.262866   -0.290286    0.003168
  C      0.006523    0.566071   -0.049915
  O     -1.126185   -0.279922    0.044677
  H      1.290085   -0.845970    0.936421
  H      1.258841   -0.999493   -0.820023
  H      2.143322    0.340585   -0.067666
  H     -0.020654    1.125657   -0.994755
  H      0.009789    1.283168    0.782125
  H     -1.931235    0.253059    0.011750

 Total Charge           Charge          ....    0
 Multiplicity           Mult            ....    1
 Number of Electrons    NEL             ....   26
 Basis Dimension        Dim             ....   92

ORBITAL ENERGIES
----------------

  NO   OCC          E(Eh)            E(eV)
   0   2.0000     -18.944997      -515.5196
   1   2.0000     -10.075730      -274.1746
   2   2.0000     -10.017649      -272.5941
   3   2.0000      -0.980824       -26.6896
   4   2.0000      -0.714071       -19.4308
   5   2.0000      -0.576678       -15.6922
   6   2.0000      -0.483101       -13.1459
   7   2.0000      -0.431303       -11.7363
   8   2.0000      -0.369329       -10.0500
   9   2.0000      -0.354531        -9.6473
  10   2.0000      -0.333394        -9.0721
  11   2.0000      -0.295352        -8.0369
  12   2.0000      -0.234206        -6.3731
  13   0.0000       0.063636         1.7316
  14   0.0000       0.114291         3.1100
  15   0.0000       0.134274         3.6538
  16   0.0000       0.162279         4.4158
  17   0.0000       0.166960         4.5432

MULLIKEN ATOMIC CHARGES
-----------------------
   0 C :   -0.438019
   1 C :   -0.091078
   2 O :   -0.431036
   3 H :    0.150153
   4 H :    0.150138
   5 H :    0.136305
   6 H :    0.116688
   7 H :    0.116698
   8 H :    0.290151
Sum of atomic charges:   -0.0000000

LOEWDIN ATOMIC CHARGES
----------------------
   0 C :   -0.398257
   1 C :   -0.003218
   2 O :   -0.633051
   3 H :    0.157310
   4 H :    0.157332
   5 H :    0.154789
   6 H :    0.149935
   7 H :    0.149942
   8 H :    0.265218

  Mayer bond orders larger than 0.100000
B(  0-C ,  1-C ) :   0.9572 B(  0-C ,  3-H ) :   0.9717 B(  0-C ,  4-H ) :   0.9716
B(  0-C ,  5-H ) :   0.9667 B(  1-C ,  2-O ) :   0.9055 B(  1-C ,  6-H ) :   0.9630
B(  1-C ,  7-H ) :   0.9630 B(  2-O ,  8-H ) :   0.9027

Dispersion correction           -0.001192589
FINAL SINGLE POINT ENERGY      -154.999628683149

DIPOLE MOMENT
-------------

Method             : SCF
Type of density    : Electron Density
Multiplicity       :   1
Irrep              :   0
Energy             :  -155.0040856608066804 Eh
Relativity type    :
Basis              : AO
                                X                 Y                 Z
Electronic contribution:     -2.572703862      -0.491715198       0.090071705
Nuclear contribution   :      2.563351109       1.081304369      -0.142075815
                        -----------------------------------------
Total Dipole Moment    :     -0.009352753       0.589589171      -0.052004110
                        -----------------------------------------
Magnitude (a.u.)       :      0.591952103
Magnitude (Debye)      :      1.504622671

Rotational constants in cm-1:             1.192095             0.310184             0.271262
Rotational constants in MHz :         35738.108642          9299.097232          8132.219854

                             ****ORCA TERMINATED NORMALLY****
TOTAL RUN TIME: 0 days 0 hours 0 minutes 12 seconds 744 msec
