                         Program Version 6.0.0  -   RELEASE  -
|  1> ! r2scan-3c def2/J RI DEFGRID2 scfconv6 printgap
|  2> %output
|  3>     printlevel normal
|  4> end
|  5> %cpcm
|  6>     smd true
|  7>     smdsolvent "water"
|  8> end
|  9> * xyz 0 1
| 10> C 1.2628662734 -0.290285732 0.0031684276
| 11> C 0.006523242 0.5660711097 -0.0499146804
| 12> O -1.1261848807 -0.2799215662 0.0446774602
| 13> H 1.290085176 -0.8459701258 0.9364209436
| 14> H 1.2588408621 -0.999493388 -0.8200228963
| 15> H 2.1433218897 0.340585405 -0.0676663236
| 16> H -0.0206542932 1.1256573914 -0.9947548454
| 17> H 0.0097885367 1.2831675851 0.7821250889
| 18> H -1.9312347079 0.2530587876 0.0117503195
| 19> *
| 20>
| 21>                          ****END OF INPUT****

CARTESIAN COORDINATES (ANGSTROEM)
---------------------------------
  C      1.262866   -0.290286    0.003168
  C      0.006523    0.566071   -0.049915
  O     -1.126185   -0.279922    0.044677
  H      1.290085   -0.845970    0.936421
  H      1.258841   -0.999493   -0.820023
  H      2.143322    0.340585   -0.067666
  H     -0.020654    1.125657   -0.994755
  H      0.009789    1.283168    0.782125
  H     -1.931235    0.253059    0.011750

 Total Charge           Charge          ....    0
 Multiplicity           Mult            ....    1
 Number of Electrons    NEL             ....   26
 Basis Dimension        Dim             ....   92

ORBITAL ENERGIES
----------------

  NO   OCC          E(Eh)            E(eV)
   0   2.0000     -18.948901      -515.6258
   1   2.0000     -10.069642      -274.0089
   2   2.0000     -10.012174      -272.4451
   3   2.0000      -0.983505       -26.7625
   4   2.0000      -0.709620       -19.3097
   5   2.0000      -0.572216       -15.5708
   6   2.0000      -0.480702       -13.0806
   7   2.0000      -0.427277       -11.6268
   8   2.0000      -0.370581       -10.0840
   9   2.0000      -0.349260        -9.5039
  10   2.0000      -0.330111        -8.9828
  11   2.0000      -0.297261        -8.0889
  12   2.0000      -0.238824        -6.4987
  13   0.0000       0.080041         2.1780
  14   0.0000       0.122066         3.3216
  15   0.0000       0.141211         3.8425
  16   0.0000       0.171244         4.6598
  17   0.0000       0.175164         4.7664

MULLIKEN ATOMIC CHARGES
-----------------------
   0 C :   -0.478637
   1 C :   -0.092409
   2 O :   -0.517317
   3 H :    0.156977
   4 H :    0.156919
   5 H :    0.159420
   6 H :    0.135231
   7 H :    0.135176
   8 H :    0.344639
Sum of atomic charges:   -0.0000000

LOEWDIN ATOMIC CHARGES
----------------------
   0 C :   -0.408149
   1 C :   -0.000940
   2 O :   -0.670010
   3 H :    0.157238
   4 H :    0.157241
   5 H :    0.163539
   6 H :    0.158500
   7 H :    0.158479
   8 H :    0.284103

  Mayer bond orders larger than 0.100000
B(  0-C ,  1-C ) :   0.9416 B(  0-C ,  3-H ) :   0.9692 B(  0-C ,  4-H ) :   0.9692
B(  0-C ,  5-H ) :   0.9621 B(  1-C ,  2-O ) :   0.8896 B(  1-C ,  6-H ) :   0.9629
B(  1-C ,  7-H ) :   0.9630 B(  2-O ,  8-H ) :   0.8756

Dispersion correction           -0.001192589
FINAL SINGLE POINT ENERGY      -155.006624781849

DIPOLE MOMENT
-------------

Method             : SCF
Type of density    : Electron Density
Multiplicity       :   1
Irrep              :   0
Energy             :  -155.0110817595069364 Eh
Relativity type    :
Basis              : AO
                                X                 Y                 Z
Electronic contribution:     -2.568797626      -0.233724222       0.067534034
Nuclear contribution   :      2.563351109       1.081304369      -0.142075815
                        -----------------------------------------
Total Dipole Moment    :     -0.005446517       0.847580147      -0.074541781
                        -----------------------------------------
Magnitude (a.u.)       :      0.850869112
Magnitude (Debye)      :      2.162737408

Rotational constants in cm-1:             1.192095             0.310184             0.271262
Rotational constants in MHz :         35738.108642          9299.097232          8132.219854

                             ****ORCA TERMINATED NORMALLY****
TOTAL RUN TIME: 0 days 0 hours 0 minutes 13 seconds 783 msec
