                         Program Version 6.0.0  -   RELEASE  -
|  1> ! pbe def2-sv(p) def2/J RI DEFGRID1 loosescf d4 GCP(DFT/SV(P)) printgap
|  2> %output
|  3>     printlevel normal
|  4> end
|  5> * xyz 0 1
|  6> C 2.3613456756 -1.3902280444 0.0012182862
|  7> C 1.1627199199 -0.6991439534 0.0031353841
|  8> C 1.1627383881 0.6991326164 0.0032277034
|  9> C 2.3613484805 1.3902507199 0.0016338172
| 10> C 3.5627426342 0.6943385552 -0.0001582493
| 11> C 3.5627402996 -0.6943204181 -0.0004466613
| 12> Cl 5.050851553 -1.5695524085 -0.0029784358
| 13> Cl 5.0508703993 1.5695453877 -0.0022296313
| 14> O 7.6408e-06 1.4269670796 0.0048134414
| 15> C -1.1627260976 0.6991296202 0.0031898735
| 16> C -2.3613363197 1.3902337631 0.0013384164
| 17> C -3.5627345517 0.6943303097 -0.0004284369
| 18> C -3.562784836 -0.694350208 -0.0001802548
| 19> C -2.3613500326 -1.3902427231 0.0016440507
| 20> C -1.1627394133 -0.6991490734 0.0032833504
| 21> O -4.541e-06 -1.4269826596 0.0048541098
| 22> Cl -5.0508506987 -1.5695674712 -0.0022308673
| 23> Cl -5.0508605053 1.5695871195 -0.0030080036
| 24> H 2.3470438992 -2.4667770302 0.001068876
| 25> H 2.3470509664 2.4668344284 0.0018245901
| 26> H -2.3470171059 2.4667999798 0.0012322967
| 27> H -2.3470777858 -2.4668297746 0.0018479295
| 28> *
| 29>
| 30>                          ****END OF INPUT****

CARTESIAN COORDINATES (ANGSTROEM)
---------------------------------
  C      2.361346   -1.390228    0.001218
  C      1.162720   -0.699144    0.003135
  C      1.162738    0.699133    0.003228
  C      2.361348    1.390251    0.001634
  C      3.562743    0.694339   -0.000158
  C      3.562740   -0.694320   -0.000447
  Cl     5.050852   -1.569552   -0.002978
  Cl     5.050870    1.569545   -0.002230
  O      0.000008    1.426967    0.004813
  C     -1.162726    0.699130    0.003190
  C     -2.361336    1.390234    0.001338
  C     -3.562735    0.694330   -0.000428
  C     -3.562785   -0.694350   -0.000180
  C     -2.361350   -1.390243    0.001644
  C     -1.162739   -0.699149    0.003283
  O     -0.000005   -1.426983    0.004854
  Cl    -5.050851   -1.569567   -0.002231
  Cl    -5.050861    1.569587   -0.003008
  H      2.347044   -2.466777    0.001069
  H      2.347051    2.466834    0.001825
  H     -2.347017    2.466800    0.001232
  H     -2.347078   -2.466830    0.001848

 Total Charge           Charge          ....    0
 Multiplicity           Mult            ....    1
 Number of Electrons    NEL             ....  160
 Basis Dimension        Dim             ....  276

ORBITAL ENERGIES
----------------

  NO   OCC          E(Eh)            E(eV)
   0   2.0000    -100.654173     -2738.9393
   1   2.0000    -100.654170     -2738.9392
   2   2.0000    -100.654093     -2738.9371
   3   2.0000    -100.654089     -2738.9370
   4   2.0000     -18.836460      -512.5661
   5   2.0000     -18.836284      -512.5613
   6   2.0000      -9.989332      -271.8235
   7   2.0000      -9.989298      -271.8226
   8   2.0000      -9.989144      -271.8184
   9   2.0000      -9.989071      -271.8164
  10   2.0000      -9.972897      -271.3763
  11   2.0000      -9.972890      -271.3761
  12   2.0000      -9.972666      -271.3700
  13   2.0000      -9.972662      -271.3699
  14   2.0000      -9.927362      -270.1373
  15   2.0000      -9.927299      -270.1355
  16   2.0000      -9.927237      -270.1339
  17   2.0000      -9.927215      -270.1333
  18   2.0000      -9.189908      -250.0701
  19   2.0000      -9.189905      -250.0700
  20   2.0000      -9.189840      -250.0683
  21   2.0000      -9.189837      -250.0682
  22   2.0000      -7.021512      -191.0650
  23   2.0000      -7.021507      -191.0649
  24   2.0000      -7.021493      -191.0646
  25   2.0000      -7.021492      -191.0645
  26   2.0000      -7.009838      -190.7474
  27   2.0000      -7.009833      -190.7473
  28   2.0000      -7.009824      -190.7470
  29   2.0000      -7.009823      -190.7470
  30   2.0000      -7.009049      -190.7259
  31   2.0000      -7.009045      -190.7258
  32   2.0000      -7.009012      -190.7249
  33   2.0000      -7.009010      -190.7249
  34   2.0000      -1.043207       -28.3871
  35   2.0000      -1.008333       -27.4381
  36   2.0000      -0.853850       -23.2344
  37   2.0000      -0.848293       -23.0832
  38   2.0000      -0.798101       -21.7174
  39   2.0000      -0.793729       -21.5985
  40   2.0000      -0.792944       -21.5771
  41   2.0000      -0.766635       -20.8612
  42   2.0000      -0.724767       -19.7219
  43   2.0000      -0.690720       -18.7954
  44   2.0000      -0.685094       -18.6423
  45   2.0000      -0.654103       -17.7991
  46   2.0000      -0.613894       -16.7049
  47   2.0000      -0.605244       -16.4695
  48   2.0000      -0.578739       -15.7483
  49   2.0000      -0.561051       -15.2670
  50   2.0000      -0.522866       -14.2279
  51   2.0000      -0.505142       -13.7456
  52   2.0000      -0.471499       -12.8301
  53   2.0000      -0.459485       -12.5032
  54   2.0000      -0.457219       -12.4416
  55   2.0000      -0.454552       -12.3690
  56   2.0000      -0.438538       -11.9332
  57   2.0000      -0.426093       -11.5946
  58   2.0000      -0.420726       -11.4485
  59   2.0000      -0.395009       -10.7487
  60   2.0000      -0.394744       -10.7415
  61   2.0000      -0.394719       -10.7408
  62   2.0000      -0.390410       -10.6236
  63   2.0000      -0.383329       -10.4309
  64   2.0000      -0.375759       -10.2249
  65   2.0000      -0.374900       -10.2015
  66   2.0000      -0.368814       -10.0360
  67   2.0000      -0.323062        -8.7910
  68   2.0000      -0.316862        -8.6223
  69   2.0000      -0.315297        -8.5797
  70   2.0000      -0.313319        -8.5258
  71   2.0000      -0.293341        -7.9822
  72   2.0000      -0.292208        -7.9514
  73   2.0000      -0.270814        -7.3692
  74   2.0000      -0.270489        -7.3604
  75   2.0000      -0.269705        -7.3390
  76   2.0000      -0.254631        -6.9289
  77   2.0000      -0.233349        -6.3497
  78   2.0000      -0.230890        -6.2828
  79   2.0000      -0.190430        -5.1819
  80   0.0000      -0.072822        -1.9816
  81   0.0000      -0.065241        -1.7753
  82   0.0000      -0.065029        -1.7695
  83   0.0000      -0.031444        -0.8556
  84   0.0000      -0.030154        -0.8205

MULLIKEN ATOMIC CHARGES
-----------------------
   0 C :   -0.229627
   1 C :    0.224217
   2 C :    0.224161
   3 C :   -0.229600
   4 C :    0.102357
   5 C :    0.102394
   6 Cl:   -0.049011
   7 Cl:   -0.049014
   8 O :   -0.204195
   9 C :    0.224189
  10 C :   -0.229614
  11 C :    0.102365
  12 C :    0.102364
  13 C :   -0.229626
  14 C :    0.224211
  15 O :   -0.204190
  16 Cl:   -0.048992
  17 Cl:   -0.049023
  18 H :    0.054145
  19 H :    0.054167
  20 H :    0.054156
  21 H :    0.054166
Sum of atomic charges:   -0.0000000

LOEWDIN ATOMIC CHARGES
----------------------
   0 C :   -0.145071
   1 C :    0.016325
   2 C :    0.016327
   3 C :   -0.145071
   4 C :   -0.160194
   5 C :   -0.160195
   6 Cl:    0.151182
   7 Cl:    0.151181
   8 O :   -0.018715
   9 C :    0.016330
  10 C :   -0.145073
  11 C :   -0.160182
  12 C :   -0.160217
  13 C :   -0.145070
  14 C :    0.016326
  15 O :   -0.018713
  16 Cl:    0.151220
  17 Cl:    0.151161
  18 H :    0.147111
  19 H :    0.147114
  20 H :    0.147114
  21 H :    0.147111

  Mayer bond orders larger than 0.100000
B(  0-C ,  1-C ) :   1.3270 B(  0-C ,  3-C ) :   0.1248 B(  0-C ,  5-C ) :   1.3064
B(  0-C , 18-H ) :   0.9824 B(  1-C ,  2-C ) :   1.2691 B(  1-C , 15-O ) :   1.0582
B(  2-C ,  3-C ) :   1.3270 B(  2-C ,  8-O ) :   1.0582 B(  3-C ,  4-C ) :   1.3064
B(  3-C , 19-H ) :   0.9824 B(  4-C ,  5-C ) :   1.4292 B(  4-C ,  7-Cl) :   1.0311
B(  5-C ,  6-Cl) :   1.0312 B(  8-O ,  9-C ) :   1.0582 B(  9-C , 10-C ) :   1.3270
B(  9-C , 14-C ) :   1.2691 B( 10-C , 11-C ) :   1.3064 B( 10-C , 13-C ) :   0.1248
B( 10-C , 20-H ) :   0.9824 B( 11-C , 12-C ) :   1.4292 B( 11-C , 17-Cl) :   1.0311
B( 12-C , 13-C ) :   1.3064 B( 12-C , 16-Cl) :   1.0312 B( 13-C , 14-C ) :   1.3270
B( 13-C , 21-H ) :   0.9824 B( 14-C , 15-O ) :   1.0582

Dispersion correction           -0.039459374
FINAL SINGLE POINT ENERGY     -2448.391895111115

DIPOLE MOMENT
-------------

Method             : SCF
Type of density    : Electron Density
Multiplicity       :   1
Irrep              :   0
Energy             : -2448.4324294224616096 Eh
Relativity type    :
Basis              : AO
                                X                 Y                 Z
Electronic contribution:     -0.000070053      -0.000072300      -0.019145010
Nuclear contribution   :     -0.000014405       0.000008718       0.019769295
                        -----------------------------------------
Total Dipole Moment    :     -0.000084458      -0.000063582       0.000624286
                        -----------------------------------------
Magnitude (a.u.)       :      0.000633173
Magnitude (Debye)      :      0.001609399

Rotational constants in cm-1:             0.029137             0.003679             0.003266
Rotational constants in MHz :           873.519954           110.280368            97.918437

                             ****ORCA TERMINATED NORMALLY****
TOTAL RUN TIME: 0 days 0 hours 0 minutes 15 seconds 307 msec
