                         Program Version 6.0.0  -   RELEASE  -
|  1> ! r2scan-3c def2/J RI DEFGRID2 scfconv6 printgap
|  2> %output
|  3>     printlevel normal
|  4> end
|  5> * xyz 0 1
|  6> C 0.445401409 -1.645041674 2.794713645
|  7> C 1.5728926595 -0.6393707104 2.6726911516
|  8> O 1.3911928672 0.1830887453 1.4963047585
|  9> P 2.2460016042 0.0163790762 0.1783677615
| 10> S 2.9615401574 -1.7736215679 -0.1910671334
| 11> O 3.3225350729 1.1675334744 0.4000604899
| 12> C 4.3717799664 1.4395611431 -0.5523842234
| 13> C 5.6491677552 0.7174279106 -0.1697163773
| 14> S 0.9852441027 0.8581460966 -1.2917474086
| 15> C 0.2312113507 -0.6871309975 -1.8743667232
| 16> S -0.7300268039 -1.532231727 -0.5944121983
| 17> P -2.1113373042 0.0329162963 -0.2333570496
| 18> S -2.6644059387 1.0532595609 -1.8181314689
| 19> O -1.4175620468 0.8632843608 0.9193830972
| 20> C -1.5068065423 2.2964360723 1.0085541337
| 21> C -2.8473367385 2.7176427473 1.5726119957
| 22> O -3.2379922495 -0.6999888161 0.6108153964
| 23> C -4.0928301429 -1.7272544391 0.0702321195
| 24> C -5.3294650976 -1.1339706913 -0.5769108277
| 25> H -0.5143502371 -1.1379865868 2.7266743231
| 26> H 0.5076163541 -2.3810959918 1.9957631245
| 27> H 0.5202716278 -2.1511841819 3.7517506116
| 28> H 2.5412409906 -1.1443488929 2.6134502247
| 29> H 1.5743750026 0.0638201851 3.5070099681
| 30> H 4.0379416937 1.1457342169 -1.5516330775
| 31> H 4.5005874944 2.5229181676 -0.517191933
| 32> H 5.5000306106 -0.3593211876 -0.2089339135
| 33> H 6.4360446848 0.9912752956 -0.8650090236
| 34> H 5.9461795898 0.9941392252 0.8379413042
| 35> H 1.0100640755 -1.3829970318 -2.1844667423
| 36> H -0.4182902244 -0.4138976286 -2.7054065715
| 37> H -0.6775827357 2.5762529931 1.6601620235
| 38> H -1.3510128682 2.7242111479 0.0121321815
| 39> H -2.8698202126 3.7966909723 1.6870640577
| 40> H -3.6400471202 2.4150388929 0.8892602364
| 41> H -3.0153143615 2.244853417 2.5363774997
| 42> H -3.5235709235 -2.3292522911 -0.6440860971
| 43> H -4.3532115506 -2.3405890613 0.9349512139
| 44> H -5.0526693224 -0.5116488414 -1.4249739864
| 45> H -5.9716721551 -1.9374986534 -0.9227309246
| 46> H -5.8716029052 -0.5246729353 0.1409170959
| 47> *
| 48>
| 49>                          ****END OF INPUT****

CARTESIAN COORDINATES (ANGSTROEM)
---------------------------------
  C      0.445401   -1.645042    2.794714
  C      1.572893   -0.639371    2.672691
  O      1.391193    0.183089    1.496305
  P      2.246002    0.016379    0.178368
  S      2.961540   -1.773622   -0.191067
  O      3.322535    1.167533    0.400060
  C      4.371780    1.439561   -0.552384
  C      5.649168    0.717428   -0.169716
  S      0.985244    0.858146   -1.291747
  C      0.231211   -0.687131   -1.874367
  S     -0.730027   -1.532232   -0.594412
  P     -2.111337    0.032916   -0.233357
  S     -2.664406    1.053260   -1.818131
  O     -1.417562    0.863284    0.919383
  C     -1.506807    2.296436    1.008554
  C     -2.847337    2.717643    1.572612
  O     -3.237992   -0.699989    0.610815
  C     -4.092830   -1.727254    0.070232
  C     -5.329465   -1.133971   -0.576911
  H     -0.514350   -1.137987    2.726674
  H      0.507616   -2.381096    1.995763
  H      0.520272   -2.151184    3.751751
  H      2.541241   -1.144349    2.613450
  H      1.574375    0.063820    3.507010
  H      4.037942    1.145734   -1.551633
  H      4.500587    2.522918   -0.517192
  H      5.500031   -0.359321   -0.208934
  H      6.436045    0.991275   -0.865009
  H      5.946180    0.994139    0.837941
  H      1.010064   -1.382997   -2.184467
  H     -0.418290   -0.413898   -2.705407
  H     -0.677583    2.576253    1.660162
  H     -1.351013    2.724211    0.012132
  H     -2.869820    3.796691    1.687064
  H     -3.640047    2.415039    0.889260
  H     -3.015314    2.244853    2.536377
  H     -3.523571   -2.329252   -0.644086
  H     -4.353212   -2.340589    0.934951
  H     -5.052669   -0.511649   -1.424974
  H     -5.971672   -1.937499   -0.922731
  H     -5.871603   -0.524673    0.140917

 Total Charge           Charge          ....    0
 Multiplicity           Mult            ....    1
 Number of Electrons    NEL             ....  202
 Basis Dimension        Dim             ....  539

ORBITAL ENERGIES
----------------

  NO   OCC          E(Eh)            E(eV)
   0   2.0000     -88.576254     -2410.2824
   1   2.0000     -88.574345     -2410.2305
   2   2.0000     -88.520963     -2408.7779
   3   2.0000     -88.520419     -2408.7631
   4   2.0000     -76.914021     -2092.9369
   5   2.0000     -76.913391     -2092.9198
   6   2.0000     -18.993734      -516.8458
   7   2.0000     -18.989872      -516.7407
   8   2.0000     -18.986234      -516.6417
   9   2.0000     -18.985902      -516.6327
  10   2.0000     -10.105712      -274.9904
  11   2.0000     -10.102135      -274.8931
  12   2.0000     -10.099283      -274.8155
  13   2.0000     -10.095973      -274.7254
  14   2.0000     -10.092742      -274.6375
  15   2.0000     -10.026438      -272.8332
  16   2.0000     -10.025451      -272.8064
  17   2.0000     -10.024960      -272.7930
  18   2.0000     -10.021036      -272.6862
  19   2.0000      -7.870490      -214.1669
  20   2.0000      -7.868737      -214.1192
  21   2.0000      -7.815820      -212.6793
  22   2.0000      -7.815310      -212.6654
  23   2.0000      -6.592406      -179.3885
  24   2.0000      -6.591713      -179.3696
  25   2.0000      -5.817381      -158.2990
  26   2.0000      -5.815613      -158.2509
  27   2.0000      -5.814297      -158.2151
  28   2.0000      -5.812540      -158.1672
  29   2.0000      -5.807658      -158.0344
  30   2.0000      -5.805883      -157.9861
  31   2.0000      -5.763460      -156.8317
  32   2.0000      -5.762909      -156.8167
  33   2.0000      -5.756015      -156.6291
  34   2.0000      -5.755908      -156.6262
  35   2.0000      -5.755676      -156.6199
  36   2.0000      -5.755268      -156.6088
  37   2.0000      -4.737788      -128.9218
  38   2.0000      -4.737394      -128.9110
  39   2.0000      -4.737130      -128.9039
  40   2.0000      -4.736649      -128.8908
  41   2.0000      -4.736212      -128.8789
  42   2.0000      -4.735552      -128.8609
  43   2.0000      -1.050097       -28.5746
  44   2.0000      -1.046695       -28.4820
  45   2.0000      -1.010013       -27.4839
  46   2.0000      -1.006505       -27.3884
  47   2.0000      -0.802579       -21.8393
  48   2.0000      -0.757580       -20.6148
  49   2.0000      -0.747653       -20.3447
  50   2.0000      -0.728657       -19.8278
  51   2.0000      -0.726899       -19.7799
  52   2.0000      -0.708584       -19.2815
  53   2.0000      -0.685667       -18.6579
  54   2.0000      -0.670434       -18.2434
  55   2.0000      -0.628990       -17.1157
  56   2.0000      -0.622275       -16.9330
  57   2.0000      -0.605488       -16.4762
  58   2.0000      -0.600803       -16.3487
  59   2.0000      -0.590863       -16.0782
  60   2.0000      -0.529871       -14.4185
  61   2.0000      -0.521182       -14.1821
  62   2.0000      -0.495219       -13.4756
  63   2.0000      -0.492429       -13.3997
  64   2.0000      -0.471122       -12.8199
  65   2.0000      -0.458020       -12.4633
  66   2.0000      -0.456472       -12.4212
  67   2.0000      -0.452748       -12.3199
  68   2.0000      -0.443582       -12.0705
  69   2.0000      -0.423348       -11.5199
  70   2.0000      -0.422450       -11.4954
  71   2.0000      -0.416526       -11.3342
  72   2.0000      -0.410745       -11.1769
  73   2.0000      -0.404717       -11.0129
  74   2.0000      -0.395716       -10.7680
  75   2.0000      -0.388605       -10.5745
  76   2.0000      -0.383237       -10.4284
  77   2.0000      -0.368680       -10.0323
  78   2.0000      -0.365735        -9.9522
  79   2.0000      -0.361853        -9.8465
  80   2.0000      -0.360940        -9.8217
  81   2.0000      -0.359477        -9.7819
  82   2.0000      -0.351329        -9.5602
  83   2.0000      -0.350377        -9.5342
  84   2.0000      -0.346547        -9.4300
  85   2.0000      -0.336158        -9.1473
  86   2.0000      -0.317369        -8.6361
  87   2.0000      -0.311915        -8.4876
  88   2.0000      -0.311307        -8.4711
  89   2.0000      -0.303897        -8.2694
  90   2.0000      -0.297445        -8.0939
  91   2.0000      -0.293609        -7.9895
  92   2.0000      -0.285010        -7.7555
  93   2.0000      -0.279108        -7.5949
  94   2.0000      -0.271434        -7.3861
  95   2.0000      -0.245432        -6.6785
  96   2.0000      -0.231528        -6.3002
  97   2.0000      -0.226543        -6.1646
  98   2.0000      -0.219976        -5.9859
  99   2.0000      -0.213461        -5.8086
 100   2.0000      -0.210823        -5.7368
 101   0.0000      -0.047571        -1.2945
 102   0.0000      -0.025087        -0.6826
 103   0.0000      -0.000988        -0.0269
 104   0.0000       0.000409         0.0111
 105   0.0000       0.011229         0.3056

MULLIKEN ATOMIC CHARGES
-----------------------
   0 C :   -0.478269
   1 C :   -0.118766
   2 O :   -0.256679
   3 P :    0.681416
   4 S :   -0.479523
   5 O :   -0.297814
   6 C :   -0.131048
   7 C :   -0.451045
   8 S :   -0.138117
   9 C :   -0.227128
  10 S :   -0.139557
  11 P :    0.700793
  12 S :   -0.483020
  13 O :   -0.251315
  14 C :   -0.155753
  15 C :   -0.444389
  16 O :   -0.307241
  17 C :   -0.141284
  18 C :   -0.448650
  19 H :    0.167231
  20 H :    0.176183
  21 H :    0.140596
  22 H :    0.159947
  23 H :    0.146884
  24 H :    0.152351
  25 H :    0.149841
  26 H :    0.180533
  27 H :    0.144395
  28 H :    0.150856
  29 H :    0.207844
  30 H :    0.207998
  31 H :    0.160078
  32 H :    0.174735
  33 H :    0.146480
  34 H :    0.166099
  35 H :    0.152584
  36 H :    0.153950
  37 H :    0.150783
  38 H :    0.180455
  39 H :    0.145261
  40 H :    0.152303
Sum of atomic charges:   -0.0000000

LOEWDIN ATOMIC CHARGES
----------------------
   0 C :   -0.403479
   1 C :    0.027994
   2 O :   -0.658466
   3 P :    0.378152
   4 S :   -0.130294
   5 O :   -0.661334
   6 C :    0.020663
   7 C :   -0.401406
   8 S :    0.176432
   9 C :   -0.419446
  10 S :    0.161622
  11 P :    0.379860
  12 S :   -0.129671
  13 O :   -0.666701
  14 C :    0.013611
  15 C :   -0.398221
  16 O :   -0.656538
  17 C :    0.022594
  18 C :   -0.402070
  19 H :    0.165749
  20 H :    0.166041
  21 H :    0.155735
  22 H :    0.178202
  23 H :    0.176289
  24 H :    0.175427
  25 H :    0.178189
  26 H :    0.168580
  27 H :    0.157726
  28 H :    0.158149
  29 H :    0.190083
  30 H :    0.189442
  31 H :    0.181821
  32 H :    0.182115
  33 H :    0.159267
  34 H :    0.164555
  35 H :    0.158627
  36 H :    0.175239
  37 H :    0.179565
  38 H :    0.169175
  39 H :    0.157871
  40 H :    0.158853

  Mayer bond orders larger than 0.100000
B(  0-C ,  1-C ) :   0.9458 B(  0-C , 19-H ) :   0.9675 B(  0-C , 20-H ) :   0.9639
B(  0-C , 21-H ) :   0.9633 B(  1-C ,  2-O ) :   0.7606 B(  1-C , 22-H ) :   0.9657
B(  1-C , 23-H ) :   0.9595 B(  2-O ,  3-P ) :   1.1777 B(  3-P ,  4-S ) :   1.7432
B(  3-P ,  5-O ) :   1.0713 B(  3-P ,  8-S ) :   1.0894 B(  5-O ,  6-C ) :   0.7763
B(  6-C ,  7-C ) :   0.9571 B(  6-C , 24-H ) :   0.9622 B(  6-C , 25-H ) :   0.9639
B(  7-C , 26-H ) :   0.9569 B(  7-C , 27-H ) :   0.9653 B(  7-C , 28-H ) :   0.9748
B(  8-S ,  9-C ) :   0.8951 B(  9-C , 10-S ) :   0.8994 B(  9-C , 29-H ) :   0.9106
B(  9-C , 30-H ) :   0.9100 B( 10-S , 11-P ) :   1.0677 B( 11-P , 12-S ) :   1.7443
B( 11-P , 13-O ) :   1.1399 B( 11-P , 16-O ) :   1.0774 B( 13-O , 14-C ) :   0.7727
B( 14-C , 15-C ) :   0.9275 B( 14-C , 31-H ) :   0.9628 B( 14-C , 32-H ) :   0.9594
B( 15-C , 33-H ) :   0.9650 B( 15-C , 34-H ) :   0.9614 B( 15-C , 35-H ) :   0.9744
B( 16-O , 17-C ) :   0.7875 B( 17-C , 18-C ) :   0.9560 B( 17-C , 36-H ) :   0.9618
B( 17-C , 37-H ) :   0.9624 B( 18-C , 38-H ) :   0.9552 B( 18-C , 39-H ) :   0.9650
B( 18-C , 40-H ) :   0.9740

Dispersion correction           -0.021925162
FINAL SINGLE POINT ENERGY     -2932.464153048799

DIPOLE MOMENT
-------------

Method             : SCF
Type of density    : Electron Density
Multiplicity       :   1
Irrep              :   0
Energy             : -2932.4885794890606121 Eh
Relativity type    :
Basis              : AO
                                X                 Y                 Z
Electronic contribution:      4.433489648      -2.439363510     -10.912700847
Nuclear contribution   :     -4.530590918       2.702326446      11.723091200
                        -----------------------------------------
Total Dipole Moment    :     -0.097101269       0.262962936       0.810390353
                        -----------------------------------------
Magnitude (a.u.)       :      0.857502587
Magnitude (Debye)      :      2.179598360

Rotational constants in cm-1:             0.013917             0.004868             0.004765
Rotational constants in MHz :           417.219742           145.939589           142.850493

                             ****ORCA TERMINATED NORMALLY****
TOTAL RUN TIME: 0 days 0 hours 1 minutes 26 seconds 824 msec
