                         Program Version 6.0.0  -   RELEASE  -
|  1> ! r2scan-3c def2/J RI DEFGRID2 scfconv6 printgap
|  2> %output
|  3>     printlevel normal
|  4> end
|  5> %cpcm
|  6>     smd true
|  7>     smdsolvent "water"
|  8> end
|  9> * xyz 0 1
| 10> C 0.445401409 -1.645041674 2.794713645
| 11> C 1.5728926595 -0.6393707104 2.6726911516
| 12> O 1.3911928672 0.1830887453 1.4963047585
| 13> P 2.2460016042 0.0163790762 0.1783677615
| 14> S 2.9615401574 -1.7736215679 -0.1910671334
| 15> O 3.3225350729 1.1675334744 0.4000604899
| 16> C 4.3717799664 1.4395611431 -0.5523842234
| 17> C 5.6491677552 0.7174279106 -0.1697163773
| 18> S 0.9852441027 0.8581460966 -1.2917474086
| 19> C 0.2312113507 -0.6871309975 -1.8743667232
| 20> S -0.7300268039 -1.532231727 -0.5944121983
| 21> P -2.1113373042 0.0329162963 -0.2333570496
| 22> S -2.6644059387 1.0532595609 -1.8181314689
| 23> O -1.4175620468 0.8632843608 0.9193830972
| 24> C -1.5068065423 2.2964360723 1.0085541337
| 25> C -2.8473367385 2.7176427473 1.5726119957
| 26> O -3.2379922495 -0.6999888161 0.6108153964
| 27> C -4.0928301429 -1.7272544391 0.0702321195
| 28> C -5.3294650976 -1.1339706913 -0.5769108277
| 29> H -0.5143502371 -1.1379865868 2.7266743231
| 30> H 0.5076163541 -2.3810959918 1.9957631245
| 31> H 0.5202716278 -2.1511841819 3.7517506116
| 32> H 2.5412409906 -1.1443488929 2.6134502247
| 33> H 1.5743750026 0.0638201851 3.5070099681
| 34> H 4.0379416937 1.1457342169 -1.5516330775
| 35> H 4.5005874944 2.5229181676 -0.517191933
| 36> H 5.5000306106 -0.3593211876 -0.2089339135
| 37> H 6.4360446848 0.9912752956 -0.8650090236
| 38> H 5.9461795898 0.9941392252 0.8379413042
| 39> H 1.0100640755 -1.3829970318 -2.1844667423
| 40> H -0.4182902244 -0.4138976286 -2.7054065715
| 41> H -0.6775827357 2.5762529931 1.6601620235
| 42> H -1.3510128682 2.7242111479 0.0121321815
| 43> H -2.8698202126 3.7966909723 1.6870640577
| 44> H -3.6400471202 2.4150388929 0.8892602364
| 45> H -3.0153143615 2.244853417 2.5363774997
| 46> H -3.5235709235 -2.3292522911 -0.6440860971
| 47> H -4.3532115506 -2.3405890613 0.9349512139
| 48> H -5.0526693224 -0.5116488414 -1.4249739864
| 49> H -5.9716721551 -1.9374986534 -0.9227309246
| 50> H -5.8716029052 -0.5246729353 0.1409170959
| 51> *
| 52>
| 53>                          ****END OF INPUT****

CARTESIAN COORDINATES (ANGSTROEM)
---------------------------------
  C      0.445401   -1.645042    2.794714
  C      1.572893   -0.639371    2.672691
  O      1.391193    0.183089    1.496305
  P      2.246002    0.016379    0.178368
  S      2.961540   -1.773622   -0.191067
  O      3.322535    1.167533    0.400060
  C      4.371780    1.439561   -0.552384
  C      5.649168    0.717428   -0.169716
  S      0.985244    0.858146   -1.291747
  C      0.231211   -0.687131   -1.874367
  S     -0.730027   -1.532232   -0.594412
  P     -2.111337    0.032916   -0.233357
  S     -2.664406    1.053260   -1.818131
  O     -1.417562    0.863284    0.919383
  C     -1.506807    2.296436    1.008554
  C     -2.847337    2.717643    1.572612
  O     -3.237992   -0.699989    0.610815
  C     -4.092830   -1.727254    0.070232
  C     -5.329465   -1.133971   -0.576911
  H     -0.514350   -1.137987    2.726674
  H      0.507616   -2.381096    1.995763
  H      0.520272   -2.151184    3.751751
  H      2.541241   -1.144349    2.613450
  H      1.574375    0.063820    3.507010
  H      4.037942    1.145734   -1.551633
  H      4.500587    2.522918   -0.517192
  H      5.500031   -0.359321   -0.208934
  H      6.436045    0.991275   -0.865009
  H      5.946180    0.994139    0.837941
  H      1.010064   -1.382997   -2.184467
  H     -0.418290   -0.413898   -2.705407
  H     -0.677583    2.576253    1.660162
  H     -1.351013    2.724211    0.012132
  H     -2.869820    3.796691    1.687064
  H     -3.640047    2.415039    0.889260
  H     -3.015314    2.244853    2.536377
  H     -3.523571   -2.329252   -0.644086
  H     -4.353212   -2.340589    0.934951
  H     -5.052669   -0.511649   -1.424974
  H     -5.971672   -1.937499   -0.922731
  H     -5.871603   -0.524673    0.140917

 Total Charge           Charge          ....    0
 Multiplicity           Mult            ....    1
 Number of Electrons    NEL             ....  202
 Basis Dimension        Dim             ....  539

ORBITAL ENERGIES
----------------

  NO   OCC          E(Eh)            E(eV)
   0   2.0000     -88.580123     -2410.3877
   1   2.0000     -88.577727     -2410.3225
   2   2.0000     -88.527787     -2408.9635
   3   2.0000     -88.527429     -2408.9538
   4   2.0000     -76.919224     -2093.0785
   5   2.0000     -76.919030     -2093.0732
   6   2.0000     -18.996126      -516.9109
   7   2.0000     -18.993441      -516.8378
   8   2.0000     -18.991179      -516.7762
   9   2.0000     -18.990680      -516.7627
  10   2.0000     -10.104978      -274.9704
  11   2.0000     -10.091779      -274.6113
  12   2.0000     -10.090638      -274.5802
  13   2.0000     -10.089628      -274.5527
  14   2.0000     -10.088185      -274.5135
  15   2.0000     -10.017766      -272.5973
  16   2.0000     -10.016670      -272.5674
  17   2.0000     -10.016408      -272.5603
  18   2.0000     -10.015561      -272.5373
  19   2.0000      -7.874397      -214.2732
  20   2.0000      -7.872128      -214.2115
  21   2.0000      -7.822908      -212.8722
  22   2.0000      -7.822574      -212.8631
  23   2.0000      -6.597656      -179.5313
  24   2.0000      -6.597387      -179.5240
  25   2.0000      -5.821279      -158.4051
  26   2.0000      -5.818995      -158.3429
  27   2.0000      -5.818192      -158.3210
  28   2.0000      -5.815930      -158.2595
  29   2.0000      -5.811590      -158.1414
  30   2.0000      -5.809289      -158.0788
  31   2.0000      -5.770500      -157.0233
  32   2.0000      -5.770131      -157.0132
  33   2.0000      -5.763103      -156.8220
  34   2.0000      -5.762996      -156.8191
  35   2.0000      -5.762930      -156.8173
  36   2.0000      -5.762535      -156.8065
  37   2.0000      -4.743007      -129.0638
  38   2.0000      -4.742775      -129.0575
  39   2.0000      -4.742654      -129.0542
  40   2.0000      -4.742328      -129.0453
  41   2.0000      -4.741504      -129.0229
  42   2.0000      -4.741271      -129.0165
  43   2.0000      -1.053460       -28.6661
  44   2.0000      -1.050543       -28.5867
  45   2.0000      -1.012896       -27.5623
  46   2.0000      -1.009751       -27.4767
  47   2.0000      -0.804674       -21.8963
  48   2.0000      -0.755946       -20.5703
  49   2.0000      -0.743458       -20.2305
  50   2.0000      -0.721887       -19.6435
  51   2.0000      -0.720898       -19.6166
  52   2.0000      -0.709097       -19.2955
  53   2.0000      -0.689545       -18.7635
  54   2.0000      -0.675850       -18.3908
  55   2.0000      -0.628669       -17.1070
  56   2.0000      -0.620439       -16.8830
  57   2.0000      -0.601359       -16.3638
  58   2.0000      -0.595637       -16.2081
  59   2.0000      -0.589197       -16.0329
  60   2.0000      -0.527543       -14.3552
  61   2.0000      -0.518307       -14.1039
  62   2.0000      -0.494055       -13.4439
  63   2.0000      -0.490881       -13.3576
  64   2.0000      -0.471534       -12.8311
  65   2.0000      -0.456340       -12.4176
  66   2.0000      -0.453940       -12.3523
  67   2.0000      -0.450565       -12.2605
  68   2.0000      -0.439832       -11.9684
  69   2.0000      -0.422538       -11.4978
  70   2.0000      -0.419982       -11.4283
  71   2.0000      -0.415877       -11.3166
  72   2.0000      -0.409354       -11.1391
  73   2.0000      -0.402986       -10.9658
  74   2.0000      -0.393651       -10.7118
  75   2.0000      -0.386283       -10.5113
  76   2.0000      -0.381131       -10.3711
  77   2.0000      -0.367405        -9.9976
  78   2.0000      -0.361669        -9.8415
  79   2.0000      -0.356625        -9.7043
  80   2.0000      -0.355115        -9.6632
  81   2.0000      -0.353089        -9.6080
  82   2.0000      -0.347462        -9.4549
  83   2.0000      -0.346273        -9.4226
  84   2.0000      -0.344216        -9.3666
  85   2.0000      -0.335560        -9.1311
  86   2.0000      -0.317440        -8.6380
  87   2.0000      -0.307280        -8.3615
  88   2.0000      -0.306521        -8.3409
  89   2.0000      -0.303195        -8.2503
  90   2.0000      -0.297371        -8.0919
  91   2.0000      -0.294432        -8.0119
  92   2.0000      -0.285807        -7.7772
  93   2.0000      -0.281154        -7.6506
  94   2.0000      -0.273767        -7.4496
  95   2.0000      -0.249068        -6.7775
  96   2.0000      -0.237058        -6.4507
  97   2.0000      -0.233511        -6.3541
  98   2.0000      -0.226244        -6.1564
  99   2.0000      -0.220550        -6.0015
 100   2.0000      -0.217486        -5.9181
 101   0.0000      -0.052096        -1.4176
 102   0.0000      -0.030952        -0.8423
 103   0.0000      -0.005822        -0.1584
 104   0.0000      -0.003430        -0.0933
 105   0.0000       0.010017         0.2726

MULLIKEN ATOMIC CHARGES
-----------------------
   0 C :   -0.501073
   1 C :   -0.121584
   2 O :   -0.285639
   3 P :    0.708718
   4 S :   -0.518213
   5 O :   -0.328379
   6 C :   -0.125523
   7 C :   -0.490890
   8 S :   -0.149498
   9 C :   -0.239213
  10 S :   -0.147744
  11 P :    0.728406
  12 S :   -0.522777
  13 O :   -0.281584
  14 C :   -0.144415
  15 C :   -0.486672
  16 O :   -0.338336
  17 C :   -0.130090
  18 C :   -0.490105
  19 H :    0.166493
  20 H :    0.171071
  21 H :    0.166520
  22 H :    0.169739
  23 H :    0.173999
  24 H :    0.163459
  25 H :    0.176131
  26 H :    0.171175
  27 H :    0.169298
  28 H :    0.166380
  29 H :    0.229993
  30 H :    0.230144
  31 H :    0.180022
  32 H :    0.176078
  33 H :    0.171539
  34 H :    0.164776
  35 H :    0.168303
  36 H :    0.164126
  37 H :    0.177010
  38 H :    0.170437
  39 H :    0.169974
  40 H :    0.167943
Sum of atomic charges:   -0.0000000

LOEWDIN ATOMIC CHARGES
----------------------
   0 C :   -0.405528
   1 C :    0.032374
   2 O :   -0.674638
   3 P :    0.382087
   4 S :   -0.154526
   5 O :   -0.675841
   6 C :    0.025810
   7 C :   -0.405761
   8 S :    0.170862
   9 C :   -0.412840
  10 S :    0.159112
  11 P :    0.383916
  12 S :   -0.155050
  13 O :   -0.683600
  14 C :    0.016869
  15 C :   -0.401493
  16 O :   -0.670104
  17 C :    0.028909
  18 C :   -0.406425
  19 H :    0.164368
  20 H :    0.162345
  21 H :    0.165261
  22 H :    0.181803
  23 H :    0.187642
  24 H :    0.179655
  25 H :    0.189420
  26 H :    0.162671
  27 H :    0.167174
  28 H :    0.162236
  29 H :    0.197178
  30 H :    0.196338
  31 H :    0.189887
  32 H :    0.182555
  33 H :    0.168514
  34 H :    0.161915
  35 H :    0.163231
  36 H :    0.179912
  37 H :    0.190923
  38 H :    0.162972
  39 H :    0.167323
  40 H :    0.162543

  Mayer bond orders larger than 0.100000
B(  0-C ,  1-C ) :   0.9368 B(  0-C , 19-H ) :   0.9661 B(  0-C , 20-H ) :   0.9655
B(  0-C , 21-H ) :   0.9590 B(  1-C ,  2-O ) :   0.7488 B(  1-C , 22-H ) :   0.9628
B(  1-C , 23-H ) :   0.9491 B(  2-O ,  3-P ) :   1.1798 B(  3-P ,  4-S ) :   1.7144
B(  3-P ,  5-O ) :   1.0747 B(  3-P ,  8-S ) :   1.1008 B(  5-O ,  6-C ) :   0.7638
B(  6-C ,  7-C ) :   0.9462 B(  6-C , 24-H ) :   0.9553 B(  6-C , 25-H ) :   0.9536
B(  7-C , 26-H ) :   0.9613 B(  7-C , 27-H ) :   0.9599 B(  7-C , 28-H ) :   0.9723
B(  8-S ,  9-C ) :   0.8872 B(  9-C , 10-S ) :   0.8915 B(  9-C , 29-H ) :   0.9048
B(  9-C , 30-H ) :   0.9040 B( 10-S , 11-P ) :   1.0806 B( 11-P , 12-S ) :   1.7152
B( 11-P , 13-O ) :   1.1413 B( 11-P , 16-O ) :   1.0811 B( 13-O , 14-C ) :   0.7607
B( 14-C , 15-C ) :   0.9220 B( 14-C , 31-H ) :   0.9528 B( 14-C , 32-H ) :   0.9548
B( 15-C , 33-H ) :   0.9590 B( 15-C , 34-H ) :   0.9617 B( 15-C , 35-H ) :   0.9720
B( 16-O , 17-C ) :   0.7774 B( 17-C , 18-C ) :   0.9431 B( 17-C , 36-H ) :   0.9549
B( 17-C , 37-H ) :   0.9527 B( 18-C , 38-H ) :   0.9599 B( 18-C , 39-H ) :   0.9594
B( 18-C , 40-H ) :   0.9721

Dispersion correction           -0.021925162
FINAL SINGLE POINT ENERGY     -2932.470941150549

DIPOLE MOMENT
-------------

Method             : SCF
Type of density    : Electron Density
Multiplicity       :   1
Irrep              :   0
Energy             : -2932.4953675908104742 Eh
Relativity type    :
Basis              : AO
                                X                 Y                 Z
Electronic contribution:      4.481267139      -2.421410729     -10.769000095
Nuclear contribution   :     -4.530590918       2.702326446      11.723091200
                        -----------------------------------------
Total Dipole Moment    :     -0.049323779       0.280915717       0.954091105
                        -----------------------------------------
Magnitude (a.u.)       :      0.995809375
Magnitude (Debye)      :      2.531146278

Rotational constants in cm-1:             0.013917             0.004868             0.004765
Rotational constants in MHz :           417.219742           145.939589           142.850493

                             ****ORCA TERMINATED NORMALLY****
TOTAL RUN TIME: 0 days 0 hours 1 minutes 57 seconds 90 msec
