                         Program Version 6.0.0  -   RELEASE  -
|  1> ! r2scan-3c def2/J RI DEFGRID2 scfconv6 printgap
|  2> %output
|  3>     printlevel normal
|  4> end
|  5> * xyz 0 1
|  6> C 2.3718190538 -2.4963634392 2.5191046622
|  7> C 1.3323652652 -1.6740010846 1.7831048394
|  8> O 1.9660146786 -0.6188048656 1.0336245714
|  9> P 2.2733703893 -0.7258813447 -0.5251833125
| 10> S 2.8241490046 -2.4831600744 -1.1862287249
| 11> O 3.2882025519 0.4752024383 -0.7258451587
| 12> C 4.717340131 0.2806383 -0.6670518383
| 13> C 5.1810737499 -0.060577277 0.7330486043
| 14> S 0.5800614277 0.1069319397 -1.4883880787
| 15> C 0.3021419548 1.5095719788 -0.3584898398
| 16> S -0.7652619013 1.0845542368 1.0347657129
| 17> P -2.553195402 0.8711228853 -0.1087625404
| 18> S -2.7979519667 2.1589973629 -1.557868292
| 19> O -3.6991876503 0.8165353147 0.9923694341
| 20> C -4.3543096843 1.9943012802 1.5005378554
| 21> C -3.4079825974 2.8981036532 2.2632898107
| 22> O -2.5428901261 -0.6158853713 -0.6339062542
| 23> C -2.4511414956 -1.7653364303 0.2449387744
| 24> C -1.7874287741 -2.8911139237 -0.5214616233
| 25> H 2.9823624911 -1.8538376661 3.1469484982
| 26> H 1.8700377121 -3.2322796647 3.1388466866
| 27> H 3.0110030817 -3.0130306538 1.8060824593
| 28> H 0.6623529865 -1.1599329539 2.4752675044
| 29> H 0.7549427769 -2.3074537052 1.1045804342
| 30> H 4.9865639604 -0.5150619803 -1.3687384176
| 31> H 5.1236703404 1.2324986917 -1.0118215219
| 32> H 4.8287451324 0.6862804462 1.4395467538
| 33> H 4.7904398202 -1.0346297878 1.0223335844
| 34> H 6.2658586601 -0.0948905303 0.7534529163
| 35> H -0.183895886 2.2843729815 -0.9520285757
| 36> H 1.2523512012 1.8483933035 0.0434487547
| 37> H -4.8013874816 2.5290917353 0.6573014901
| 38> H -5.1381812319 1.5939651874 2.1450227256
| 39> H -2.6825128601 3.3380758309 1.5808015168
| 40> H -3.9762484672 3.6953005025 2.7316428818
| 41> H -2.8775760659 2.3348053198 3.0268532008
| 42> H -1.8754331974 -1.4848013595 1.1324373361
| 43> H -3.4667191169 -2.030127035 0.544206111
| 44> H -1.7179793064 -3.76784548 0.1146231484
| 45> H -2.3691601525 -3.1325082585 -1.4062302445
| 46> H -0.789184729 -2.5998030019 -0.8443250356
| 47> *
| 48>
| 49>                          ****END OF INPUT****

CARTESIAN COORDINATES (ANGSTROEM)
---------------------------------
  C      2.371819   -2.496363    2.519105
  C      1.332365   -1.674001    1.783105
  O      1.966015   -0.618805    1.033625
  P      2.273370   -0.725881   -0.525183
  S      2.824149   -2.483160   -1.186229
  O      3.288203    0.475202   -0.725845
  C      4.717340    0.280638   -0.667052
  C      5.181074   -0.060577    0.733049
  S      0.580061    0.106932   -1.488388
  C      0.302142    1.509572   -0.358490
  S     -0.765262    1.084554    1.034766
  P     -2.553195    0.871123   -0.108763
  S     -2.797952    2.158997   -1.557868
  O     -3.699188    0.816535    0.992369
  C     -4.354310    1.994301    1.500538
  C     -3.407983    2.898104    2.263290
  O     -2.542890   -0.615885   -0.633906
  C     -2.451141   -1.765336    0.244939
  C     -1.787429   -2.891114   -0.521462
  H      2.982362   -1.853838    3.146948
  H      1.870038   -3.232280    3.138847
  H      3.011003   -3.013031    1.806082
  H      0.662353   -1.159933    2.475268
  H      0.754943   -2.307454    1.104580
  H      4.986564   -0.515062   -1.368738
  H      5.123670    1.232499   -1.011822
  H      4.828745    0.686280    1.439547
  H      4.790440   -1.034630    1.022334
  H      6.265859   -0.094891    0.753453
  H     -0.183896    2.284373   -0.952029
  H      1.252351    1.848393    0.043449
  H     -4.801387    2.529092    0.657301
  H     -5.138181    1.593965    2.145023
  H     -2.682513    3.338076    1.580802
  H     -3.976248    3.695301    2.731643
  H     -2.877576    2.334805    3.026853
  H     -1.875433   -1.484801    1.132437
  H     -3.466719   -2.030127    0.544206
  H     -1.717979   -3.767845    0.114623
  H     -2.369160   -3.132508   -1.406230
  H     -0.789185   -2.599803   -0.844325

 Total Charge           Charge          ....    0
 Multiplicity           Mult            ....    1
 Number of Electrons    NEL             ....  202
 Basis Dimension        Dim             ....  539

ORBITAL ENERGIES
----------------

  NO   OCC          E(Eh)            E(eV)
   0   2.0000     -88.577542     -2410.3175
   1   2.0000     -88.572912     -2410.1915
   2   2.0000     -88.524712     -2408.8799
   3   2.0000     -88.523285     -2408.8410
   4   2.0000     -76.916865     -2093.0143
   5   2.0000     -76.916301     -2092.9989
   6   2.0000     -18.997796      -516.9563
   7   2.0000     -18.995880      -516.9042
   8   2.0000     -18.992919      -516.8236
   9   2.0000     -18.991059      -516.7730
  10   2.0000     -10.107135      -275.0291
  11   2.0000     -10.104163      -274.9483
  12   2.0000     -10.103781      -274.9379
  13   2.0000     -10.102321      -274.8981
  14   2.0000     -10.101362      -274.8720
  15   2.0000     -10.033073      -273.0138
  16   2.0000     -10.032802      -273.0064
  17   2.0000     -10.032533      -272.9991
  18   2.0000     -10.029330      -272.9119
  19   2.0000      -7.872070      -214.2099
  20   2.0000      -7.866812      -214.0668
  21   2.0000      -7.819344      -212.7752
  22   2.0000      -7.817963      -212.7376
  23   2.0000      -6.595125      -179.4625
  24   2.0000      -6.594814      -179.4540
  25   2.0000      -5.818814      -158.3380
  26   2.0000      -5.815889      -158.2584
  27   2.0000      -5.814115      -158.2101
  28   2.0000      -5.810447      -158.1103
  29   2.0000      -5.809329      -158.0799
  30   2.0000      -5.803781      -157.9289
  31   2.0000      -5.766993      -156.9278
  32   2.0000      -5.765664      -156.8917
  33   2.0000      -5.759661      -156.7283
  34   2.0000      -5.759342      -156.7197
  35   2.0000      -5.758194      -156.6884
  36   2.0000      -5.757979      -156.6826
  37   2.0000      -4.740677      -129.0004
  38   2.0000      -4.740452      -128.9943
  39   2.0000      -4.740190      -128.9871
  40   2.0000      -4.739681      -128.9733
  41   2.0000      -4.738927      -128.9528
  42   2.0000      -4.738286      -128.9353
  43   2.0000      -1.053773       -28.6746
  44   2.0000      -1.053160       -28.6579
  45   2.0000      -1.014201       -27.5978
  46   2.0000      -1.012152       -27.5420
  47   2.0000      -0.801938       -21.8218
  48   2.0000      -0.762397       -20.7459
  49   2.0000      -0.753187       -20.4953
  50   2.0000      -0.736378       -20.0379
  51   2.0000      -0.735464       -20.0130
  52   2.0000      -0.712437       -19.3864
  53   2.0000      -0.691798       -18.8248
  54   2.0000      -0.670571       -18.2472
  55   2.0000      -0.632818       -17.2199
  56   2.0000      -0.627338       -17.0707
  57   2.0000      -0.606785       -16.5115
  58   2.0000      -0.605801       -16.4847
  59   2.0000      -0.594164       -16.1680
  60   2.0000      -0.533400       -14.5146
  61   2.0000      -0.528416       -14.3789
  62   2.0000      -0.499820       -13.6008
  63   2.0000      -0.496508       -13.5107
  64   2.0000      -0.481507       -13.1025
  65   2.0000      -0.465506       -12.6671
  66   2.0000      -0.460183       -12.5222
  67   2.0000      -0.459194       -12.4953
  68   2.0000      -0.451551       -12.2873
  69   2.0000      -0.435371       -11.8470
  70   2.0000      -0.425636       -11.5821
  71   2.0000      -0.424438       -11.5495
  72   2.0000      -0.409975       -11.1560
  73   2.0000      -0.404380       -11.0037
  74   2.0000      -0.398597       -10.8464
  75   2.0000      -0.388008       -10.5582
  76   2.0000      -0.383721       -10.4416
  77   2.0000      -0.379848       -10.3362
  78   2.0000      -0.374957       -10.2031
  79   2.0000      -0.370355       -10.0779
  80   2.0000      -0.368830       -10.0364
  81   2.0000      -0.359480        -9.7819
  82   2.0000      -0.357493        -9.7279
  83   2.0000      -0.356579        -9.7030
  84   2.0000      -0.347266        -9.4496
  85   2.0000      -0.337488        -9.1835
  86   2.0000      -0.328468        -8.9381
  87   2.0000      -0.319187        -8.6855
  88   2.0000      -0.313812        -8.5393
  89   2.0000      -0.313173        -8.5219
  90   2.0000      -0.306287        -8.3345
  91   2.0000      -0.292971        -7.9721
  92   2.0000      -0.288493        -7.8503
  93   2.0000      -0.283000        -7.7008
  94   2.0000      -0.272363        -7.4114
  95   2.0000      -0.249480        -6.7887
  96   2.0000      -0.232161        -6.3174
  97   2.0000      -0.224375        -6.1056
  98   2.0000      -0.222526        -6.0552
  99   2.0000      -0.220081        -5.9887
 100   2.0000      -0.214420        -5.8347
 101   0.0000      -0.044279        -1.2049
 102   0.0000      -0.023160        -0.6302
 103   0.0000      -0.014742        -0.4012
 104   0.0000       0.003563         0.0970
 105   0.0000       0.007519         0.2046

MULLIKEN ATOMIC CHARGES
-----------------------
   0 C :   -0.492430
   1 C :   -0.112683
   2 O :   -0.269178
   3 P :    0.628208
   4 S :   -0.454804
   5 O :   -0.296810
   6 C :   -0.148467
   7 C :   -0.437035
   8 S :   -0.108418
   9 C :   -0.238288
  10 S :   -0.160524
  11 P :    0.649021
  12 S :   -0.435305
  13 O :   -0.289078
  14 C :   -0.162341
  15 C :   -0.448507
  16 O :   -0.260542
  17 C :   -0.107205
  18 C :   -0.463125
  19 H :    0.155421
  20 H :    0.145677
  21 H :    0.182697
  22 H :    0.160701
  23 H :    0.159773
  24 H :    0.172847
  25 H :    0.150500
  26 H :    0.155734
  27 H :    0.165790
  28 H :    0.148656
  29 H :    0.222405
  30 H :    0.200547
  31 H :    0.174426
  32 H :    0.148770
  33 H :    0.180566
  34 H :    0.148934
  35 H :    0.152715
  36 H :    0.146295
  37 H :    0.155502
  38 H :    0.147257
  39 H :    0.157752
  40 H :    0.174548
Sum of atomic charges:    0.0000000

LOEWDIN ATOMIC CHARGES
----------------------
   0 C :   -0.400930
   1 C :    0.009237
   2 O :   -0.682197
   3 P :    0.364184
   4 S :   -0.111779
   5 O :   -0.677482
   6 C :    0.024736
   7 C :   -0.399567
   8 S :    0.189249
   9 C :   -0.412692
  10 S :    0.137651
  11 P :    0.375903
  12 S :   -0.097715
  13 O :   -0.664098
  14 C :    0.023637
  15 C :   -0.408955
  16 O :   -0.653803
  17 C :    0.020558
  18 C :   -0.395479
  19 H :    0.158571
  20 H :    0.159227
  21 H :    0.167064
  22 H :    0.180144
  23 H :    0.178894
  24 H :    0.180630
  25 H :    0.180438
  26 H :    0.160591
  27 H :    0.164368
  28 H :    0.160182
  29 H :    0.194925
  30 H :    0.190977
  31 H :    0.180547
  32 H :    0.179953
  33 H :    0.166693
  34 H :    0.159907
  35 H :    0.159386
  36 H :    0.172191
  37 H :    0.174712
  38 H :    0.158814
  39 H :    0.163907
  40 H :    0.167423

  Mayer bond orders larger than 0.100000
B(  0-C ,  1-C ) :   0.9418 B(  0-C , 19-H ) :   0.9771 B(  0-C , 20-H ) :   0.9619
B(  0-C , 21-H ) :   0.9637 B(  1-C ,  2-O ) :   0.7512 B(  1-C , 22-H ) :   0.9580
B(  1-C , 23-H ) :   0.9587 B(  2-O ,  3-P ) :   1.0373 B(  3-P ,  4-S ) :   1.8067
B(  3-P ,  5-O ) :   1.1455 B(  3-P ,  8-S ) :   1.0994 B(  5-O ,  6-C ) :   0.8062
B(  6-C ,  7-C ) :   0.9259 B(  6-C , 24-H ) :   0.9664 B(  6-C , 25-H ) :   0.9611
B(  7-C , 26-H ) :   0.9711 B(  7-C , 27-H ) :   0.9588 B(  7-C , 28-H ) :   0.9610
B(  8-S ,  9-C ) :   0.9098 B(  9-C , 10-S ) :   0.9071 B(  9-C , 29-H ) :   0.9063
B(  9-C , 30-H ) :   0.9204 B( 10-S , 11-P ) :   0.9963 B( 11-P , 12-S ) :   1.8464
B( 11-P , 13-O ) :   1.0360 B( 11-P , 16-O ) :   1.1583 B( 13-O , 14-C ) :   0.8200
B( 14-C , 15-C ) :   0.9166 B( 14-C , 31-H ) :   0.9693 B( 14-C , 32-H ) :   0.9614
B( 15-C , 33-H ) :   0.9631 B( 15-C , 34-H ) :   0.9557 B( 15-C , 35-H ) :   0.9677
B( 16-O , 17-C ) :   0.7331 B( 17-C , 18-C ) :   0.9449 B( 17-C , 36-H ) :   0.9520
B( 17-C , 37-H ) :   0.9466 B( 18-C , 38-H ) :   0.9689 B( 18-C , 39-H ) :   0.9663
B( 18-C , 40-H ) :   0.9625

Dispersion correction           -0.021623814
FINAL SINGLE POINT ENERGY     -2932.463842454868

DIPOLE MOMENT
-------------

Method             : SCF
Type of density    : Electron Density
Multiplicity       :   1
Irrep              :   0
Energy             : -2932.4885524888436521 Eh
Relativity type    :
Basis              : AO
                                X                 Y                 Z
Electronic contribution:     -6.265013927       6.504135950     -18.409608522
Nuclear contribution   :      6.478886417      -6.424230242      20.633398790
                        -----------------------------------------
Total Dipole Moment    :      0.213872490       0.079905708       2.223790268
                        -----------------------------------------
Magnitude (a.u.)       :      2.235479707
Magnitude (Debye)      :      5.682137847

Rotational constants in cm-1:             0.013459             0.004491             0.004336
Rotational constants in MHz :           403.505245           134.639046           129.992699

                             ****ORCA TERMINATED NORMALLY****
TOTAL RUN TIME: 0 days 0 hours 1 minutes 20 seconds 344 msec
