                         Program Version 6.0.0  -   RELEASE  -
|  1> ! r2scan-3c def2/J RI DEFGRID2 scfconv6 printgap
|  2> %output
|  3>     printlevel normal
|  4> end
|  5> %cpcm
|  6>     smd true
|  7>     smdsolvent "water"
|  8> end
|  9> * xyz 0 1
| 10> C 2.3718190538 -2.4963634392 2.5191046622
| 11> C 1.3323652652 -1.6740010846 1.7831048394
| 12> O 1.9660146786 -0.6188048656 1.0336245714
| 13> P 2.2733703893 -0.7258813447 -0.5251833125
| 14> S 2.8241490046 -2.4831600744 -1.1862287249
| 15> O 3.2882025519 0.4752024383 -0.7258451587
| 16> C 4.717340131 0.2806383 -0.6670518383
| 17> C 5.1810737499 -0.060577277 0.7330486043
| 18> S 0.5800614277 0.1069319397 -1.4883880787
| 19> C 0.3021419548 1.5095719788 -0.3584898398
| 20> S -0.7652619013 1.0845542368 1.0347657129
| 21> P -2.553195402 0.8711228853 -0.1087625404
| 22> S -2.7979519667 2.1589973629 -1.557868292
| 23> O -3.6991876503 0.8165353147 0.9923694341
| 24> C -4.3543096843 1.9943012802 1.5005378554
| 25> C -3.4079825974 2.8981036532 2.2632898107
| 26> O -2.5428901261 -0.6158853713 -0.6339062542
| 27> C -2.4511414956 -1.7653364303 0.2449387744
| 28> C -1.7874287741 -2.8911139237 -0.5214616233
| 29> H 2.9823624911 -1.8538376661 3.1469484982
| 30> H 1.8700377121 -3.2322796647 3.1388466866
| 31> H 3.0110030817 -3.0130306538 1.8060824593
| 32> H 0.6623529865 -1.1599329539 2.4752675044
| 33> H 0.7549427769 -2.3074537052 1.1045804342
| 34> H 4.9865639604 -0.5150619803 -1.3687384176
| 35> H 5.1236703404 1.2324986917 -1.0118215219
| 36> H 4.8287451324 0.6862804462 1.4395467538
| 37> H 4.7904398202 -1.0346297878 1.0223335844
| 38> H 6.2658586601 -0.0948905303 0.7534529163
| 39> H -0.183895886 2.2843729815 -0.9520285757
| 40> H 1.2523512012 1.8483933035 0.0434487547
| 41> H -4.8013874816 2.5290917353 0.6573014901
| 42> H -5.1381812319 1.5939651874 2.1450227256
| 43> H -2.6825128601 3.3380758309 1.5808015168
| 44> H -3.9762484672 3.6953005025 2.7316428818
| 45> H -2.8775760659 2.3348053198 3.0268532008
| 46> H -1.8754331974 -1.4848013595 1.1324373361
| 47> H -3.4667191169 -2.030127035 0.544206111
| 48> H -1.7179793064 -3.76784548 0.1146231484
| 49> H -2.3691601525 -3.1325082585 -1.4062302445
| 50> H -0.789184729 -2.5998030019 -0.8443250356
| 51> *
| 52>
| 53>                          ****END OF INPUT****

CARTESIAN COORDINATES (ANGSTROEM)
---------------------------------
  C      2.371819   -2.496363    2.519105
  C      1.332365   -1.674001    1.783105
  O      1.966015   -0.618805    1.033625
  P      2.273370   -0.725881   -0.525183
  S      2.824149   -2.483160   -1.186229
  O      3.288203    0.475202   -0.725845
  C      4.717340    0.280638   -0.667052
  C      5.181074   -0.060577    0.733049
  S      0.580061    0.106932   -1.488388
  C      0.302142    1.509572   -0.358490
  S     -0.765262    1.084554    1.034766
  P     -2.553195    0.871123   -0.108763
  S     -2.797952    2.158997   -1.557868
  O     -3.699188    0.816535    0.992369
  C     -4.354310    1.994301    1.500538
  C     -3.407983    2.898104    2.263290
  O     -2.542890   -0.615885   -0.633906
  C     -2.451141   -1.765336    0.244939
  C     -1.787429   -2.891114   -0.521462
  H      2.982362   -1.853838    3.146948
  H      1.870038   -3.232280    3.138847
  H      3.011003   -3.013031    1.806082
  H      0.662353   -1.159933    2.475268
  H      0.754943   -2.307454    1.104580
  H      4.986564   -0.515062   -1.368738
  H      5.123670    1.232499   -1.011822
  H      4.828745    0.686280    1.439547
  H      4.790440   -1.034630    1.022334
  H      6.265859   -0.094891    0.753453
  H     -0.183896    2.284373   -0.952029
  H      1.252351    1.848393    0.043449
  H     -4.801387    2.529092    0.657301
  H     -5.138181    1.593965    2.145023
  H     -2.682513    3.338076    1.580802
  H     -3.976248    3.695301    2.731643
  H     -2.877576    2.334805    3.026853
  H     -1.875433   -1.484801    1.132437
  H     -3.466719   -2.030127    0.544206
  H     -1.717979   -3.767845    0.114623
  H     -2.369160   -3.132508   -1.406230
  H     -0.789185   -2.599803   -0.844325

 Total Charge           Charge          ....    0
 Multiplicity           Mult            ....    1
 Number of Electrons    NEL             ....  202
 Basis Dimension        Dim             ....  539

ORBITAL ENERGIES
----------------

  NO   OCC          E(Eh)            E(eV)
   0   2.0000     -88.577695     -2410.3216
   1   2.0000     -88.577222     -2410.3087
   2   2.0000     -88.532179     -2409.0831
   3   2.0000     -88.530875     -2409.0476
   4   2.0000     -76.920705     -2093.1188
   5   2.0000     -76.920472     -2093.1124
   6   2.0000     -18.997309      -516.9431
   7   2.0000     -18.994260      -516.8601
   8   2.0000     -18.994170      -516.8577
   9   2.0000     -18.993070      -516.8277
  10   2.0000     -10.105043      -274.9722
  11   2.0000     -10.092025      -274.6180
  12   2.0000     -10.091371      -274.6002
  13   2.0000     -10.089972      -274.5621
  14   2.0000     -10.089931      -274.5610
  15   2.0000     -10.019098      -272.6335
  16   2.0000     -10.019034      -272.6318
  17   2.0000     -10.018714      -272.6231
  18   2.0000     -10.017053      -272.5779
  19   2.0000      -7.872099      -214.2107
  20   2.0000      -7.871345      -214.1902
  21   2.0000      -7.827235      -212.9899
  22   2.0000      -7.825848      -212.9522
  23   2.0000      -6.599286      -179.5757
  24   2.0000      -6.598722      -179.5603
  25   2.0000      -5.818909      -158.3406
  26   2.0000      -5.818560      -158.3311
  27   2.0000      -5.815954      -158.2601
  28   2.0000      -5.814927      -158.2322
  29   2.0000      -5.809272      -158.0783
  30   2.0000      -5.808445      -158.0558
  31   2.0000      -5.774807      -157.1405
  32   2.0000      -5.773420      -157.1027
  33   2.0000      -5.767447      -156.9402
  34   2.0000      -5.767325      -156.9369
  35   2.0000      -5.766118      -156.9040
  36   2.0000      -5.765910      -156.8984
  37   2.0000      -4.745113      -129.1211
  38   2.0000      -4.744090      -129.0932
  39   2.0000      -4.743973      -129.0901
  40   2.0000      -4.743764      -129.0844
  41   2.0000      -4.742887      -129.0605
  42   2.0000      -4.742666      -129.0545
  43   2.0000      -1.054712       -28.7002
  44   2.0000      -1.051995       -28.6262
  45   2.0000      -1.012722       -27.5576
  46   2.0000      -1.012237       -27.5444
  47   2.0000      -0.802142       -21.8274
  48   2.0000      -0.757701       -20.6181
  49   2.0000      -0.745631       -20.2896
  50   2.0000      -0.725722       -19.7479
  51   2.0000      -0.723118       -19.6770
  52   2.0000      -0.709745       -19.3131
  53   2.0000      -0.694218       -18.8906
  54   2.0000      -0.675504       -18.3814
  55   2.0000      -0.627661       -17.0795
  56   2.0000      -0.621225       -16.9044
  57   2.0000      -0.599919       -16.3246
  58   2.0000      -0.596704       -16.2371
  59   2.0000      -0.590309       -16.0631
  60   2.0000      -0.528054       -14.3691
  61   2.0000      -0.521439       -14.1891
  62   2.0000      -0.493221       -13.4212
  63   2.0000      -0.490752       -13.3540
  64   2.0000      -0.479439       -13.0462
  65   2.0000      -0.460030       -12.5181
  66   2.0000      -0.452502       -12.3132
  67   2.0000      -0.451764       -12.2931
  68   2.0000      -0.444157       -12.0861
  69   2.0000      -0.429411       -11.6849
  70   2.0000      -0.422441       -11.4952
  71   2.0000      -0.416103       -11.3227
  72   2.0000      -0.407034       -11.0759
  73   2.0000      -0.395368       -10.7585
  74   2.0000      -0.393300       -10.7022
  75   2.0000      -0.386388       -10.5141
  76   2.0000      -0.379392       -10.3238
  77   2.0000      -0.371238       -10.1019
  78   2.0000      -0.369038       -10.0420
  79   2.0000      -0.359656        -9.7867
  80   2.0000      -0.355840        -9.6829
  81   2.0000      -0.351935        -9.5766
  82   2.0000      -0.348771        -9.4905
  83   2.0000      -0.345313        -9.3964
  84   2.0000      -0.342064        -9.3080
  85   2.0000      -0.333998        -9.0886
  86   2.0000      -0.323143        -8.7932
  87   2.0000      -0.315869        -8.5952
  88   2.0000      -0.307057        -8.3554
  89   2.0000      -0.304258        -8.2793
  90   2.0000      -0.301452        -8.2029
  91   2.0000      -0.289366        -7.8740
  92   2.0000      -0.285271        -7.7626
  93   2.0000      -0.280475        -7.6321
  94   2.0000      -0.271696        -7.3932
  95   2.0000      -0.251719        -6.8496
  96   2.0000      -0.238454        -6.4887
  97   2.0000      -0.234028        -6.3682
  98   2.0000      -0.229545        -6.2462
  99   2.0000      -0.228341        -6.2135
 100   2.0000      -0.219478        -5.9723
 101   0.0000      -0.047215        -1.2848
 102   0.0000      -0.027985        -0.7615
 103   0.0000      -0.018154        -0.4940
 104   0.0000      -0.000200        -0.0054
 105   0.0000       0.008046         0.2189

MULLIKEN ATOMIC CHARGES
-----------------------
   0 C :   -0.519375
   1 C :   -0.106393
   2 O :   -0.288807
   3 P :    0.670761
   4 S :   -0.510114
   5 O :   -0.321196
   6 C :   -0.142472
   7 C :   -0.478109
   8 S :   -0.159615
   9 C :   -0.244118
  10 S :   -0.144084
  11 P :    0.658913
  12 S :   -0.496487
  13 O :   -0.308546
  14 C :   -0.155801
  15 C :   -0.485431
  16 O :   -0.294227
  17 C :   -0.097371
  18 C :   -0.503214
  19 H :    0.168675
  20 H :    0.169947
  21 H :    0.173462
  22 H :    0.178564
  23 H :    0.175103
  24 H :    0.175542
  25 H :    0.175500
  26 H :    0.171021
  27 H :    0.168203
  28 H :    0.172406
  29 H :    0.234239
  30 H :    0.235432
  31 H :    0.179566
  32 H :    0.176229
  33 H :    0.174724
  34 H :    0.173284
  35 H :    0.169277
  36 H :    0.168598
  37 H :    0.176929
  38 H :    0.173721
  39 H :    0.167915
  40 H :    0.167349
Sum of atomic charges:    0.0000000

LOEWDIN ATOMIC CHARGES
----------------------
   0 C :   -0.403163
   1 C :    0.017123
   2 O :   -0.685703
   3 P :    0.371128
   4 S :   -0.147758
   5 O :   -0.687930
   6 C :    0.029141
   7 C :   -0.402488
   8 S :    0.159303
   9 C :   -0.406340
  10 S :    0.154791
  11 P :    0.378195
  12 S :   -0.143884
  13 O :   -0.670253
  14 C :    0.029313
  15 C :   -0.411106
  16 O :   -0.677320
  17 C :    0.028669
  18 C :   -0.399522
  19 H :    0.162957
  20 H :    0.167778
  21 H :    0.162573
  22 H :    0.188753
  23 H :    0.184279
  24 H :    0.181270
  25 H :    0.190930
  26 H :    0.164613
  27 H :    0.163173
  28 H :    0.169091
  29 H :    0.198417
  30 H :    0.203056
  31 H :    0.181792
  32 H :    0.191801
  33 H :    0.162027
  34 H :    0.168869
  35 H :    0.163892
  36 H :    0.181527
  37 H :    0.184088
  38 H :    0.170039
  39 H :    0.164109
  40 H :    0.162771

  Mayer bond orders larger than 0.100000
B(  0-C ,  1-C ) :   0.9369 B(  0-C , 19-H ) :   0.9727 B(  0-C , 20-H ) :   0.9580
B(  0-C , 21-H ) :   0.9656 B(  1-C ,  2-O ) :   0.7378 B(  1-C , 22-H ) :   0.9488
B(  1-C , 23-H ) :   0.9551 B(  2-O ,  3-P ) :   1.0554 B(  3-P ,  4-S ) :   1.7689
B(  3-P ,  5-O ) :   1.1543 B(  3-P ,  8-S ) :   1.1003 B(  5-O ,  6-C ) :   0.7938
B(  6-C ,  7-C ) :   0.9157 B(  6-C , 24-H ) :   0.9623 B(  6-C , 25-H ) :   0.9511
B(  7-C , 26-H ) :   0.9696 B(  7-C , 27-H ) :   0.9575 B(  7-C , 28-H ) :   0.9553
B(  8-S ,  9-C ) :   0.8992 B(  9-C , 10-S ) :   0.9025 B(  9-C , 29-H ) :   0.9018
B(  9-C , 30-H ) :   0.9101 B( 10-S , 11-P ) :   1.0163 B( 11-P , 12-S ) :   1.8165
B( 11-P , 13-O ) :   1.0473 B( 11-P , 16-O ) :   1.1621 B( 13-O , 14-C ) :   0.8075
B( 14-C , 15-C ) :   0.9048 B( 14-C , 31-H ) :   0.9678 B( 14-C , 32-H ) :   0.9504
B( 15-C , 33-H ) :   0.9647 B( 15-C , 34-H ) :   0.9505 B( 15-C , 35-H ) :   0.9644
B( 16-O , 17-C ) :   0.7273 B( 17-C , 18-C ) :   0.9340 B( 17-C , 36-H ) :   0.9436
B( 17-C , 37-H ) :   0.9372 B( 18-C , 38-H ) :   0.9610 B( 18-C , 39-H ) :   0.9674
B( 18-C , 40-H ) :   0.9663

Dispersion correction           -0.021623814
FINAL SINGLE POINT ENERGY     -2932.474853411377

DIPOLE MOMENT
-------------

Method             : SCF
Type of density    : Electron Density
Multiplicity       :   1
Irrep              :   0
Energy             : -2932.4995634453525781 Eh
Relativity type    :
Basis              : AO
                                X                 Y                 Z
Electronic contribution:     -6.180811310       6.554186454     -17.290047935
Nuclear contribution   :      6.478886417      -6.424230242      20.633398790
                        -----------------------------------------
Total Dipole Moment    :      0.298075106       0.129956212       3.343350855
                        -----------------------------------------
Magnitude (a.u.)       :      3.359126721
Magnitude (Debye)      :      8.538221582

Rotational constants in cm-1:             0.013459             0.004491             0.004336
Rotational constants in MHz :           403.505245           134.639046           129.992699

                             ****ORCA TERMINATED NORMALLY****
TOTAL RUN TIME: 0 days 0 hours 1 minutes 49 seconds 343 msec
