                         Program Version 6.0.0  -   RELEASE  -
|  1> ! pbe def2-sv(p) def2/J RI DEFGRID1 loosescf d4 GCP(DFT/SV(P)) printgap
|  2> %output
|  3>     printlevel normal
|  4> end
|  5> * xyz 0 1
|  6> C 4.2486879367 -0.0699718611 -2.43550652
|  7> C 2.83955044 -0.5751944826 -2.2060127094
|  8> O 2.1204847882 0.2893299701 -1.2925703205
|  9> P 2.0324040915 0.0898362406 0.2664455094
| 10> S 0.9808818956 1.5064170126 1.1129378929
| 11> O 3.5548305189 0.0473019144 0.7226389133
| 12> C 3.960087518 0.2549215071 2.087787343
| 13> C 3.474097567 -0.848211662 3.004856996
| 14> S 1.4235479468 -1.9275449956 0.5415148023
| 15> C -0.2211764438 -1.8709515311 -0.2160614845
| 16> S -1.4828293744 -1.058582385 0.8138400077
| 17> P -2.0502836407 0.5404903834 -0.4726105855
| 18> S -0.9985452876 0.7548985772 -2.1111059285
| 19> O -2.1160992469 1.8468657556 0.3973681522
| 20> C -2.428673637 1.9408665925 1.8068160497
| 21> C -3.7371343806 1.2704547789 2.1624363936
| 22> O -3.6018953364 0.3024798219 -0.7656894162
| 23> C -4.0914865432 -0.4948005916 -1.8536258918
| 24> C -3.7928783153 -1.9699570542 -1.6724018849
| 25> H 4.8205906007 -0.1147494711 -1.51254739
| 26> H 4.7276475686 -0.690383088 -3.1865372561
| 27> H 4.2226438028 0.9592117336 -2.7835663879
| 28> H 2.8468014197 -1.5916153494 -1.8021173421
| 29> H 2.2460559326 -0.5402948224 -3.1223145546
| 30> H 5.0491719929 0.284939762 2.0331316453
| 31> H 3.5764497965 1.2259558589 2.4159103456
| 32> H 2.3893312154 -0.8069605877 3.0932749658
| 33> H 3.7580324296 -1.8212610274 2.611790866
| 34> H 3.9112698143 -0.7137788741 3.9890027414
| 35> H -0.5133183224 -2.9100309285 -0.3437692774
| 36> H -0.1683653522 -1.3421108045 -1.1730583572
| 37> H -1.5913941368 1.5132970985 2.3657517129
| 38> H -2.4616159897 3.017760754 1.9785141999
| 39> H -3.9527613504 1.4535764634 3.2104469833
| 40> H -4.5417948618 1.670147989 1.5507151237
| 41> H -3.6672426634 0.1962438005 1.9981299002
| 42> H -5.1648671372 -0.2996638118 -1.8538183195
| 43> H -3.6468090708 -0.1232726685 -2.7826826524
| 44> H -4.1154903061 -2.3033974716 -0.6895304811
| 45> H -4.3178776801 -2.5357772178 -2.4352695575
| 46> H -2.7240099621 -2.1477841857 -1.776697789
| 47> *
| 48>
| 49>                          ****END OF INPUT****

CARTESIAN COORDINATES (ANGSTROEM)
---------------------------------
  C      4.248688   -0.069972   -2.435507
  C      2.839550   -0.575194   -2.206013
  O      2.120485    0.289330   -1.292570
  P      2.032404    0.089836    0.266446
  S      0.980882    1.506417    1.112938
  O      3.554831    0.047302    0.722639
  C      3.960088    0.254922    2.087787
  C      3.474098   -0.848212    3.004857
  S      1.423548   -1.927545    0.541515
  C     -0.221176   -1.870952   -0.216061
  S     -1.482829   -1.058582    0.813840
  P     -2.050284    0.540490   -0.472611
  S     -0.998545    0.754899   -2.111106
  O     -2.116099    1.846866    0.397368
  C     -2.428674    1.940867    1.806816
  C     -3.737134    1.270455    2.162436
  O     -3.601895    0.302480   -0.765689
  C     -4.091487   -0.494801   -1.853626
  C     -3.792878   -1.969957   -1.672402
  H      4.820591   -0.114749   -1.512547
  H      4.727648   -0.690383   -3.186537
  H      4.222644    0.959212   -2.783566
  H      2.846801   -1.591615   -1.802117
  H      2.246056   -0.540295   -3.122315
  H      5.049172    0.284940    2.033132
  H      3.576450    1.225956    2.415910
  H      2.389331   -0.806961    3.093275
  H      3.758032   -1.821261    2.611791
  H      3.911270   -0.713779    3.989003
  H     -0.513318   -2.910031   -0.343769
  H     -0.168365   -1.342111   -1.173058
  H     -1.591394    1.513297    2.365752
  H     -2.461616    3.017761    1.978514
  H     -3.952761    1.453576    3.210447
  H     -4.541795    1.670148    1.550715
  H     -3.667243    0.196244    1.998130
  H     -5.164867   -0.299664   -1.853818
  H     -3.646809   -0.123273   -2.782683
  H     -4.115490   -2.303397   -0.689530
  H     -4.317878   -2.535777   -2.435270
  H     -2.724010   -2.147784   -1.776698

 Total Charge           Charge          ....    0
 Multiplicity           Mult            ....    1
 Number of Electrons    NEL             ....  202
 Basis Dimension        Dim             ....  334

ORBITAL ENERGIES
----------------

  NO   OCC          E(Eh)            E(eV)
   0   2.0000     -88.042975     -2395.7711
   1   2.0000     -88.039304     -2395.6713
   2   2.0000     -87.978812     -2394.0252
   3   2.0000     -87.977902     -2394.0004
   4   2.0000     -76.421749     -2079.5415
   5   2.0000     -76.420068     -2079.4958
   6   2.0000     -18.790845      -511.3249
   7   2.0000     -18.785870      -511.1895
   8   2.0000     -18.782966      -511.1105
   9   2.0000     -18.779201      -511.0081
  10   2.0000      -9.956294      -270.9245
  11   2.0000      -9.952196      -270.8130
  12   2.0000      -9.951060      -270.7821
  13   2.0000      -9.948967      -270.7251
  14   2.0000      -9.946717      -270.6639
  15   2.0000      -9.884694      -268.9762
  16   2.0000      -9.884523      -268.9716
  17   2.0000      -9.883664      -268.9482
  18   2.0000      -9.882471      -268.9157
  19   2.0000      -7.687954      -209.1999
  20   2.0000      -7.684014      -209.0926
  21   2.0000      -7.623937      -207.4579
  22   2.0000      -7.622828      -207.4277
  23   2.0000      -6.419233      -174.6762
  24   2.0000      -6.417177      -174.6203
  25   2.0000      -5.715630      -155.5302
  26   2.0000      -5.712351      -155.4410
  27   2.0000      -5.711906      -155.4289
  28   2.0000      -5.708573      -155.3382
  29   2.0000      -5.705233      -155.2473
  30   2.0000      -5.700966      -155.1312
  31   2.0000      -5.652895      -153.8231
  32   2.0000      -5.651810      -153.7936
  33   2.0000      -5.644841      -153.6039
  34   2.0000      -5.643704      -153.5730
  35   2.0000      -5.643341      -153.5631
  36   2.0000      -5.643029      -153.5546
  37   2.0000      -4.642240      -126.3218
  38   2.0000      -4.641071      -126.2900
  39   2.0000      -4.639774      -126.2547
  40   2.0000      -4.639234      -126.2400
  41   2.0000      -4.638927      -126.2316
  42   2.0000      -4.637700      -126.1982
  43   2.0000      -0.984398       -26.7868
  44   2.0000      -0.978067       -26.6146
  45   2.0000      -0.942639       -25.6505
  46   2.0000      -0.935362       -25.4525
  47   2.0000      -0.759808       -20.6754
  48   2.0000      -0.716156       -19.4876
  49   2.0000      -0.708165       -19.2702
  50   2.0000      -0.688675       -18.7398
  51   2.0000      -0.685497       -18.6533
  52   2.0000      -0.676539       -18.4096
  53   2.0000      -0.647568       -17.6212
  54   2.0000      -0.632028       -17.1984
  55   2.0000      -0.597087       -16.2476
  56   2.0000      -0.588704       -16.0194
  57   2.0000      -0.573832       -15.6148
  58   2.0000      -0.569661       -15.5013
  59   2.0000      -0.560729       -15.2582
  60   2.0000      -0.498352       -13.5608
  61   2.0000      -0.487038       -13.2530
  62   2.0000      -0.472740       -12.8639
  63   2.0000      -0.464509       -12.6399
  64   2.0000      -0.450510       -12.2590
  65   2.0000      -0.446920       -12.1613
  66   2.0000      -0.441206       -12.0058
  67   2.0000      -0.434201       -11.8152
  68   2.0000      -0.427186       -11.6243
  69   2.0000      -0.422485       -11.4964
  70   2.0000      -0.411910       -11.2086
  71   2.0000      -0.394015       -10.7217
  72   2.0000      -0.389447       -10.5974
  73   2.0000      -0.385403       -10.4873
  74   2.0000      -0.379340       -10.3224
  75   2.0000      -0.365334        -9.9412
  76   2.0000      -0.362247        -9.8572
  77   2.0000      -0.356679        -9.7057
  78   2.0000      -0.353282        -9.6133
  79   2.0000      -0.350844        -9.5469
  80   2.0000      -0.349088        -9.4992
  81   2.0000      -0.344350        -9.3702
  82   2.0000      -0.342822        -9.3287
  83   2.0000      -0.335892        -9.1401
  84   2.0000      -0.333920        -9.0864
  85   2.0000      -0.313553        -8.5322
  86   2.0000      -0.305139        -8.3033
  87   2.0000      -0.292466        -7.9584
  88   2.0000      -0.288472        -7.8497
  89   2.0000      -0.287259        -7.8167
  90   2.0000      -0.284620        -7.7449
  91   2.0000      -0.268609        -7.3092
  92   2.0000      -0.266308        -7.2466
  93   2.0000      -0.259403        -7.0587
  94   2.0000      -0.255428        -6.9506
  95   2.0000      -0.239703        -6.5227
  96   2.0000      -0.216068        -5.8795
  97   2.0000      -0.201043        -5.4707
  98   2.0000      -0.199249        -5.4218
  99   2.0000      -0.188495        -5.1292
 100   2.0000      -0.185436        -5.0460
 101   0.0000      -0.037836        -1.0296
 102   0.0000      -0.028580        -0.7777
 103   0.0000      -0.013082        -0.3560
 104   0.0000       0.003238         0.0881
 105   0.0000       0.025184         0.6853

MULLIKEN ATOMIC CHARGES
-----------------------
   0 C :   -0.288348
   1 C :   -0.016625
   2 O :   -0.341910
   3 P :    0.605033
   4 S :   -0.303319
   5 O :   -0.381624
   6 C :    0.001539
   7 C :   -0.326334
   8 S :   -0.103469
   9 C :   -0.354761
  10 S :   -0.107127
  11 P :    0.602443
  12 S :   -0.299863
  13 O :   -0.351033
  14 C :   -0.008202
  15 C :   -0.315383
  16 O :   -0.375290
  17 C :    0.004202
  18 C :   -0.318794
  19 H :    0.120936
  20 H :    0.107245
  21 H :    0.122362
  22 H :    0.097739
  23 H :    0.111270
  24 H :    0.104048
  25 H :    0.113134
  26 H :    0.132474
  27 H :    0.118355
  28 H :    0.114997
  29 H :    0.183830
  30 H :    0.195504
  31 H :    0.126013
  32 H :    0.110658
  33 H :    0.113854
  34 H :    0.123676
  35 H :    0.125178
  36 H :    0.101583
  37 H :    0.108740
  38 H :    0.117692
  39 H :    0.110335
  40 H :    0.119242
Sum of atomic charges:   -0.0000000

LOEWDIN ATOMIC CHARGES
----------------------
   0 C :   -0.359707
   1 C :   -0.116969
   2 O :   -0.224082
   3 P :    0.566412
   4 S :   -0.298848
   5 O :   -0.248069
   6 C :   -0.118075
   7 C :   -0.373499
   8 S :    0.076513
   9 C :   -0.486207
  10 S :    0.069889
  11 P :    0.574653
  12 S :   -0.295450
  13 O :   -0.223632
  14 C :   -0.115418
  15 C :   -0.367387
  16 O :   -0.250849
  17 C :   -0.119017
  18 C :   -0.369387
  19 H :    0.125406
  20 H :    0.128555
  21 H :    0.129922
  22 H :    0.100589
  23 H :    0.120786
  24 H :    0.117977
  25 H :    0.112866
  26 H :    0.123073
  27 H :    0.122871
  28 H :    0.132268
  29 H :    0.135817
  30 H :    0.120172
  31 H :    0.109802
  32 H :    0.123930
  33 H :    0.131892
  34 H :    0.129451
  35 H :    0.115831
  36 H :    0.117307
  37 H :    0.109237
  38 H :    0.124004
  39 H :    0.129298
  40 H :    0.118077

  Mayer bond orders larger than 0.100000
B(  0-C ,  1-C ) :   1.1674 B(  0-C , 19-H ) :   0.9413 B(  0-C , 20-H ) :   0.9395
B(  0-C , 21-H ) :   0.9474 B(  1-C ,  2-O ) :   0.8975 B(  1-C , 22-H ) :   0.9074
B(  1-C , 23-H ) :   0.9318 B(  2-O ,  3-P ) :   1.1438 B(  3-P ,  4-S ) :   1.6545
B(  3-P ,  5-O ) :   1.0783 B(  3-P ,  8-S ) :   0.9499 B(  4-S ,  8-S ) :   0.1114
B(  5-O ,  6-C ) :   0.9061 B(  6-C ,  7-C ) :   1.1655 B(  6-C , 24-H ) :   0.9335
B(  6-C , 25-H ) :   0.9161 B(  7-C , 26-H ) :   0.9327 B(  7-C , 27-H ) :   0.9426
B(  7-C , 28-H ) :   0.9372 B(  8-S ,  9-C ) :   0.9909 B(  9-C , 10-S ) :   1.0067
B(  9-C , 29-H ) :   0.9073 B(  9-C , 30-H ) :   0.8406 B( 10-S , 11-P ) :   0.9394
B( 10-S , 12-S ) :   0.1135 B( 11-P , 12-S ) :   1.6106 B( 11-P , 13-O ) :   1.1587
B( 11-P , 16-O ) :   1.0703 B( 12-S , 30-H ) :   0.1252 B( 13-O , 14-C ) :   0.8974
B( 14-C , 15-C ) :   1.1667 B( 14-C , 31-H ) :   0.9133 B( 14-C , 32-H ) :   0.9344
B( 15-C , 33-H ) :   0.9353 B( 15-C , 34-H ) :   0.9417 B( 15-C , 35-H ) :   0.9367
B( 16-O , 17-C ) :   0.9252 B( 17-C , 18-C ) :   1.1622 B( 17-C , 36-H ) :   0.9345
B( 17-C , 37-H ) :   0.9137 B( 18-C , 38-H ) :   0.9432 B( 18-C , 39-H ) :   0.9379
B( 18-C , 40-H ) :   0.9381

Dispersion correction           -0.068057977
FINAL SINGLE POINT ENERGY     -2929.511698431324

DIPOLE MOMENT
-------------

Method             : SCF
Type of density    : Electron Density
Multiplicity       :   1
Irrep              :   0
Energy             : -2929.6295245859059833 Eh
Relativity type    :
Basis              : AO
                                X                 Y                 Z
Electronic contribution:     -0.544345668       6.419914070      -1.456881026
Nuclear contribution   :      0.657823981      -7.654220291       1.834385096
                        -----------------------------------------
Total Dipole Moment    :      0.113478313      -1.234306220       0.377504070
                        -----------------------------------------
Magnitude (a.u.)       :      1.295723155
Magnitude (Debye)      :      3.293466525

Rotational constants in cm-1:             0.012440             0.005453             0.004866
Rotational constants in MHz :           372.954729           163.486513           145.872614

                             ****ORCA TERMINATED NORMALLY****
TOTAL RUN TIME: 0 days 0 hours 0 minutes 22 seconds 782 msec
