                         Program Version 6.0.0  -   RELEASE  -
|  1> ! pbe def2-sv(p) def2/J RI DEFGRID1 loosescf d4 GCP(DFT/SV(P)) printgap
|  2> %output
|  3>     printlevel normal
|  4> end
|  5> * xyz 0 1
|  6> C 4.4488889967 -0.414709496 -2.401092668
|  7> C 3.0799758367 -1.0611875862 -2.3989706126
|  8> O 2.5924376727 -1.2699459544 -1.0562428508
|  9> P 2.1348506041 -0.0713173267 -0.1299413668
| 10> S 1.3810474373 1.4764304647 -1.078293082
| 11> O 3.4572534117 0.2851271292 0.6802189117
| 12> C 3.5945558398 1.5016934829 1.4296745293
| 13> C 2.698256613 1.5156527729 2.6514827214
| 14> S 1.0538470749 -1.2051837244 1.2921841653
| 15> C -0.0755806904 -2.1153364551 0.191562391
| 16> S -0.9938377553 -1.0797838188 -0.9787653997
| 17> P -2.0983398643 0.1181281005 0.4119824724
| 18> S -1.1927081295 1.4279513318 1.5448220426
| 19> O -2.8565073531 -0.9523779035 1.2856104432
| 20> C -3.7694131236 -1.9454286887 0.7510739239
| 21> C -5.2002454229 -1.4530801451 0.8216364661
| 22> O -3.2406005279 0.7246833621 -0.5118212721
| 23> C -3.0916091179 1.9567809654 -1.2367712183
| 24> C -2.2406569342 1.7818457079 -2.4779809425
| 25> H 5.1361080777 -0.9876737229 -1.7841864238
| 26> H 4.8246639105 -0.3690481065 -3.4183635518
| 27> H 4.3797690559 0.5968938648 -2.0032111796
| 28> H 3.1038190837 -2.063931254 -2.82718191
| 29> H 2.3568968306 -0.4398950877 -2.9370609962
| 30> H 4.6502826284 1.5256262643 1.7031212993
| 31> H 3.3584207696 2.3455201457 0.7723393464
| 32> H 1.6496360371 1.5412696586 2.3500898105
| 33> H 2.8646573359 0.6256576494 3.2536686188
| 34> H 2.90721285 2.3992032217 3.2458550702
| 35> H -0.7645463433 -2.6372232191 0.852692212
| 36> H 0.495374227 -2.8157762167 -0.4137032973
| 37> H -3.4824729337 -2.1774956919 -0.2780366288
| 38> H -3.6222410682 -2.8193244956 1.388741912
| 39> H -5.3342752131 -0.5882279384 0.1778582968
| 40> H -5.8649011929 -2.2480617106 0.4980214292
| 41> H -5.4465137507 -1.1716318055 1.8418416829
| 42> H -4.1152377135 2.2379523831 -1.4893708353
| 43> H -2.6544645813 2.7057943141 -0.5683326012
| 44> H -2.2795947547 2.6904093701 -3.0700120358
| 45> H -1.2031345504 1.5948515363 -2.2035346489
| 46> H -2.6047027257 0.9470291757 -3.0712083038
| 47> *
| 48>
| 49>                          ****END OF INPUT****

CARTESIAN COORDINATES (ANGSTROEM)
---------------------------------
  C      4.448889   -0.414709   -2.401093
  C      3.079976   -1.061188   -2.398971
  O      2.592438   -1.269946   -1.056243
  P      2.134851   -0.071317   -0.129941
  S      1.381047    1.476430   -1.078293
  O      3.457253    0.285127    0.680219
  C      3.594556    1.501693    1.429675
  C      2.698257    1.515653    2.651483
  S      1.053847   -1.205184    1.292184
  C     -0.075581   -2.115336    0.191562
  S     -0.993838   -1.079784   -0.978765
  P     -2.098340    0.118128    0.411982
  S     -1.192708    1.427951    1.544822
  O     -2.856507   -0.952378    1.285610
  C     -3.769413   -1.945429    0.751074
  C     -5.200245   -1.453080    0.821636
  O     -3.240601    0.724683   -0.511821
  C     -3.091609    1.956781   -1.236771
  C     -2.240657    1.781846   -2.477981
  H      5.136108   -0.987674   -1.784186
  H      4.824664   -0.369048   -3.418364
  H      4.379769    0.596894   -2.003211
  H      3.103819   -2.063931   -2.827182
  H      2.356897   -0.439895   -2.937061
  H      4.650283    1.525626    1.703121
  H      3.358421    2.345520    0.772339
  H      1.649636    1.541270    2.350090
  H      2.864657    0.625658    3.253669
  H      2.907213    2.399203    3.245855
  H     -0.764546   -2.637223    0.852692
  H      0.495374   -2.815776   -0.413703
  H     -3.482473   -2.177496   -0.278037
  H     -3.622241   -2.819324    1.388742
  H     -5.334275   -0.588228    0.177858
  H     -5.864901   -2.248062    0.498021
  H     -5.446514   -1.171632    1.841842
  H     -4.115238    2.237952   -1.489371
  H     -2.654465    2.705794   -0.568333
  H     -2.279595    2.690409   -3.070012
  H     -1.203135    1.594852   -2.203535
  H     -2.604703    0.947029   -3.071208

 Total Charge           Charge          ....    0
 Multiplicity           Mult            ....    1
 Number of Electrons    NEL             ....  202
 Basis Dimension        Dim             ....  334

ORBITAL ENERGIES
----------------

  NO   OCC          E(Eh)            E(eV)
   0   2.0000     -88.040373     -2395.7003
   1   2.0000     -88.034936     -2395.5524
   2   2.0000     -87.979765     -2394.0511
   3   2.0000     -87.975425     -2393.9330
   4   2.0000     -76.422145     -2079.5523
   5   2.0000     -76.421436     -2079.5330
   6   2.0000     -18.792106      -511.3592
   7   2.0000     -18.791564      -511.3445
   8   2.0000     -18.789277      -511.2822
   9   2.0000     -18.786707      -511.2123
  10   2.0000      -9.959101      -271.0009
  11   2.0000      -9.956883      -270.9406
  12   2.0000      -9.949505      -270.7398
  13   2.0000      -9.948386      -270.7093
  14   2.0000      -9.945083      -270.6195
  15   2.0000      -9.886301      -269.0199
  16   2.0000      -9.881643      -268.8932
  17   2.0000      -9.877619      -268.7837
  18   2.0000      -9.875034      -268.7133
  19   2.0000      -7.684745      -209.1125
  20   2.0000      -7.680173      -208.9881
  21   2.0000      -7.624359      -207.4694
  22   2.0000      -7.620407      -207.3618
  23   2.0000      -6.419497      -174.6834
  24   2.0000      -6.418832      -174.6653
  25   2.0000      -5.712610      -155.4480
  26   2.0000      -5.709286      -155.3576
  27   2.0000      -5.708337      -155.3318
  28   2.0000      -5.704802      -155.2356
  29   2.0000      -5.701764      -155.1529
  30   2.0000      -5.696670      -155.0143
  31   2.0000      -5.653165      -153.8304
  32   2.0000      -5.649496      -153.7306
  33   2.0000      -5.644948      -153.6069
  34   2.0000      -5.644698      -153.6001
  35   2.0000      -5.640923      -153.4973
  36   2.0000      -5.640483      -153.4854
  37   2.0000      -4.642646      -126.3328
  38   2.0000      -4.641482      -126.3012
  39   2.0000      -4.641286      -126.2958
  40   2.0000      -4.640645      -126.2784
  41   2.0000      -4.639403      -126.2446
  42   2.0000      -4.639192      -126.2388
  43   2.0000      -0.986862       -26.8539
  44   2.0000      -0.982844       -26.7446
  45   2.0000      -0.945119       -25.7180
  46   2.0000      -0.943428       -25.6720
  47   2.0000      -0.760130       -20.6842
  48   2.0000      -0.716885       -19.5074
  49   2.0000      -0.706396       -19.2220
  50   2.0000      -0.687823       -18.7166
  51   2.0000      -0.681915       -18.5558
  52   2.0000      -0.667000       -18.1500
  53   2.0000      -0.648954       -17.6589
  54   2.0000      -0.633910       -17.2496
  55   2.0000      -0.595222       -16.1968
  56   2.0000      -0.586502       -15.9595
  57   2.0000      -0.575355       -15.6562
  58   2.0000      -0.568502       -15.4697
  59   2.0000      -0.559343       -15.2205
  60   2.0000      -0.500950       -13.6315
  61   2.0000      -0.489328       -13.3153
  62   2.0000      -0.475120       -12.9287
  63   2.0000      -0.469369       -12.7722
  64   2.0000      -0.456667       -12.4265
  65   2.0000      -0.446321       -12.1450
  66   2.0000      -0.435010       -11.8372
  67   2.0000      -0.432042       -11.7565
  68   2.0000      -0.426015       -11.5924
  69   2.0000      -0.412030       -11.2119
  70   2.0000      -0.409505       -11.1432
  71   2.0000      -0.392454       -10.6792
  72   2.0000      -0.390533       -10.6269
  73   2.0000      -0.385629       -10.4935
  74   2.0000      -0.377774       -10.2798
  75   2.0000      -0.371246       -10.1021
  76   2.0000      -0.361959        -9.8494
  77   2.0000      -0.359553        -9.7839
  78   2.0000      -0.351387        -9.5617
  79   2.0000      -0.350144        -9.5279
  80   2.0000      -0.347937        -9.4678
  81   2.0000      -0.343481        -9.3466
  82   2.0000      -0.341234        -9.2855
  83   2.0000      -0.335712        -9.1352
  84   2.0000      -0.327181        -8.9031
  85   2.0000      -0.315702        -8.5907
  86   2.0000      -0.308346        -8.3905
  87   2.0000      -0.296259        -8.0616
  88   2.0000      -0.289885        -7.8882
  89   2.0000      -0.287759        -7.8303
  90   2.0000      -0.279142        -7.5958
  91   2.0000      -0.272452        -7.4138
  92   2.0000      -0.266749        -7.2586
  93   2.0000      -0.257739        -7.0134
  94   2.0000      -0.256692        -6.9849
  95   2.0000      -0.246490        -6.7073
  96   2.0000      -0.219272        -5.9667
  97   2.0000      -0.206598        -5.6218
  98   2.0000      -0.188460        -5.1282
  99   2.0000      -0.182756        -4.9730
 100   2.0000      -0.180667        -4.9162
 101   0.0000      -0.048270        -1.3135
 102   0.0000      -0.024247        -0.6598
 103   0.0000      -0.007111        -0.1935
 104   0.0000      -0.001991        -0.0542
 105   0.0000       0.022371         0.6088

MULLIKEN ATOMIC CHARGES
-----------------------
   0 C :   -0.303634
   1 C :   -0.005024
   2 O :   -0.375059
   3 P :    0.618919
   4 S :   -0.310024
   5 O :   -0.371295
   6 C :   -0.002580
   7 C :   -0.344065
   8 S :   -0.083269
   9 C :   -0.333018
  10 S :   -0.113509
  11 P :    0.608227
  12 S :   -0.282240
  13 O :   -0.363965
  14 C :   -0.022735
  15 C :   -0.284275
  16 O :   -0.382487
  17 C :   -0.000372
  18 C :   -0.341883
  19 H :    0.116943
  20 H :    0.110466
  21 H :    0.122860
  22 H :    0.100253
  23 H :    0.110914
  24 H :    0.102011
  25 H :    0.109602
  26 H :    0.158854
  27 H :    0.117834
  28 H :    0.112430
  29 H :    0.183211
  30 H :    0.187696
  31 H :    0.102117
  32 H :    0.106621
  33 H :    0.124718
  34 H :    0.107893
  35 H :    0.120652
  36 H :    0.101445
  37 H :    0.112745
  38 H :    0.112263
  39 H :    0.159832
  40 H :    0.110930
Sum of atomic charges:   -0.0000000

LOEWDIN ATOMIC CHARGES
----------------------
   0 C :   -0.363961
   1 C :   -0.119451
   2 O :   -0.244330
   3 P :    0.571173
   4 S :   -0.303895
   5 O :   -0.243638
   6 C :   -0.121698
   7 C :   -0.374028
   8 S :    0.092265
   9 C :   -0.473814
  10 S :    0.072577
  11 P :    0.566044
  12 S :   -0.290862
  13 O :   -0.239694
  14 C :   -0.119069
  15 C :   -0.358097
  16 O :   -0.246598
  17 C :   -0.117694
  18 C :   -0.374856
  19 H :    0.126696
  20 H :    0.129633
  21 H :    0.123558
  22 H :    0.116021
  23 H :    0.110134
  24 H :    0.117005
  25 H :    0.108844
  26 H :    0.124993
  27 H :    0.123873
  28 H :    0.131706
  29 H :    0.131090
  30 H :    0.134625
  31 H :    0.103662
  32 H :    0.117528
  33 H :    0.127517
  34 H :    0.128956
  35 H :    0.129247
  36 H :    0.116270
  37 H :    0.112317
  38 H :    0.131860
  39 H :    0.122014
  40 H :    0.122079

  Mayer bond orders larger than 0.100000
B(  0-C ,  1-C ) :   1.1663 B(  0-C , 19-H ) :   0.9462 B(  0-C , 20-H ) :   0.9392
B(  0-C , 21-H ) :   0.9362 B(  1-C ,  2-O ) :   0.9048 B(  1-C , 22-H ) :   0.9342
B(  1-C , 23-H ) :   0.9131 B(  2-O ,  3-P ) :   1.1091 B(  3-P ,  4-S ) :   1.6087
B(  3-P ,  5-O ) :   1.1051 B(  3-P ,  8-S ) :   0.9643 B(  4-S ,  8-S ) :   0.1156
B(  5-O ,  6-C ) :   0.9083 B(  6-C ,  7-C ) :   1.1641 B(  6-C , 24-H ) :   0.9327
B(  6-C , 25-H ) :   0.9123 B(  7-C , 26-H ) :   0.9232 B(  7-C , 27-H ) :   0.9438
B(  7-C , 28-H ) :   0.9378 B(  8-S ,  9-C ) :   0.9992 B(  9-C , 10-S ) :   0.9992
B(  9-C , 29-H ) :   0.9053 B(  9-C , 30-H ) :   0.9049 B( 10-S , 11-P ) :   0.9357
B( 10-S , 12-S ) :   0.1141 B( 11-P , 12-S ) :   1.6960 B( 11-P , 13-O ) :   1.1165
B( 11-P , 16-O ) :   1.0790 B( 13-O , 14-C ) :   0.8939 B( 14-C , 15-C ) :   1.1697
B( 14-C , 31-H ) :   0.9067 B( 14-C , 32-H ) :   0.9337 B( 15-C , 33-H ) :   0.9414
B( 15-C , 34-H ) :   0.9394 B( 15-C , 35-H ) :   0.9471 B( 16-O , 17-C ) :   0.9060
B( 17-C , 18-C ) :   1.1665 B( 17-C , 36-H ) :   0.9336 B( 17-C , 37-H ) :   0.9107
B( 18-C , 38-H ) :   0.9381 B( 18-C , 39-H ) :   0.9194 B( 18-C , 40-H ) :   0.9444

Dispersion correction           -0.067831705
FINAL SINGLE POINT ENERGY     -2929.513240276353

DIPOLE MOMENT
-------------

Method             : SCF
Type of density    : Electron Density
Multiplicity       :   1
Irrep              :   0
Energy             : -2929.6301054247110187 Eh
Relativity type    :
Basis              : AO
                                X                 Y                 Z
Electronic contribution:      1.325612658      -1.744340980       6.966885663
Nuclear contribution   :     -1.584035345       0.759059179      -7.755276978
                        -----------------------------------------
Total Dipole Moment    :     -0.258422687      -0.985281801      -0.788391315
                        -----------------------------------------
Magnitude (a.u.)       :      1.288069633
Magnitude (Debye)      :      3.274012816

Rotational constants in cm-1:             0.012729             0.005188             0.005064
Rotational constants in MHz :           381.598914           155.531118           151.819098

                             ****ORCA TERMINATED NORMALLY****
TOTAL RUN TIME: 0 days 0 hours 0 minutes 21 seconds 306 msec
