                         Program Version 6.0.0  -   RELEASE  -
|  1> ! pbe def2-sv(p) def2/J RI DEFGRID1 loosescf d4 GCP(DFT/SV(P)) printgap
|  2> %output
|  3>     printlevel normal
|  4> end
|  5> * xyz 0 1
|  6> C 4.480695867 0.9613000975 -1.1684508242
|  7> C 4.4204718767 0.8163954118 0.3384651857
|  8> O 3.4875614159 -0.1914054255 0.7620705053
|  9> P 1.9129354003 -0.0611247238 0.5461246981
| 10> S 1.2071498703 1.7407802131 0.8289209782
| 11> O 1.3775855034 -1.1298354788 1.5781664227
| 12> C 1.8073635978 -2.5118327502 1.5633451302
| 13> C 2.8610099663 -2.7572523145 2.6236496169
| 14> S 1.619368218 -0.9275017322 -1.3830767904
| 15> C 0.3083695854 0.1336347357 -2.0326251969
| 16> S -1.3252976142 -0.6828735257 -2.0936685436
| 17> P -2.2338818194 0.11938847 -0.3861117362
| 18> S -4.1246108063 -0.3078804749 -0.1130993884
| 19> O -1.9243129395 1.6860986905 -0.3881081158
| 20> C -2.8416859902 2.6387188317 -0.9503987579
| 21> C -2.8635721535 2.5733743034 -2.4642990567
| 22> O -1.2180221779 -0.3938163889 0.728609679
| 23> C -1.5421476872 -0.176881098 2.1221085739
| 24> C -2.0836837453 -1.4465389914 2.7438332213
| 25> H 5.2979590566 1.6262319512 -1.4289093413
| 26> H 4.6388356037 -0.0065670516 -1.637152127
| 27> H 3.5500327114 1.3867415244 -1.5399050023
| 28> H 4.1359462726 1.764822931 0.8044481931
| 29> H 5.3732659166 0.4756109838 0.7462160501
| 30> H 0.9010676359 -3.0880012885 1.7617145495
| 31> H 2.183176709 -2.7595219362 0.5664088022
| 32> H 2.4824929263 -2.4672846474 3.5999710873
| 33> H 3.1114388663 -3.8134447737 2.6350901211
| 34> H 3.754516963 -2.1784761921 2.4066120121
| 35> H 0.5643311219 0.3613495502 -3.0635076832
| 36> H 0.242927497 1.0356145522 -1.4194028873
| 37> H -3.8383310544 2.4399114348 -0.5426611944
| 38> H -2.4751839406 3.60056186 -0.589026415
| 39> H -3.233443244 1.6004350808 -2.7874774866
| 40> H -3.5250694586 3.344944599 -2.8449068855
| 41> H -1.8653450573 2.725350755 -2.8665889031
| 42> H -0.6047872123 0.13366906 2.5877976924
| 43> H -2.2665094499 0.639333976 2.1954058977
| 44> H -2.2734328873 -1.2723729028 3.7980993852
| 45> H -3.0129042253 -1.7344006706 2.25609672
| 46> H -1.363045048 -2.2518742833 2.6349566406
| 47> *
| 48>
| 49>                          ****END OF INPUT****

CARTESIAN COORDINATES (ANGSTROEM)
---------------------------------
  C      4.480696    0.961300   -1.168451
  C      4.420472    0.816395    0.338465
  O      3.487561   -0.191405    0.762071
  P      1.912935   -0.061125    0.546125
  S      1.207150    1.740780    0.828921
  O      1.377586   -1.129835    1.578166
  C      1.807364   -2.511833    1.563345
  C      2.861010   -2.757252    2.623650
  S      1.619368   -0.927502   -1.383077
  C      0.308370    0.133635   -2.032625
  S     -1.325298   -0.682874   -2.093669
  P     -2.233882    0.119388   -0.386112
  S     -4.124611   -0.307880   -0.113099
  O     -1.924313    1.686099   -0.388108
  C     -2.841686    2.638719   -0.950399
  C     -2.863572    2.573374   -2.464299
  O     -1.218022   -0.393816    0.728610
  C     -1.542148   -0.176881    2.122109
  C     -2.083684   -1.446539    2.743833
  H      5.297959    1.626232   -1.428909
  H      4.638836   -0.006567   -1.637152
  H      3.550033    1.386742   -1.539905
  H      4.135946    1.764823    0.804448
  H      5.373266    0.475611    0.746216
  H      0.901068   -3.088001    1.761715
  H      2.183177   -2.759522    0.566409
  H      2.482493   -2.467285    3.599971
  H      3.111439   -3.813445    2.635090
  H      3.754517   -2.178476    2.406612
  H      0.564331    0.361350   -3.063508
  H      0.242927    1.035615   -1.419403
  H     -3.838331    2.439911   -0.542661
  H     -2.475184    3.600562   -0.589026
  H     -3.233443    1.600435   -2.787477
  H     -3.525069    3.344945   -2.844907
  H     -1.865345    2.725351   -2.866589
  H     -0.604787    0.133669    2.587798
  H     -2.266509    0.639334    2.195406
  H     -2.273433   -1.272373    3.798099
  H     -3.012904   -1.734401    2.256097
  H     -1.363045   -2.251874    2.634957

 Total Charge           Charge          ....    0
 Multiplicity           Mult            ....    1
 Number of Electrons    NEL             ....  202
 Basis Dimension        Dim             ....  334

ORBITAL ENERGIES
----------------

  NO   OCC          E(Eh)            E(eV)
   0   2.0000     -88.046457     -2395.8659
   1   2.0000     -88.041253     -2395.7243
   2   2.0000     -87.993172     -2394.4159
   3   2.0000     -87.982324     -2394.1208
   4   2.0000     -76.431659     -2079.8112
   5   2.0000     -76.419702     -2079.4858
   6   2.0000     -18.797713      -511.5118
   7   2.0000     -18.795366      -511.4479
   8   2.0000     -18.786411      -511.2042
   9   2.0000     -18.779519      -511.0167
  10   2.0000      -9.961024      -271.0533
  11   2.0000      -9.958884      -270.9950
  12   2.0000      -9.957243      -270.9504
  13   2.0000      -9.946336      -270.6536
  14   2.0000      -9.937329      -270.4085
  15   2.0000      -9.890147      -269.1246
  16   2.0000      -9.888311      -269.0746
  17   2.0000      -9.881676      -268.8941
  18   2.0000      -9.872863      -268.6543
  19   2.0000      -7.691480      -209.2958
  20   2.0000      -7.686876      -209.1705
  21   2.0000      -7.638143      -207.8444
  22   2.0000      -7.627502      -207.5549
  23   2.0000      -6.428980      -174.9414
  24   2.0000      -6.417738      -174.6355
  25   2.0000      -5.719349      -155.6314
  26   2.0000      -5.715890      -155.5373
  27   2.0000      -5.715146      -155.5170
  28   2.0000      -5.711025      -155.4049
  29   2.0000      -5.708542      -155.3373
  30   2.0000      -5.703698      -155.2055
  31   2.0000      -5.667125      -154.2103
  32   2.0000      -5.658893      -153.9863
  33   2.0000      -5.658051      -153.9634
  34   2.0000      -5.656474      -153.9205
  35   2.0000      -5.648180      -153.6948
  36   2.0000      -5.647535      -153.6772
  37   2.0000      -4.651748      -126.5805
  38   2.0000      -4.650594      -126.5491
  39   2.0000      -4.649441      -126.5177
  40   2.0000      -4.640137      -126.2645
  41   2.0000      -4.639700      -126.2527
  42   2.0000      -4.638143      -126.2103
  43   2.0000      -0.993217       -27.0268
  44   2.0000      -0.978150       -26.6168
  45   2.0000      -0.949284       -25.8313
  46   2.0000      -0.935731       -25.4625
  47   2.0000      -0.762958       -20.7611
  48   2.0000      -0.722937       -19.6721
  49   2.0000      -0.706474       -19.2241
  50   2.0000      -0.694277       -18.8922
  51   2.0000      -0.681659       -18.5489
  52   2.0000      -0.673683       -18.3318
  53   2.0000      -0.653705       -17.7882
  54   2.0000      -0.639667       -17.4062
  55   2.0000      -0.600160       -16.3312
  56   2.0000      -0.586960       -15.9720
  57   2.0000      -0.579066       -15.7572
  58   2.0000      -0.569187       -15.4884
  59   2.0000      -0.557736       -15.1768
  60   2.0000      -0.506356       -13.7786
  61   2.0000      -0.493649       -13.4329
  62   2.0000      -0.478821       -13.0294
  63   2.0000      -0.462895       -12.5960
  64   2.0000      -0.458701       -12.4819
  65   2.0000      -0.451329       -12.2813
  66   2.0000      -0.441070       -12.0021
  67   2.0000      -0.434751       -11.8302
  68   2.0000      -0.429048       -11.6750
  69   2.0000      -0.417130       -11.3507
  70   2.0000      -0.414210       -11.2712
  71   2.0000      -0.397605       -10.8194
  72   2.0000      -0.391078       -10.6418
  73   2.0000      -0.387290       -10.5387
  74   2.0000      -0.377098       -10.2614
  75   2.0000      -0.370673       -10.0865
  76   2.0000      -0.367167        -9.9911
  77   2.0000      -0.359755        -9.7894
  78   2.0000      -0.357162        -9.7189
  79   2.0000      -0.350391        -9.5346
  80   2.0000      -0.347690        -9.4611
  81   2.0000      -0.345971        -9.4144
  82   2.0000      -0.342296        -9.3144
  83   2.0000      -0.334569        -9.1041
  84   2.0000      -0.326610        -8.8875
  85   2.0000      -0.320956        -8.7336
  86   2.0000      -0.310827        -8.4580
  87   2.0000      -0.300337        -8.1726
  88   2.0000      -0.294230        -8.0064
  89   2.0000      -0.288423        -7.8484
  90   2.0000      -0.284038        -7.7291
  91   2.0000      -0.271926        -7.3995
  92   2.0000      -0.267983        -7.2922
  93   2.0000      -0.264950        -7.2097
  94   2.0000      -0.260874        -7.0987
  95   2.0000      -0.234908        -6.3922
  96   2.0000      -0.220033        -5.9874
  97   2.0000      -0.211046        -5.7428
  98   2.0000      -0.208001        -5.6600
  99   2.0000      -0.201451        -5.4818
 100   2.0000      -0.196975        -5.3600
 101   0.0000      -0.040413        -1.0997
 102   0.0000      -0.030400        -0.8272
 103   0.0000      -0.017421        -0.4741
 104   0.0000       0.000996         0.0271
 105   0.0000       0.009684         0.2635

MULLIKEN ATOMIC CHARGES
-----------------------
   0 C :   -0.311219
   1 C :    0.000276
   2 O :   -0.382498
   3 P :    0.614244
   4 S :   -0.297992
   5 O :   -0.356251
   6 C :   -0.024801
   7 C :   -0.286618
   8 S :   -0.095151
   9 C :   -0.369830
  10 S :   -0.066869
  11 P :    0.602553
  12 S :   -0.325379
  13 O :   -0.369288
  14 C :   -0.005024
  15 C :   -0.315463
  16 O :   -0.377892
  17 C :   -0.001354
  18 C :   -0.292993
  19 H :    0.113782
  20 H :    0.118278
  21 H :    0.119368
  22 H :    0.112008
  23 H :    0.104581
  24 H :    0.123180
  25 H :    0.107094
  26 H :    0.118886
  27 H :    0.111462
  28 H :    0.121876
  29 H :    0.183748
  30 H :    0.211000
  31 H :    0.111459
  32 H :    0.105274
  33 H :    0.127051
  34 H :    0.112210
  35 H :    0.111942
  36 H :    0.111940
  37 H :    0.099495
  38 H :    0.103761
  39 H :    0.122136
  40 H :    0.111016
Sum of atomic charges:    0.0000000

LOEWDIN ATOMIC CHARGES
----------------------
   0 C :   -0.370296
   1 C :   -0.117561
   2 O :   -0.250399
   3 P :    0.580962
   4 S :   -0.284205
   5 O :   -0.228477
   6 C :   -0.113267
   7 C :   -0.358215
   8 S :    0.078481
   9 C :   -0.482595
  10 S :    0.091256
  11 P :    0.565627
  12 S :   -0.321411
  13 O :   -0.241206
  14 C :   -0.122484
  15 C :   -0.367588
  16 O :   -0.248535
  17 C :   -0.122639
  18 C :   -0.359601
  19 H :    0.131086
  20 H :    0.123618
  21 H :    0.118948
  22 H :    0.111844
  23 H :    0.118294
  24 H :    0.120933
  25 H :    0.104821
  26 H :    0.128414
  27 H :    0.130399
  28 H :    0.126733
  29 H :    0.137880
  30 H :    0.126734
  31 H :    0.108790
  32 H :    0.118623
  33 H :    0.121792
  34 H :    0.130657
  35 H :    0.121984
  36 H :    0.111769
  37 H :    0.107074
  38 H :    0.127482
  39 H :    0.123978
  40 H :    0.120297

  Mayer bond orders larger than 0.100000
B(  0-C ,  1-C ) :   1.1670 B(  0-C , 19-H ) :   0.9370 B(  0-C , 20-H ) :   0.9425
B(  0-C , 21-H ) :   0.9385 B(  1-C ,  2-O ) :   0.9111 B(  1-C , 22-H ) :   0.9177
B(  1-C , 23-H ) :   0.9340 B(  2-O ,  3-P ) :   1.0736 B(  3-P ,  4-S ) :   1.6247
B(  3-P ,  5-O ) :   1.1224 B(  3-P ,  8-S ) :   0.9574 B(  4-S ,  8-S ) :   0.1123
B(  5-O ,  6-C ) :   0.8967 B(  6-C ,  7-C ) :   1.1641 B(  6-C , 24-H ) :   0.9250
B(  6-C , 25-H ) :   0.9132 B(  7-C , 26-H ) :   0.9470 B(  7-C , 27-H ) :   0.9397
B(  7-C , 28-H ) :   0.9420 B(  8-S ,  9-C ) :   1.0047 B(  9-C , 10-S ) :   0.9756
B(  9-C , 29-H ) :   0.9095 B(  9-C , 30-H ) :   0.8443 B( 10-S , 11-P ) :   0.9952
B( 11-P , 12-S ) :   1.6318 B( 11-P , 13-O ) :   1.0731 B( 11-P , 16-O ) :   1.1151
B( 13-O , 14-C ) :   0.9122 B( 14-C , 15-C ) :   1.1624 B( 14-C , 31-H ) :   0.9107
B( 14-C , 32-H ) :   0.9326 B( 15-C , 33-H ) :   0.9352 B( 15-C , 34-H ) :   0.9396
B( 15-C , 35-H ) :   0.9478 B( 16-O , 17-C ) :   0.8768 B( 17-C , 18-C ) :   1.1749
B( 17-C , 36-H ) :   0.9140 B( 17-C , 37-H ) :   0.9124 B( 18-C , 38-H ) :   0.9407
B( 18-C , 39-H ) :   0.9339 B( 18-C , 40-H ) :   0.9439

Dispersion correction           -0.067195066
FINAL SINGLE POINT ENERGY     -2929.519011673705

DIPOLE MOMENT
-------------

Method             : SCF
Type of density    : Electron Density
Multiplicity       :   1
Irrep              :   0
Energy             : -2929.6403226905499650 Eh
Relativity type    :
Basis              : AO
                                X                 Y                 Z
Electronic contribution:     -9.699393025      -1.311596756      -6.834799757
Nuclear contribution   :     11.437953187       1.418669166       6.800236378
                        -----------------------------------------
Total Dipole Moment    :      1.738560162       0.107072410      -0.034563379
                        -----------------------------------------
Magnitude (a.u.)       :      1.742197051
Magnitude (Debye)      :      4.428312980

Rotational constants in cm-1:             0.011959             0.005687             0.004858
Rotational constants in MHz :           358.511346           170.477957           145.644433

                             ****ORCA TERMINATED NORMALLY****
TOTAL RUN TIME: 0 days 0 hours 0 minutes 21 seconds 988 msec
