                         Program Version 6.0.0  -   RELEASE  -
|  1> ! pbe def2-sv(p) def2/J RI DEFGRID1 loosescf d4 GCP(DFT/SV(P)) printgap
|  2> %output
|  3>     printlevel normal
|  4> end
|  5> * xyz 0 1
|  6> C 4.0146707075 1.5387429945 -1.4110342096
|  7> C 2.773544541 0.8494002516 -1.9341323603
|  8> O 2.4568920546 -0.3364427843 -1.1775327014
|  9> P 2.0835974714 -0.3019716386 0.3568414952
| 10> S 1.064225048 1.2469801995 1.0037334877
| 11> O 3.4963668227 -0.4675218662 1.0614993315
| 12> C 3.6602778512 -0.358369153 2.489671321
| 13> C 5.1180215573 -0.0548717429 2.7712535939
| 14> S 1.2834337775 -2.2401712739 0.5859433325
| 15> C -0.305801379 -2.0702101082 -0.2695384386
| 16> S -1.5427932778 -1.1481821643 0.69625237
| 17> P -2.1548795752 0.2033564394 -0.8360359618
| 18> S -0.7830287138 0.756408836 -2.1165035903
| 19> O -2.9478711321 1.3496489819 -0.0849244514
| 20> C -2.3439456716 2.3826705899 0.7185993492
| 21> C -2.3965587487 2.0219607992 2.1893432784
| 22> O -3.3015624287 -0.5585569375 -1.6031464749
| 23> C -4.4866958249 -1.090961616 -0.9599068626
| 24> C -5.6417223195 -0.1165633677 -1.0644847888
| 25> H 4.2694828971 2.3645769812 -2.0677524047
| 26> H 3.8267135112 1.9269158449 -0.4104514302
| 27> H 4.8431804172 0.8364709649 -1.3681175175
| 28> H 2.9076856708 0.4762545752 -2.9502608603
| 29> H 1.9072382122 1.5182591966 -1.9080003703
| 30> H 3.0046382008 0.4389037139 2.8565240085
| 31> H 3.3561915461 -1.3072982209 2.9390302747
| 32> H 5.2686638897 -0.0020101445 3.8444207018
| 33> H 5.7448891967 -0.839057988 2.3570138777
| 34> H 5.3983103594 0.8940501432 2.3227146743
| 35> H -0.6662412017 -3.0846693015 -0.417268975
| 36> H -0.1526630446 -1.5548280024 -1.2210489643
| 37> H -1.3130819017 2.5447633667 0.3911507849
| 38> H -2.936316771 3.2745881207 0.5062891612
| 39> H -2.0286353043 2.8621564699 2.7689556418
| 40> H -3.4168697739 1.7952273709 2.4846189304
| 41> H -1.765774329 1.1593889322 2.3913643611
| 42> H -4.6963166894 -2.0141538871 -1.5031013393
| 43> H -4.2502628673 -1.3187532449 0.0833635372
| 44> H -5.4150651669 0.798544304 -0.524508039
| 45> H -5.827093929 0.1294830649 -2.1065164141
| 46> H -6.5301434507 -0.573688058 -0.6400856033
| 47> *
| 48>
| 49>                          ****END OF INPUT****

CARTESIAN COORDINATES (ANGSTROEM)
---------------------------------
  C      4.014671    1.538743   -1.411034
  C      2.773545    0.849400   -1.934132
  O      2.456892   -0.336443   -1.177533
  P      2.083597   -0.301972    0.356841
  S      1.064225    1.246980    1.003733
  O      3.496367   -0.467522    1.061499
  C      3.660278   -0.358369    2.489671
  C      5.118022   -0.054872    2.771254
  S      1.283434   -2.240171    0.585943
  C     -0.305801   -2.070210   -0.269538
  S     -1.542793   -1.148182    0.696252
  P     -2.154880    0.203356   -0.836036
  S     -0.783029    0.756409   -2.116504
  O     -2.947871    1.349649   -0.084924
  C     -2.343946    2.382671    0.718599
  C     -2.396559    2.021961    2.189343
  O     -3.301562   -0.558557   -1.603146
  C     -4.486696   -1.090962   -0.959907
  C     -5.641722   -0.116563   -1.064485
  H      4.269483    2.364577   -2.067752
  H      3.826714    1.926916   -0.410451
  H      4.843180    0.836471   -1.368118
  H      2.907686    0.476255   -2.950261
  H      1.907238    1.518259   -1.908000
  H      3.004638    0.438904    2.856524
  H      3.356192   -1.307298    2.939030
  H      5.268664   -0.002010    3.844421
  H      5.744889   -0.839058    2.357014
  H      5.398310    0.894050    2.322715
  H     -0.666241   -3.084669   -0.417269
  H     -0.152663   -1.554828   -1.221049
  H     -1.313082    2.544763    0.391151
  H     -2.936317    3.274588    0.506289
  H     -2.028635    2.862156    2.768956
  H     -3.416870    1.795227    2.484619
  H     -1.765774    1.159389    2.391364
  H     -4.696317   -2.014154   -1.503101
  H     -4.250263   -1.318753    0.083364
  H     -5.415065    0.798544   -0.524508
  H     -5.827094    0.129483   -2.106516
  H     -6.530143   -0.573688   -0.640086

 Total Charge           Charge          ....    0
 Multiplicity           Mult            ....    1
 Number of Electrons    NEL             ....  202
 Basis Dimension        Dim             ....  334

ORBITAL ENERGIES
----------------

  NO   OCC          E(Eh)            E(eV)
   0   2.0000     -88.040059     -2395.6918
   1   2.0000     -88.038486     -2395.6490
   2   2.0000     -87.981519     -2394.0988
   3   2.0000     -87.979273     -2394.0377
   4   2.0000     -76.422894     -2079.5727
   5   2.0000     -76.422842     -2079.5712
   6   2.0000     -18.794708      -511.4300
   7   2.0000     -18.790365      -511.3118
   8   2.0000     -18.786486      -511.2063
   9   2.0000     -18.785878      -511.1897
  10   2.0000      -9.953806      -270.8568
  11   2.0000      -9.953446      -270.8470
  12   2.0000      -9.951318      -270.7891
  13   2.0000      -9.949653      -270.7438
  14   2.0000      -9.942978      -270.5622
  15   2.0000      -9.887683      -269.0575
  16   2.0000      -9.884505      -268.9710
  17   2.0000      -9.880297      -268.8565
  18   2.0000      -9.878175      -268.7988
  19   2.0000      -7.685751      -209.1399
  20   2.0000      -7.683277      -209.0726
  21   2.0000      -7.626305      -207.5223
  22   2.0000      -7.624478      -207.4726
  23   2.0000      -6.420517      -174.7112
  24   2.0000      -6.420410      -174.7082
  25   2.0000      -5.713578      -155.4744
  26   2.0000      -5.711087      -155.4066
  27   2.0000      -5.710285      -155.3848
  28   2.0000      -5.707875      -155.3192
  29   2.0000      -5.702649      -155.1770
  30   2.0000      -5.700266      -155.1121
  31   2.0000      -5.655009      -153.8806
  32   2.0000      -5.653531      -153.8404
  33   2.0000      -5.646963      -153.6617
  34   2.0000      -5.646628      -153.6526
  35   2.0000      -5.645232      -153.6146
  36   2.0000      -5.644285      -153.5888
  37   2.0000      -4.643381      -126.3528
  38   2.0000      -4.642895      -126.3396
  39   2.0000      -4.642285      -126.3230
  40   2.0000      -4.642256      -126.3222
  41   2.0000      -4.640881      -126.2848
  42   2.0000      -4.640681      -126.2794
  43   2.0000      -0.986615       -26.8472
  44   2.0000      -0.983659       -26.7667
  45   2.0000      -0.943137       -25.6641
  46   2.0000      -0.942846       -25.6561
  47   2.0000      -0.759251       -20.6603
  48   2.0000      -0.720201       -19.5977
  49   2.0000      -0.708764       -19.2864
  50   2.0000      -0.688535       -18.7360
  51   2.0000      -0.685615       -18.6565
  52   2.0000      -0.670334       -18.2407
  53   2.0000      -0.647937       -17.6313
  54   2.0000      -0.632251       -17.2044
  55   2.0000      -0.595919       -16.2158
  56   2.0000      -0.588423       -16.0118
  57   2.0000      -0.571786       -15.5591
  58   2.0000      -0.563814       -15.3422
  59   2.0000      -0.559576       -15.2268
  60   2.0000      -0.504003       -13.7146
  61   2.0000      -0.497437       -13.5359
  62   2.0000      -0.477997       -13.0070
  63   2.0000      -0.472209       -12.8495
  64   2.0000      -0.450273       -12.2525
  65   2.0000      -0.444537       -12.0965
  66   2.0000      -0.439455       -11.9582
  67   2.0000      -0.434724       -11.8294
  68   2.0000      -0.426793       -11.6136
  69   2.0000      -0.414766       -11.2864
  70   2.0000      -0.406276       -11.0553
  71   2.0000      -0.393014       -10.6945
  72   2.0000      -0.390825       -10.6349
  73   2.0000      -0.384956       -10.4752
  74   2.0000      -0.378632       -10.3031
  75   2.0000      -0.371529       -10.1098
  76   2.0000      -0.362983        -9.8773
  77   2.0000      -0.355767        -9.6809
  78   2.0000      -0.354600        -9.6491
  79   2.0000      -0.350550        -9.5390
  80   2.0000      -0.345111        -9.3909
  81   2.0000      -0.342949        -9.3321
  82   2.0000      -0.340075        -9.2539
  83   2.0000      -0.332725        -9.0539
  84   2.0000      -0.330415        -8.9910
  85   2.0000      -0.315858        -8.5949
  86   2.0000      -0.312556        -8.5051
  87   2.0000      -0.297854        -8.1050
  88   2.0000      -0.291670        -7.9367
  89   2.0000      -0.288712        -7.8562
  90   2.0000      -0.280869        -7.6428
  91   2.0000      -0.272079        -7.4036
  92   2.0000      -0.267347        -7.2749
  93   2.0000      -0.261884        -7.1262
  94   2.0000      -0.258263        -7.0277
  95   2.0000      -0.240936        -6.5562
  96   2.0000      -0.223294        -6.0761
  97   2.0000      -0.204113        -5.5542
  98   2.0000      -0.199869        -5.4387
  99   2.0000      -0.191608        -5.2139
 100   2.0000      -0.182273        -4.9599
 101   0.0000      -0.037250        -1.0136
 102   0.0000      -0.029635        -0.8064
 103   0.0000      -0.010130        -0.2757
 104   0.0000       0.005475         0.1490
 105   0.0000       0.021936         0.5969

MULLIKEN ATOMIC CHARGES
-----------------------
   0 C :   -0.310481
   1 C :   -0.009560
   2 O :   -0.364041
   3 P :    0.629928
   4 S :   -0.336022
   5 O :   -0.377983
   6 C :   -0.011492
   7 C :   -0.283635
   8 S :   -0.095483
   9 C :   -0.347460
  10 S :   -0.099751
  11 P :    0.606539
  12 S :   -0.308601
  13 O :   -0.380531
  14 C :   -0.013069
  15 C :   -0.308643
  16 O :   -0.356703
  17 C :   -0.011922
  18 C :   -0.289034
  19 H :    0.111060
  20 H :    0.121405
  21 H :    0.114990
  22 H :    0.104847
  23 H :    0.130773
  24 H :    0.105089
  25 H :    0.102760
  26 H :    0.111662
  27 H :    0.117640
  28 H :    0.120375
  29 H :    0.182102
  30 H :    0.196039
  31 H :    0.128684
  32 H :    0.105150
  33 H :    0.111728
  34 H :    0.107658
  35 H :    0.141394
  36 H :    0.106837
  37 H :    0.098607
  38 H :    0.121686
  39 H :    0.119684
  40 H :    0.107775
Sum of atomic charges:    0.0000000

LOEWDIN ATOMIC CHARGES
----------------------
   0 C :   -0.367554
   1 C :   -0.117639
   2 O :   -0.234477
   3 P :    0.571290
   4 S :   -0.317880
   5 O :   -0.246728
   6 C :   -0.121125
   7 C :   -0.350826
   8 S :    0.079589
   9 C :   -0.479134
  10 S :    0.069168
  11 P :    0.570700
  12 S :   -0.299229
  13 O :   -0.239763
  14 C :   -0.115188
  15 C :   -0.365041
  16 O :   -0.240298
  17 C :   -0.116970
  18 C :   -0.359733
  19 H :    0.130257
  20 H :    0.120030
  21 H :    0.124897
  22 H :    0.119929
  23 H :    0.110860
  24 H :    0.106780
  25 H :    0.110821
  26 H :    0.130718
  27 H :    0.127279
  28 H :    0.128163
  29 H :    0.136362
  30 H :    0.124694
  31 H :    0.110989
  32 H :    0.118520
  33 H :    0.132071
  34 H :    0.121789
  35 H :    0.122914
  36 H :    0.119775
  37 H :    0.101172
  38 H :    0.125628
  39 H :    0.128779
  40 H :    0.128410

  Mayer bond orders larger than 0.100000
B(  0-C ,  1-C ) :   1.1634 B(  0-C , 19-H ) :   0.9383 B(  0-C , 20-H ) :   0.9330
B(  0-C , 21-H ) :   0.9446 B(  1-C ,  2-O ) :   0.8966 B(  1-C , 22-H ) :   0.9359
B(  1-C , 23-H ) :   0.9100 B(  2-O ,  3-P ) :   1.1410 B(  3-P ,  4-S ) :   1.6174
B(  3-P ,  5-O ) :   1.0998 B(  3-P ,  8-S ) :   0.9675 B(  4-S ,  8-S ) :   0.1163
B(  5-O ,  6-C ) :   0.9052 B(  6-C ,  7-C ) :   1.1603 B(  6-C , 24-H ) :   0.9053
B(  6-C , 25-H ) :   0.9305 B(  7-C , 26-H ) :   0.9418 B(  7-C , 27-H ) :   0.9503
B(  7-C , 28-H ) :   0.9514 B(  8-S ,  9-C ) :   1.0037 B(  9-C , 10-S ) :   0.9860
B(  9-C , 29-H ) :   0.9118 B(  9-C , 30-H ) :   0.8535 B( 10-S , 11-P ) :   0.9513
B( 10-S , 12-S ) :   0.1139 B( 11-P , 12-S ) :   1.6348 B( 11-P , 13-O ) :   1.1045
B( 11-P , 16-O ) :   1.1297 B( 12-S , 30-H ) :   0.1023 B( 13-O , 14-C ) :   0.8896
B( 14-C , 15-C ) :   1.1729 B( 14-C , 31-H ) :   0.9034 B( 14-C , 32-H ) :   0.9341
B( 15-C , 33-H ) :   0.9399 B( 15-C , 34-H ) :   0.9477 B( 15-C , 35-H ) :   0.9303
B( 16-O , 17-C ) :   0.8997 B( 17-C , 18-C ) :   1.1632 B( 17-C , 36-H ) :   0.9368
B( 17-C , 37-H ) :   0.9098 B( 18-C , 38-H ) :   0.9419 B( 18-C , 39-H ) :   0.9471
B( 18-C , 40-H ) :   0.9399

Dispersion correction           -0.065358268
FINAL SINGLE POINT ENERGY     -2929.517902470850

DIPOLE MOMENT
-------------

Method             : SCF
Type of density    : Electron Density
Multiplicity       :   1
Irrep              :   0
Energy             : -2929.6369290753923451 Eh
Relativity type    :
Basis              : AO
                                X                 Y                 Z
Electronic contribution:     -1.720164999      -9.977777649      -6.976708222
Nuclear contribution   :      1.492695619       9.814753845       7.740861570
                        -----------------------------------------
Total Dipole Moment    :     -0.227469379      -0.163023804       0.764153348
                        -----------------------------------------
Magnitude (a.u.)       :      0.813787084
Magnitude (Debye)      :      2.068482384

Rotational constants in cm-1:             0.013795             0.004624             0.004578
Rotational constants in MHz :           413.558085           138.630773           137.230886

                             ****ORCA TERMINATED NORMALLY****
TOTAL RUN TIME: 0 days 0 hours 0 minutes 20 seconds 859 msec
