                         Program Version 6.0.0  -   RELEASE  -
|  1> ! pbe def2-sv(p) def2/J RI DEFGRID1 loosescf d4 GCP(DFT/SV(P)) printgap
|  2> %output
|  3>     printlevel normal
|  4> end
|  5> * xyz 0 1
|  6> C 3.2834056014 2.4880377076 -1.4464067747
|  7> C 4.0256721037 1.167671833 -1.4857219631
|  8> O 3.8481998413 0.3903009662 -0.289277545
|  9> P 2.4567020008 0.0731388035 0.4072336875
| 10> S 1.7966686228 1.4693526833 1.6206608775
| 11> O 2.8213992444 -1.2886287514 1.1259875019
| 12> C 2.7736463687 -1.4931243287 2.5545430381
| 13> C 1.5765438863 -2.3369973075 2.9451412102
| 14> S 1.2573110952 -0.5576519387 -1.2418918596
| 15> C 0.1150821361 -1.6498234861 -0.3536233452
| 16> S -1.0255716337 -0.7751944602 0.7441384346
| 17> P -2.283111322 0.0168226787 -0.7851917909
| 18> S -2.4286240824 -1.0622100066 -2.4107993596
| 19> O -1.738504819 1.4573601938 -1.1194705032
| 20> C -1.2704919211 2.4709579837 -0.1988432051
| 21> C -2.2576259708 2.7814432375 0.9037150015
| 22> O -3.6635311346 0.3081351967 -0.0540866371
| 23> C -4.7076078332 -0.6764741835 0.0412826861
| 24> C -4.3175085529 -1.849078607 0.9179481617
| 25> H 3.5278850357 3.0664004113 -2.3316261119
| 26> H 2.2078915375 2.3109321676 -1.4266164284
| 27> H 3.5593067312 3.0523873757 -0.5585398231
| 28> H 5.1054850443 1.3180193379 -1.5379294596
| 29> H 3.6944995083 0.5640838794 -2.3359593496
| 30> H 3.7118032174 -1.9953776041 2.7952952402
| 31> H 2.7383294372 -0.5189068047 3.0523612631
| 32> H 1.5938519516 -3.2886469371 2.4205157357
| 33> H 1.6139838798 -2.5227226445 4.0137096004
| 34> H 0.6502622228 -1.812593083 2.7132042583
| 35> H 0.6801004873 -2.3534772597 0.251329278
| 36> H -0.4592377882 -2.1600614567 -1.1292262581
| 37> H -0.3173795362 2.1431015408 0.2265804224
| 38> H -1.1026476551 3.3333705881 -0.845754786
| 39> H -2.3760322056 1.919279886 1.5569518661
| 40> H -1.8732715008 3.6113586771 1.488891902
| 41> H -3.2248516933 3.0466976553 0.484932445
| 42> H -5.5481589027 -0.1218706812 0.4606613914
| 43> H -4.9534787221 -1.0175278749 -0.9692758697
| 44> H -3.5291805455 -2.4269462075 0.4380718128
| 45> H -3.9610048478 -1.4993286527 1.883546169
| 46> H -5.1818532354 -2.4890576591 1.0632083404
| 47> *
| 48>
| 49>                          ****END OF INPUT****

CARTESIAN COORDINATES (ANGSTROEM)
---------------------------------
  C      3.283406    2.488038   -1.446407
  C      4.025672    1.167672   -1.485722
  O      3.848200    0.390301   -0.289278
  P      2.456702    0.073139    0.407234
  S      1.796669    1.469353    1.620661
  O      2.821399   -1.288629    1.125988
  C      2.773646   -1.493124    2.554543
  C      1.576544   -2.336997    2.945141
  S      1.257311   -0.557652   -1.241892
  C      0.115082   -1.649823   -0.353623
  S     -1.025572   -0.775194    0.744138
  P     -2.283111    0.016823   -0.785192
  S     -2.428624   -1.062210   -2.410799
  O     -1.738505    1.457360   -1.119471
  C     -1.270492    2.470958   -0.198843
  C     -2.257626    2.781443    0.903715
  O     -3.663531    0.308135   -0.054087
  C     -4.707608   -0.676474    0.041283
  C     -4.317509   -1.849079    0.917948
  H      3.527885    3.066400   -2.331626
  H      2.207892    2.310932   -1.426616
  H      3.559307    3.052387   -0.558540
  H      5.105485    1.318019   -1.537929
  H      3.694500    0.564084   -2.335959
  H      3.711803   -1.995378    2.795295
  H      2.738329   -0.518907    3.052361
  H      1.593852   -3.288647    2.420516
  H      1.613984   -2.522723    4.013710
  H      0.650262   -1.812593    2.713204
  H      0.680100   -2.353477    0.251329
  H     -0.459238   -2.160061   -1.129226
  H     -0.317380    2.143102    0.226580
  H     -1.102648    3.333371   -0.845755
  H     -2.376032    1.919280    1.556952
  H     -1.873272    3.611359    1.488892
  H     -3.224852    3.046698    0.484932
  H     -5.548159   -0.121871    0.460661
  H     -4.953479   -1.017528   -0.969276
  H     -3.529181   -2.426946    0.438072
  H     -3.961005   -1.499329    1.883546
  H     -5.181853   -2.489058    1.063208

 Total Charge           Charge          ....    0
 Multiplicity           Mult            ....    1
 Number of Electrons    NEL             ....  202
 Basis Dimension        Dim             ....  334

ORBITAL ENERGIES
----------------

  NO   OCC          E(Eh)            E(eV)
   0   2.0000     -88.044630     -2395.8162
   1   2.0000     -88.044340     -2395.8083
   2   2.0000     -87.988929     -2394.3005
   3   2.0000     -87.983832     -2394.1618
   4   2.0000     -76.430572     -2079.7816
   5   2.0000     -76.425595     -2079.6462
   6   2.0000     -18.796928      -511.4904
   7   2.0000     -18.793444      -511.3956
   8   2.0000     -18.790465      -511.3145
   9   2.0000     -18.785477      -511.1788
  10   2.0000      -9.959258      -271.0052
  11   2.0000      -9.958693      -270.9898
  12   2.0000      -9.955675      -270.9077
  13   2.0000      -9.952876      -270.8315
  14   2.0000      -9.942785      -270.5569
  15   2.0000      -9.892116      -269.1782
  16   2.0000      -9.886492      -269.0251
  17   2.0000      -9.884578      -268.9730
  18   2.0000      -9.879927      -268.8465
  19   2.0000      -7.689274      -209.2358
  20   2.0000      -7.688995      -209.2282
  21   2.0000      -7.633625      -207.7215
  22   2.0000      -7.629131      -207.5992
  23   2.0000      -6.427830      -174.9102
  24   2.0000      -6.422935      -174.7769
  25   2.0000      -5.717238      -155.5739
  26   2.0000      -5.716718      -155.5598
  27   2.0000      -5.713841      -155.4815
  28   2.0000      -5.713621      -155.4755
  29   2.0000      -5.706154      -155.2723
  30   2.0000      -5.706097      -155.2708
  31   2.0000      -5.662406      -154.0819
  32   2.0000      -5.658073      -153.9640
  33   2.0000      -5.654317      -153.8618
  34   2.0000      -5.653871      -153.8496
  35   2.0000      -5.649732      -153.7370
  36   2.0000      -5.649230      -153.7234
  37   2.0000      -4.650481      -126.5460
  38   2.0000      -4.649910      -126.5305
  39   2.0000      -4.647961      -126.4775
  40   2.0000      -4.645656      -126.4147
  41   2.0000      -4.644723      -126.3893
  42   2.0000      -4.643288      -126.3503
  43   2.0000      -0.989413       -26.9233
  44   2.0000      -0.984255       -26.7829
  45   2.0000      -0.948478       -25.8094
  46   2.0000      -0.942071       -25.6351
  47   2.0000      -0.765323       -20.8255
  48   2.0000      -0.723134       -19.6775
  49   2.0000      -0.710426       -19.3317
  50   2.0000      -0.690498       -18.7894
  51   2.0000      -0.687639       -18.7116
  52   2.0000      -0.676797       -18.4166
  53   2.0000      -0.654765       -17.8171
  54   2.0000      -0.638883       -17.3849
  55   2.0000      -0.600397       -16.3376
  56   2.0000      -0.595276       -16.1983
  57   2.0000      -0.577978       -15.7276
  58   2.0000      -0.572217       -15.5708
  59   2.0000      -0.565683       -15.3930
  60   2.0000      -0.503669       -13.7055
  61   2.0000      -0.490208       -13.3392
  62   2.0000      -0.473404       -12.8820
  63   2.0000      -0.468739       -12.7550
  64   2.0000      -0.461043       -12.5456
  65   2.0000      -0.442590       -12.0435
  66   2.0000      -0.441884       -12.0243
  67   2.0000      -0.439116       -11.9490
  68   2.0000      -0.431560       -11.7433
  69   2.0000      -0.422892       -11.5075
  70   2.0000      -0.415411       -11.3039
  71   2.0000      -0.399575       -10.8730
  72   2.0000      -0.391340       -10.6489
  73   2.0000      -0.386384       -10.5140
  74   2.0000      -0.382927       -10.4200
  75   2.0000      -0.379049       -10.3144
  76   2.0000      -0.369676       -10.0594
  77   2.0000      -0.362597        -9.8668
  78   2.0000      -0.356543        -9.7020
  79   2.0000      -0.349560        -9.5120
  80   2.0000      -0.346955        -9.4411
  81   2.0000      -0.345677        -9.4064
  82   2.0000      -0.344199        -9.3661
  83   2.0000      -0.340889        -9.2761
  84   2.0000      -0.336028        -9.1438
  85   2.0000      -0.320841        -8.7305
  86   2.0000      -0.309086        -8.4107
  87   2.0000      -0.300812        -8.1855
  88   2.0000      -0.292394        -7.9565
  89   2.0000      -0.290246        -7.8980
  90   2.0000      -0.287953        -7.8356
  91   2.0000      -0.281357        -7.6561
  92   2.0000      -0.268955        -7.3186
  93   2.0000      -0.261728        -7.1220
  94   2.0000      -0.257228        -6.9995
  95   2.0000      -0.244640        -6.6570
  96   2.0000      -0.217373        -5.9150
  97   2.0000      -0.207736        -5.6528
  98   2.0000      -0.203837        -5.5467
  99   2.0000      -0.201461        -5.4820
 100   2.0000      -0.194785        -5.3004
 101   0.0000      -0.049245        -1.3400
 102   0.0000      -0.029355        -0.7988
 103   0.0000      -0.020767        -0.5651
 104   0.0000      -0.004087        -0.1112
 105   0.0000       0.016242         0.4420

MULLIKEN ATOMIC CHARGES
-----------------------
   0 C :   -0.324006
   1 C :   -0.010984
   2 O :   -0.364441
   3 P :    0.601997
   4 S :   -0.321212
   5 O :   -0.367168
   6 C :   -0.007011
   7 C :   -0.321517
   8 S :   -0.090173
   9 C :   -0.369918
  10 S :   -0.106625
  11 P :    0.620341
  12 S :   -0.323183
  13 O :   -0.354609
  14 C :   -0.037619
  15 C :   -0.300779
  16 O :   -0.375453
  17 C :   -0.001448
  18 C :   -0.314048
  19 H :    0.115100
  20 H :    0.133373
  21 H :    0.129097
  22 H :    0.112476
  23 H :    0.117747
  24 H :    0.108569
  25 H :    0.117238
  26 H :    0.123797
  27 H :    0.116873
  28 H :    0.132974
  29 H :    0.195473
  30 H :    0.196555
  31 H :    0.146501
  32 H :    0.104339
  33 H :    0.114192
  34 H :    0.113946
  35 H :    0.116950
  36 H :    0.105436
  37 H :    0.114578
  38 H :    0.123569
  39 H :    0.116032
  40 H :    0.113043
Sum of atomic charges:   -0.0000000

LOEWDIN ATOMIC CHARGES
----------------------
   0 C :   -0.371598
   1 C :   -0.115441
   2 O :   -0.243112
   3 P :    0.571025
   4 S :   -0.304302
   5 O :   -0.239571
   6 C :   -0.118842
   7 C :   -0.363200
   8 S :    0.081619
   9 C :   -0.482840
  10 S :    0.081316
  11 P :    0.576652
  12 S :   -0.314414
  13 O :   -0.231626
  14 C :   -0.123920
  15 C :   -0.363357
  16 O :   -0.240883
  17 C :   -0.117323
  18 C :   -0.370530
  19 H :    0.131806
  20 H :    0.121474
  21 H :    0.130147
  22 H :    0.123359
  23 H :    0.110751
  24 H :    0.119873
  25 H :    0.108821
  26 H :    0.124783
  27 H :    0.134552
  28 H :    0.118872
  29 H :    0.132021
  30 H :    0.129895
  31 H :    0.102645
  32 H :    0.120288
  33 H :    0.117595
  34 H :    0.132376
  35 H :    0.125189
  36 H :    0.118997
  37 H :    0.113028
  38 H :    0.119839
  39 H :    0.123002
  40 H :    0.131039

  Mayer bond orders larger than 0.100000
B(  0-C ,  1-C ) :   1.1639 B(  0-C , 19-H ) :   0.9343 B(  0-C , 20-H ) :   0.9346
B(  0-C , 21-H ) :   0.9402 B(  1-C ,  2-O ) :   0.9184 B(  1-C , 22-H ) :   0.9339
B(  1-C , 23-H ) :   0.9242 B(  2-O ,  3-P ) :   1.1225 B(  3-P ,  4-S ) :   1.6140
B(  3-P ,  5-O ) :   1.1180 B(  3-P ,  8-S ) :   0.9483 B(  4-S ,  8-S ) :   0.1081
B(  5-O ,  6-C ) :   0.9022 B(  6-C ,  7-C ) :   1.1693 B(  6-C , 24-H ) :   0.9314
B(  6-C , 25-H ) :   0.8996 B(  7-C , 26-H ) :   0.9390 B(  7-C , 27-H ) :   0.9362
B(  7-C , 28-H ) :   0.9321 B(  8-S ,  9-C ) :   1.0070 B(  9-C , 10-S ) :   1.0166
B(  9-C , 29-H ) :   0.8860 B(  9-C , 30-H ) :   0.8648 B( 10-S , 11-P ) :   0.9294
B( 10-S , 12-S ) :   0.1055 B( 11-P , 12-S ) :   1.6101 B( 11-P , 13-O ) :   1.1661
B( 11-P , 16-O ) :   1.0935 B( 13-O , 14-C ) :   0.8890 B( 14-C , 15-C ) :   1.1737
B( 14-C , 31-H ) :   0.8878 B( 14-C , 32-H ) :   0.9336 B( 15-C , 33-H ) :   0.9392
B( 15-C , 34-H ) :   0.9356 B( 15-C , 35-H ) :   0.9446 B( 16-O , 17-C ) :   0.9064
B( 17-C , 18-C ) :   1.1657 B( 17-C , 36-H ) :   0.9339 B( 17-C , 37-H ) :   0.9163
B( 18-C , 38-H ) :   0.9350 B( 18-C , 39-H ) :   0.9446 B( 18-C , 40-H ) :   0.9374

Dispersion correction           -0.066612424
FINAL SINGLE POINT ENERGY     -2929.515699843144

DIPOLE MOMENT
-------------

Method             : SCF
Type of density    : Electron Density
Multiplicity       :   1
Irrep              :   0
Energy             : -2929.6346480140355197 Eh
Relativity type    :
Basis              : AO
                                X                 Y                 Z
Electronic contribution:      3.621902435      -2.161197904     -10.471385241
Nuclear contribution   :     -3.355526144       1.984879005      11.360055285
                        -----------------------------------------
Total Dipole Moment    :      0.266376291      -0.176318899       0.888670044
                        -----------------------------------------
Magnitude (a.u.)       :      0.944340579
Magnitude (Debye)      :      2.400322994

Rotational constants in cm-1:             0.011821             0.005219             0.004804
Rotational constants in MHz :           354.384735           156.462727           144.010807

                             ****ORCA TERMINATED NORMALLY****
TOTAL RUN TIME: 0 days 0 hours 0 minutes 21 seconds 507 msec
