                         Program Version 6.0.0  -   RELEASE  -
|  1> ! pbe def2-sv(p) def2/J RI DEFGRID1 loosescf d4 GCP(DFT/SV(P)) printgap
|  2> %output
|  3>     printlevel normal
|  4> end
|  5> * xyz 0 1
|  6> C 2.9851015294 -1.8376990933 -0.2774930565
|  7> C 1.6792875323 -1.1639112712 -0.0846677508
|  8> C 1.5065318103 0.180288874 -0.0371358862
|  9> C 0.208415662 0.789988275 0.1553867881
| 10> O 0.0756220554 1.9787208803 0.411623267
| 11> N -0.8773206857 -0.0818625262 0.02317856
| 12> C -0.7114454168 -1.4335132591 0.2559971447
| 13> O -1.5946080554 -2.2012438395 0.5913732834
| 14> N 0.5629937199 -1.9215240623 0.0889939276
| 15> C -2.2537240995 0.4864157024 -0.1456582099
| 16> C -2.1948031106 1.6921763736 -1.0917565931
| 17> C -3.1848758392 -0.5327223504 -0.8108187465
| 18> C -2.7856485201 0.8878671534 1.2289188947
| 19> Cl 2.8447801986 1.2727810429 -0.136880415
| 20> H 3.7099900106 -1.4411811208 0.4292664393
| 21> H 3.3616810973 -1.6180584204 -1.2744133879
| 22> H 2.8955977063 -2.9110842349 -0.153065074
| 23> H 0.6520962373 -2.9267892554 0.2017897185
| 24> H -3.2084666371 2.0115445024 -1.3117629978
| 25> H -1.662238479 2.5296198133 -0.654368316
| 26> H -1.7055170803 1.4157989378 -2.023203717
| 27> H -4.1070454964 -0.02775176 -1.0811973807
| 28> H -3.426311618 -1.3579143349 -0.1506307049
| 29> H -2.7295774472 -0.9308209423 -1.7146006495
| 30> H -3.7819262644 1.3070637599 1.1302560734
| 31> H -2.8314886737 0.0158318124 1.8775663564
| 32> H -2.1328178319 1.632639744 1.6783476179
| 33> *
| 34>
| 35>                          ****END OF INPUT****

CARTESIAN COORDINATES (ANGSTROEM)
---------------------------------
  C      2.985102   -1.837699   -0.277493
  C      1.679288   -1.163911   -0.084668
  C      1.506532    0.180289   -0.037136
  C      0.208416    0.789988    0.155387
  O      0.075622    1.978721    0.411623
  N     -0.877321   -0.081863    0.023179
  C     -0.711445   -1.433513    0.255997
  O     -1.594608   -2.201244    0.591373
  N      0.562994   -1.921524    0.088994
  C     -2.253724    0.486416   -0.145658
  C     -2.194803    1.692176   -1.091757
  C     -3.184876   -0.532722   -0.810819
  C     -2.785649    0.887867    1.228919
  Cl     2.844780    1.272781   -0.136880
  H      3.709990   -1.441181    0.429266
  H      3.361681   -1.618058   -1.274413
  H      2.895598   -2.911084   -0.153065
  H      0.652096   -2.926789    0.201790
  H     -3.208467    2.011545   -1.311763
  H     -1.662238    2.529620   -0.654368
  H     -1.705517    1.415799   -2.023204
  H     -4.107045   -0.027752   -1.081197
  H     -3.426312   -1.357914   -0.150631
  H     -2.729577   -0.930821   -1.714601
  H     -3.781926    1.307064    1.130256
  H     -2.831489    0.015832    1.877566
  H     -2.132818    1.632640    1.678348

 Total Charge           Charge          ....    0
 Multiplicity           Mult            ....    1
 Number of Electrons    NEL             ....  114
 Basis Dimension        Dim             ....  226

ORBITAL ENERGIES
----------------

  NO   OCC          E(Eh)            E(eV)
   0   2.0000    -100.645924     -2738.7148
   1   2.0000     -18.733401      -509.7618
   2   2.0000     -18.729483      -509.6551
   3   2.0000     -14.063516      -382.6877
   4   2.0000     -14.053192      -382.4068
   5   2.0000     -10.032963      -273.0108
   6   2.0000     -10.001737      -272.1611
   7   2.0000      -9.977408      -271.4991
   8   2.0000      -9.950791      -270.7748
   9   2.0000      -9.950496      -270.7668
  10   2.0000      -9.922176      -269.9961
  11   2.0000      -9.872443      -268.6428
  12   2.0000      -9.871868      -268.6272
  13   2.0000      -9.870171      -268.5810
  14   2.0000      -9.181140      -249.8315
  15   2.0000      -7.012857      -190.8295
  16   2.0000      -7.001006      -190.5071
  17   2.0000      -7.000401      -190.4906
  18   2.0000      -0.985561       -26.8185
  19   2.0000      -0.944909       -25.7123
  20   2.0000      -0.895779       -24.3754
  21   2.0000      -0.857921       -23.3452
  22   2.0000      -0.801625       -21.8133
  23   2.0000      -0.735939       -20.0259
  24   2.0000      -0.719071       -19.5669
  25   2.0000      -0.664311       -18.0768
  26   2.0000      -0.620699       -16.8901
  27   2.0000      -0.618065       -16.8184
  28   2.0000      -0.600870       -16.3505
  29   2.0000      -0.589510       -16.0414
  30   2.0000      -0.538434       -14.6515
  31   2.0000      -0.523846       -14.2546
  32   2.0000      -0.490376       -13.3438
  33   2.0000      -0.450933       -12.2705
  34   2.0000      -0.430506       -11.7147
  35   2.0000      -0.414346       -11.2749
  36   2.0000      -0.410318       -11.1653
  37   2.0000      -0.400181       -10.8895
  38   2.0000      -0.394387       -10.7318
  39   2.0000      -0.389109       -10.5882
  40   2.0000      -0.384429       -10.4608
  41   2.0000      -0.377260       -10.2658
  42   2.0000      -0.375787       -10.2257
  43   2.0000      -0.357584        -9.7304
  44   2.0000      -0.347889        -9.4666
  45   2.0000      -0.340701        -9.2710
  46   2.0000      -0.335078        -9.1179
  47   2.0000      -0.318408        -8.6643
  48   2.0000      -0.315056        -8.5731
  49   2.0000      -0.297233        -8.0881
  50   2.0000      -0.291304        -7.9268
  51   2.0000      -0.289826        -7.8866
  52   2.0000      -0.272505        -7.4152
  53   2.0000      -0.242442        -6.5972
  54   2.0000      -0.229669        -6.2496
  55   2.0000      -0.211197        -5.7470
  56   2.0000      -0.202193        -5.5019
  57   0.0000      -0.073884        -2.0105
  58   0.0000      -0.022258        -0.6057
  59   0.0000       0.001885         0.0513
  60   0.0000       0.021922         0.5965
  61   0.0000       0.044364         1.2072

MULLIKEN ATOMIC CHARGES
-----------------------
   0 C :   -0.198123
   1 C :    0.001067
   2 C :   -0.120620
   3 C :    0.184643
   4 O :   -0.175694
   5 N :   -0.231267
   6 C :    0.175740
   7 O :   -0.203815
   8 N :   -0.200218
   9 C :   -0.177201
  10 C :   -0.222915
  11 C :   -0.212103
  12 C :   -0.199656
  13 Cl:   -0.044165
  14 H :    0.139879
  15 H :    0.143435
  16 H :    0.101143
  17 H :    0.247009
  18 H :    0.097872
  19 H :    0.143707
  20 H :    0.094347
  21 H :    0.096866
  22 H :    0.137482
  23 H :    0.093191
  24 H :    0.095466
  25 H :    0.112018
  26 H :    0.121913
Sum of atomic charges:   -0.0000000

LOEWDIN ATOMIC CHARGES
----------------------
   0 C :   -0.329205
   1 C :   -0.018083
   2 C :   -0.223356
   3 C :    0.023113
   4 O :   -0.165935
   5 N :   -0.005668
   6 C :    0.043226
   7 O :   -0.188215
   8 N :   -0.088122
   9 C :   -0.019456
  10 C :   -0.332866
  11 C :   -0.330730
  12 C :   -0.324891
  13 Cl:    0.158055
  14 H :    0.147678
  15 H :    0.151144
  16 H :    0.129219
  17 H :    0.253079
  18 H :    0.122224
  19 H :    0.133255
  20 H :    0.119400
  21 H :    0.121463
  22 H :    0.130832
  23 H :    0.118699
  24 H :    0.122742
  25 H :    0.124425
  26 H :    0.127971

  Mayer bond orders larger than 0.100000
B(  0-C ,  1-C ) :   1.1571 B(  0-C , 14-H ) :   0.9167 B(  0-C , 15-H ) :   0.9192
B(  0-C , 16-H ) :   0.9218 B(  1-C ,  2-C ) :   1.5985 B(  1-C ,  8-N ) :   1.1964
B(  2-C ,  3-C ) :   1.0318 B(  2-C , 13-Cl) :   1.1024 B(  3-C ,  4-O ) :   2.0855
B(  3-C ,  5-N ) :   1.0252 B(  5-N ,  6-C ) :   1.0823 B(  5-N ,  9-C ) :   0.8753
B(  6-C ,  7-O ) :   2.0313 B(  6-C ,  8-N ) :   1.0900 B(  8-N , 17-H ) :   0.8293
B(  9-C , 10-C ) :   1.0969 B(  9-C , 11-C ) :   1.1015 B(  9-C , 12-C ) :   1.0802
B( 10-C , 18-H ) :   0.9389 B( 10-C , 19-H ) :   0.9165 B( 10-C , 20-H ) :   0.9392
B( 11-C , 21-H ) :   0.9363 B( 11-C , 22-H ) :   0.9208 B( 11-C , 23-H ) :   0.9381
B( 12-C , 24-H ) :   0.9461 B( 12-C , 25-H ) :   0.9389 B( 12-C , 26-H ) :   0.9335

Dispersion correction           -0.034537227
FINAL SINGLE POINT ENERGY     -1069.340092119717

DIPOLE MOMENT
-------------

Method             : SCF
Type of density    : Electron Density
Multiplicity       :   1
Irrep              :   0
Energy             : -1069.4280672719758059 Eh
Relativity type    :
Basis              : AO
                                X                 Y                 Z
Electronic contribution:     18.592747576       2.634658780       2.189087021
Nuclear contribution   :    -17.883202561      -3.881460950      -2.658493376
                        -----------------------------------------
Total Dipole Moment    :      0.709545015      -1.246802171      -0.469406356
                        -----------------------------------------
Magnitude (a.u.)       :      1.509407867
Magnitude (Debye)      :      3.836609897

Rotational constants in cm-1:             0.033580             0.016267             0.012068
Rotational constants in MHz :          1006.709628           487.677437           361.794634

                             ****ORCA TERMINATED NORMALLY****
TOTAL RUN TIME: 0 days 0 hours 0 minutes 17 seconds 27 msec
