                         Program Version 6.0.0  -   RELEASE  -
|  1> ! pbe def2-sv(p) def2/J RI DEFGRID1 loosescf d4 GCP(DFT/SV(P)) printgap
|  2> %output
|  3>     printlevel normal
|  4> end
|  5> * xyz 0 1
|  6> C 4.9713968172 -1.6855525757 -0.4547428846
|  7> C 3.6556051486 -1.8482262779 0.27831293
|  8> O 2.5392636407 -1.5261649754 -0.5908086501
|  9> P 1.8488362301 -0.1113581066 -0.6627576276
| 10> S 0.5855556476 -0.0350355557 -2.1559736653
| 11> O 3.067967042 0.8992965336 -0.812107251
| 12> C 2.9003456899 2.2558402362 -1.2573504688
| 13> C 2.1788792267 3.1072590487 -0.2328086486
| 14> S 1.2508701027 0.263173276 1.3548616684
| 15> C 0.317269885 -1.2589098674 1.7124861576
| 16> S -0.8420199258 -1.7701058645 0.4137482234
| 17> P -2.1642006757 -0.1031381801 0.376580527
| 18> S -1.5523582416 1.7435355155 0.1071315073
| 19> O -2.9587774161 -0.3118526425 1.7284975497
| 20> C -3.2189118908 0.7364907042 2.6837759376
| 21> C -2.1220773575 0.8095744175 3.7279702727
| 22> O -3.2589326569 -0.6361298714 -0.6396393936
| 23> C -3.05215828 -0.8984195093 -2.0396908655
| 24> C -3.1475453859 0.3665456046 -2.869461968
| 25> H 5.7797447921 -2.0142430852 0.1910744547
| 26> H 4.9691688951 -2.2847850291 -1.3611662149
| 27> H 5.1273076949 -0.6444307347 -0.7238790864
| 28> H 3.6179695408 -1.2062278642 1.1626172818
| 29> H 3.4868304928 -2.8895880154 0.5592526245
| 30> H 3.9210337774 2.6039078251 -1.4227319272
| 31> H 2.3521463287 2.2448585588 -2.2049166826
| 32> H 2.1945526887 4.144257463 -0.5520916273
| 33> H 1.1395423136 2.7908338559 -0.1407526751
| 34> H 2.6591366056 3.0206114789 0.738721304
| 35> H -0.2212793227 -1.0710649694 2.6390684994
| 36> H 1.0041706512 -2.0948611058 1.8265916814
| 37> H -3.3084255264 1.689200282 2.1539244684
| 38> H -4.1783552875 0.4646957916 3.1254084261
| 39> H -1.9976141657 -0.1550978009 4.2130786181
| 40> H -1.1837782475 1.1097781243 3.2626325349
| 41> H -2.3923041442 1.550033947 4.4739120995
| 42> H -2.0797166594 -1.3788520479 -2.1831262547
| 43> H -3.8483134654 -1.6014104211 -2.2924686291
| 44> H -4.074547562 0.8899124489 -2.6510301284
| 45> H -2.3083923282 1.0242882932 -2.651747287
| 46> H -3.1161406686 0.1039712502 -3.921827951
| 47> *
| 48>
| 49>                          ****END OF INPUT****

CARTESIAN COORDINATES (ANGSTROEM)
---------------------------------
  C      4.971397   -1.685553   -0.454743
  C      3.655605   -1.848226    0.278313
  O      2.539264   -1.526165   -0.590809
  P      1.848836   -0.111358   -0.662758
  S      0.585556   -0.035036   -2.155974
  O      3.067967    0.899297   -0.812107
  C      2.900346    2.255840   -1.257350
  C      2.178879    3.107259   -0.232809
  S      1.250870    0.263173    1.354862
  C      0.317270   -1.258910    1.712486
  S     -0.842020   -1.770106    0.413748
  P     -2.164201   -0.103138    0.376581
  S     -1.552358    1.743536    0.107132
  O     -2.958777   -0.311853    1.728498
  C     -3.218912    0.736491    2.683776
  C     -2.122077    0.809574    3.727970
  O     -3.258933   -0.636130   -0.639639
  C     -3.052158   -0.898420   -2.039691
  C     -3.147545    0.366546   -2.869462
  H      5.779745   -2.014243    0.191074
  H      4.969169   -2.284785   -1.361166
  H      5.127308   -0.644431   -0.723879
  H      3.617970   -1.206228    1.162617
  H      3.486830   -2.889588    0.559253
  H      3.921034    2.603908   -1.422732
  H      2.352146    2.244859   -2.204917
  H      2.194553    4.144257   -0.552092
  H      1.139542    2.790834   -0.140753
  H      2.659137    3.020611    0.738721
  H     -0.221279   -1.071065    2.639068
  H      1.004171   -2.094861    1.826592
  H     -3.308426    1.689200    2.153924
  H     -4.178355    0.464696    3.125408
  H     -1.997614   -0.155098    4.213079
  H     -1.183778    1.109778    3.262633
  H     -2.392304    1.550034    4.473912
  H     -2.079717   -1.378852   -2.183126
  H     -3.848313   -1.601410   -2.292469
  H     -4.074548    0.889912   -2.651030
  H     -2.308392    1.024288   -2.651747
  H     -3.116141    0.103971   -3.921828

 Total Charge           Charge          ....    0
 Multiplicity           Mult            ....    1
 Number of Electrons    NEL             ....  202
 Basis Dimension        Dim             ....  334

ORBITAL ENERGIES
----------------

  NO   OCC          E(Eh)            E(eV)
   0   2.0000     -88.038936     -2395.6613
   1   2.0000     -88.037257     -2395.6155
   2   2.0000     -87.979031     -2394.0311
   3   2.0000     -87.977461     -2393.9884
   4   2.0000     -76.424501     -2079.6164
   5   2.0000     -76.422110     -2079.5513
   6   2.0000     -18.794030      -511.4116
   7   2.0000     -18.793948      -511.4093
   8   2.0000     -18.787700      -511.2393
   9   2.0000     -18.785737      -511.1859
  10   2.0000      -9.962362      -271.0896
  11   2.0000      -9.957795      -270.9654
  12   2.0000      -9.949580      -270.7418
  13   2.0000      -9.948487      -270.7121
  14   2.0000      -9.944973      -270.6165
  15   2.0000      -9.887996      -269.0661
  16   2.0000      -9.886866      -269.0353
  17   2.0000      -9.880059      -268.8501
  18   2.0000      -9.870239      -268.5829
  19   2.0000      -7.683551      -209.0801
  20   2.0000      -7.682405      -209.0489
  21   2.0000      -7.623659      -207.4503
  22   2.0000      -7.622430      -207.4169
  23   2.0000      -6.421622      -174.7412
  24   2.0000      -6.419182      -174.6748
  25   2.0000      -5.711562      -155.4195
  26   2.0000      -5.710412      -155.3882
  27   2.0000      -5.708037      -155.3236
  28   2.0000      -5.707012      -155.2957
  29   2.0000      -5.700417      -155.1162
  30   2.0000      -5.699050      -155.0790
  31   2.0000      -5.652578      -153.8145
  32   2.0000      -5.651566      -153.7869
  33   2.0000      -5.644167      -153.5856
  34   2.0000      -5.643942      -153.5795
  35   2.0000      -5.642838      -153.5494
  36   2.0000      -5.642559      -153.5418
  37   2.0000      -4.644812      -126.3918
  38   2.0000      -4.643431      -126.3542
  39   2.0000      -4.641643      -126.3055
  40   2.0000      -4.641538      -126.3027
  41   2.0000      -4.641253      -126.2949
  42   2.0000      -4.639508      -126.2474
  43   2.0000      -0.987914       -26.8825
  44   2.0000      -0.981207       -26.7000
  45   2.0000      -0.946437       -25.7539
  46   2.0000      -0.939615       -25.5682
  47   2.0000      -0.760792       -20.7022
  48   2.0000      -0.717417       -19.5219
  49   2.0000      -0.709460       -19.3054
  50   2.0000      -0.688824       -18.7439
  51   2.0000      -0.679505       -18.4903
  52   2.0000      -0.667894       -18.1743
  53   2.0000      -0.650131       -17.6910
  54   2.0000      -0.635516       -17.2933
  55   2.0000      -0.592940       -16.1347
  56   2.0000      -0.587071       -15.9750
  57   2.0000      -0.577221       -15.7070
  58   2.0000      -0.565961       -15.4006
  59   2.0000      -0.563874       -15.3438
  60   2.0000      -0.502418       -13.6715
  61   2.0000      -0.494179       -13.4473
  62   2.0000      -0.474636       -12.9155
  63   2.0000      -0.468797       -12.7566
  64   2.0000      -0.455706       -12.4004
  65   2.0000      -0.446483       -12.1494
  66   2.0000      -0.434997       -11.8369
  67   2.0000      -0.428865       -11.6700
  68   2.0000      -0.423818       -11.5327
  69   2.0000      -0.418508       -11.3882
  70   2.0000      -0.404922       -11.0185
  71   2.0000      -0.399647       -10.8749
  72   2.0000      -0.392181       -10.6718
  73   2.0000      -0.385308       -10.4848
  74   2.0000      -0.376936       -10.2569
  75   2.0000      -0.373682       -10.1684
  76   2.0000      -0.362724        -9.8702
  77   2.0000      -0.360960        -9.8222
  78   2.0000      -0.353829        -9.6282
  79   2.0000      -0.350660        -9.5419
  80   2.0000      -0.347469        -9.4551
  81   2.0000      -0.342017        -9.3068
  82   2.0000      -0.337191        -9.1754
  83   2.0000      -0.331815        -9.0291
  84   2.0000      -0.326411        -8.8821
  85   2.0000      -0.317170        -8.6306
  86   2.0000      -0.310140        -8.4393
  87   2.0000      -0.298110        -8.1120
  88   2.0000      -0.292042        -7.9469
  89   2.0000      -0.289039        -7.8651
  90   2.0000      -0.280764        -7.6400
  91   2.0000      -0.272640        -7.4189
  92   2.0000      -0.267368        -7.2754
  93   2.0000      -0.259906        -7.0724
  94   2.0000      -0.254415        -6.9230
  95   2.0000      -0.247020        -6.7217
  96   2.0000      -0.220238        -5.9930
  97   2.0000      -0.207944        -5.6584
  98   2.0000      -0.186309        -5.0697
  99   2.0000      -0.182759        -4.9731
 100   2.0000      -0.178635        -4.8609
 101   0.0000      -0.051504        -1.4015
 102   0.0000      -0.029496        -0.8026
 103   0.0000      -0.009851        -0.2681
 104   0.0000      -0.002906        -0.0791
 105   0.0000       0.019706         0.5362

MULLIKEN ATOMIC CHARGES
-----------------------
   0 C :   -0.282630
   1 C :   -0.026750
   2 O :   -0.361385
   3 P :    0.612413
   4 S :   -0.298769
   5 O :   -0.382674
   6 C :    0.002272
   7 C :   -0.346039
   8 S :   -0.110524
   9 C :   -0.339952
  10 S :   -0.098767
  11 P :    0.619160
  12 S :   -0.306790
  13 O :   -0.370257
  14 C :   -0.001737
  15 C :   -0.313964
  16 O :   -0.366836
  17 C :   -0.019087
  18 C :   -0.301920
  19 H :    0.107657
  20 H :    0.120580
  21 H :    0.124572
  22 H :    0.102803
  23 H :    0.107281
  24 H :    0.101213
  25 H :    0.112325
  26 H :    0.113709
  27 H :    0.160940
  28 H :    0.114933
  29 H :    0.186901
  30 H :    0.185083
  31 H :    0.112621
  32 H :    0.104702
  33 H :    0.118994
  34 H :    0.123601
  35 H :    0.112441
  36 H :    0.123354
  37 H :    0.103161
  38 H :    0.110217
  39 H :    0.143149
  40 H :    0.104001
Sum of atomic charges:    0.0000000

LOEWDIN ATOMIC CHARGES
----------------------
   0 C :   -0.357606
   1 C :   -0.119521
   2 O :   -0.238605
   3 P :    0.568242
   4 S :   -0.300250
   5 O :   -0.248369
   6 C :   -0.118312
   7 C :   -0.375603
   8 S :    0.073218
   9 C :   -0.472478
  10 S :    0.085480
  11 P :    0.565445
  12 S :   -0.294510
  13 O :   -0.244365
  14 C :   -0.119192
  15 C :   -0.365126
  16 O :   -0.241454
  17 C :   -0.115477
  18 C :   -0.364808
  19 H :    0.128951
  20 H :    0.129225
  21 H :    0.127641
  22 H :    0.103629
  23 H :    0.117668
  24 H :    0.116448
  25 H :    0.112045
  26 H :    0.132439
  27 H :    0.124517
  28 H :    0.122105
  29 H :    0.131221
  30 H :    0.131772
  31 H :    0.108816
  32 H :    0.118735
  33 H :    0.121774
  34 H :    0.120645
  35 H :    0.131947
  36 H :    0.108831
  37 H :    0.117300
  38 H :    0.124490
  39 H :    0.125534
  40 H :    0.127559

  Mayer bond orders larger than 0.100000
B(  0-C ,  1-C ) :   1.1685 B(  0-C , 19-H ) :   0.9392 B(  0-C , 20-H ) :   0.9471
B(  0-C , 21-H ) :   0.9413 B(  1-C ,  2-O ) :   0.8969 B(  1-C , 22-H ) :   0.9045
B(  1-C , 23-H ) :   0.9333 B(  2-O ,  3-P ) :   1.1210 B(  3-P ,  4-S ) :   1.6545
B(  3-P ,  5-O ) :   1.0778 B(  3-P ,  8-S ) :   0.9503 B(  4-S ,  8-S ) :   0.1152
B(  5-O ,  6-C ) :   0.9055 B(  6-C ,  7-C ) :   1.1658 B(  6-C , 24-H ) :   0.9330
B(  6-C , 25-H ) :   0.9134 B(  7-C , 26-H ) :   0.9369 B(  7-C , 27-H ) :   0.9221
B(  7-C , 28-H ) :   0.9426 B(  8-S ,  9-C ) :   0.9889 B(  9-C , 10-S ) :   1.0168
B(  9-C , 29-H ) :   0.8939 B(  9-C , 30-H ) :   0.9074 B( 10-S , 11-P ) :   0.9385
B( 10-S , 12-S ) :   0.1210 B( 11-P , 12-S ) :   1.6289 B( 11-P , 13-O ) :   1.1117
B( 11-P , 16-O ) :   1.1319 B( 13-O , 14-C ) :   0.9069 B( 14-C , 15-C ) :   1.1703
B( 14-C , 31-H ) :   0.9046 B( 14-C , 32-H ) :   0.9318 B( 15-C , 33-H ) :   0.9378
B( 15-C , 34-H ) :   0.9317 B( 15-C , 35-H ) :   0.9369 B( 16-O , 17-C ) :   0.9068
B( 17-C , 18-C ) :   1.1700 B( 17-C , 36-H ) :   0.9143 B( 17-C , 37-H ) :   0.9357
B( 18-C , 38-H ) :   0.9469 B( 18-C , 39-H ) :   0.9310 B( 18-C , 40-H ) :   0.9385

Dispersion correction           -0.068874037
FINAL SINGLE POINT ENERGY     -2929.507845297906

DIPOLE MOMENT
-------------

Method             : SCF
Type of density    : Electron Density
Multiplicity       :   1
Irrep              :   0
Energy             : -2929.6230218391606286 Eh
Relativity type    :
Basis              : AO
                                X                 Y                 Z
Electronic contribution:     -6.560812422      -6.311981617      -3.174244808
Nuclear contribution   :      7.365272238       6.069025940       4.237519721
                        -----------------------------------------
Total Dipole Moment    :      0.804459816      -0.242955677       1.063274914
                        -----------------------------------------
Magnitude (a.u.)       :      1.355262557
Magnitude (Debye)      :      3.444803657

Rotational constants in cm-1:             0.011423             0.005755             0.005385
Rotational constants in MHz :           342.441891           172.538173           161.428544

                             ****ORCA TERMINATED NORMALLY****
TOTAL RUN TIME: 0 days 0 hours 0 minutes 23 seconds 149 msec
