                         Program Version 6.0.0  -   RELEASE  -
|  1> ! pbe def2-sv(p) def2/J RI DEFGRID1 loosescf d4 GCP(DFT/SV(P)) printgap
|  2> %output
|  3>     printlevel normal
|  4> end
|  5> * xyz 0 1
|  6> C 1.6426374183 1.1964842204 9.7385e-05
|  7> C 0.2572793147 1.2315259193 -8.9798e-05
|  8> C -0.4207473707 0.0222999907 -0.0003157887
|  9> C 0.299075217 -1.1655698776 -6.79713e-05
| 10> N 1.6190803114 -1.1889441549 8.87966e-05
| 11> C 2.2743093083 -0.0382948699 1.1239e-05
| 12> Cl -2.1571173139 -0.0102508732 8.48982e-05
| 13> H 2.2150625693 2.1093320367 0.0002258865
| 14> H -0.2834937253 2.1643549776 -0.0001099636
| 15> H -0.1994289208 -2.1241089881 -0.0001671665
| 16> H 3.3515057395 -0.1198107287 0.0001797099
| 17> *
| 18>
| 19>                          ****END OF INPUT****

CARTESIAN COORDINATES (ANGSTROEM)
---------------------------------
  C      1.642637    1.196484    0.000097
  C      0.257279    1.231526   -0.000090
  C     -0.420747    0.022300   -0.000316
  C      0.299075   -1.165570   -0.000068
  N      1.619080   -1.188944    0.000089
  C      2.274309   -0.038295    0.000011
  Cl    -2.157117   -0.010251    0.000085
  H      2.215063    2.109332    0.000226
  H     -0.283494    2.164355   -0.000110
  H     -0.199429   -2.124109   -0.000167
  H      3.351506   -0.119811    0.000180

 Total Charge           Charge          ....    0
 Multiplicity           Mult            ....    1
 Number of Electrons    NEL             ....   58
 Basis Dimension        Dim             ....  110

ORBITAL ENERGIES
----------------

  NO   OCC          E(Eh)            E(eV)
   0   2.0000    -100.649267     -2738.8058
   1   2.0000     -13.996645      -380.8681
   2   2.0000      -9.963785      -271.1284
   3   2.0000      -9.936060      -270.3739
   4   2.0000      -9.934187      -270.3230
   5   2.0000      -9.926405      -270.1112
   6   2.0000      -9.918779      -269.9037
   7   2.0000      -9.185190      -249.9417
   8   2.0000      -7.016568      -190.9305
   9   2.0000      -7.005200      -190.6212
  10   2.0000      -7.004541      -190.6033
  11   2.0000      -0.876495       -23.8506
  12   2.0000      -0.805044       -21.9064
  13   2.0000      -0.731164       -19.8960
  14   2.0000      -0.682911       -18.5829
  15   2.0000      -0.584293       -15.8994
  16   2.0000      -0.569030       -15.4841
  17   2.0000      -0.487961       -13.2781
  18   2.0000      -0.458503       -12.4765
  19   2.0000      -0.428179       -11.6514
  20   2.0000      -0.399632       -10.8745
  21   2.0000      -0.386324       -10.5124
  22   2.0000      -0.376179       -10.2364
  23   2.0000      -0.344005        -9.3609
  24   2.0000      -0.319507        -8.6942
  25   2.0000      -0.280856        -7.6425
  26   2.0000      -0.272513        -7.4154
  27   2.0000      -0.234487        -6.3807
  28   2.0000      -0.217231        -5.9112
  29   0.0000      -0.069432        -1.8893
  30   0.0000      -0.057851        -1.5742
  31   0.0000       0.003261         0.0887
  32   0.0000       0.057073         1.5530
  33   0.0000       0.085723         2.3327

MULLIKEN ATOMIC CHARGES
-----------------------
   0 C :   -0.080812
   1 C :   -0.008769
   2 C :    0.033364
   3 C :   -0.057285
   4 N :   -0.047485
   5 C :   -0.053665
   6 Cl:   -0.075233
   7 H :    0.072567
   8 H :    0.070307
   9 H :    0.069779
  10 H :    0.077233
Sum of atomic charges:   -0.0000000

LOEWDIN ATOMIC CHARGES
----------------------
   0 C :   -0.132928
   1 C :   -0.115143
   2 C :   -0.151366
   3 C :   -0.095652
   4 N :   -0.062525
   5 C :   -0.083344
   6 Cl:    0.132179
   7 H :    0.133411
   8 H :    0.135595
   9 H :    0.121269
  10 H :    0.118504

  Mayer bond orders larger than 0.100000
B(  0-C ,  1-C ) :   1.4085 B(  0-C ,  5-C ) :   1.3826 B(  0-C ,  7-H ) :   0.9448
B(  1-C ,  2-C ) :   1.4208 B(  1-C ,  8-H ) :   0.9560 B(  2-C ,  3-C ) :   1.3474
B(  2-C ,  6-Cl) :   0.9848 B(  3-C ,  4-N ) :   1.5661 B(  3-C ,  9-H ) :   0.9538
B(  4-N ,  5-C ) :   1.5413 B(  5-C , 10-H ) :   0.9534

Dispersion correction           -0.012050163
FINAL SINGLE POINT ENERGY      -707.025560750024

DIPOLE MOMENT
-------------

Method             : SCF
Type of density    : Electron Density
Multiplicity       :   1
Irrep              :   0
Energy             :  -707.0528086668537071 Eh
Relativity type    :
Basis              : AO
                                X                 Y                 Z
Electronic contribution:     -7.547334317      -1.193976165      -0.000041863
Nuclear contribution   :      7.673534566       1.911489463       0.000007063
                        -----------------------------------------
Total Dipole Moment    :      0.126200249       0.717513298      -0.000034799
                        -----------------------------------------
Magnitude (a.u.)       :      0.728527169
Magnitude (Debye)      :      1.851768902

Rotational constants in cm-1:             0.197569             0.053245             0.041941
Rotational constants in MHz :          5922.965692          1596.236017          1257.374336

                             ****ORCA TERMINATED NORMALLY****
TOTAL RUN TIME: 0 days 0 hours 0 minutes 12 seconds 847 msec
