                         Program Version 6.0.0  -   RELEASE  -
|  1> ! pbe def2-sv(p) def2/J RI DEFGRID1 loosescf d4 GCP(DFT/SV(P)) printgap
|  2> %output
|  3>     printlevel normal
|  4> end
|  5> * xyz 0 1
|  6> C 0.6035008351 1.4402940409 0.0082954614
|  7> C 1.5266073496 0.2015483993 0.0778776247
|  8> H 2.3955839868 0.3311495321 -0.5752907023
|  9> C 0.7434488636 -1.0391905153 -0.410479379
| 10> H 1.2161755002 -1.9337693295 0.0073118687
| 11> C -0.7042620818 -0.9544896404 0.1110088865
| 12> H -1.2581884956 -1.8518541276 -0.200935329
| 13> C -1.3855493151 0.2849173178 -0.5225270394
| 14> H -1.9016317648 -0.009390035 -1.4474418044
| 15> O -0.4441339861 1.2479766908 -0.9341547771
| 16> O -2.2847553454 0.7986300821 0.4084527444
| 17> O -0.6536415945 -0.8773889283 1.5120160519
| 18> O 0.7879871825 -1.1917237759 -1.8052150403
| 19> O 2.0466153823 0.0179474998 1.3679594388
| 20> H 1.1424424369 2.3252866867 -0.3261898046
| 21> H 0.182424552 1.6287724837 1.0021118875
| 22> H -2.7514385222 1.5621338372 0.0381921272
| 23> H -1.5142184449 -0.5590590774 1.8305591657
| 24> H 0.5265111031 -0.3576613314 -2.2248781378
| 25> H 1.3203672364 -0.2657673189 1.9495244894
| 26> *
| 27>
| 28>                          ****END OF INPUT****

CARTESIAN COORDINATES (ANGSTROEM)
---------------------------------
  C      0.603501    1.440294    0.008295
  C      1.526607    0.201548    0.077878
  H      2.395584    0.331150   -0.575291
  C      0.743449   -1.039191   -0.410479
  H      1.216176   -1.933769    0.007312
  C     -0.704262   -0.954490    0.111009
  H     -1.258188   -1.851854   -0.200935
  C     -1.385549    0.284917   -0.522527
  H     -1.901632   -0.009390   -1.447442
  O     -0.444134    1.247977   -0.934155
  O     -2.284755    0.798630    0.408453
  O     -0.653642   -0.877389    1.512016
  O      0.787987   -1.191724   -1.805215
  O      2.046615    0.017947    1.367959
  H      1.142442    2.325287   -0.326190
  H      0.182425    1.628772    1.002112
  H     -2.751439    1.562134    0.038192
  H     -1.514218   -0.559059    1.830559
  H      0.526511   -0.357661   -2.224878
  H      1.320367   -0.265767    1.949524

 Total Charge           Charge          ....    0
 Multiplicity           Mult            ....    1
 Number of Electrons    NEL             ....   80
 Basis Dimension        Dim             ....  160

ORBITAL ENERGIES
----------------

  NO   OCC          E(Eh)            E(eV)
   0   2.0000     -18.785007      -511.1660
   1   2.0000     -18.782083      -511.0865
   2   2.0000     -18.769344      -510.7398
   3   2.0000     -18.749026      -510.1869
   4   2.0000     -18.734938      -509.8036
   5   2.0000      -9.999103      -272.0894
   6   2.0000      -9.948935      -270.7243
   7   2.0000      -9.939408      -270.4650
   8   2.0000      -9.934393      -270.3286
   9   2.0000      -9.933784      -270.3120
  10   2.0000      -0.998281       -27.1646
  11   2.0000      -0.943709       -25.6796
  12   2.0000      -0.938190       -25.5294
  13   2.0000      -0.919977       -25.0338
  14   2.0000      -0.911736       -24.8096
  15   2.0000      -0.691117       -18.8062
  16   2.0000      -0.682419       -18.5696
  17   2.0000      -0.598836       -16.2951
  18   2.0000      -0.582086       -15.8394
  19   2.0000      -0.532384       -14.4869
  20   2.0000      -0.501504       -13.6466
  21   2.0000      -0.495155       -13.4739
  22   2.0000      -0.483699       -13.1621
  23   2.0000      -0.459554       -12.5051
  24   2.0000      -0.425576       -11.5805
  25   2.0000      -0.400105       -10.8874
  26   2.0000      -0.393155       -10.6983
  27   2.0000      -0.386733       -10.5235
  28   2.0000      -0.374271       -10.1844
  29   2.0000      -0.354888        -9.6570
  30   2.0000      -0.339812        -9.2468
  31   2.0000      -0.323266        -8.7965
  32   2.0000      -0.309891        -8.4326
  33   2.0000      -0.283549        -7.7158
  34   2.0000      -0.270294        -7.3551
  35   2.0000      -0.267631        -7.2826
  36   2.0000      -0.251963        -6.8563
  37   2.0000      -0.234951        -6.3934
  38   2.0000      -0.223331        -6.0771
  39   2.0000      -0.196223        -5.3395
  40   0.0000       0.004197         0.1142
  41   0.0000       0.028155         0.7661
  42   0.0000       0.047954         1.3049
  43   0.0000       0.064233         1.7479
  44   0.0000       0.069750         1.8980

MULLIKEN ATOMIC CHARGES
-----------------------
   0 C :    0.066737
   1 C :    0.025421
   2 H :    0.071919
   3 C :    0.041500
   4 H :    0.086756
   5 C :    0.017108
   6 H :    0.076125
   7 C :    0.156563
   8 H :    0.072833
   9 O :   -0.325775
  10 O :   -0.403814
  11 O :   -0.430278
  12 O :   -0.421872
  13 O :   -0.432660
  14 H :    0.098462
  15 H :    0.061891
  16 H :    0.314905
  17 H :    0.317650
  18 H :    0.302053
  19 H :    0.304478
Sum of atomic charges:    0.0000000

LOEWDIN ATOMIC CHARGES
----------------------
   0 C :   -0.130422
   1 C :   -0.081969
   2 H :    0.115876
   3 C :   -0.072211
   4 H :    0.123102
   5 C :   -0.083664
   6 H :    0.108733
   7 C :   -0.014781
   8 H :    0.099557
   9 O :   -0.163028
  10 O :   -0.308908
  11 O :   -0.312507
  12 O :   -0.314365
  13 O :   -0.320370
  14 H :    0.118427
  15 H :    0.103767
  16 H :    0.295380
  17 H :    0.287676
  18 H :    0.276049
  19 H :    0.273657

  Mayer bond orders larger than 0.100000
B(  0-C ,  1-C ) :   1.0356 B(  0-C ,  9-O ) :   0.9961 B(  0-C , 14-H ) :   0.9287
B(  0-C , 15-H ) :   0.8878 B(  1-C ,  2-H ) :   0.8960 B(  1-C ,  3-C ) :   0.9973
B(  1-C , 13-O ) :   1.0575 B(  3-C ,  4-H ) :   0.8928 B(  3-C ,  5-C ) :   0.9966
B(  3-C , 12-O ) :   1.0541 B(  5-C ,  6-H ) :   0.8885 B(  5-C ,  7-C ) :   0.9664
B(  5-C , 11-O ) :   1.0546 B(  7-C ,  8-H ) :   0.9092 B(  7-C ,  9-O ) :   1.0510
B(  7-C , 10-O ) :   1.1504 B( 10-O , 16-H ) :   0.8353 B( 11-O , 17-H ) :   0.8146
B( 12-O , 18-H ) :   0.8326 B( 13-O , 19-H ) :   0.8218

Dispersion correction           -0.020133644
FINAL SINGLE POINT ENERGY      -571.417183387277

DIPOLE MOMENT
-------------

Method             : SCF
Type of density    : Electron Density
Multiplicity       :   1
Irrep              :   0
Energy             :  -571.5283297426495892 Eh
Relativity type    :
Basis              : AO
                                X                 Y                 Z
Electronic contribution:     -0.764347367      -0.125763181      -0.177728860
Nuclear contribution   :     -0.610396614       0.815991603       0.057823038
                        -----------------------------------------
Total Dipole Moment    :     -1.374743980       0.690228422      -0.119905822
                        -----------------------------------------
Magnitude (a.u.)       :      1.542956154
Magnitude (Debye)      :      3.921882866

Rotational constants in cm-1:             0.058911             0.041854             0.039137
Rotational constants in MHz :          1766.093367          1254.749737          1173.310247

                             ****ORCA TERMINATED NORMALLY****
TOTAL RUN TIME: 0 days 0 hours 0 minutes 12 seconds 508 msec
