                         Program Version 6.0.0  -   RELEASE  -
|  1> ! r2scan-3c def2/J RI DEFGRID2 scfconv6 printgap
|  2> %output
|  3>     printlevel normal
|  4> end
|  5> * xyz 0 1
|  6> C 4.4833094583 -1.5356235792 -1.3363574154
|  7> C 4.6492484244 -0.1343094839 -0.7850298603
|  8> O 3.6201359009 0.2025541247 0.1605007296
|  9> P 2.0902461514 0.3620681882 -0.2592322978
| 10> S 1.8568982888 1.2257819567 -2.0083270151
| 11> O 1.5385560643 1.1240720204 1.0178574602
| 12> C 1.867166281 2.5213249849 1.2105781046
| 13> C 0.961878028 3.0817164943 2.2869034648
| 14> S 1.2486334766 -1.5455884742 0.0311416324
| 15> C 0.1386466061 -1.6283686251 -1.4189993609
| 16> S -1.5666859953 -2.0600238219 -0.9924177102
| 17> P -2.0232345268 -0.419015255 0.244917759
| 18> S -1.3796327061 1.3570692465 -0.303093708
| 19> O -1.4957731394 -0.9919595665 1.6218227404
| 20> C -1.1844327617 -0.1765687323 2.7690952466
| 21> C -2.390074092 0.5923974827 3.2660106802
| 22> O -3.596618818 -0.5115006108 0.4423823275
| 23> C -4.5308765425 0.1457576564 -0.4302398644
| 24> C -4.5462205138 -0.4667651225 -1.81597893
| 25> H 5.3459264207 -1.7859229683 -1.945367074
| 26> H 4.3907561325 -2.253365649 -0.5252209257
| 27> H 3.5881935224 -1.5844685505 -1.955327954
| 28> H 4.6253716835 0.6015752086 -1.5951494214
| 29> H 5.5725612898 -0.0307575397 -0.2136105552
| 30> H 2.9206450391 2.5828547496 1.4949886832
| 31> H 1.7183708186 3.0427567379 0.2584669383
| 32> H 1.0952387939 2.53151909 3.2139895478
| 33> H 1.2111251777 4.1255777723 2.4473639433
| 34> H -0.0757220803 3.0094998399 1.9703221667
| 35> H 0.4844796562 -2.4257166354 -2.0719004261
| 36> H 0.1675796997 -0.6618099835 -1.9303118744
| 37> H -0.8297401864 -0.8988442429 3.5059226198
| 38> H -0.3702799658 0.5008336184 2.4958102909
| 39> H -3.2122675584 -0.0892506275 3.4681372326
| 40> H -2.1289685529 1.1267295641 4.1741695595
| 41> H -2.7075141609 1.3109153909 2.510484618
| 42> H -5.4900374705 0.0246007083 0.0748957472
| 43> H -4.2676722715 1.2073340253 -0.4824797641
| 44> H -5.3520928748 -0.0268064504 -2.3947147534
| 45> H -3.6013773033 -0.2703627136 -2.3213514254
| 46> H -4.6902975092 -1.5423028365 -1.7517162828
| 47> *
| 48>
| 49>                          ****END OF INPUT****

CARTESIAN COORDINATES (ANGSTROEM)
---------------------------------
  C      4.483309   -1.535624   -1.336357
  C      4.649248   -0.134309   -0.785030
  O      3.620136    0.202554    0.160501
  P      2.090246    0.362068   -0.259232
  S      1.856898    1.225782   -2.008327
  O      1.538556    1.124072    1.017857
  C      1.867166    2.521325    1.210578
  C      0.961878    3.081716    2.286903
  S      1.248633   -1.545588    0.031142
  C      0.138647   -1.628369   -1.418999
  S     -1.566686   -2.060024   -0.992418
  P     -2.023235   -0.419015    0.244918
  S     -1.379633    1.357069   -0.303094
  O     -1.495773   -0.991960    1.621823
  C     -1.184433   -0.176569    2.769095
  C     -2.390074    0.592397    3.266011
  O     -3.596619   -0.511501    0.442382
  C     -4.530877    0.145758   -0.430240
  C     -4.546221   -0.466765   -1.815979
  H      5.345926   -1.785923   -1.945367
  H      4.390756   -2.253366   -0.525221
  H      3.588194   -1.584469   -1.955328
  H      4.625372    0.601575   -1.595149
  H      5.572561   -0.030758   -0.213611
  H      2.920645    2.582855    1.494989
  H      1.718371    3.042757    0.258467
  H      1.095239    2.531519    3.213990
  H      1.211125    4.125578    2.447364
  H     -0.075722    3.009500    1.970322
  H      0.484480   -2.425717   -2.071900
  H      0.167580   -0.661810   -1.930312
  H     -0.829740   -0.898844    3.505923
  H     -0.370280    0.500834    2.495810
  H     -3.212268   -0.089251    3.468137
  H     -2.128969    1.126730    4.174170
  H     -2.707514    1.310915    2.510485
  H     -5.490037    0.024601    0.074896
  H     -4.267672    1.207334   -0.482480
  H     -5.352093   -0.026806   -2.394715
  H     -3.601377   -0.270363   -2.321351
  H     -4.690298   -1.542303   -1.751716

 Total Charge           Charge          ....    0
 Multiplicity           Mult            ....    1
 Number of Electrons    NEL             ....  202
 Basis Dimension        Dim             ....  539

ORBITAL ENERGIES
----------------

  NO   OCC          E(Eh)            E(eV)
   0   2.0000     -88.574562     -2410.2364
   1   2.0000     -88.574228     -2410.2273
   2   2.0000     -88.516425     -2408.6544
   3   2.0000     -88.514718     -2408.6079
   4   2.0000     -76.910465     -2092.8401
   5   2.0000     -76.909849     -2092.8234
   6   2.0000     -18.989534      -516.7315
   7   2.0000     -18.986585      -516.6512
   8   2.0000     -18.984398      -516.5917
   9   2.0000     -18.982778      -516.5476
  10   2.0000     -10.105252      -274.9779
  11   2.0000     -10.096157      -274.7304
  12   2.0000     -10.094428      -274.6833
  13   2.0000     -10.093612      -274.6611
  14   2.0000     -10.091380      -274.6004
  15   2.0000     -10.028625      -272.8927
  16   2.0000     -10.026676      -272.8397
  17   2.0000     -10.026371      -272.8314
  18   2.0000     -10.025161      -272.7985
  19   2.0000      -7.868912      -214.1240
  20   2.0000      -7.868812      -214.1213
  21   2.0000      -7.811194      -212.5534
  22   2.0000      -7.809439      -212.5056
  23   2.0000      -6.588802      -179.2904
  24   2.0000      -6.588425      -179.2802
  25   2.0000      -5.815804      -158.2561
  26   2.0000      -5.815793      -158.2558
  27   2.0000      -5.812860      -158.1760
  28   2.0000      -5.812569      -158.1680
  29   2.0000      -5.805907      -157.9868
  30   2.0000      -5.805849      -157.9852
  31   2.0000      -5.758833      -156.7058
  32   2.0000      -5.757110      -156.6589
  33   2.0000      -5.751712      -156.5120
  34   2.0000      -5.750958      -156.4915
  35   2.0000      -5.749757      -156.4589
  36   2.0000      -5.749406      -156.4493
  37   2.0000      -4.734158      -128.8230
  38   2.0000      -4.733826      -128.8139
  39   2.0000      -4.733764      -128.8123
  40   2.0000      -4.733224      -128.7976
  41   2.0000      -4.732662      -128.7823
  42   2.0000      -4.732350      -128.7738
  43   2.0000      -1.045900       -28.4604
  44   2.0000      -1.045202       -28.4414
  45   2.0000      -1.006610       -27.3913
  46   2.0000      -1.003792       -27.3146
  47   2.0000      -0.798640       -21.7321
  48   2.0000      -0.755871       -20.5683
  49   2.0000      -0.745838       -20.2953
  50   2.0000      -0.728552       -19.8249
  51   2.0000      -0.728436       -19.8218
  52   2.0000      -0.710181       -19.3250
  53   2.0000      -0.684574       -18.6282
  54   2.0000      -0.662862       -18.0374
  55   2.0000      -0.631744       -17.1906
  56   2.0000      -0.621010       -16.8986
  57   2.0000      -0.603257       -16.4155
  58   2.0000      -0.601896       -16.3784
  59   2.0000      -0.586623       -15.9628
  60   2.0000      -0.526489       -14.3265
  61   2.0000      -0.512400       -13.9431
  62   2.0000      -0.487856       -13.2752
  63   2.0000      -0.487051       -13.2533
  64   2.0000      -0.462982       -12.5984
  65   2.0000      -0.461777       -12.5656
  66   2.0000      -0.455894       -12.4055
  67   2.0000      -0.454112       -12.3570
  68   2.0000      -0.442438       -12.0393
  69   2.0000      -0.438056       -11.9201
  70   2.0000      -0.425758       -11.5855
  71   2.0000      -0.412318       -11.2198
  72   2.0000      -0.407792       -11.0966
  73   2.0000      -0.404345       -11.0028
  74   2.0000      -0.395558       -10.7637
  75   2.0000      -0.388858       -10.5814
  76   2.0000      -0.381803       -10.3894
  77   2.0000      -0.368367       -10.0238
  78   2.0000      -0.367137        -9.9903
  79   2.0000      -0.363816        -9.8999
  80   2.0000      -0.359826        -9.7914
  81   2.0000      -0.354766        -9.6537
  82   2.0000      -0.352506        -9.5922
  83   2.0000      -0.348104        -9.4724
  84   2.0000      -0.346140        -9.4189
  85   2.0000      -0.325851        -8.8669
  86   2.0000      -0.323661        -8.8073
  87   2.0000      -0.308233        -8.3874
  88   2.0000      -0.306907        -8.3514
  89   2.0000      -0.303454        -8.2574
  90   2.0000      -0.294369        -8.0102
  91   2.0000      -0.284825        -7.7505
  92   2.0000      -0.283037        -7.7018
  93   2.0000      -0.276233        -7.5167
  94   2.0000      -0.274560        -7.4712
  95   2.0000      -0.242982        -6.6119
  96   2.0000      -0.232583        -6.3289
  97   2.0000      -0.225955        -6.1486
  98   2.0000      -0.215007        -5.8506
  99   2.0000      -0.208095        -5.6625
 100   2.0000      -0.199703        -5.4342
 101   0.0000      -0.042384        -1.1533
 102   0.0000      -0.033864        -0.9215
 103   0.0000      -0.007612        -0.2071
 104   0.0000       0.015172         0.4128
 105   0.0000       0.019014         0.5174

MULLIKEN ATOMIC CHARGES
-----------------------
   0 C :   -0.441172
   1 C :   -0.156179
   2 O :   -0.307868
   3 P :    0.708574
   4 S :   -0.477955
   5 O :   -0.291309
   6 C :   -0.132990
   7 C :   -0.490333
   8 S :   -0.116029
   9 C :   -0.242925
  10 S :   -0.106566
  11 P :    0.709874
  12 S :   -0.448927
  13 O :   -0.292140
  14 C :   -0.156874
  15 C :   -0.453923
  16 O :   -0.306434
  17 C :   -0.152454
  18 C :   -0.461119
  19 H :    0.146869
  20 H :    0.156920
  21 H :    0.167313
  22 H :    0.172989
  23 H :    0.145777
  24 H :    0.152314
  25 H :    0.171865
  26 H :    0.153728
  27 H :    0.146328
  28 H :    0.182089
  29 H :    0.187109
  30 H :    0.220548
  31 H :    0.150062
  32 H :    0.185648
  33 H :    0.157014
  34 H :    0.145037
  35 H :    0.171624
  36 H :    0.147452
  37 H :    0.172488
  38 H :    0.147754
  39 H :    0.179938
  40 H :    0.155886
Sum of atomic charges:   -0.0000000

LOEWDIN ATOMIC CHARGES
----------------------
   0 C :   -0.407082
   1 C :    0.017524
   2 O :   -0.670184
   3 P :    0.373710
   4 S :   -0.130924
   5 O :   -0.690335
   6 C :    0.018077
   7 C :   -0.396722
   8 S :    0.187848
   9 C :   -0.413441
  10 S :    0.166756
  11 P :    0.375828
  12 S :   -0.087527
  13 O :   -0.671731
  14 C :    0.022597
  15 C :   -0.404392
  16 O :   -0.662647
  17 C :    0.018582
  18 C :   -0.407399
  19 H :    0.158169
  20 H :    0.161030
  21 H :    0.162365
  22 H :    0.179617
  23 H :    0.178433
  24 H :    0.172950
  25 H :    0.183126
  26 H :    0.156686
  27 H :    0.159974
  28 H :    0.166930
  29 H :    0.179002
  30 H :    0.200205
  31 H :    0.181271
  32 H :    0.191562
  33 H :    0.161479
  34 H :    0.158767
  35 H :    0.165729
  36 H :    0.179091
  37 H :    0.179646
  38 H :    0.159302
  39 H :    0.166186
  40 H :    0.159942

  Mayer bond orders larger than 0.100000
B(  0-C ,  1-C ) :   0.9202 B(  0-C , 19-H ) :   0.9603 B(  0-C , 20-H ) :   0.9667
B(  0-C , 21-H ) :   0.9668 B(  1-C ,  2-O ) :   0.8267 B(  1-C , 22-H ) :   0.9677
B(  1-C , 23-H ) :   0.9585 B(  2-O ,  3-P ) :   1.0424 B(  3-P ,  4-S ) :   1.7174
B(  3-P ,  5-O ) :   1.1788 B(  3-P ,  8-S ) :   1.1297 B(  5-O ,  6-C ) :   0.7905
B(  6-C ,  7-C ) :   0.9387 B(  6-C , 24-H ) :   0.9443 B(  6-C , 25-H ) :   0.9531
B(  7-C , 26-H ) :   0.9739 B(  7-C , 27-H ) :   0.9599 B(  7-C , 28-H ) :   0.9670
B(  8-S ,  9-C ) :   0.8891 B(  9-C , 10-S ) :   0.9277 B(  9-C , 29-H ) :   0.9139
B(  9-C , 30-H ) :   0.9022 B( 10-S , 11-P ) :   1.0951 B( 11-P , 12-S ) :   1.7409
B( 11-P , 13-O ) :   1.1672 B( 11-P , 16-O ) :   1.0559 B( 13-O , 14-C ) :   0.8118
B( 14-C , 15-C ) :   0.9055 B( 14-C , 31-H ) :   0.9617 B( 14-C , 32-H ) :   0.9594
B( 15-C , 33-H ) :   0.9693 B( 15-C , 34-H ) :   0.9604 B( 15-C , 35-H ) :   0.9619
B( 16-O , 17-C ) :   0.8181 B( 17-C , 18-C ) :   0.9188 B( 17-C , 36-H ) :   0.9586
B( 17-C , 37-H ) :   0.9666 B( 18-C , 38-H ) :   0.9588 B( 18-C , 39-H ) :   0.9624
B( 18-C , 40-H ) :   0.9688

Dispersion correction           -0.022414791
FINAL SINGLE POINT ENERGY     -2932.459329928274

DIPOLE MOMENT
-------------

Method             : SCF
Type of density    : Electron Density
Multiplicity       :   1
Irrep              :   0
Energy             : -2932.4836579599677862 Eh
Relativity type    :
Basis              : AO
                                X                 Y                 Z
Electronic contribution:      1.673472358      -8.151269715      -7.338230976
Nuclear contribution   :     -1.569944915       8.047253068       8.061898494
                        -----------------------------------------
Total Dipole Moment    :      0.103527443      -0.104016647       0.723667518
                        -----------------------------------------
Magnitude (a.u.)       :      0.738398315
Magnitude (Debye)      :      1.876859359

Rotational constants in cm-1:             0.012062             0.005689             0.004928
Rotational constants in MHz :           361.599803           170.560584           147.729375

                             ****ORCA TERMINATED NORMALLY****
TOTAL RUN TIME: 0 days 0 hours 1 minutes 22 seconds 366 msec
