                         Program Version 6.0.0  -   RELEASE  -
|  1> ! r2scan-3c def2/J RI DEFGRID2 scfconv6 printgap
|  2> %output
|  3>     printlevel normal
|  4> end
|  5> %cpcm
|  6>     smd true
|  7>     smdsolvent "water"
|  8> end
|  9> * xyz 0 1
| 10> C 4.4833094583 -1.5356235792 -1.3363574154
| 11> C 4.6492484244 -0.1343094839 -0.7850298603
| 12> O 3.6201359009 0.2025541247 0.1605007296
| 13> P 2.0902461514 0.3620681882 -0.2592322978
| 14> S 1.8568982888 1.2257819567 -2.0083270151
| 15> O 1.5385560643 1.1240720204 1.0178574602
| 16> C 1.867166281 2.5213249849 1.2105781046
| 17> C 0.961878028 3.0817164943 2.2869034648
| 18> S 1.2486334766 -1.5455884742 0.0311416324
| 19> C 0.1386466061 -1.6283686251 -1.4189993609
| 20> S -1.5666859953 -2.0600238219 -0.9924177102
| 21> P -2.0232345268 -0.419015255 0.244917759
| 22> S -1.3796327061 1.3570692465 -0.303093708
| 23> O -1.4957731394 -0.9919595665 1.6218227404
| 24> C -1.1844327617 -0.1765687323 2.7690952466
| 25> C -2.390074092 0.5923974827 3.2660106802
| 26> O -3.596618818 -0.5115006108 0.4423823275
| 27> C -4.5308765425 0.1457576564 -0.4302398644
| 28> C -4.5462205138 -0.4667651225 -1.81597893
| 29> H 5.3459264207 -1.7859229683 -1.945367074
| 30> H 4.3907561325 -2.253365649 -0.5252209257
| 31> H 3.5881935224 -1.5844685505 -1.955327954
| 32> H 4.6253716835 0.6015752086 -1.5951494214
| 33> H 5.5725612898 -0.0307575397 -0.2136105552
| 34> H 2.9206450391 2.5828547496 1.4949886832
| 35> H 1.7183708186 3.0427567379 0.2584669383
| 36> H 1.0952387939 2.53151909 3.2139895478
| 37> H 1.2111251777 4.1255777723 2.4473639433
| 38> H -0.0757220803 3.0094998399 1.9703221667
| 39> H 0.4844796562 -2.4257166354 -2.0719004261
| 40> H 0.1675796997 -0.6618099835 -1.9303118744
| 41> H -0.8297401864 -0.8988442429 3.5059226198
| 42> H -0.3702799658 0.5008336184 2.4958102909
| 43> H -3.2122675584 -0.0892506275 3.4681372326
| 44> H -2.1289685529 1.1267295641 4.1741695595
| 45> H -2.7075141609 1.3109153909 2.510484618
| 46> H -5.4900374705 0.0246007083 0.0748957472
| 47> H -4.2676722715 1.2073340253 -0.4824797641
| 48> H -5.3520928748 -0.0268064504 -2.3947147534
| 49> H -3.6013773033 -0.2703627136 -2.3213514254
| 50> H -4.6902975092 -1.5423028365 -1.7517162828
| 51> *
| 52>
| 53>                          ****END OF INPUT****

CARTESIAN COORDINATES (ANGSTROEM)
---------------------------------
  C      4.483309   -1.535624   -1.336357
  C      4.649248   -0.134309   -0.785030
  O      3.620136    0.202554    0.160501
  P      2.090246    0.362068   -0.259232
  S      1.856898    1.225782   -2.008327
  O      1.538556    1.124072    1.017857
  C      1.867166    2.521325    1.210578
  C      0.961878    3.081716    2.286903
  S      1.248633   -1.545588    0.031142
  C      0.138647   -1.628369   -1.418999
  S     -1.566686   -2.060024   -0.992418
  P     -2.023235   -0.419015    0.244918
  S     -1.379633    1.357069   -0.303094
  O     -1.495773   -0.991960    1.621823
  C     -1.184433   -0.176569    2.769095
  C     -2.390074    0.592397    3.266011
  O     -3.596619   -0.511501    0.442382
  C     -4.530877    0.145758   -0.430240
  C     -4.546221   -0.466765   -1.815979
  H      5.345926   -1.785923   -1.945367
  H      4.390756   -2.253366   -0.525221
  H      3.588194   -1.584469   -1.955328
  H      4.625372    0.601575   -1.595149
  H      5.572561   -0.030758   -0.213611
  H      2.920645    2.582855    1.494989
  H      1.718371    3.042757    0.258467
  H      1.095239    2.531519    3.213990
  H      1.211125    4.125578    2.447364
  H     -0.075722    3.009500    1.970322
  H      0.484480   -2.425717   -2.071900
  H      0.167580   -0.661810   -1.930312
  H     -0.829740   -0.898844    3.505923
  H     -0.370280    0.500834    2.495810
  H     -3.212268   -0.089251    3.468137
  H     -2.128969    1.126730    4.174170
  H     -2.707514    1.310915    2.510485
  H     -5.490037    0.024601    0.074896
  H     -4.267672    1.207334   -0.482480
  H     -5.352093   -0.026806   -2.394715
  H     -3.601377   -0.270363   -2.321351
  H     -4.690298   -1.542303   -1.751716

 Total Charge           Charge          ....    0
 Multiplicity           Mult            ....    1
 Number of Electrons    NEL             ....  202
 Basis Dimension        Dim             ....  539

ORBITAL ENERGIES
----------------

  NO   OCC          E(Eh)            E(eV)
   0   2.0000     -88.579223     -2410.3632
   1   2.0000     -88.579109     -2410.3601
   2   2.0000     -88.525122     -2408.8910
   3   2.0000     -88.521904     -2408.8035
   4   2.0000     -76.916423     -2093.0023
   5   2.0000     -76.916057     -2092.9923
   6   2.0000     -18.993407      -516.8369
   7   2.0000     -18.990560      -516.7594
   8   2.0000     -18.988896      -516.7141
   9   2.0000     -18.987534      -516.6771
  10   2.0000     -10.105092      -274.9735
  11   2.0000     -10.088761      -274.5291
  12   2.0000     -10.087253      -274.4881
  13   2.0000     -10.087035      -274.4822
  14   2.0000     -10.086726      -274.4738
  15   2.0000     -10.018353      -272.6132
  16   2.0000     -10.017793      -272.5980
  17   2.0000     -10.017689      -272.5952
  18   2.0000     -10.017267      -272.5837
  19   2.0000      -7.873786      -214.2566
  20   2.0000      -7.873488      -214.2485
  21   2.0000      -7.820216      -212.7989
  22   2.0000      -7.816853      -212.7074
  23   2.0000      -6.594851      -179.4550
  24   2.0000      -6.594663      -179.4499
  25   2.0000      -5.820741      -158.3904
  26   2.0000      -5.820379      -158.3806
  27   2.0000      -5.817513      -158.3026
  28   2.0000      -5.817448      -158.3008
  29   2.0000      -5.810907      -158.1228
  30   2.0000      -5.810471      -158.1110
  31   2.0000      -5.767782      -156.9493
  32   2.0000      -5.764491      -156.8598
  33   2.0000      -5.760729      -156.7574
  34   2.0000      -5.760000      -156.7376
  35   2.0000      -5.757170      -156.6606
  36   2.0000      -5.756810      -156.6508
  37   2.0000      -4.740181      -128.9869
  38   2.0000      -4.740019      -128.9825
  39   2.0000      -4.739814      -128.9769
  40   2.0000      -4.739448      -128.9669
  41   2.0000      -4.738746      -128.9478
  42   2.0000      -4.738679      -128.9460
  43   2.0000      -1.050483       -28.5851
  44   2.0000      -1.048590       -28.5336
  45   2.0000      -1.010862       -27.5069
  46   2.0000      -1.006416       -27.3860
  47   2.0000      -0.801354       -21.8060
  48   2.0000      -0.754890       -20.5416
  49   2.0000      -0.741918       -20.1886
  50   2.0000      -0.722760       -19.6673
  51   2.0000      -0.721423       -19.6309
  52   2.0000      -0.709924       -19.3180
  53   2.0000      -0.688685       -18.7401
  54   2.0000      -0.669798       -18.2261
  55   2.0000      -0.632493       -17.2110
  56   2.0000      -0.618888       -16.8408
  57   2.0000      -0.599325       -16.3085
  58   2.0000      -0.597148       -16.2492
  59   2.0000      -0.585019       -15.9192
  60   2.0000      -0.524403       -14.2697
  61   2.0000      -0.510715       -13.8973
  62   2.0000      -0.486477       -13.2377
  63   2.0000      -0.485997       -13.2246
  64   2.0000      -0.464873       -12.6498
  65   2.0000      -0.462169       -12.5763
  66   2.0000      -0.454463       -12.3666
  67   2.0000      -0.451759       -12.2930
  68   2.0000      -0.438151       -11.9227
  69   2.0000      -0.435233       -11.8433
  70   2.0000      -0.423041       -11.5115
  71   2.0000      -0.411369       -11.1939
  72   2.0000      -0.406366       -11.0578
  73   2.0000      -0.403845       -10.9892
  74   2.0000      -0.394790       -10.7428
  75   2.0000      -0.387704       -10.5500
  76   2.0000      -0.380794       -10.3619
  77   2.0000      -0.363539        -9.8924
  78   2.0000      -0.360638        -9.8135
  79   2.0000      -0.356040        -9.6883
  80   2.0000      -0.353536        -9.6202
  81   2.0000      -0.349857        -9.5201
  82   2.0000      -0.349253        -9.5037
  83   2.0000      -0.344666        -9.3789
  84   2.0000      -0.341498        -9.2926
  85   2.0000      -0.325111        -8.8467
  86   2.0000      -0.322285        -8.7698
  87   2.0000      -0.308195        -8.3864
  88   2.0000      -0.303899        -8.2695
  89   2.0000      -0.302519        -8.2320
  90   2.0000      -0.296342        -8.0639
  91   2.0000      -0.286136        -7.7862
  92   2.0000      -0.282417        -7.6849
  93   2.0000      -0.278784        -7.5861
  94   2.0000      -0.276827        -7.5328
  95   2.0000      -0.247936        -6.7467
  96   2.0000      -0.239534        -6.5181
  97   2.0000      -0.234231        -6.3738
  98   2.0000      -0.222321        -6.0496
  99   2.0000      -0.215579        -5.8662
 100   2.0000      -0.208282        -5.6676
 101   0.0000      -0.047295        -1.2870
 102   0.0000      -0.040399        -1.0993
 103   0.0000      -0.011617        -0.3161
 104   0.0000       0.009635         0.2622
 105   0.0000       0.015244         0.4148

MULLIKEN ATOMIC CHARGES
-----------------------
   0 C :   -0.475173
   1 C :   -0.156283
   2 O :   -0.335259
   3 P :    0.750298
   4 S :   -0.533623
   5 O :   -0.313152
   6 C :   -0.136620
   7 C :   -0.510251
   8 S :   -0.129348
   9 C :   -0.239968
  10 S :   -0.122173
  11 P :    0.733770
  12 S :   -0.488773
  13 O :   -0.321692
  14 C :   -0.149290
  15 C :   -0.492899
  16 O :   -0.333009
  17 C :   -0.152874
  18 C :   -0.494523
  19 H :    0.171252
  20 H :    0.166560
  21 H :    0.169530
  22 H :    0.176047
  23 H :    0.172336
  24 H :    0.172504
  25 H :    0.172342
  26 H :    0.170320
  27 H :    0.168762
  28 H :    0.173651
  29 H :    0.230483
  30 H :    0.216294
  31 H :    0.174939
  32 H :    0.186558
  33 H :    0.168837
  34 H :    0.171574
  35 H :    0.170573
  36 H :    0.174517
  37 H :    0.177574
  38 H :    0.172808
  39 H :    0.173786
  40 H :    0.169591
Sum of atomic charges:    0.0000000

LOEWDIN ATOMIC CHARGES
----------------------
   0 C :   -0.409718
   1 C :    0.022150
   2 O :   -0.681718
   3 P :    0.379700
   4 S :   -0.165679
   5 O :   -0.700042
   6 C :    0.021625
   7 C :   -0.397186
   8 S :    0.182944
   9 C :   -0.405879
  10 S :    0.161196
  11 P :    0.377717
  12 S :   -0.109613
  13 O :   -0.690444
  14 C :    0.025911
  15 C :   -0.406011
  16 O :   -0.676601
  17 C :    0.023626
  18 C :   -0.410436
  19 H :    0.167064
  20 H :    0.163296
  21 H :    0.160811
  22 H :    0.180573
  23 H :    0.189498
  24 H :    0.180915
  25 H :    0.182765
  26 H :    0.162909
  27 H :    0.168030
  28 H :    0.163566
  29 H :    0.195942
  30 H :    0.198440
  31 H :    0.190990
  32 H :    0.192251
  33 H :    0.164018
  34 H :    0.168897
  35 H :    0.163474
  36 H :    0.190437
  37 H :    0.181215
  38 H :    0.168381
  39 H :    0.161522
  40 H :    0.163463

  Mayer bond orders larger than 0.100000
B(  0-C ,  1-C ) :   0.9093 B(  0-C , 19-H ) :   0.9551 B(  0-C , 20-H ) :   0.9651
B(  0-C , 21-H ) :   0.9656 B(  1-C ,  2-O ) :   0.8149 B(  1-C , 22-H ) :   0.9655
B(  1-C , 23-H ) :   0.9491 B(  2-O ,  3-P ) :   1.0518 B(  3-P ,  4-S ) :   1.6668
B(  3-P ,  5-O ) :   1.1873 B(  3-P ,  8-S ) :   1.1425 B(  5-O ,  6-C ) :   0.7784
B(  6-C ,  7-C ) :   0.9402 B(  6-C , 24-H ) :   0.9357 B(  6-C , 25-H ) :   0.9516
B(  7-C , 26-H ) :   0.9684 B(  7-C , 27-H ) :   0.9557 B(  7-C , 28-H ) :   0.9682
B(  8-S ,  9-C ) :   0.8830 B(  9-C , 10-S ) :   0.9196 B(  9-C , 29-H ) :   0.8984
B(  9-C , 30-H ) :   0.9064 B( 10-S , 11-P ) :   1.1086 B( 11-P , 12-S ) :   1.7139
B( 11-P , 13-O ) :   1.1662 B( 11-P , 16-O ) :   1.0596 B( 13-O , 14-C ) :   0.8008
B( 14-C , 15-C ) :   0.9008 B( 14-C , 31-H ) :   0.9512 B( 14-C , 32-H ) :   0.9541
B( 15-C , 33-H ) :   0.9688 B( 15-C , 34-H ) :   0.9540 B( 15-C , 35-H ) :   0.9608
B( 16-O , 17-C ) :   0.8069 B( 17-C , 18-C ) :   0.9060 B( 17-C , 36-H ) :   0.9490
B( 17-C , 37-H ) :   0.9651 B( 18-C , 38-H ) :   0.9535 B( 18-C , 39-H ) :   0.9643
B( 18-C , 40-H ) :   0.9657

Dispersion correction           -0.022414791
FINAL SINGLE POINT ENERGY     -2932.466550317625

DIPOLE MOMENT
-------------

Method             : SCF
Type of density    : Electron Density
Multiplicity       :   1
Irrep              :   0
Energy             : -2932.4908783493187912 Eh
Relativity type    :
Basis              : AO
                                X                 Y                 Z
Electronic contribution:      1.798369297      -8.219970552      -7.137764621
Nuclear contribution   :     -1.569944915       8.047253068       8.061898494
                        -----------------------------------------
Total Dipole Moment    :      0.228424383      -0.172717484       0.924133873
                        -----------------------------------------
Magnitude (a.u.)       :      0.967487697
Magnitude (Debye)      :      2.459158292

Rotational constants in cm-1:             0.012062             0.005689             0.004928
Rotational constants in MHz :           361.599803           170.560584           147.729375

                             ****ORCA TERMINATED NORMALLY****
TOTAL RUN TIME: 0 days 0 hours 1 minutes 50 seconds 511 msec
