                         Program Version 6.0.0  -   RELEASE  -
|  1> ! r2scan-3c def2/J RI DEFGRID2 scfconv6 printgap
|  2> %output
|  3>     printlevel normal
|  4> end
|  5> * xyz 0 1
|  6> C 4.6327222434 -1.5260063925 -1.1262794701
|  7> C 4.6863525167 -0.0877378676 -0.6534982553
|  8> O 3.5775494569 0.2425319932 0.2009232739
|  9> P 2.0801430784 0.3308434736 -0.3349534363
| 10> S 1.9426093565 1.1047101068 -2.1359892023
| 11> O 1.3972635902 1.1041317865 0.8666675943
| 12> C 1.5608681234 2.5297039034 1.0261069732
| 13> C 0.7889775549 2.9428264824 2.260757322
| 14> S 1.3040686473 -1.5910617464 -0.0279571379
| 15> C -0.0103697377 -1.627419941 -1.3004475857
| 16> S -1.6543140692 -1.8833869175 -0.603414774
| 17> P -1.9236551486 0.0284609824 0.2898032142
| 18> S -1.3506543934 1.5711751754 -0.7735326871
| 19> O -1.2044431117 -0.0193068252 1.6907883645
| 20> C -1.1417177366 -1.1462219434 2.6000731877
| 21> C -2.5067858992 -1.6782888403 2.976615571
| 22> O -3.4623626492 0.0539337585 0.686336611
| 23> C -4.4908083577 0.5007520592 -0.2124783237
| 24> C -4.6799317057 -0.4388587361 -1.3860349102
| 25> H 3.7873471173 -1.6627087074 -1.7993347802
| 26> H 5.5479906509 -1.7618764026 -1.659455403
| 27> H 4.5218367322 -2.1988470485 -0.279728349
| 28> H 4.6788120258 0.5977455902 -1.5070424185
| 29> H 5.5611877305 0.1014270246 -0.0300527881
| 30> H 2.6278924499 2.7485556228 1.1214364476
| 31> H 1.1708788017 3.0198165085 0.1271075671
| 32> H 0.8733432138 4.0166204352 2.3918523151
| 33> H -0.2583152237 2.675338077 2.1410941762
| 34> H 1.1854434104 2.4344475665 3.1346726293
| 35> H 0.1765873583 -2.4779408108 -1.9506023908
| 36> H 0.0213843138 -0.6876584167 -1.8589064743
| 37> H -0.5303206816 -1.9267185701 2.137664393
| 38> H -0.6148866019 -0.7350320007 3.4624457456
| 39> H -2.993962415 -2.1174546916 2.1086643348
| 40> H -2.3871660578 -2.4418514353 3.7390908502
| 41> H -3.1309112166 -0.8769610058 3.3631990929
| 42> H -5.381717778 0.5446544196 0.4155570873
| 43> H -4.2326766706 1.5054372245 -0.5624409984
| 44> H -5.5556715158 -0.1339701073 -1.9499393475
| 45> H -3.8105367636 -0.3994001337 -2.0402660269
| 46> H -4.811530093 -1.4598881751 -1.0374755486
| 47> *
| 48>
| 49>                          ****END OF INPUT****

CARTESIAN COORDINATES (ANGSTROEM)
---------------------------------
  C      4.632722   -1.526006   -1.126279
  C      4.686353   -0.087738   -0.653498
  O      3.577549    0.242532    0.200923
  P      2.080143    0.330843   -0.334953
  S      1.942609    1.104710   -2.135989
  O      1.397264    1.104132    0.866668
  C      1.560868    2.529704    1.026107
  C      0.788978    2.942826    2.260757
  S      1.304069   -1.591062   -0.027957
  C     -0.010370   -1.627420   -1.300448
  S     -1.654314   -1.883387   -0.603415
  P     -1.923655    0.028461    0.289803
  S     -1.350654    1.571175   -0.773533
  O     -1.204443   -0.019307    1.690788
  C     -1.141718   -1.146222    2.600073
  C     -2.506786   -1.678289    2.976616
  O     -3.462363    0.053934    0.686337
  C     -4.490808    0.500752   -0.212478
  C     -4.679932   -0.438859   -1.386035
  H      3.787347   -1.662709   -1.799335
  H      5.547991   -1.761876   -1.659455
  H      4.521837   -2.198847   -0.279728
  H      4.678812    0.597746   -1.507042
  H      5.561188    0.101427   -0.030053
  H      2.627892    2.748556    1.121436
  H      1.170879    3.019817    0.127108
  H      0.873343    4.016620    2.391852
  H     -0.258315    2.675338    2.141094
  H      1.185443    2.434448    3.134673
  H      0.176587   -2.477941   -1.950602
  H      0.021384   -0.687658   -1.858906
  H     -0.530321   -1.926719    2.137664
  H     -0.614887   -0.735032    3.462446
  H     -2.993962   -2.117455    2.108664
  H     -2.387166   -2.441851    3.739091
  H     -3.130911   -0.876961    3.363199
  H     -5.381718    0.544654    0.415557
  H     -4.232677    1.505437   -0.562441
  H     -5.555672   -0.133970   -1.949939
  H     -3.810537   -0.399400   -2.040266
  H     -4.811530   -1.459888   -1.037476

 Total Charge           Charge          ....    0
 Multiplicity           Mult            ....    1
 Number of Electrons    NEL             ....  202
 Basis Dimension        Dim             ....  539

ORBITAL ENERGIES
----------------

  NO   OCC          E(Eh)            E(eV)
   0   2.0000     -88.577837     -2410.3255
   1   2.0000     -88.575060     -2410.2499
   2   2.0000     -88.512929     -2408.5593
   3   2.0000     -88.512339     -2408.5432
   4   2.0000     -76.911864     -2092.8782
   5   2.0000     -76.907259     -2092.7529
   6   2.0000     -18.990934      -516.7696
   7   2.0000     -18.987617      -516.6793
   8   2.0000     -18.986166      -516.6398
   9   2.0000     -18.977362      -516.4003
  10   2.0000     -10.107988      -275.0523
  11   2.0000     -10.098617      -274.7973
  12   2.0000     -10.097130      -274.7569
  13   2.0000     -10.092959      -274.6434
  14   2.0000     -10.085191      -274.4320
  15   2.0000     -10.030829      -272.9527
  16   2.0000     -10.027922      -272.8736
  17   2.0000     -10.025194      -272.7994
  18   2.0000     -10.018506      -272.6174
  19   2.0000      -7.872390      -214.2186
  20   2.0000      -7.869853      -214.1496
  21   2.0000      -7.807622      -212.4562
  22   2.0000      -7.807163      -212.4437
  23   2.0000      -6.590090      -179.3255
  24   2.0000      -6.585828      -179.2095
  25   2.0000      -5.819295      -158.3511
  26   2.0000      -5.816655      -158.2792
  27   2.0000      -5.816003      -158.2615
  28   2.0000      -5.813724      -158.1995
  29   2.0000      -5.809668      -158.0891
  30   2.0000      -5.806923      -158.0144
  31   2.0000      -5.755274      -156.6090
  32   2.0000      -5.754935      -156.5997
  33   2.0000      -5.748133      -156.4147
  34   2.0000      -5.747432      -156.3956
  35   2.0000      -5.747404      -156.3948
  36   2.0000      -5.747049      -156.3852
  37   2.0000      -4.735838      -128.8687
  38   2.0000      -4.735186      -128.8510
  39   2.0000      -4.733463      -128.8041
  40   2.0000      -4.731235      -128.7435
  41   2.0000      -4.730651      -128.7276
  42   2.0000      -4.729730      -128.7025
  43   2.0000      -1.047818       -28.5126
  44   2.0000      -1.041860       -28.3505
  45   2.0000      -1.008472       -27.4419
  46   2.0000      -1.000331       -27.2204
  47   2.0000      -0.800691       -21.7879
  48   2.0000      -0.755648       -20.5622
  49   2.0000      -0.746464       -20.3123
  50   2.0000      -0.733347       -19.9554
  51   2.0000      -0.724871       -19.7247
  52   2.0000      -0.710750       -19.3405
  53   2.0000      -0.683226       -18.5915
  54   2.0000      -0.661151       -17.9908
  55   2.0000      -0.629460       -17.1285
  56   2.0000      -0.620501       -16.8847
  57   2.0000      -0.607879       -16.5412
  58   2.0000      -0.597334       -16.2543
  59   2.0000      -0.586628       -15.9630
  60   2.0000      -0.521652       -14.1949
  61   2.0000      -0.515412       -14.0251
  62   2.0000      -0.489477       -13.3193
  63   2.0000      -0.485464       -13.2101
  64   2.0000      -0.467191       -12.7129
  65   2.0000      -0.463148       -12.6029
  66   2.0000      -0.459353       -12.4996
  67   2.0000      -0.451344       -12.2817
  68   2.0000      -0.441916       -12.0251
  69   2.0000      -0.436271       -11.8715
  70   2.0000      -0.429296       -11.6817
  71   2.0000      -0.414431       -11.2773
  72   2.0000      -0.405065       -11.0224
  73   2.0000      -0.401061       -10.9134
  74   2.0000      -0.394733       -10.7412
  75   2.0000      -0.383276       -10.4295
  76   2.0000      -0.380266       -10.3476
  77   2.0000      -0.370220       -10.0742
  78   2.0000      -0.365897        -9.9566
  79   2.0000      -0.364316        -9.9135
  80   2.0000      -0.360761        -9.8168
  81   2.0000      -0.358642        -9.7592
  82   2.0000      -0.350726        -9.5437
  83   2.0000      -0.347431        -9.4541
  84   2.0000      -0.338864        -9.2209
  85   2.0000      -0.325886        -8.8678
  86   2.0000      -0.322129        -8.7656
  87   2.0000      -0.309886        -8.4324
  88   2.0000      -0.305326        -8.3083
  89   2.0000      -0.304987        -8.2991
  90   2.0000      -0.294629        -8.0172
  91   2.0000      -0.285677        -7.7737
  92   2.0000      -0.277475        -7.5505
  93   2.0000      -0.273899        -7.4532
  94   2.0000      -0.271615        -7.3910
  95   2.0000      -0.250161        -6.8072
  96   2.0000      -0.232110        -6.3160
  97   2.0000      -0.225933        -6.1479
  98   2.0000      -0.214807        -5.8452
  99   2.0000      -0.206007        -5.6057
 100   2.0000      -0.195716        -5.3257
 101   0.0000      -0.044283        -1.2050
 102   0.0000      -0.031377        -0.8538
 103   0.0000      -0.011207        -0.3049
 104   0.0000       0.015493         0.4216
 105   0.0000       0.018789         0.5113

MULLIKEN ATOMIC CHARGES
-----------------------
   0 C :   -0.447178
   1 C :   -0.156104
   2 O :   -0.311384
   3 P :    0.659702
   4 S :   -0.463745
   5 O :   -0.251066
   6 C :   -0.128201
   7 C :   -0.468101
   8 S :   -0.133608
   9 C :   -0.226776
  10 S :   -0.150888
  11 P :    0.642146
  12 S :   -0.423944
  13 O :   -0.253348
  14 C :   -0.143365
  15 C :   -0.439172
  16 O :   -0.276767
  17 C :   -0.165832
  18 C :   -0.456149
  19 H :    0.173217
  20 H :    0.146480
  21 H :    0.153402
  22 H :    0.174712
  23 H :    0.145750
  24 H :    0.145648
  25 H :    0.174445
  26 H :    0.142355
  27 H :    0.179111
  28 H :    0.145479
  29 H :    0.196417
  30 H :    0.219887
  31 H :    0.166815
  32 H :    0.154590
  33 H :    0.159074
  34 H :    0.148999
  35 H :    0.160425
  36 H :    0.147365
  37 H :    0.176806
  38 H :    0.148477
  39 H :    0.181881
  40 H :    0.152445
Sum of atomic charges:   -0.0000000

LOEWDIN ATOMIC CHARGES
----------------------
   0 C :   -0.408060
   1 C :    0.017169
   2 O :   -0.666026
   3 P :    0.368466
   4 S :   -0.126681
   5 O :   -0.675991
   6 C :    0.017686
   7 C :   -0.389570
   8 S :    0.168495
   9 C :   -0.411718
  10 S :    0.132139
  11 P :    0.384161
  12 S :   -0.069429
  13 O :   -0.653574
  14 C :    0.019377
  15 C :   -0.400525
  16 O :   -0.671642
  17 C :    0.019754
  18 C :   -0.408756
  19 H :    0.164103
  20 H :    0.158308
  21 H :    0.159511
  22 H :    0.180378
  23 H :    0.178206
  24 H :    0.170312
  25 H :    0.182734
  26 H :    0.157733
  27 H :    0.170100
  28 H :    0.156536
  29 H :    0.180695
  30 H :    0.203305
  31 H :    0.178027
  32 H :    0.183524
  33 H :    0.163148
  34 H :    0.159420
  35 H :    0.163683
  36 H :    0.178898
  37 H :    0.181519
  38 H :    0.159537
  39 H :    0.166651
  40 H :    0.158398

  Mayer bond orders larger than 0.100000
B(  0-C ,  1-C ) :   0.9201 B(  0-C , 19-H ) :   0.9653 B(  0-C , 20-H ) :   0.9598
B(  0-C , 21-H ) :   0.9679 B(  1-C ,  2-O ) :   0.8268 B(  1-C , 22-H ) :   0.9671
B(  1-C , 23-H ) :   0.9593 B(  2-O ,  3-P ) :   1.0536 B(  3-P ,  4-S ) :   1.7552
B(  3-P ,  5-O ) :   1.1884 B(  3-P ,  8-S ) :   1.1251 B(  5-O ,  6-C ) :   0.7644
B(  6-C ,  7-C ) :   0.9353 B(  6-C , 24-H ) :   0.9443 B(  6-C , 25-H ) :   0.9499
B(  7-C , 26-H ) :   0.9667 B(  7-C , 27-H ) :   0.9690 B(  7-C , 28-H ) :   0.9735
B(  8-S ,  9-C ) :   0.8873 B(  9-C , 10-S ) :   0.9106 B(  9-C , 29-H ) :   0.9126
B(  9-C , 30-H ) :   0.9044 B( 10-S , 11-P ) :   1.0085 B( 11-P , 12-S ) :   1.8285
B( 11-P , 13-O ) :   1.1416 B( 11-P , 16-O ) :   1.0448 B( 13-O , 14-C ) :   0.8033
B( 14-C , 15-C ) :   0.9152 B( 14-C , 31-H ) :   0.9605 B( 14-C , 32-H ) :   0.9594
B( 15-C , 33-H ) :   0.9623 B( 15-C , 34-H ) :   0.9586 B( 15-C , 35-H ) :   0.9706
B( 16-O , 17-C ) :   0.8158 B( 17-C , 18-C ) :   0.9102 B( 17-C , 36-H ) :   0.9615
B( 17-C , 37-H ) :   0.9669 B( 18-C , 38-H ) :   0.9580 B( 18-C , 39-H ) :   0.9631
B( 18-C , 40-H ) :   0.9695

Dispersion correction           -0.022517913
FINAL SINGLE POINT ENERGY     -2932.457669017444

DIPOLE MOMENT
-------------

Method             : SCF
Type of density    : Electron Density
Multiplicity       :   1
Irrep              :   0
Energy             : -2932.4817755376357127 Eh
Relativity type    :
Basis              : AO
                                X                 Y                 Z
Electronic contribution:      3.246950552       0.516345715      -8.091410719
Nuclear contribution   :     -3.477450454      -1.437296043       9.076037107
                        -----------------------------------------
Total Dipole Moment    :     -0.230499902      -0.920950328       0.984626388
                        -----------------------------------------
Magnitude (a.u.)       :      1.367760518
Magnitude (Debye)      :      3.476570950

Rotational constants in cm-1:             0.012618             0.005422             0.005231
Rotational constants in MHz :           378.276340           162.549678           156.829854

                             ****ORCA TERMINATED NORMALLY****
TOTAL RUN TIME: 0 days 0 hours 1 minutes 26 seconds 437 msec
