                         Program Version 6.0.0  -   RELEASE  -
|  1> ! r2scan-3c def2/J RI DEFGRID2 scfconv6 printgap
|  2> %output
|  3>     printlevel normal
|  4> end
|  5> %cpcm
|  6>     smd true
|  7>     smdsolvent "water"
|  8> end
|  9> * xyz 0 1
| 10> C 4.6327222434 -1.5260063925 -1.1262794701
| 11> C 4.6863525167 -0.0877378676 -0.6534982553
| 12> O 3.5775494569 0.2425319932 0.2009232739
| 13> P 2.0801430784 0.3308434736 -0.3349534363
| 14> S 1.9426093565 1.1047101068 -2.1359892023
| 15> O 1.3972635902 1.1041317865 0.8666675943
| 16> C 1.5608681234 2.5297039034 1.0261069732
| 17> C 0.7889775549 2.9428264824 2.260757322
| 18> S 1.3040686473 -1.5910617464 -0.0279571379
| 19> C -0.0103697377 -1.627419941 -1.3004475857
| 20> S -1.6543140692 -1.8833869175 -0.603414774
| 21> P -1.9236551486 0.0284609824 0.2898032142
| 22> S -1.3506543934 1.5711751754 -0.7735326871
| 23> O -1.2044431117 -0.0193068252 1.6907883645
| 24> C -1.1417177366 -1.1462219434 2.6000731877
| 25> C -2.5067858992 -1.6782888403 2.976615571
| 26> O -3.4623626492 0.0539337585 0.686336611
| 27> C -4.4908083577 0.5007520592 -0.2124783237
| 28> C -4.6799317057 -0.4388587361 -1.3860349102
| 29> H 3.7873471173 -1.6627087074 -1.7993347802
| 30> H 5.5479906509 -1.7618764026 -1.659455403
| 31> H 4.5218367322 -2.1988470485 -0.279728349
| 32> H 4.6788120258 0.5977455902 -1.5070424185
| 33> H 5.5611877305 0.1014270246 -0.0300527881
| 34> H 2.6278924499 2.7485556228 1.1214364476
| 35> H 1.1708788017 3.0198165085 0.1271075671
| 36> H 0.8733432138 4.0166204352 2.3918523151
| 37> H -0.2583152237 2.675338077 2.1410941762
| 38> H 1.1854434104 2.4344475665 3.1346726293
| 39> H 0.1765873583 -2.4779408108 -1.9506023908
| 40> H 0.0213843138 -0.6876584167 -1.8589064743
| 41> H -0.5303206816 -1.9267185701 2.137664393
| 42> H -0.6148866019 -0.7350320007 3.4624457456
| 43> H -2.993962415 -2.1174546916 2.1086643348
| 44> H -2.3871660578 -2.4418514353 3.7390908502
| 45> H -3.1309112166 -0.8769610058 3.3631990929
| 46> H -5.381717778 0.5446544196 0.4155570873
| 47> H -4.2326766706 1.5054372245 -0.5624409984
| 48> H -5.5556715158 -0.1339701073 -1.9499393475
| 49> H -3.8105367636 -0.3994001337 -2.0402660269
| 50> H -4.811530093 -1.4598881751 -1.0374755486
| 51> *
| 52>
| 53>                          ****END OF INPUT****

CARTESIAN COORDINATES (ANGSTROEM)
---------------------------------
  C      4.632722   -1.526006   -1.126279
  C      4.686353   -0.087738   -0.653498
  O      3.577549    0.242532    0.200923
  P      2.080143    0.330843   -0.334953
  S      1.942609    1.104710   -2.135989
  O      1.397264    1.104132    0.866668
  C      1.560868    2.529704    1.026107
  C      0.788978    2.942826    2.260757
  S      1.304069   -1.591062   -0.027957
  C     -0.010370   -1.627420   -1.300448
  S     -1.654314   -1.883387   -0.603415
  P     -1.923655    0.028461    0.289803
  S     -1.350654    1.571175   -0.773533
  O     -1.204443   -0.019307    1.690788
  C     -1.141718   -1.146222    2.600073
  C     -2.506786   -1.678289    2.976616
  O     -3.462363    0.053934    0.686337
  C     -4.490808    0.500752   -0.212478
  C     -4.679932   -0.438859   -1.386035
  H      3.787347   -1.662709   -1.799335
  H      5.547991   -1.761876   -1.659455
  H      4.521837   -2.198847   -0.279728
  H      4.678812    0.597746   -1.507042
  H      5.561188    0.101427   -0.030053
  H      2.627892    2.748556    1.121436
  H      1.170879    3.019817    0.127108
  H      0.873343    4.016620    2.391852
  H     -0.258315    2.675338    2.141094
  H      1.185443    2.434448    3.134673
  H      0.176587   -2.477941   -1.950602
  H      0.021384   -0.687658   -1.858906
  H     -0.530321   -1.926719    2.137664
  H     -0.614887   -0.735032    3.462446
  H     -2.993962   -2.117455    2.108664
  H     -2.387166   -2.441851    3.739091
  H     -3.130911   -0.876961    3.363199
  H     -5.381718    0.544654    0.415557
  H     -4.232677    1.505437   -0.562441
  H     -5.555672   -0.133970   -1.949939
  H     -3.810537   -0.399400   -2.040266
  H     -4.811530   -1.459888   -1.037476

 Total Charge           Charge          ....    0
 Multiplicity           Mult            ....    1
 Number of Electrons    NEL             ....  202
 Basis Dimension        Dim             ....  539

ORBITAL ENERGIES
----------------

  NO   OCC          E(Eh)            E(eV)
   0   2.0000     -88.579892     -2410.3814
   1   2.0000     -88.579173     -2410.3618
   2   2.0000     -88.524140     -2408.8643
   3   2.0000     -88.521577     -2408.7946
   4   2.0000     -76.917787     -2093.0394
   5   2.0000     -76.916171     -2092.9954
   6   2.0000     -18.993189      -516.8309
   7   2.0000     -18.992732      -516.8185
   8   2.0000     -18.992177      -516.8034
   9   2.0000     -18.987108      -516.6655
  10   2.0000     -10.106401      -275.0092
  11   2.0000     -10.091157      -274.5943
  12   2.0000     -10.088825      -274.5309
  13   2.0000     -10.087366      -274.4912
  14   2.0000     -10.086286      -274.4618
  15   2.0000     -10.019533      -272.6453
  16   2.0000     -10.018007      -272.6038
  17   2.0000     -10.017410      -272.5876
  18   2.0000     -10.017407      -272.5875
  19   2.0000      -7.874342      -214.2717
  20   2.0000      -7.873895      -214.2596
  21   2.0000      -7.819172      -212.7705
  22   2.0000      -7.816745      -212.7045
  23   2.0000      -6.596077      -179.4884
  24   2.0000      -6.594790      -179.4534
  25   2.0000      -5.821282      -158.4051
  26   2.0000      -5.820725      -158.3900
  27   2.0000      -5.817976      -158.3152
  28   2.0000      -5.817765      -158.3094
  29   2.0000      -5.811582      -158.1412
  30   2.0000      -5.810954      -158.1241
  31   2.0000      -5.766744      -156.9211
  32   2.0000      -5.764415      -156.8577
  33   2.0000      -5.759693      -156.7292
  34   2.0000      -5.758961      -156.7093
  35   2.0000      -5.757077      -156.6580
  36   2.0000      -5.756603      -156.6451
  37   2.0000      -4.741798      -129.0309
  38   2.0000      -4.741129      -129.0127
  39   2.0000      -4.740172      -128.9866
  40   2.0000      -4.739593      -128.9709
  41   2.0000      -4.739552      -128.9698
  42   2.0000      -4.738766      -128.9484
  43   2.0000      -1.051367       -28.6092
  44   2.0000      -1.049123       -28.5481
  45   2.0000      -1.011566       -27.5261
  46   2.0000      -1.007587       -27.4178
  47   2.0000      -0.802090       -21.8260
  48   2.0000      -0.755564       -20.5600
  49   2.0000      -0.744521       -20.2595
  50   2.0000      -0.725538       -19.7429
  51   2.0000      -0.721686       -19.6381
  52   2.0000      -0.711828       -19.3698
  53   2.0000      -0.687992       -18.7212
  54   2.0000      -0.668761       -18.1979
  55   2.0000      -0.630943       -17.1688
  56   2.0000      -0.619716       -16.8633
  57   2.0000      -0.602961       -16.4074
  58   2.0000      -0.596188       -16.2231
  59   2.0000      -0.586754       -15.9664
  60   2.0000      -0.523845       -14.2545
  61   2.0000      -0.513074       -13.9615
  62   2.0000      -0.488314       -13.2877
  63   2.0000      -0.485952       -13.2234
  64   2.0000      -0.469123       -12.7655
  65   2.0000      -0.463385       -12.6094
  66   2.0000      -0.457279       -12.4432
  67   2.0000      -0.449739       -12.2380
  68   2.0000      -0.439493       -11.9592
  69   2.0000      -0.436094       -11.8667
  70   2.0000      -0.425310       -11.5733
  71   2.0000      -0.414669       -11.2837
  72   2.0000      -0.406581       -11.0636
  73   2.0000      -0.400360       -10.8944
  74   2.0000      -0.391716       -10.6591
  75   2.0000      -0.385425       -10.4880
  76   2.0000      -0.379471       -10.3259
  77   2.0000      -0.368416       -10.0251
  78   2.0000      -0.361369        -9.8333
  79   2.0000      -0.359401        -9.7798
  80   2.0000      -0.355779        -9.6813
  81   2.0000      -0.352861        -9.6018
  82   2.0000      -0.348233        -9.4759
  83   2.0000      -0.343569        -9.3490
  84   2.0000      -0.339964        -9.2509
  85   2.0000      -0.325534        -8.8582
  86   2.0000      -0.321072        -8.7368
  87   2.0000      -0.310906        -8.4602
  88   2.0000      -0.304195        -8.2776
  89   2.0000      -0.302388        -8.2284
  90   2.0000      -0.298961        -8.1351
  91   2.0000      -0.287104        -7.8125
  92   2.0000      -0.280522        -7.6334
  93   2.0000      -0.276457        -7.5228
  94   2.0000      -0.275518        -7.4972
  95   2.0000      -0.252909        -6.8820
  96   2.0000      -0.239139        -6.5073
  97   2.0000      -0.236048        -6.4232
  98   2.0000      -0.225279        -6.1301
  99   2.0000      -0.214920        -5.8483
 100   2.0000      -0.206902        -5.6301
 101   0.0000      -0.048238        -1.3126
 102   0.0000      -0.037154        -1.0110
 103   0.0000      -0.014477        -0.3939
 104   0.0000       0.009975         0.2714
 105   0.0000       0.014430         0.3927

MULLIKEN ATOMIC CHARGES
-----------------------
   0 C :   -0.481113
   1 C :   -0.155151
   2 O :   -0.337743
   3 P :    0.695516
   4 S :   -0.522879
   5 O :   -0.279194
   6 C :   -0.128511
   7 C :   -0.508027
   8 S :   -0.130185
   9 C :   -0.224626
  10 S :   -0.144832
  11 P :    0.660875
  12 S :   -0.477632
  13 O :   -0.289842
  14 C :   -0.137082
  15 C :   -0.480272
  16 O :   -0.299144
  17 C :   -0.160736
  18 C :   -0.491439
  19 H :    0.171070
  20 H :    0.171249
  21 H :    0.166868
  22 H :    0.176912
  23 H :    0.172748
  24 H :    0.169726
  25 H :    0.173761
  26 H :    0.169401
  27 H :    0.169447
  28 H :    0.166541
  29 H :    0.238427
  30 H :    0.212170
  31 H :    0.173754
  32 H :    0.179714
  33 H :    0.164642
  34 H :    0.175051
  35 H :    0.171070
  36 H :    0.174675
  37 H :    0.177971
  38 H :    0.172614
  39 H :    0.174563
  40 H :    0.169643
Sum of atomic charges:   -0.0000000

LOEWDIN ATOMIC CHARGES
----------------------
   0 C :   -0.410420
   1 C :    0.022331
   2 O :   -0.677673
   3 P :    0.373532
   4 S :   -0.164078
   5 O :   -0.695067
   6 C :    0.019165
   7 C :   -0.393537
   8 S :    0.174221
   9 C :   -0.404770
  10 S :    0.143820
  11 P :    0.386421
  12 S :   -0.107048
  13 O :   -0.675960
  14 C :    0.024168
  15 C :   -0.401830
  16 O :   -0.680754
  17 C :    0.024422
  18 C :   -0.411428
  19 H :    0.160998
  20 H :    0.167414
  21 H :    0.163187
  22 H :    0.180994
  23 H :    0.189601
  24 H :    0.179541
  25 H :    0.181954
  26 H :    0.167930
  27 H :    0.164259
  28 H :    0.162761
  29 H :    0.197687
  30 H :    0.200197
  31 H :    0.181076
  32 H :    0.193388
  33 H :    0.163133
  34 H :    0.169694
  35 H :    0.165665
  36 H :    0.190466
  37 H :    0.181295
  38 H :    0.168211
  39 H :    0.161649
  40 H :    0.163383

  Mayer bond orders larger than 0.100000
B(  0-C ,  1-C ) :   0.9100 B(  0-C , 19-H ) :   0.9651 B(  0-C , 20-H ) :   0.9546
B(  0-C , 21-H ) :   0.9654 B(  1-C ,  2-O ) :   0.8140 B(  1-C , 22-H ) :   0.9648
B(  1-C , 23-H ) :   0.9496 B(  2-O ,  3-P ) :   1.0623 B(  3-P ,  4-S ) :   1.7003
B(  3-P ,  5-O ) :   1.1868 B(  3-P ,  8-S ) :   1.1512 B(  5-O ,  6-C ) :   0.7570
B(  6-C ,  7-C ) :   0.9264 B(  6-C , 24-H ) :   0.9363 B(  6-C , 25-H ) :   0.9472
B(  7-C , 26-H ) :   0.9609 B(  7-C , 27-H ) :   0.9709 B(  7-C , 28-H ) :   0.9697
B(  8-S ,  9-C ) :   0.8809 B(  9-C , 10-S ) :   0.9045 B(  9-C , 29-H ) :   0.8962
B(  9-C , 30-H ) :   0.9091 B( 10-S , 11-P ) :   1.0303 B( 11-P , 12-S ) :   1.7998
B( 11-P , 13-O ) :   1.1412 B( 11-P , 16-O ) :   1.0526 B( 13-O , 14-C ) :   0.7918
B( 14-C , 15-C ) :   0.9092 B( 14-C , 31-H ) :   0.9529 B( 14-C , 32-H ) :   0.9475
B( 15-C , 33-H ) :   0.9600 B( 15-C , 34-H ) :   0.9517 B( 15-C , 35-H ) :   0.9700
B( 16-O , 17-C ) :   0.8050 B( 17-C , 18-C ) :   0.9002 B( 17-C , 36-H ) :   0.9513
B( 17-C , 37-H ) :   0.9653 B( 18-C , 38-H ) :   0.9528 B( 18-C , 39-H ) :   0.9648
B( 18-C , 40-H ) :   0.9662

Dispersion correction           -0.022517913
FINAL SINGLE POINT ENERGY     -2932.466398278177

DIPOLE MOMENT
-------------

Method             : SCF
Type of density    : Electron Density
Multiplicity       :   1
Irrep              :   0
Energy             : -2932.4905047983688746 Eh
Relativity type    :
Basis              : AO
                                X                 Y                 Z
Electronic contribution:      3.247609551      -0.063785629      -7.822842283
Nuclear contribution   :     -3.477450454      -1.437296043       9.076037107
                        -----------------------------------------
Total Dipole Moment    :     -0.229840903      -1.501081673       1.253194824
                        -----------------------------------------
Magnitude (a.u.)       :      1.968900784
Magnitude (Debye)      :      5.004548075

Rotational constants in cm-1:             0.012618             0.005422             0.005231
Rotational constants in MHz :           378.276340           162.549678           156.829854

                             ****ORCA TERMINATED NORMALLY****
TOTAL RUN TIME: 0 days 0 hours 1 minutes 52 seconds 321 msec
