                         Program Version 6.0.0  -   RELEASE  -
|  1> ! pbe def2-sv(p) def2/J RI DEFGRID1 loosescf d4 GCP(DFT/SV(P)) printgap
|  2> %output
|  3>     printlevel normal
|  4> end
|  5> * xyz 0 1
|  6> C 3.0156717949 0.0609404743 -2.2580035026
|  7> C 2.1162545771 1.0556710529 -1.5597776941
|  8> O 2.2925507028 1.0821349753 -0.1226977529
|  9> P 2.3039748531 -0.1276981746 0.8813515631
| 10> S 2.179919871 0.487081462 2.7335789756
| 11> O 3.6518307264 -0.8864887356 0.52619406
| 12> C 4.1370220136 -1.9689552937 1.3461533872
| 13> C 5.629289918 -2.0966398996 1.1162260345
| 14> S 0.7919407125 -1.5117495493 0.2840395086
| 15> C -0.5127761826 -0.8750342646 1.364641772
| 16> S -1.0621057408 0.7977351886 0.9288017311
| 17> P -2.1810616329 0.3374342556 -0.8102850332
| 18> S -1.2933879829 -0.2858459793 -2.433722888
| 19> O -2.9726309147 1.6759881028 -1.1108658838
| 20> C -3.7835739107 2.3658866445 -0.128727895
| 21> C -3.0629943979 3.5980438442 0.3800866506
| 22> O -3.2054886989 -0.7043097703 -0.1538422708
| 23> C -3.9081933011 -1.6724164214 -0.957724604
| 24> C -4.9861721358 -1.0171644893 -1.7965007359
| 25> H 2.8949612915 0.1772798037 -3.3308043777
| 26> H 4.0537616997 0.2331339862 -1.9862812681
| 27> H 2.7378707571 -0.9554855076 -1.985347281
| 28> H 1.0652851585 0.8390331916 -1.7741685663
| 29> H 2.3419928355 2.0817363086 -1.8539118171
| 30> H 3.9122421165 -1.7423884339 2.3940022197
| 31> H 3.6069677994 -2.8789694246 1.0530895771
| 32> H 5.8289436328 -2.2960633911 0.0674988568
| 33> H 6.1296972316 -1.1755255621 1.4017336286
| 34> H 6.0131928643 -2.9139292401 1.7177590794
| 35> H -0.1257474407 -0.7981634201 2.3815772041
| 36> H -1.348557666 -1.5666264675 1.3059678231
| 37> H -4.6950686652 2.6366323106 -0.6644728356
| 38> H -4.0214627572 1.679054205 0.6871156195
| 39> H -3.7164183009 4.1394372237 1.0568549013
| 40> H -2.1555238699 3.3173214982 0.9115029509
| 41> H -2.794442754 4.2418743187 -0.4528010037
| 42> H -3.1834067689 -2.1871665602 -1.596285587
| 43> H -4.3267131268 -2.3695971732 -0.2304857967
| 44> H -4.5310563915 -0.3185724839 -2.4983096201
| 45> H -5.5204002748 -1.7791748068 -2.3551524588
| 46> H -5.6858769887 -0.4781874154 -1.1629141521
| 47> *
| 48>
| 49>                          ****END OF INPUT****

CARTESIAN COORDINATES (ANGSTROEM)
---------------------------------
  C      3.015672    0.060940   -2.258004
  C      2.116255    1.055671   -1.559778
  O      2.292551    1.082135   -0.122698
  P      2.303975   -0.127698    0.881352
  S      2.179920    0.487081    2.733579
  O      3.651831   -0.886489    0.526194
  C      4.137022   -1.968955    1.346153
  C      5.629290   -2.096640    1.116226
  S      0.791941   -1.511750    0.284040
  C     -0.512776   -0.875034    1.364642
  S     -1.062106    0.797735    0.928802
  P     -2.181062    0.337434   -0.810285
  S     -1.293388   -0.285846   -2.433723
  O     -2.972631    1.675988   -1.110866
  C     -3.783574    2.365887   -0.128728
  C     -3.062994    3.598044    0.380087
  O     -3.205489   -0.704310   -0.153842
  C     -3.908193   -1.672416   -0.957725
  C     -4.986172   -1.017164   -1.796501
  H      2.894961    0.177280   -3.330804
  H      4.053762    0.233134   -1.986281
  H      2.737871   -0.955486   -1.985347
  H      1.065285    0.839033   -1.774169
  H      2.341993    2.081736   -1.853912
  H      3.912242   -1.742388    2.394002
  H      3.606968   -2.878969    1.053090
  H      5.828944   -2.296063    0.067499
  H      6.129697   -1.175526    1.401734
  H      6.013193   -2.913929    1.717759
  H     -0.125747   -0.798163    2.381577
  H     -1.348558   -1.566626    1.305968
  H     -4.695069    2.636632   -0.664473
  H     -4.021463    1.679054    0.687116
  H     -3.716418    4.139437    1.056855
  H     -2.155524    3.317321    0.911503
  H     -2.794443    4.241874   -0.452801
  H     -3.183407   -2.187167   -1.596286
  H     -4.326713   -2.369597   -0.230486
  H     -4.531056   -0.318572   -2.498310
  H     -5.520400   -1.779175   -2.355152
  H     -5.685877   -0.478187   -1.162914

 Total Charge           Charge          ....    0
 Multiplicity           Mult            ....    1
 Number of Electrons    NEL             ....  202
 Basis Dimension        Dim             ....  334

ORBITAL ENERGIES
----------------

  NO   OCC          E(Eh)            E(eV)
   0   2.0000     -88.044685     -2395.8177
   1   2.0000     -88.038691     -2395.6546
   2   2.0000     -87.988065     -2394.2770
   3   2.0000     -87.978563     -2394.0184
   4   2.0000     -76.428412     -2079.7228
   5   2.0000     -76.421450     -2079.5334
   6   2.0000     -18.798349      -511.5291
   7   2.0000     -18.798069      -511.5215
   8   2.0000     -18.789694      -511.2936
   9   2.0000     -18.783483      -511.1246
  10   2.0000      -9.961110      -271.0556
  11   2.0000      -9.956240      -270.9231
  12   2.0000      -9.955554      -270.9044
  13   2.0000      -9.950000      -270.7533
  14   2.0000      -9.941401      -270.5193
  15   2.0000      -9.890374      -269.1308
  16   2.0000      -9.890004      -269.1207
  17   2.0000      -9.885973      -269.0110
  18   2.0000      -9.878297      -268.8021
  19   2.0000      -7.689451      -209.2406
  20   2.0000      -7.683670      -209.0833
  21   2.0000      -7.633091      -207.7070
  22   2.0000      -7.623954      -207.4583
  23   2.0000      -6.426252      -174.8672
  24   2.0000      -6.418805      -174.6646
  25   2.0000      -5.717338      -155.5767
  26   2.0000      -5.713999      -155.4858
  27   2.0000      -5.711412      -155.4154
  28   2.0000      -5.708213      -155.3284
  29   2.0000      -5.706408      -155.2793
  30   2.0000      -5.700776      -155.1260
  31   2.0000      -5.662088      -154.0733
  32   2.0000      -5.653575      -153.8416
  33   2.0000      -5.653256      -153.8329
  34   2.0000      -5.652895      -153.8231
  35   2.0000      -5.644475      -153.5940
  36   2.0000      -5.644117      -153.5842
  37   2.0000      -4.649332      -126.5147
  38   2.0000      -4.647780      -126.4725
  39   2.0000      -4.646475      -126.4370
  40   2.0000      -4.641512      -126.3020
  41   2.0000      -4.640736      -126.2808
  42   2.0000      -4.639023      -126.2342
  43   2.0000      -0.990083       -26.9415
  44   2.0000      -0.981745       -26.7146
  45   2.0000      -0.950842       -25.8737
  46   2.0000      -0.939689       -25.5702
  47   2.0000      -0.763554       -20.7774
  48   2.0000      -0.722468       -19.6594
  49   2.0000      -0.709807       -19.3148
  50   2.0000      -0.696374       -18.9493
  51   2.0000      -0.686525       -18.6813
  52   2.0000      -0.673204       -18.3188
  53   2.0000      -0.650928       -17.7127
  54   2.0000      -0.635469       -17.2920
  55   2.0000      -0.595043       -16.1919
  56   2.0000      -0.588665       -16.0184
  57   2.0000      -0.581424       -15.8213
  58   2.0000      -0.565640       -15.3918
  59   2.0000      -0.562608       -15.3093
  60   2.0000      -0.507149       -13.8002
  61   2.0000      -0.498851       -13.5744
  62   2.0000      -0.484514       -13.1843
  63   2.0000      -0.467199       -12.7131
  64   2.0000      -0.461300       -12.5526
  65   2.0000      -0.447081       -12.1657
  66   2.0000      -0.441565       -12.0156
  67   2.0000      -0.433301       -11.7907
  68   2.0000      -0.427264       -11.6264
  69   2.0000      -0.414769       -11.2864
  70   2.0000      -0.405935       -11.0461
  71   2.0000      -0.404020       -10.9939
  72   2.0000      -0.393506       -10.7079
  73   2.0000      -0.380020       -10.3409
  74   2.0000      -0.379194       -10.3184
  75   2.0000      -0.372581       -10.1384
  76   2.0000      -0.366317        -9.9680
  77   2.0000      -0.359845        -9.7919
  78   2.0000      -0.358950        -9.7675
  79   2.0000      -0.353623        -9.6226
  80   2.0000      -0.350920        -9.5490
  81   2.0000      -0.346522        -9.4293
  82   2.0000      -0.342748        -9.3267
  83   2.0000      -0.339938        -9.2502
  84   2.0000      -0.332557        -9.0493
  85   2.0000      -0.321153        -8.7390
  86   2.0000      -0.311528        -8.4771
  87   2.0000      -0.304634        -8.2895
  88   2.0000      -0.295027        -8.0281
  89   2.0000      -0.285580        -7.7710
  90   2.0000      -0.283419        -7.7122
  91   2.0000      -0.278085        -7.5671
  92   2.0000      -0.271535        -7.3889
  93   2.0000      -0.264202        -7.1893
  94   2.0000      -0.257275        -7.0008
  95   2.0000      -0.243085        -6.6147
  96   2.0000      -0.217266        -5.9121
  97   2.0000      -0.206299        -5.6137
  98   2.0000      -0.202111        -5.4997
  99   2.0000      -0.198011        -5.3882
 100   2.0000      -0.191903        -5.2219
 101   0.0000      -0.043597        -1.1863
 102   0.0000      -0.023118        -0.6291
 103   0.0000      -0.005603        -0.1525
 104   0.0000       0.004622         0.1258
 105   0.0000       0.015834         0.4309

MULLIKEN ATOMIC CHARGES
-----------------------
   0 C :   -0.309837
   1 C :   -0.014219
   2 O :   -0.354218
   3 P :    0.607456
   4 S :   -0.328145
   5 O :   -0.376850
   6 C :   -0.008977
   7 C :   -0.281438
   8 S :   -0.099164
   9 C :   -0.351930
  10 S :   -0.080106
  11 P :    0.611113
  12 S :   -0.298440
  13 O :   -0.366265
  14 C :   -0.028100
  15 C :   -0.295712
  16 O :   -0.391981
  17 C :   -0.011379
  18 C :   -0.313609
  19 H :    0.114748
  20 H :    0.118167
  21 H :    0.116584
  22 H :    0.129486
  23 H :    0.103867
  24 H :    0.104755
  25 H :    0.100532
  26 H :    0.115616
  27 H :    0.122002
  28 H :    0.111199
  29 H :    0.196374
  30 H :    0.184181
  31 H :    0.111043
  32 H :    0.110258
  33 H :    0.113409
  34 H :    0.137490
  35 H :    0.123025
  36 H :    0.114491
  37 H :    0.104631
  38 H :    0.131660
  39 H :    0.115672
  40 H :    0.112612
Sum of atomic charges:    0.0000000

LOEWDIN ATOMIC CHARGES
----------------------
   0 C :   -0.364947
   1 C :   -0.118239
   2 O :   -0.229164
   3 P :    0.570304
   4 S :   -0.321379
   5 O :   -0.243792
   6 C :   -0.121495
   7 C :   -0.350530
   8 S :    0.066455
   9 C :   -0.481289
  10 S :    0.098254
  11 P :    0.565091
  12 S :   -0.296835
  13 O :   -0.241111
  14 C :   -0.120127
  15 C :   -0.359151
  16 O :   -0.256481
  17 C :   -0.123210
  18 C :   -0.365436
  19 H :    0.132585
  20 H :    0.124893
  21 H :    0.117787
  22 H :    0.104212
  23 H :    0.120753
  24 H :    0.108014
  25 H :    0.108943
  26 H :    0.126028
  27 H :    0.129809
  28 H :    0.130522
  29 H :    0.130661
  30 H :    0.132238
  31 H :    0.120710
  32 H :    0.109758
  33 H :    0.132123
  34 H :    0.123268
  35 H :    0.130512
  36 H :    0.110776
  37 H :    0.117376
  38 H :    0.126440
  39 H :    0.132620
  40 H :    0.123052

  Mayer bond orders larger than 0.100000
B(  0-C ,  1-C ) :   1.1742 B(  0-C , 19-H ) :   0.9354 B(  0-C , 20-H ) :   0.9436
B(  0-C , 21-H ) :   0.9398 B(  1-C ,  2-O ) :   0.8863 B(  1-C , 22-H ) :   0.8965
B(  1-C , 23-H ) :   0.9338 B(  2-O ,  3-P ) :   1.1684 B(  3-P ,  4-S ) :   1.6208
B(  3-P ,  5-O ) :   1.0908 B(  3-P ,  8-S ) :   0.9387 B(  4-S ,  8-S ) :   0.1097
B(  5-O ,  6-C ) :   0.9034 B(  6-C ,  7-C ) :   1.1608 B(  6-C , 24-H ) :   0.9057
B(  6-C , 25-H ) :   0.9295 B(  7-C , 26-H ) :   0.9513 B(  7-C , 27-H ) :   0.9505
B(  7-C , 28-H ) :   0.9418 B(  8-S ,  9-C ) :   1.0115 B(  9-C , 10-S ) :   0.9958
B(  9-C , 29-H ) :   0.8723 B(  9-C , 30-H ) :   0.8950 B( 10-S , 11-P ) :   0.9689
B( 10-S , 12-S ) :   0.1057 B( 11-P , 12-S ) :   1.6435 B( 11-P , 13-O ) :   1.1242
B( 11-P , 16-O ) :   1.0543 B( 13-O , 14-C ) :   0.8928 B( 14-C , 15-C ) :   1.1676
B( 14-C , 31-H ) :   0.9317 B( 14-C , 32-H ) :   0.9148 B( 15-C , 33-H ) :   0.9388
B( 15-C , 34-H ) :   0.9371 B( 15-C , 35-H ) :   0.9455 B( 16-O , 17-C ) :   0.9035
B( 17-C , 18-C ) :   1.1648 B( 17-C , 36-H ) :   0.9113 B( 17-C , 37-H ) :   0.9331
B( 18-C , 38-H ) :   0.9346 B( 18-C , 39-H ) :   0.9395 B( 18-C , 40-H ) :   0.9470

Dispersion correction           -0.064224188
FINAL SINGLE POINT ENERGY     -2929.520573809586

DIPOLE MOMENT
-------------

Method             : SCF
Type of density    : Electron Density
Multiplicity       :   1
Irrep              :   0
Energy             : -2929.6410196972556150 Eh
Relativity type    :
Basis              : AO
                                X                 Y                 Z
Electronic contribution:      2.338338120       1.530246756       6.374140200
Nuclear contribution   :     -3.433266667      -2.138889243      -6.606404551
                        -----------------------------------------
Total Dipole Moment    :     -1.094928547      -0.608642487      -0.232264352
                        -----------------------------------------
Magnitude (a.u.)       :      1.274072576
Magnitude (Debye)      :      3.238435126

Rotational constants in cm-1:             0.013846             0.004407             0.004184
Rotational constants in MHz :           415.105566           132.119548           125.432894

                             ****ORCA TERMINATED NORMALLY****
TOTAL RUN TIME: 0 days 0 hours 0 minutes 20 seconds 701 msec
