                         Program Version 6.0.0  -   RELEASE  -
|  1> ! pbe def2-sv(p) def2/J RI DEFGRID1 loosescf d4 GCP(DFT/SV(P)) printgap
|  2> %output
|  3>     printlevel normal
|  4> end
|  5> * xyz 0 1
|  6> C 3.4075540372 -1.089859835 -2.9718103653
|  7> C 2.1731817847 -0.5923538625 -2.2501428341
|  8> O 2.5452653463 0.263262668 -1.1424138019
|  9> P 2.569356477 -0.2331336142 0.3541668773
| 10> S 3.2874072629 1.1336019327 1.5517438634
| 11> O 3.3830908552 -1.5950542458 0.263284822
| 12> C 3.9727417809 -2.2235977554 1.418012796
| 13> C 2.9323170286 -2.7034741887 2.4086033983
| 14> S 0.5775939947 -0.8454219144 0.758192164
| 15> C -0.0062906789 0.8270076032 1.2062846031
| 16> S -1.7885005193 0.8754762358 1.3975731699
| 17> P -2.3461487501 0.8927217008 -0.673085417
| 18> S -0.8738112343 1.2917808684 -1.9035292756
| 19> O -3.4978714305 1.9561854675 -0.792680417
| 20> C -4.8728939707 1.7538935882 -0.3770729691
| 21> C -4.9953203693 1.4829148786 1.1065479372
| 22> O -3.1264359586 -0.4609428858 -0.9651799253
| 23> C -2.4842520074 -1.7368300986 -1.1469237874
| 24> C -2.5155745047 -2.5472469089 0.1339766258
| 25> H 4.0099005146 -0.2468596111 -3.2990943598
| 26> H 4.0036366929 -1.7134079865 -2.3105539821
| 27> H 3.1016970212 -1.669729077 -3.8368012315
| 28> H 1.5735497285 -1.4238523832 -1.8688565525
| 29> H 1.5529154855 0.03903991 -2.8905691783
| 30> H 4.5413798495 -3.0538516324 0.9967526249
| 31> H 4.6519859292 -1.50654381 1.8887386372
| 32> H 2.1876909609 -3.3185719263 1.9095838652
| 33> H 3.4203195221 -3.2846317076 3.1844179337
| 34> H 2.4346155504 -1.8514161517 2.8690752489
| 35> H 0.2948059215 1.5180334997 0.4155760366
| 36> H 0.4315216868 1.1107885526 2.1615359754
| 37> H -5.3553315259 2.6911557849 -0.6581300698
| 38> H -5.2859778763 0.9308417649 -0.9625653503
| 39> H -6.046693958 1.4176760932 1.3689286542
| 40> H -4.5070093576 0.5440209967 1.3616224987
| 41> H -4.5318971419 2.2816728196 1.6798621354
| 42> H -3.0607644997 -2.2226422065 -1.9365453089
| 43> H -1.4589594824 -1.5753217001 -1.493874822
| 44> H -1.9111239171 -2.0727343738 0.9039059329
| 45> H -3.5374572894 -2.6407491832 0.4899846857
| 46> H -2.1128219983 -3.5348913522 -0.0640243341
| 47> *
| 48>
| 49>                          ****END OF INPUT****

CARTESIAN COORDINATES (ANGSTROEM)
---------------------------------
  C      3.407554   -1.089860   -2.971810
  C      2.173182   -0.592354   -2.250143
  O      2.545265    0.263263   -1.142414
  P      2.569356   -0.233134    0.354167
  S      3.287407    1.133602    1.551744
  O      3.383091   -1.595054    0.263285
  C      3.972742   -2.223598    1.418013
  C      2.932317   -2.703474    2.408603
  S      0.577594   -0.845422    0.758192
  C     -0.006291    0.827008    1.206285
  S     -1.788501    0.875476    1.397573
  P     -2.346149    0.892722   -0.673085
  S     -0.873811    1.291781   -1.903529
  O     -3.497871    1.956185   -0.792680
  C     -4.872894    1.753894   -0.377073
  C     -4.995320    1.482915    1.106548
  O     -3.126436   -0.460943   -0.965180
  C     -2.484252   -1.736830   -1.146924
  C     -2.515575   -2.547247    0.133977
  H      4.009901   -0.246860   -3.299094
  H      4.003637   -1.713408   -2.310554
  H      3.101697   -1.669729   -3.836801
  H      1.573550   -1.423852   -1.868857
  H      1.552915    0.039040   -2.890569
  H      4.541380   -3.053852    0.996753
  H      4.651986   -1.506544    1.888739
  H      2.187691   -3.318572    1.909584
  H      3.420320   -3.284632    3.184418
  H      2.434616   -1.851416    2.869075
  H      0.294806    1.518033    0.415576
  H      0.431522    1.110789    2.161536
  H     -5.355332    2.691156   -0.658130
  H     -5.285978    0.930842   -0.962565
  H     -6.046694    1.417676    1.368929
  H     -4.507009    0.544021    1.361622
  H     -4.531897    2.281673    1.679862
  H     -3.060764   -2.222642   -1.936545
  H     -1.458959   -1.575322   -1.493875
  H     -1.911124   -2.072734    0.903906
  H     -3.537457   -2.640749    0.489985
  H     -2.112822   -3.534891   -0.064024

 Total Charge           Charge          ....    0
 Multiplicity           Mult            ....    1
 Number of Electrons    NEL             ....  202
 Basis Dimension        Dim             ....  334

ORBITAL ENERGIES
----------------

  NO   OCC          E(Eh)            E(eV)
   0   2.0000     -88.049170     -2395.9397
   1   2.0000     -88.039403     -2395.6739
   2   2.0000     -87.986802     -2394.2426
   3   2.0000     -87.982726     -2394.1317
   4   2.0000     -76.429747     -2079.7592
   5   2.0000     -76.423856     -2079.5989
   6   2.0000     -18.796534      -511.4797
   7   2.0000     -18.795252      -511.4448
   8   2.0000     -18.795144      -511.4419
   9   2.0000     -18.785826      -511.1883
  10   2.0000      -9.962331      -271.0888
  11   2.0000      -9.957036      -270.9447
  12   2.0000      -9.955669      -270.9075
  13   2.0000      -9.950169      -270.7579
  14   2.0000      -9.947801      -270.6934
  15   2.0000      -9.896109      -269.2868
  16   2.0000      -9.887597      -269.0552
  17   2.0000      -9.886169      -269.0163
  18   2.0000      -9.881380      -268.8860
  19   2.0000      -7.693664      -209.3553
  20   2.0000      -7.684022      -209.0929
  21   2.0000      -7.631718      -207.6696
  22   2.0000      -7.628074      -207.5704
  23   2.0000      -6.427274      -174.8950
  24   2.0000      -6.421375      -174.7345
  25   2.0000      -5.721554      -155.6914
  26   2.0000      -5.718122      -155.5980
  27   2.0000      -5.711756      -155.4248
  28   2.0000      -5.710804      -155.3989
  29   2.0000      -5.708778      -155.3437
  30   2.0000      -5.700979      -155.1315
  31   2.0000      -5.660766      -154.0373
  32   2.0000      -5.657107      -153.9377
  33   2.0000      -5.652134      -153.8024
  34   2.0000      -5.651925      -153.7967
  35   2.0000      -5.648575      -153.7055
  36   2.0000      -5.648205      -153.6955
  37   2.0000      -4.650178      -126.5378
  38   2.0000      -4.648875      -126.5023
  39   2.0000      -4.647574      -126.4669
  40   2.0000      -4.644303      -126.3779
  41   2.0000      -4.643088      -126.3448
  42   2.0000      -4.641572      -126.3036
  43   2.0000      -0.992946       -27.0194
  44   2.0000      -0.986883       -26.8544
  45   2.0000      -0.948202       -25.8019
  46   2.0000      -0.943258       -25.6674
  47   2.0000      -0.763018       -20.7628
  48   2.0000      -0.723806       -19.6958
  49   2.0000      -0.712311       -19.3830
  50   2.0000      -0.696639       -18.9565
  51   2.0000      -0.690066       -18.7777
  52   2.0000      -0.677910       -18.4469
  53   2.0000      -0.650499       -17.7010
  54   2.0000      -0.635474       -17.2921
  55   2.0000      -0.601549       -16.3690
  56   2.0000      -0.592937       -16.1346
  57   2.0000      -0.582900       -15.8615
  58   2.0000      -0.570252       -15.5174
  59   2.0000      -0.557120       -15.1600
  60   2.0000      -0.503749       -13.7077
  61   2.0000      -0.498773       -13.5723
  62   2.0000      -0.479175       -13.0390
  63   2.0000      -0.473744       -12.8912
  64   2.0000      -0.455490       -12.3945
  65   2.0000      -0.450846       -12.2681
  66   2.0000      -0.446262       -12.1434
  67   2.0000      -0.438544       -11.9334
  68   2.0000      -0.430040       -11.7020
  69   2.0000      -0.424224       -11.5437
  70   2.0000      -0.414979       -11.2922
  71   2.0000      -0.397837       -10.8257
  72   2.0000      -0.394620       -10.7382
  73   2.0000      -0.390381       -10.6228
  74   2.0000      -0.382387       -10.4053
  75   2.0000      -0.370144       -10.0721
  76   2.0000      -0.364470        -9.9177
  77   2.0000      -0.364008        -9.9052
  78   2.0000      -0.356356        -9.6969
  79   2.0000      -0.354013        -9.6332
  80   2.0000      -0.352100        -9.5811
  81   2.0000      -0.348795        -9.4912
  82   2.0000      -0.342905        -9.3309
  83   2.0000      -0.339669        -9.2429
  84   2.0000      -0.337922        -9.1953
  85   2.0000      -0.320713        -8.7271
  86   2.0000      -0.311728        -8.4825
  87   2.0000      -0.302355        -8.2275
  88   2.0000      -0.298491        -8.1223
  89   2.0000      -0.295393        -8.0381
  90   2.0000      -0.291109        -7.9215
  91   2.0000      -0.280190        -7.6244
  92   2.0000      -0.268935        -7.3181
  93   2.0000      -0.261574        -7.1178
  94   2.0000      -0.261065        -7.1039
  95   2.0000      -0.233242        -6.3468
  96   2.0000      -0.220869        -6.0102
  97   2.0000      -0.205761        -5.5990
  98   2.0000      -0.204206        -5.5567
  99   2.0000      -0.203103        -5.5267
 100   2.0000      -0.194703        -5.2981
 101   0.0000      -0.046530        -1.2661
 102   0.0000      -0.033065        -0.8997
 103   0.0000      -0.009489        -0.2582
 104   0.0000       0.000985         0.0268
 105   0.0000       0.010157         0.2764

MULLIKEN ATOMIC CHARGES
-----------------------
   0 C :   -0.280007
   1 C :   -0.022762
   2 O :   -0.350403
   3 P :    0.603290
   4 S :   -0.318622
   5 O :   -0.382300
   6 C :   -0.001134
   7 C :   -0.317913
   8 S :   -0.126474
   9 C :   -0.326376
  10 S :   -0.123173
  11 P :    0.614483
  12 S :   -0.306014
  13 O :   -0.360240
  14 C :    0.006569
  15 C :   -0.340449
  16 O :   -0.383750
  17 C :   -0.012460
  18 C :   -0.304256
  19 H :    0.120286
  20 H :    0.114952
  21 H :    0.106927
  22 H :    0.100096
  23 H :    0.124984
  24 H :    0.104985
  25 H :    0.114665
  26 H :    0.115358
  27 H :    0.114486
  28 H :    0.130455
  29 H :    0.206183
  30 H :    0.187825
  31 H :    0.114664
  32 H :    0.112709
  33 H :    0.120771
  34 H :    0.133136
  35 H :    0.133479
  36 H :    0.106316
  37 H :    0.114170
  38 H :    0.134759
  39 H :    0.111891
  40 H :    0.108893
Sum of atomic charges:    0.0000000

LOEWDIN ATOMIC CHARGES
----------------------
   0 C :   -0.358120
   1 C :   -0.117193
   2 O :   -0.231630
   3 P :    0.573114
   4 S :   -0.312879
   5 O :   -0.247909
   6 C :   -0.115486
   7 C :   -0.371596
   8 S :    0.063385
   9 C :   -0.483277
  10 S :    0.084100
  11 P :    0.570667
  12 S :   -0.292167
  13 O :   -0.235037
  14 C :   -0.107525
  15 C :   -0.372971
  16 O :   -0.248239
  17 C :   -0.117708
  18 C :   -0.364881
  19 H :    0.129098
  20 H :    0.123938
  21 H :    0.128372
  22 H :    0.100847
  23 H :    0.118259
  24 H :    0.118467
  25 H :    0.114457
  26 H :    0.122383
  27 H :    0.131787
  28 H :    0.122468
  29 H :    0.125685
  30 H :    0.133204
  31 H :    0.124771
  32 H :    0.115966
  33 H :    0.135445
  34 H :    0.118087
  35 H :    0.130415
  36 H :    0.119094
  37 H :    0.106215
  38 H :    0.112068
  39 H :    0.124052
  40 H :    0.130274

  Mayer bond orders larger than 0.100000
B(  0-C ,  1-C ) :   1.1599 B(  0-C , 19-H ) :   0.9470 B(  0-C , 20-H ) :   0.9434
B(  0-C , 21-H ) :   0.9408 B(  1-C ,  2-O ) :   0.8898 B(  1-C , 22-H ) :   0.9131
B(  1-C , 23-H ) :   0.9266 B(  2-O ,  3-P ) :   1.1462 B(  3-P ,  4-S ) :   1.6300
B(  3-P ,  5-O ) :   1.0808 B(  3-P ,  8-S ) :   0.9592 B(  4-S ,  8-S ) :   0.1092
B(  5-O ,  6-C ) :   0.9050 B(  6-C ,  7-C ) :   1.1667 B(  6-C , 24-H ) :   0.9343
B(  6-C , 25-H ) :   0.9191 B(  7-C , 26-H ) :   0.9438 B(  7-C , 27-H ) :   0.9367
B(  7-C , 28-H ) :   0.9336 B(  8-S ,  9-C ) :   0.9679 B(  9-C , 10-S ) :   1.0216
B(  9-C , 29-H ) :   0.8607 B(  9-C , 30-H ) :   0.8897 B( 10-S , 11-P ) :   0.9233
B( 10-S , 12-S ) :   0.1148 B( 11-P , 12-S ) :   1.6564 B( 11-P , 13-O ) :   1.1485
B( 11-P , 16-O ) :   1.0739 B( 13-O , 14-C ) :   0.8969 B( 14-C , 15-C ) :   1.1694
B( 14-C , 31-H ) :   0.9333 B( 14-C , 32-H ) :   0.9271 B( 15-C , 33-H ) :   0.9350
B( 15-C , 34-H ) :   0.9304 B( 15-C , 35-H ) :   0.9412 B( 16-O , 17-C ) :   0.9038
B( 17-C , 18-C ) :   1.1698 B( 17-C , 36-H ) :   0.9346 B( 17-C , 37-H ) :   0.9035
B( 18-C , 38-H ) :   0.9269 B( 18-C , 39-H ) :   0.9452 B( 18-C , 40-H ) :   0.9399

Dispersion correction           -0.064664043
FINAL SINGLE POINT ENERGY     -2929.515208441602

DIPOLE MOMENT
-------------

Method             : SCF
Type of density    : Electron Density
Multiplicity       :   1
Irrep              :   0
Energy             : -2929.6362815810421125 Eh
Relativity type    :
Basis              : AO
                                X                 Y                 Z
Electronic contribution:      4.224144923      17.213326242      -0.034173166
Nuclear contribution   :     -5.502090866     -19.029258373       0.108278163
                        -----------------------------------------
Total Dipole Moment    :     -1.277945942      -1.815932131       0.074104996
                        -----------------------------------------
Magnitude (a.u.)       :      2.221766614
Magnitude (Debye)      :      5.647281935

Rotational constants in cm-1:             0.013179             0.004499             0.004320
Rotational constants in MHz :           395.105470           134.880936           129.515723

                             ****ORCA TERMINATED NORMALLY****
TOTAL RUN TIME: 0 days 0 hours 0 minutes 21 seconds 158 msec
