                         Program Version 6.0.0  -   RELEASE  -
|  1> ! pbe def2-sv(p) def2/J RI DEFGRID1 loosescf d4 GCP(DFT/SV(P)) printgap
|  2> %output
|  3>     printlevel normal
|  4> end
|  5> * xyz 0 1
|  6> C 2.1360186015 -0.5815770212 -3.0869263066
|  7> C 2.7168637918 0.5154196199 -2.2176320889
|  8> O 3.1294691171 -0.0103694268 -0.9414549006
|  9> P 2.2634436425 0.0790822867 0.3849923361
| 10> S 1.6688512065 1.8677979812 0.9045826397
| 11> O 3.2518530102 -0.4985395389 1.4655062447
| 12> C 4.0208424665 -1.7219696277 1.3069379597
| 13> C 3.45609682 -2.8246030878 2.180661152
| 14> S 0.8015334041 -1.4598523285 0.1191751714
| 15> C -0.0311393834 -1.3003073288 1.7121582847
| 16> S -1.1534118323 0.1386335944 1.8640503953
| 17> P -1.925507356 0.264568999 -0.1009882425
| 18> S -0.8760372027 1.0247352812 -1.5804907847
| 19> O -3.2703964812 1.0703591325 0.1616181677
| 20> C -3.3178080693 2.5071020866 0.2301299287
| 21> C -4.7386813835 2.9432749617 -0.0657122743
| 22> O -2.4328381766 -1.2177789751 -0.2874710264
| 23> C -2.6750372755 -1.7894437067 -1.5920182945
| 24> C -3.9037029412 -1.1878929453 -2.2391958972
| 25> H 1.9072446544 -0.171005234 -4.0648124171
| 26> H 2.8470783366 -1.3960199908 -3.1901405273
| 27> H 1.2172680211 -0.9635377231 -2.6471527173
| 28> H 1.991698402 1.3200416477 -2.0610295538
| 29> H 3.6286874941 0.9279027454 -2.6530500465
| 30> H 4.0260325768 -2.0071405 0.2541483975
| 31> H 5.0300625817 -1.448341355 1.6180809283
| 32> H 3.3663979362 -2.4780139927 3.2066806767
| 33> H 2.4794318648 -3.1393441611 1.8219554159
| 34> H 4.131724482 -3.6736669084 2.1516965353
| 35> H 0.7051803893 -1.1840402116 2.506436131
| 36> H -0.617927723 -2.2065838702 1.8427081988
| 37> H -3.0056335035 2.8113629221 1.2333704643
| 38> H -2.6101669555 2.918413899 -0.4989299267
| 39> H -5.0205208899 2.6455324236 -1.071730836
| 40> H -5.4201404559 2.4826788575 0.6435003361
| 41> H -4.8032240964 4.02296478 0.0201199493
| 42> H -1.7889887858 -1.6239436388 -2.2128637839
| 43> H -2.7967095054 -2.8541589281 -1.3909332734
| 44> H -3.7307567205 -0.1313024797 -2.4403795979
| 45> H -4.1055933636 -1.697795168 -3.1758153752
| 46> H -4.7615090114 -1.2837228574 -1.5790799404
| 47> *
| 48>
| 49>                          ****END OF INPUT****

CARTESIAN COORDINATES (ANGSTROEM)
---------------------------------
  C      2.136019   -0.581577   -3.086926
  C      2.716864    0.515420   -2.217632
  O      3.129469   -0.010369   -0.941455
  P      2.263444    0.079082    0.384992
  S      1.668851    1.867798    0.904583
  O      3.251853   -0.498540    1.465506
  C      4.020842   -1.721970    1.306938
  C      3.456097   -2.824603    2.180661
  S      0.801533   -1.459852    0.119175
  C     -0.031139   -1.300307    1.712158
  S     -1.153412    0.138634    1.864050
  P     -1.925507    0.264569   -0.100988
  S     -0.876037    1.024735   -1.580491
  O     -3.270396    1.070359    0.161618
  C     -3.317808    2.507102    0.230130
  C     -4.738681    2.943275   -0.065712
  O     -2.432838   -1.217779   -0.287471
  C     -2.675037   -1.789444   -1.592018
  C     -3.903703   -1.187893   -2.239196
  H      1.907245   -0.171005   -4.064812
  H      2.847078   -1.396020   -3.190141
  H      1.217268   -0.963538   -2.647153
  H      1.991698    1.320042   -2.061030
  H      3.628687    0.927903   -2.653050
  H      4.026033   -2.007141    0.254148
  H      5.030063   -1.448341    1.618081
  H      3.366398   -2.478014    3.206681
  H      2.479432   -3.139344    1.821955
  H      4.131724   -3.673667    2.151697
  H      0.705180   -1.184040    2.506436
  H     -0.617928   -2.206584    1.842708
  H     -3.005634    2.811363    1.233370
  H     -2.610167    2.918414   -0.498930
  H     -5.020521    2.645532   -1.071731
  H     -5.420140    2.482679    0.643500
  H     -4.803224    4.022965    0.020120
  H     -1.788989   -1.623944   -2.212864
  H     -2.796710   -2.854159   -1.390933
  H     -3.730757   -0.131302   -2.440380
  H     -4.105593   -1.697795   -3.175815
  H     -4.761509   -1.283723   -1.579080

 Total Charge           Charge          ....    0
 Multiplicity           Mult            ....    1
 Number of Electrons    NEL             ....  202
 Basis Dimension        Dim             ....  334

ORBITAL ENERGIES
----------------

  NO   OCC          E(Eh)            E(eV)
   0   2.0000     -88.043420     -2395.7833
   1   2.0000     -88.031799     -2395.4670
   2   2.0000     -87.979446     -2394.0424
   3   2.0000     -87.971414     -2393.8239
   4   2.0000     -76.422496     -2079.5618
   5   2.0000     -76.420320     -2079.5026
   6   2.0000     -18.791594      -511.3453
   7   2.0000     -18.789795      -511.2963
   8   2.0000     -18.788284      -511.2552
   9   2.0000     -18.786647      -511.2107
  10   2.0000      -9.959027      -270.9989
  11   2.0000      -9.955644      -270.9068
  12   2.0000      -9.951697      -270.7994
  13   2.0000      -9.947320      -270.6803
  14   2.0000      -9.947186      -270.6767
  15   2.0000      -9.889449      -269.1056
  16   2.0000      -9.884284      -268.9650
  17   2.0000      -9.883148      -268.9341
  18   2.0000      -9.880482      -268.8616
  19   2.0000      -7.687528      -209.1883
  20   2.0000      -7.677263      -208.9089
  21   2.0000      -7.624244      -207.4662
  22   2.0000      -7.616703      -207.2610
  23   2.0000      -6.419722      -174.6895
  24   2.0000      -6.417574      -174.6311
  25   2.0000      -5.715288      -155.5209
  26   2.0000      -5.712053      -155.4329
  27   2.0000      -5.705496      -155.2544
  28   2.0000      -5.704680      -155.2322
  29   2.0000      -5.701886      -155.1562
  30   2.0000      -5.693680      -154.9329
  31   2.0000      -5.653006      -153.8261
  32   2.0000      -5.645982      -153.6350
  33   2.0000      -5.644853      -153.6043
  34   2.0000      -5.644562      -153.5963
  35   2.0000      -5.637272      -153.3980
  36   2.0000      -5.636542      -153.3781
  37   2.0000      -4.642382      -126.3256
  38   2.0000      -4.641622      -126.3049
  39   2.0000      -4.640582      -126.2767
  40   2.0000      -4.640019      -126.2613
  41   2.0000      -4.639442      -126.2456
  42   2.0000      -4.637539      -126.1939
  43   2.0000      -0.984727       -26.7958
  44   2.0000      -0.984293       -26.7840
  45   2.0000      -0.944248       -25.6943
  46   2.0000      -0.941108       -25.6089
  47   2.0000      -0.760242       -20.6872
  48   2.0000      -0.718289       -19.5456
  49   2.0000      -0.709779       -19.3141
  50   2.0000      -0.687889       -18.7184
  51   2.0000      -0.686736       -18.6870
  52   2.0000      -0.667479       -18.1630
  53   2.0000      -0.647076       -17.6078
  54   2.0000      -0.631184       -17.1754
  55   2.0000      -0.594769       -16.1845
  56   2.0000      -0.583925       -15.8894
  57   2.0000      -0.575480       -15.6596
  58   2.0000      -0.563425       -15.3316
  59   2.0000      -0.562282       -15.3005
  60   2.0000      -0.503126       -13.6908
  61   2.0000      -0.497631       -13.5412
  62   2.0000      -0.477777       -13.0010
  63   2.0000      -0.475301       -12.9336
  64   2.0000      -0.457976       -12.4622
  65   2.0000      -0.442044       -12.0286
  66   2.0000      -0.439773       -11.9668
  67   2.0000      -0.431814       -11.7503
  68   2.0000      -0.427366       -11.6292
  69   2.0000      -0.411161       -11.1883
  70   2.0000      -0.403500       -10.9798
  71   2.0000      -0.395975       -10.7750
  72   2.0000      -0.393748       -10.7144
  73   2.0000      -0.379223       -10.3192
  74   2.0000      -0.376251       -10.2383
  75   2.0000      -0.371375       -10.1056
  76   2.0000      -0.364873        -9.9287
  77   2.0000      -0.358719        -9.7612
  78   2.0000      -0.355563        -9.6754
  79   2.0000      -0.354179        -9.6377
  80   2.0000      -0.347949        -9.4682
  81   2.0000      -0.347048        -9.4436
  82   2.0000      -0.340848        -9.2749
  83   2.0000      -0.335744        -9.1360
  84   2.0000      -0.326471        -8.8837
  85   2.0000      -0.317535        -8.6406
  86   2.0000      -0.311960        -8.4889
  87   2.0000      -0.299467        -8.1489
  88   2.0000      -0.295391        -8.0380
  89   2.0000      -0.286705        -7.8016
  90   2.0000      -0.283396        -7.7116
  91   2.0000      -0.274110        -7.4589
  92   2.0000      -0.267949        -7.2913
  93   2.0000      -0.256465        -6.9788
  94   2.0000      -0.255827        -6.9614
  95   2.0000      -0.243863        -6.6359
  96   2.0000      -0.220578        -6.0022
  97   2.0000      -0.204275        -5.5586
  98   2.0000      -0.189130        -5.1465
  99   2.0000      -0.179240        -4.8774
 100   2.0000      -0.177057        -4.8180
 101   0.0000      -0.048410        -1.3173
 102   0.0000      -0.024595        -0.6693
 103   0.0000      -0.012387        -0.3371
 104   0.0000       0.005248         0.1428
 105   0.0000       0.021326         0.5803

MULLIKEN ATOMIC CHARGES
-----------------------
   0 C :   -0.315611
   1 C :   -0.008903
   2 O :   -0.381952
   3 P :    0.602201
   4 S :   -0.285832
   5 O :   -0.363733
   6 C :   -0.007952
   7 C :   -0.299454
   8 S :   -0.132955
   9 C :   -0.322391
  10 S :   -0.087261
  11 P :    0.626180
  12 S :   -0.329391
  13 O :   -0.376440
  14 C :   -0.012223
  15 C :   -0.283366
  16 O :   -0.370767
  17 C :   -0.010310
  18 C :   -0.304954
  19 H :    0.111181
  20 H :    0.107773
  21 H :    0.142854
  22 H :    0.125438
  23 H :    0.104418
  24 H :    0.107171
  25 H :    0.111597
  26 H :    0.120636
  27 H :    0.119834
  28 H :    0.111343
  29 H :    0.185748
  30 H :    0.186002
  31 H :    0.105012
  32 H :    0.109667
  33 H :    0.117713
  34 H :    0.116227
  35 H :    0.111779
  36 H :    0.117879
  37 H :    0.101560
  38 H :    0.123723
  39 H :    0.110420
  40 H :    0.117138
Sum of atomic charges:   -0.0000000

LOEWDIN ATOMIC CHARGES
----------------------
   0 C :   -0.365437
   1 C :   -0.115049
   2 O :   -0.245561
   3 P :    0.560492
   4 S :   -0.297986
   5 O :   -0.242008
   6 C :   -0.112007
   7 C :   -0.362567
   8 S :    0.073430
   9 C :   -0.469703
  10 S :    0.076261
  11 P :    0.568115
  12 S :   -0.312995
  13 O :   -0.248550
  14 C :   -0.120644
  15 C :   -0.350802
  16 O :   -0.241479
  17 C :   -0.118329
  18 C :   -0.364476
  19 H :    0.131697
  20 H :    0.121410
  21 H :    0.117738
  22 H :    0.112280
  23 H :    0.118307
  24 H :    0.110448
  25 H :    0.122414
  26 H :    0.127611
  27 H :    0.118382
  28 H :    0.130713
  29 H :    0.132636
  30 H :    0.134936
  31 H :    0.112295
  32 H :    0.108276
  33 H :    0.126795
  34 H :    0.126492
  35 H :    0.130703
  36 H :    0.110081
  37 H :    0.117010
  38 H :    0.122596
  39 H :    0.129747
  40 H :    0.126730

  Mayer bond orders larger than 0.100000
B(  0-C ,  1-C ) :   1.1711 B(  0-C , 19-H ) :   0.9401 B(  0-C , 20-H ) :   0.9463
B(  0-C , 21-H ) :   0.9280 B(  1-C ,  2-O ) :   0.8982 B(  1-C , 22-H ) :   0.9040
B(  1-C , 23-H ) :   0.9345 B(  2-O ,  3-P ) :   1.0965 B(  3-P ,  4-S ) :   1.7156
B(  3-P ,  5-O ) :   1.1176 B(  3-P ,  8-S ) :   0.9094 B(  4-S ,  8-S ) :   0.1156
B(  5-O ,  6-C ) :   0.8955 B(  6-C ,  7-C ) :   1.1654 B(  6-C , 24-H ) :   0.9175
B(  6-C , 25-H ) :   0.9352 B(  7-C , 26-H ) :   0.9448 B(  7-C , 27-H ) :   0.9350
B(  7-C , 28-H ) :   0.9397 B(  8-S ,  9-C ) :   1.0053 B(  9-C , 10-S ) :   0.9868
B(  9-C , 29-H ) :   0.8983 B(  9-C , 30-H ) :   0.9093 B( 10-S , 11-P ) :   0.9850
B( 10-S , 12-S ) :   0.1147 B( 11-P , 12-S ) :   1.5926 B( 11-P , 13-O ) :   1.1049
B( 11-P , 16-O ) :   1.1183 B( 13-O , 14-C ) :   0.9064 B( 14-C , 15-C ) :   1.1598
B( 14-C , 31-H ) :   0.9309 B( 14-C , 32-H ) :   0.9058 B( 15-C , 33-H ) :   0.9517
B( 15-C , 34-H ) :   0.9506 B( 15-C , 35-H ) :   0.9420 B( 16-O , 17-C ) :   0.8994
B( 17-C , 18-C ) :   1.1663 B( 17-C , 36-H ) :   0.9130 B( 17-C , 37-H ) :   0.9342
B( 18-C , 38-H ) :   0.9337 B( 18-C , 39-H ) :   0.9389 B( 18-C , 40-H ) :   0.9461

Dispersion correction           -0.067008554
FINAL SINGLE POINT ENERGY     -2929.510712457171

DIPOLE MOMENT
-------------

Method             : SCF
Type of density    : Electron Density
Multiplicity       :   1
Irrep              :   0
Energy             : -2929.6270362370723888 Eh
Relativity type    :
Basis              : AO
                                X                 Y                 Z
Electronic contribution:      6.985944555       7.480814224      10.805228823
Nuclear contribution   :     -7.181810068      -8.927505337     -11.250326200
                        -----------------------------------------
Total Dipole Moment    :     -0.195865513      -1.446691113      -0.445097377
                        -----------------------------------------
Magnitude (a.u.)       :      1.526233976
Magnitude (Debye)      :      3.879378469

Rotational constants in cm-1:             0.012354             0.005154             0.005058
Rotational constants in MHz :           370.357019           154.517759           151.628358

                             ****ORCA TERMINATED NORMALLY****
TOTAL RUN TIME: 0 days 0 hours 0 minutes 21 seconds 56 msec
