                         Program Version 6.0.0  -   RELEASE  -
|  1> ! pbe def2-sv(p) def2/J RI DEFGRID1 loosescf d4 GCP(DFT/SV(P)) printgap
|  2> %output
|  3>     printlevel normal
|  4> end
|  5> * xyz 0 1
|  6> C -3.9806698277 -0.6950194865 0.0009850252
|  7> C -3.9806802376 0.6950062742 0.0016968114
|  8> C -2.784932151 1.3826232228 0.0011738833
|  9> C -1.5685323929 0.6986279268 -1.46217e-05
| 10> C -1.5685196902 -0.6986060669 -0.0006140782
| 11> C -2.7849123316 -1.3826239966 -0.0002451682
| 12> C -0.3138949593 -1.4613323662 -0.0011388879
| 13> O -0.3655465831 -2.7101400524 -0.0021317242
| 14> C 0.9229922217 -0.7159126692 -0.000201829
| 15> C 2.1536783197 -1.4160277395 0.0005145663
| 16> C 3.3681287995 -0.6768673955 0.0014565463
| 17> C 3.3681289003 0.6768455184 0.0011675531
| 18> C 2.1536889795 1.4160125676 8.53152e-05
| 19> C 0.9229783491 0.7159161851 -0.0003013779
| 20> C -0.3139061642 1.4613556561 -0.000731027
| 21> O -0.3655328294 2.7101615891 -0.0015219328
| 22> N 2.2271852365 2.752427993 -0.000621056
| 23> N 2.2271475569 -2.7524473152 0.0010019435
| 24> H -4.9142881584 -1.2360590619 0.0012436969
| 25> H -4.9143035804 1.2360301529 0.0028496067
| 26> H -2.7583037225 2.4625887566 0.0017728132
| 27> H -2.7582927635 -2.4625920911 -0.0007605474
| 28> H 4.2974235709 -1.2257055829 0.0023322351
| 29> H 4.2974301519 1.2256825684 0.0016093274
| 30> H 3.1235138912 3.206194024 -0.000131878
| 31> H 1.3590887369 3.2751684977 -0.0012496553
| 32> H 1.3590070773 -3.2751171173 -0.0006691367
| 33> H 3.1234544366 -3.2062352658 3.46453e-05
| 34> *
| 35>
| 36>                          ****END OF INPUT****

CARTESIAN COORDINATES (ANGSTROEM)
---------------------------------
  C     -3.980670   -0.695019    0.000985
  C     -3.980680    0.695006    0.001697
  C     -2.784932    1.382623    0.001174
  C     -1.568532    0.698628   -0.000015
  C     -1.568520   -0.698606   -0.000614
  C     -2.784912   -1.382624   -0.000245
  C     -0.313895   -1.461332   -0.001139
  O     -0.365547   -2.710140   -0.002132
  C      0.922992   -0.715913   -0.000202
  C      2.153678   -1.416028    0.000515
  C      3.368129   -0.676867    0.001457
  C      3.368129    0.676846    0.001168
  C      2.153689    1.416013    0.000085
  C      0.922978    0.715916   -0.000301
  C     -0.313906    1.461356   -0.000731
  O     -0.365533    2.710162   -0.001522
  N      2.227185    2.752428   -0.000621
  N      2.227148   -2.752447    0.001002
  H     -4.914288   -1.236059    0.001244
  H     -4.914304    1.236030    0.002850
  H     -2.758304    2.462589    0.001773
  H     -2.758293   -2.462592   -0.000761
  H      4.297424   -1.225706    0.002332
  H      4.297430    1.225683    0.001609
  H      3.123514    3.206194   -0.000132
  H      1.359089    3.275168   -0.001250
  H      1.359007   -3.275117   -0.000669
  H      3.123454   -3.206235    0.000035

 Total Charge           Charge          ....    0
 Multiplicity           Mult            ....    1
 Number of Electrons    NEL             ....  124
 Basis Dimension        Dim             ....  272

ORBITAL ENERGIES
----------------

  NO   OCC          E(Eh)            E(eV)
   0   2.0000     -18.727863      -509.6111
   1   2.0000     -18.727850      -509.6107
   2   2.0000     -14.005613      -381.1121
   3   2.0000     -14.005599      -381.1117
   4   2.0000      -9.960419      -271.0368
   5   2.0000      -9.960254      -271.0323
   6   2.0000      -9.949386      -270.7365
   7   2.0000      -9.949228      -270.7323
   8   2.0000      -9.910197      -269.6702
   9   2.0000      -9.909792      -269.6591
  10   2.0000      -9.902457      -269.4596
  11   2.0000      -9.902350      -269.4566
  12   2.0000      -9.900026      -269.3934
  13   2.0000      -9.899839      -269.3883
  14   2.0000      -9.894907      -269.2541
  15   2.0000      -9.894688      -269.2481
  16   2.0000      -9.891189      -269.1529
  17   2.0000      -9.891058      -269.1494
  18   2.0000      -0.921519       -25.0758
  19   2.0000      -0.918541       -24.9948
  20   2.0000      -0.855586       -23.2817
  21   2.0000      -0.847644       -23.0656
  22   2.0000      -0.783407       -21.3176
  23   2.0000      -0.759456       -20.6659
  24   2.0000      -0.717582       -19.5264
  25   2.0000      -0.676388       -18.4054
  26   2.0000      -0.675069       -18.3696
  27   2.0000      -0.655493       -17.8369
  28   2.0000      -0.604187       -16.4408
  29   2.0000      -0.586592       -15.9620
  30   2.0000      -0.573368       -15.6021
  31   2.0000      -0.540364       -14.7041
  32   2.0000      -0.516263       -14.0482
  33   2.0000      -0.509961       -13.8767
  34   2.0000      -0.506888       -13.7931
  35   2.0000      -0.477301       -12.9880
  36   2.0000      -0.465063       -12.6550
  37   2.0000      -0.447466       -12.1762
  38   2.0000      -0.429585       -11.6896
  39   2.0000      -0.421578       -11.4717
  40   2.0000      -0.408878       -11.1261
  41   2.0000      -0.402487       -10.9522
  42   2.0000      -0.393428       -10.7057
  43   2.0000      -0.375144       -10.2082
  44   2.0000      -0.375084       -10.2066
  45   2.0000      -0.372321       -10.1314
  46   2.0000      -0.361171        -9.8280
  47   2.0000      -0.355033        -9.6609
  48   2.0000      -0.350313        -9.5325
  49   2.0000      -0.342944        -9.3320
  50   2.0000      -0.338439        -9.2094
  51   2.0000      -0.315686        -8.5903
  52   2.0000      -0.311764        -8.4835
  53   2.0000      -0.309968        -8.4347
  54   2.0000      -0.296482        -8.0677
  55   2.0000      -0.246860        -6.7174
  56   2.0000      -0.239472        -6.5164
  57   2.0000      -0.229227        -6.2376
  58   2.0000      -0.227709        -6.1963
  59   2.0000      -0.204335        -5.5602
  60   2.0000      -0.195289        -5.3141
  61   2.0000      -0.162943        -4.4339
  62   0.0000      -0.111431        -3.0322
  63   0.0000      -0.064758        -1.7621
  64   0.0000      -0.043990        -1.1970
  65   0.0000      -0.013921        -0.3788
  66   0.0000       0.026678         0.7260

MULLIKEN ATOMIC CHARGES
-----------------------
   0 C :   -0.020892
   1 C :   -0.020892
   2 C :   -0.131487
   3 C :    0.046473
   4 C :    0.046481
   5 C :   -0.131489
   6 C :    0.046346
   7 O :   -0.236851
   8 C :    0.047141
   9 C :    0.021885
  10 C :   -0.122297
  11 C :   -0.122287
  12 C :    0.021885
  13 C :    0.047129
  14 C :    0.046365
  15 O :   -0.236843
  16 N :   -0.257619
  17 N :   -0.257610
  18 H :    0.056252
  19 H :    0.056251
  20 H :    0.053463
  21 H :    0.053465
  22 H :    0.029376
  23 H :    0.029379
  24 H :    0.217536
  25 H :    0.250653
  26 H :    0.250653
  27 H :    0.217532
Sum of atomic charges:    0.0000000

LOEWDIN ATOMIC CHARGES
----------------------
   0 C :   -0.112026
   1 C :   -0.112026
   2 C :   -0.090557
   3 C :   -0.046970
   4 C :   -0.046968
   5 C :   -0.090556
   6 C :    0.049090
   7 O :   -0.197220
   8 C :   -0.089712
   9 C :    0.018544
  10 C :   -0.123501
  11 C :   -0.123501
  12 C :    0.018545
  13 C :   -0.089710
  14 C :    0.049089
  15 O :   -0.197216
  16 N :   -0.266045
  17 N :   -0.266051
  18 H :    0.125671
  19 H :    0.125671
  20 H :    0.133092
  21 H :    0.133093
  22 H :    0.125858
  23 H :    0.125858
  24 H :    0.229743
  25 H :    0.244029
  26 H :    0.244032
  27 H :    0.229744

  Mayer bond orders larger than 0.100000
B(  0-C ,  1-C ) :   1.3149 B(  0-C ,  5-C ) :   1.3476 B(  0-C , 18-H ) :   0.9667
B(  1-C ,  2-C ) :   1.3476 B(  1-C , 19-H ) :   0.9667 B(  2-C ,  3-C ) :   1.3700
B(  2-C , 20-H ) :   0.9542 B(  3-C ,  4-C ) :   1.3349 B(  3-C , 14-C ) :   0.9866
B(  4-C ,  5-C ) :   1.3700 B(  4-C ,  6-C ) :   0.9866 B(  5-C , 21-H ) :   0.9542
B(  6-C ,  7-O ) :   1.9577 B(  6-C ,  8-C ) :   1.0383 B(  7-O , 26-H ) :   0.1321
B(  8-C ,  9-C ) :   1.2416 B(  8-C , 13-C ) :   1.2837 B(  9-C , 10-C ) :   1.1679
B(  9-C , 17-N ) :   1.4562 B( 10-C , 11-C ) :   1.4525 B( 10-C , 22-H ) :   0.9614
B( 11-C , 12-C ) :   1.1679 B( 11-C , 23-H ) :   0.9614 B( 12-C , 13-C ) :   1.2416
B( 12-C , 16-N ) :   1.4562 B( 13-C , 14-C ) :   1.0383 B( 14-C , 15-O ) :   1.9577
B( 15-O , 25-H ) :   0.1321 B( 16-N , 24-H ) :   0.8585 B( 16-N , 25-H ) :   0.7819
B( 17-N , 26-H ) :   0.7819 B( 17-N , 27-H ) :   0.8585

Dispersion correction           -0.041801701
FINAL SINGLE POINT ENERGY      -797.881337581900

DIPOLE MOMENT
-------------

Method             : SCF
Type of density    : Electron Density
Multiplicity       :   1
Irrep              :   0
Energy             :  -797.9592945184219843 Eh
Relativity type    :
Basis              : AO
                                X                 Y                 Z
Electronic contribution:     -0.521652278       0.000063199      -0.005486848
Nuclear contribution   :      2.091450259      -0.000042117       0.006544391
                        -----------------------------------------
Total Dipole Moment    :      1.569797981       0.000021082       0.001057544
                        -----------------------------------------
Magnitude (a.u.)       :      1.569798338
Magnitude (Debye)      :      3.990110275

Rotational constants in cm-1:             0.024083             0.012960             0.008426
Rotational constants in MHz :           722.000263           388.542676           252.604366

                             ****ORCA TERMINATED NORMALLY****
TOTAL RUN TIME: 0 days 0 hours 0 minutes 27 seconds 863 msec
