                         Program Version 6.0.1  -  RELEASE   -
|  1> ! r2scan-3c def2/J RI DEFGRID2 scfconv6 printgap
|  2> %output
|  3>     printlevel normal
|  4> end
|  5> * xyz 0 1
|  6> C 5.1260712653 -1.8198205803 0.8696180009
|  7> C 4.5867054638 -1.4920863333 -0.5097291735
|  8> O 3.1531072659 -1.6412628627 -0.4843399261
|  9> C 2.4258740514 -0.9006731054 -1.2890995545
| 10> O 2.8721695102 -0.0997914564 -2.0831612847
| 11> C 0.9446723252 -1.1846852411 -1.1168523373
| 12> C 0.162560172 0.1045613393 -1.3219889766
| 13> H 0.4909260877 0.5733694871 -2.2579989406
| 14> C 0.3734833999 1.1255155528 -0.220713995
| 15> O -0.4626144114 1.9633958552 0.0551649541
| 16> O 1.5481521103 1.0128879505 0.3418278541
| 17> C 1.8930726507 1.9462344713 1.3857636876
| 18> C 2.4308139586 3.2429861389 0.8051838185
| 19> S -1.6253042597 -0.1560956739 -1.5250225915
| 20> P -2.2614165507 -0.1071739246 0.5029766883
| 21> S -0.9773767552 -0.6526218214 1.8755024302
| 22> O -2.9724965082 1.2599981357 0.8383853869
| 23> C -3.8917451844 1.9072327716 -0.0629155965
| 24> O -3.5487142289 -1.0587413912 0.4196908997
| 25> C -3.4229919748 -2.4681473719 0.1999024734
| 26> H 4.8492037207 -2.8330571563 1.1443128634
| 27> H 6.2073715723 -1.7315152629 0.8625979225
| 28> H 4.7153702162 -1.1354890151 1.6064121985
| 29> H 4.9779311444 -2.1814324663 -1.2634798408
| 30> H 4.822590111 -0.4672221782 -0.8113718685
| 31> H 0.7739168773 -1.6093076865 -0.1267872453
| 32> H 0.6452716025 -1.9096846042 -1.8763580196
| 33> H 1.0014641788 2.1238538111 1.9944800875
| 34> H 2.6479692875 1.4219040182 1.9716399423
| 35> H 1.6504085453 3.7563498525 0.2480856569
| 36> H 2.76728455 3.883155154 1.613768636
| 37> H 3.2632795173 3.0356140703 0.1378133699
| 38> H -3.3445027223 2.2904829281 -0.9238500383
| 39> H -4.319722233 2.7246300303 0.5113509886
| 40> H -4.6626983887 1.2074150191 -0.3803332034
| 41> H -2.6812758475 -2.8880956646 0.8809499699
| 42> H -3.1333700143 -2.6569360529 -0.8333871771
| 43> H -4.4058029805 -2.8840615574 0.4059671048
| 44> *
| 45>
| 46>                          ****END OF INPUT****

CARTESIAN COORDINATES (ANGSTROEM)
---------------------------------
  C      5.126071   -1.819821    0.869618
  C      4.586705   -1.492086   -0.509729
  O      3.153107   -1.641263   -0.484340
  C      2.425874   -0.900673   -1.289100
  O      2.872170   -0.099791   -2.083161
  C      0.944672   -1.184685   -1.116852
  C      0.162560    0.104561   -1.321989
  H      0.490926    0.573369   -2.257999
  C      0.373483    1.125516   -0.220714
  O     -0.462614    1.963396    0.055165
  O      1.548152    1.012888    0.341828
  C      1.893073    1.946234    1.385764
  C      2.430814    3.242986    0.805184
  S     -1.625304   -0.156096   -1.525023
  P     -2.261417   -0.107174    0.502977
  S     -0.977377   -0.652622    1.875502
  O     -2.972497    1.259998    0.838385
  C     -3.891745    1.907233   -0.062916
  O     -3.548714   -1.058741    0.419691
  C     -3.422992   -2.468147    0.199902
  H      4.849204   -2.833057    1.144313
  H      6.207372   -1.731515    0.862598
  H      4.715370   -1.135489    1.606412
  H      4.977931   -2.181432   -1.263480
  H      4.822590   -0.467222   -0.811372
  H      0.773917   -1.609308   -0.126787
  H      0.645272   -1.909685   -1.876358
  H      1.001464    2.123854    1.994480
  H      2.647969    1.421904    1.971640
  H      1.650409    3.756350    0.248086
  H      2.767285    3.883155    1.613769
  H      3.263280    3.035614    0.137813
  H     -3.344503    2.290483   -0.923850
  H     -4.319722    2.724630    0.511351
  H     -4.662698    1.207415   -0.380333
  H     -2.681276   -2.888096    0.880950
  H     -3.133370   -2.656936   -0.833387
  H     -4.405803   -2.884062    0.405967

 Total Charge           Charge          ....    0
 Multiplicity           Mult            ....    1
 Number of Electrons    NEL             ....  174
 Basis Dimension        Dim             ....  510

ORBITAL ENERGIES
----------------

  NO   OCC          E(Eh)            E(eV)
   0   2.0000     -88.575070     -2410.2502
   1   2.0000     -88.514921     -2408.6134
   2   2.0000     -76.911653     -2092.8725
   3   2.0000     -19.007133      -517.2104
   4   2.0000     -19.002381      -517.0811
   5   2.0000     -18.987256      -516.6695
   6   2.0000     -18.985776      -516.6292
   7   2.0000     -18.933267      -515.2004
   8   2.0000     -18.931132      -515.1423
   9   2.0000     -10.165427      -276.6153
  10   2.0000     -10.158650      -276.4309
  11   2.0000     -10.095879      -274.7228
  12   2.0000     -10.095283      -274.7066
  13   2.0000     -10.093777      -274.6656
  14   2.0000     -10.090065      -274.5646
  15   2.0000     -10.089072      -274.5376
  16   2.0000     -10.052336      -273.5380
  17   2.0000     -10.034845      -273.0620
  18   2.0000     -10.028465      -272.8884
  19   2.0000      -7.869343      -214.1357
  20   2.0000      -7.809977      -212.5203
  21   2.0000      -6.589676      -179.3142
  22   2.0000      -5.816370      -158.2715
  23   2.0000      -5.813122      -158.1831
  24   2.0000      -5.806392      -158.0000
  25   2.0000      -5.757817      -156.6782
  26   2.0000      -5.750198      -156.4708
  27   2.0000      -5.749791      -156.4598
  28   2.0000      -4.735330      -128.8549
  29   2.0000      -4.734831      -128.8413
  30   2.0000      -4.733187      -128.7966
  31   2.0000      -1.085987       -29.5512
  32   2.0000      -1.078180       -29.3388
  33   2.0000      -1.045089       -28.4383
  34   2.0000      -1.003093       -27.2955
  35   2.0000      -0.986480       -26.8435
  36   2.0000      -0.981456       -26.7068
  37   2.0000      -0.809434       -22.0258
  38   2.0000      -0.756430       -20.5835
  39   2.0000      -0.746154       -20.3039
  40   2.0000      -0.728717       -19.8294
  41   2.0000      -0.697396       -18.9771
  42   2.0000      -0.671554       -18.2739
  43   2.0000      -0.659124       -17.9357
  44   2.0000      -0.650788       -17.7088
  45   2.0000      -0.624484       -16.9931
  46   2.0000      -0.596519       -16.2321
  47   2.0000      -0.540739       -14.7143
  48   2.0000      -0.536604       -14.6017
  49   2.0000      -0.524866       -14.2823
  50   2.0000      -0.499276       -13.5860
  51   2.0000      -0.488746       -13.2995
  52   2.0000      -0.480841       -13.0844
  53   2.0000      -0.468812       -12.7570
  54   2.0000      -0.452474       -12.3125
  55   2.0000      -0.449655       -12.2357
  56   2.0000      -0.444045       -12.0831
  57   2.0000      -0.441535       -12.0148
  58   2.0000      -0.437003       -11.8915
  59   2.0000      -0.428697       -11.6654
  60   2.0000      -0.425140       -11.5686
  61   2.0000      -0.415975       -11.3193
  62   2.0000      -0.406554       -11.0629
  63   2.0000      -0.404332       -11.0024
  64   2.0000      -0.387795       -10.5524
  65   2.0000      -0.380838       -10.3631
  66   2.0000      -0.377191       -10.2639
  67   2.0000      -0.366716        -9.9789
  68   2.0000      -0.362212        -9.8563
  69   2.0000      -0.356376        -9.6975
  70   2.0000      -0.352882        -9.6024
  71   2.0000      -0.340790        -9.2734
  72   2.0000      -0.333004        -9.0615
  73   2.0000      -0.328192        -8.9306
  74   2.0000      -0.317545        -8.6408
  75   2.0000      -0.316462        -8.6114
  76   2.0000      -0.309688        -8.4271
  77   2.0000      -0.306963        -8.3529
  78   2.0000      -0.287655        -7.8275
  79   2.0000      -0.278349        -7.5743
  80   2.0000      -0.273939        -7.4543
  81   2.0000      -0.271267        -7.3816
  82   2.0000      -0.251796        -6.8517
  83   2.0000      -0.245694        -6.6857
  84   2.0000      -0.231110        -6.2888
  85   2.0000      -0.213145        -5.8000
  86   2.0000      -0.211416        -5.7529
  87   0.0000      -0.044582        -1.2131
  88   0.0000      -0.027441        -0.7467
  89   0.0000      -0.010949        -0.2980
  90   0.0000       0.008732         0.2376
  91   0.0000       0.020410         0.5554

MULLIKEN ATOMIC CHARGES
-----------------------
   0 C :   -0.441041
   1 C :   -0.157939
   2 O :   -0.143373
   3 C :    0.322303
   4 O :   -0.420800
   5 C :   -0.432389
   6 C :    0.077651
   7 H :    0.224820
   8 C :    0.185500
   9 O :   -0.382465
  10 O :   -0.077326
  11 C :   -0.144353
  12 C :   -0.474582
  13 S :   -0.180874
  14 P :    0.755054
  15 S :   -0.446192
  16 O :   -0.290655
  17 C :   -0.298258
  18 O :   -0.351283
  19 C :   -0.298492
  20 H :    0.154502
  21 H :    0.148815
  22 H :    0.150544
  23 H :    0.147067
  24 H :    0.176228
  25 H :    0.218633
  26 H :    0.187051
  27 H :    0.183311
  28 H :    0.150096
  29 H :    0.175747
  30 H :    0.149787
  31 H :    0.157260
  32 H :    0.176511
  33 H :    0.154990
  34 H :    0.162097
  35 H :    0.173917
  36 H :    0.156134
  37 H :    0.152003
Sum of atomic charges:   -0.0000000

LOEWDIN ATOMIC CHARGES
----------------------
   0 C :   -0.385034
   1 C :    0.034527
   2 O :   -0.576527
   3 C :    0.355698
   4 O :   -0.440790
   5 C :   -0.213330
   6 C :   -0.197649
   7 H :    0.218424
   8 C :    0.341040
   9 O :   -0.454029
  10 O :   -0.574648
  11 C :    0.035122
  12 C :   -0.387916
  13 S :    0.201912
  14 P :    0.405615
  15 S :   -0.069139
  16 O :   -0.638969
  17 C :   -0.050151
  18 O :   -0.685841
  19 C :   -0.062912
  20 H :    0.160127
  21 H :    0.159504
  22 H :    0.158614
  23 H :    0.175768
  24 H :    0.190094
  25 H :    0.202437
  26 H :    0.186836
  27 H :    0.195607
  28 H :    0.179513
  29 H :    0.166885
  30 H :    0.159779
  31 H :    0.160042
  32 H :    0.176986
  33 H :    0.181078
  34 H :    0.170617
  35 H :    0.175940
  36 H :    0.167822
  37 H :    0.176948

  Mayer bond orders larger than 0.100000
B(  0-C ,  1-C ) :   0.9465 B(  0-C , 20-H ) :   0.9686 B(  0-C , 21-H ) :   0.9695
B(  0-C , 22-H ) :   0.9742 B(  1-C ,  2-O ) :   0.7696 B(  1-C , 23-H ) :   0.9446
B(  1-C , 24-H ) :   0.9684 B(  2-O ,  3-C ) :   1.1270 B(  3-C ,  4-O ) :   1.8380
B(  3-C ,  5-C ) :   0.8839 B(  3-C , 10-O ) :   0.1068 B(  4-O ,  6-C ) :   0.1095
B(  5-C ,  6-C ) :   0.8844 B(  5-C , 25-H ) :   0.9715 B(  5-C , 26-H ) :   0.9484
B(  6-C ,  7-H ) :   0.8842 B(  6-C ,  8-C ) :   0.9569 B(  6-C , 13-S ) :   0.8249
B(  8-C ,  9-O ) :   1.7910 B(  8-C , 10-O ) :   1.1415 B( 10-O , 11-C ) :   0.7735
B( 11-C , 12-C ) :   0.9202 B( 11-C , 27-H ) :   0.9654 B( 11-C , 28-H ) :   0.9641
B( 12-C , 29-H ) :   0.9724 B( 12-C , 30-H ) :   0.9655 B( 12-C , 31-H ) :   0.9716
B( 13-S , 14-P ) :   1.0096 B( 14-P , 15-S ) :   1.7610 B( 14-P , 16-O ) :   1.2030
B( 14-P , 18-O ) :   1.0161 B( 16-O , 17-C ) :   0.7962 B( 17-C , 32-H ) :   0.9563
B( 17-C , 33-H ) :   0.9648 B( 17-C , 34-H ) :   0.9641 B( 18-O , 19-C ) :   0.8340
B( 19-C , 35-H ) :   0.9592 B( 19-C , 36-H ) :   0.9564 B( 19-C , 37-H ) :   0.9685

Dispersion correction           -0.017434303
FINAL SINGLE POINT ENERGY     -1981.451375173918

DIPOLE MOMENT
-------------

Method             : SCF
Type of density    : Electron Density
Multiplicity       :   1
Irrep              :   0
Energy             : -1981.4713200553660499 Eh
Relativity type    :
Basis              : AO
                                X                 Y                 Z
Electronic contribution:    -16.986613119      -1.202482249      -2.517203754
Nuclear contribution   :     17.364600380       0.815904203       2.251201523
                        -----------------------------------------
Total Dipole Moment    :      0.377987261      -0.386578047      -0.266002231
                        -----------------------------------------
Magnitude (a.u.)       :      0.602556340
Magnitude (Debye)      :      1.531576499

Rotational constants in cm-1:             0.015680             0.006251             0.005611
Rotational constants in MHz :           470.082592           187.398152           168.220038

                             ****ORCA TERMINATED NORMALLY****
TOTAL RUN TIME: 0 days 0 hours 1 minutes 15 seconds 988 msec
