                         Program Version 6.0.1  -  RELEASE   -
|  1> ! r2scan-3c def2/J RI DEFGRID2 scfconv6 printgap
|  2> %output
|  3>     printlevel normal
|  4> end
|  5> %cpcm
|  6>     smd true
|  7>     smdsolvent "water"
|  8> end
|  9> * xyz 0 1
| 10> C 5.1260712653 -1.8198205803 0.8696180009
| 11> C 4.5867054638 -1.4920863333 -0.5097291735
| 12> O 3.1531072659 -1.6412628627 -0.4843399261
| 13> C 2.4258740514 -0.9006731054 -1.2890995545
| 14> O 2.8721695102 -0.0997914564 -2.0831612847
| 15> C 0.9446723252 -1.1846852411 -1.1168523373
| 16> C 0.162560172 0.1045613393 -1.3219889766
| 17> H 0.4909260877 0.5733694871 -2.2579989406
| 18> C 0.3734833999 1.1255155528 -0.220713995
| 19> O -0.4626144114 1.9633958552 0.0551649541
| 20> O 1.5481521103 1.0128879505 0.3418278541
| 21> C 1.8930726507 1.9462344713 1.3857636876
| 22> C 2.4308139586 3.2429861389 0.8051838185
| 23> S -1.6253042597 -0.1560956739 -1.5250225915
| 24> P -2.2614165507 -0.1071739246 0.5029766883
| 25> S -0.9773767552 -0.6526218214 1.8755024302
| 26> O -2.9724965082 1.2599981357 0.8383853869
| 27> C -3.8917451844 1.9072327716 -0.0629155965
| 28> O -3.5487142289 -1.0587413912 0.4196908997
| 29> C -3.4229919748 -2.4681473719 0.1999024734
| 30> H 4.8492037207 -2.8330571563 1.1443128634
| 31> H 6.2073715723 -1.7315152629 0.8625979225
| 32> H 4.7153702162 -1.1354890151 1.6064121985
| 33> H 4.9779311444 -2.1814324663 -1.2634798408
| 34> H 4.822590111 -0.4672221782 -0.8113718685
| 35> H 0.7739168773 -1.6093076865 -0.1267872453
| 36> H 0.6452716025 -1.9096846042 -1.8763580196
| 37> H 1.0014641788 2.1238538111 1.9944800875
| 38> H 2.6479692875 1.4219040182 1.9716399423
| 39> H 1.6504085453 3.7563498525 0.2480856569
| 40> H 2.76728455 3.883155154 1.613768636
| 41> H 3.2632795173 3.0356140703 0.1378133699
| 42> H -3.3445027223 2.2904829281 -0.9238500383
| 43> H -4.319722233 2.7246300303 0.5113509886
| 44> H -4.6626983887 1.2074150191 -0.3803332034
| 45> H -2.6812758475 -2.8880956646 0.8809499699
| 46> H -3.1333700143 -2.6569360529 -0.8333871771
| 47> H -4.4058029805 -2.8840615574 0.4059671048
| 48> *
| 49>
| 50>                          ****END OF INPUT****

CARTESIAN COORDINATES (ANGSTROEM)
---------------------------------
  C      5.126071   -1.819821    0.869618
  C      4.586705   -1.492086   -0.509729
  O      3.153107   -1.641263   -0.484340
  C      2.425874   -0.900673   -1.289100
  O      2.872170   -0.099791   -2.083161
  C      0.944672   -1.184685   -1.116852
  C      0.162560    0.104561   -1.321989
  H      0.490926    0.573369   -2.257999
  C      0.373483    1.125516   -0.220714
  O     -0.462614    1.963396    0.055165
  O      1.548152    1.012888    0.341828
  C      1.893073    1.946234    1.385764
  C      2.430814    3.242986    0.805184
  S     -1.625304   -0.156096   -1.525023
  P     -2.261417   -0.107174    0.502977
  S     -0.977377   -0.652622    1.875502
  O     -2.972497    1.259998    0.838385
  C     -3.891745    1.907233   -0.062916
  O     -3.548714   -1.058741    0.419691
  C     -3.422992   -2.468147    0.199902
  H      4.849204   -2.833057    1.144313
  H      6.207372   -1.731515    0.862598
  H      4.715370   -1.135489    1.606412
  H      4.977931   -2.181432   -1.263480
  H      4.822590   -0.467222   -0.811372
  H      0.773917   -1.609308   -0.126787
  H      0.645272   -1.909685   -1.876358
  H      1.001464    2.123854    1.994480
  H      2.647969    1.421904    1.971640
  H      1.650409    3.756350    0.248086
  H      2.767285    3.883155    1.613769
  H      3.263280    3.035614    0.137813
  H     -3.344503    2.290483   -0.923850
  H     -4.319722    2.724630    0.511351
  H     -4.662698    1.207415   -0.380333
  H     -2.681276   -2.888096    0.880950
  H     -3.133370   -2.656936   -0.833387
  H     -4.405803   -2.884062    0.405967

 Total Charge           Charge          ....    0
 Multiplicity           Mult            ....    1
 Number of Electrons    NEL             ....  174
 Basis Dimension        Dim             ....  510

ORBITAL ENERGIES
----------------

  NO   OCC          E(Eh)            E(eV)
   0   2.0000     -88.581478     -2410.4245
   1   2.0000     -88.528663     -2408.9874
   2   2.0000     -76.921899     -2093.1513
   3   2.0000     -19.015121      -517.4278
   4   2.0000     -19.007856      -517.2301
   5   2.0000     -18.996729      -516.9273
   6   2.0000     -18.993171      -516.8305
   7   2.0000     -18.948893      -515.6256
   8   2.0000     -18.945679      -515.5381
   9   2.0000     -10.177809      -276.9523
  10   2.0000     -10.169804      -276.7344
  11   2.0000     -10.099041      -274.8089
  12   2.0000     -10.089011      -274.5359
  13   2.0000     -10.085556      -274.4419
  14   2.0000     -10.084743      -274.4198
  15   2.0000     -10.081070      -274.3199
  16   2.0000     -10.052887      -273.5530
  17   2.0000     -10.020245      -272.6647
  18   2.0000     -10.019479      -272.6439
  19   2.0000      -7.875658      -214.3075
  20   2.0000      -7.823989      -212.9016
  21   2.0000      -6.600062      -179.5968
  22   2.0000      -5.822726      -158.4444
  23   2.0000      -5.819471      -158.3559
  24   2.0000      -5.812642      -158.1700
  25   2.0000      -5.771725      -157.0566
  26   2.0000      -5.764255      -156.8534
  27   2.0000      -5.763807      -156.8412
  28   2.0000      -4.745685      -129.1367
  29   2.0000      -4.745149      -129.1221
  30   2.0000      -4.743673      -129.0819
  31   2.0000      -1.095126       -29.7999
  32   2.0000      -1.085266       -29.5316
  33   2.0000      -1.053567       -28.6690
  34   2.0000      -1.010611       -27.5001
  35   2.0000      -1.000426       -27.2230
  36   2.0000      -0.994094       -27.0507
  37   2.0000      -0.813623       -22.1398
  38   2.0000      -0.752056       -20.4645
  39   2.0000      -0.745144       -20.2764
  40   2.0000      -0.730490       -19.8777
  41   2.0000      -0.698440       -19.0055
  42   2.0000      -0.669430       -18.2161
  43   2.0000      -0.662335       -18.0231
  44   2.0000      -0.654041       -17.7974
  45   2.0000      -0.620535       -16.8856
  46   2.0000      -0.595045       -16.1920
  47   2.0000      -0.540878       -14.7180
  48   2.0000      -0.535806       -14.5800
  49   2.0000      -0.526920       -14.3382
  50   2.0000      -0.503815       -13.7095
  51   2.0000      -0.491748       -13.3812
  52   2.0000      -0.485457       -13.2100
  53   2.0000      -0.474188       -12.9033
  54   2.0000      -0.458280       -12.4704
  55   2.0000      -0.455358       -12.3909
  56   2.0000      -0.452594       -12.3157
  57   2.0000      -0.447070       -12.1654
  58   2.0000      -0.438433       -11.9304
  59   2.0000      -0.427839       -11.6421
  60   2.0000      -0.425373       -11.5750
  61   2.0000      -0.413929       -11.2636
  62   2.0000      -0.408316       -11.1109
  63   2.0000      -0.405813       -11.0427
  64   2.0000      -0.387117       -10.5340
  65   2.0000      -0.380172       -10.3450
  66   2.0000      -0.368306       -10.0221
  67   2.0000      -0.364670        -9.9232
  68   2.0000      -0.360960        -9.8222
  69   2.0000      -0.356510        -9.7011
  70   2.0000      -0.351650        -9.5689
  71   2.0000      -0.340675        -9.2702
  72   2.0000      -0.335114        -9.1189
  73   2.0000      -0.328131        -8.9289
  74   2.0000      -0.319699        -8.6994
  75   2.0000      -0.316702        -8.6179
  76   2.0000      -0.312540        -8.5046
  77   2.0000      -0.308186        -8.3862
  78   2.0000      -0.294071        -8.0021
  79   2.0000      -0.286054        -7.7839
  80   2.0000      -0.279878        -7.6159
  81   2.0000      -0.277976        -7.5641
  82   2.0000      -0.263496        -7.1701
  83   2.0000      -0.260708        -7.0942
  84   2.0000      -0.242507        -6.5990
  85   2.0000      -0.227912        -6.2018
  86   2.0000      -0.224261        -6.1024
  87   0.0000      -0.052547        -1.4299
  88   0.0000      -0.037866        -1.0304
  89   0.0000      -0.020319        -0.5529
  90   0.0000       0.002726         0.0742
  91   0.0000       0.011715         0.3188

MULLIKEN ATOMIC CHARGES
-----------------------
   0 C :   -0.491653
   1 C :   -0.145678
   2 O :   -0.163503
   3 C :    0.356378
   4 O :   -0.492460
   5 C :   -0.441237
   6 C :    0.065642
   7 H :    0.256421
   8 C :    0.209839
   9 O :   -0.434506
  10 O :   -0.098882
  11 C :   -0.134514
  12 C :   -0.505150
  13 S :   -0.177252
  14 P :    0.755421
  15 S :   -0.484232
  16 O :   -0.339581
  17 C :   -0.303906
  18 O :   -0.381028
  19 C :   -0.304007
  20 H :    0.165606
  21 H :    0.171126
  22 H :    0.165891
  23 H :    0.174215
  24 H :    0.177240
  25 H :    0.219948
  26 H :    0.224844
  27 H :    0.176504
  28 H :    0.181917
  29 H :    0.173683
  30 H :    0.175033
  31 H :    0.169031
  32 H :    0.181551
  33 H :    0.182255
  34 H :    0.184712
  35 H :    0.176560
  36 H :    0.174196
  37 H :    0.179573
Sum of atomic charges:    0.0000000

LOEWDIN ATOMIC CHARGES
----------------------
   0 C :   -0.388511
   1 C :    0.039964
   2 O :   -0.580214
   3 C :    0.364434
   4 O :   -0.489128
   5 C :   -0.207519
   6 C :   -0.194513
   7 H :    0.229562
   8 C :    0.345665
   9 O :   -0.496802
  10 O :   -0.578261
  11 C :    0.039869
  12 C :   -0.389241
  13 S :    0.215988
  14 P :    0.401799
  15 S :   -0.100084
  16 O :   -0.670646
  17 C :   -0.044027
  18 O :   -0.697883
  19 C :   -0.056526
  20 H :    0.162663
  21 H :    0.168768
  22 H :    0.162191
  23 H :    0.186049
  24 H :    0.191884
  25 H :    0.202090
  26 H :    0.202975
  27 H :    0.193347
  28 H :    0.192636
  29 H :    0.164305
  30 H :    0.169639
  31 H :    0.163983
  32 H :    0.180302
  33 H :    0.192185
  34 H :    0.181012
  35 H :    0.177438
  36 H :    0.175877
  37 H :    0.188731

  Mayer bond orders larger than 0.100000
B(  0-C ,  1-C ) :   0.9388 B(  0-C , 20-H ) :   0.9670 B(  0-C , 21-H ) :   0.9623
B(  0-C , 22-H ) :   0.9724 B(  1-C ,  2-O ) :   0.7605 B(  1-C , 23-H ) :   0.9358
B(  1-C , 24-H ) :   0.9613 B(  2-O ,  3-C ) :   1.1432 B(  3-C ,  4-O ) :   1.7831
B(  3-C ,  5-C ) :   0.8981 B(  3-C , 10-O ) :   0.1027 B(  5-C ,  6-C ) :   0.8648
B(  5-C , 25-H ) :   0.9753 B(  5-C , 26-H ) :   0.9268 B(  6-C ,  7-H ) :   0.8805
B(  6-C ,  8-C ) :   0.9561 B(  6-C , 13-S ) :   0.8100 B(  8-C ,  9-O ) :   1.7537
B(  8-C , 10-O ) :   1.1523 B( 10-O , 11-C ) :   0.7572 B( 11-C , 12-C ) :   0.9199
B( 11-C , 27-H ) :   0.9572 B( 11-C , 28-H ) :   0.9515 B( 12-C , 29-H ) :   0.9704
B( 12-C , 30-H ) :   0.9586 B( 12-C , 31-H ) :   0.9700 B( 13-S , 14-P ) :   1.0295
B( 14-P , 15-S ) :   1.7601 B( 14-P , 16-O ) :   1.1907 B( 14-P , 18-O ) :   1.0205
B( 16-O , 17-C ) :   0.7903 B( 17-C , 32-H ) :   0.9483 B( 17-C , 33-H ) :   0.9540
B( 17-C , 34-H ) :   0.9539 B( 18-O , 19-C ) :   0.8260 B( 19-C , 35-H ) :   0.9547
B( 19-C , 36-H ) :   0.9493 B( 19-C , 37-H ) :   0.9582

Dispersion correction           -0.017434303
FINAL SINGLE POINT ENERGY     -1981.465828827545

DIPOLE MOMENT
-------------

Method             : SCF
Type of density    : Electron Density
Multiplicity       :   1
Irrep              :   0
Energy             : -1981.4857737089930652 Eh
Relativity type    :
Basis              : AO
                                X                 Y                 Z
Electronic contribution:    -16.817067744      -1.637789605      -2.844143377
Nuclear contribution   :     17.364600380       0.815904203       2.251201523
                        -----------------------------------------
Total Dipole Moment    :      0.547532636      -0.821885402      -0.592941854
                        -----------------------------------------
Magnitude (a.u.)       :      1.151897411
Magnitude (Debye)      :      2.927890534

Rotational constants in cm-1:             0.015680             0.006251             0.005611
Rotational constants in MHz :           470.082592           187.398152           168.220038

                             ****ORCA TERMINATED NORMALLY****
TOTAL RUN TIME: 0 days 0 hours 1 minutes 57 seconds 960 msec
