                         Program Version 6.0.0  -   RELEASE  -
|  1> ! pbe def2-sv(p) def2/J RI DEFGRID1 loosescf d4 GCP(DFT/SV(P)) printgap
|  2> %output
|  3>     printlevel normal
|  4> end
|  5> * xyz 0 1
|  6> C 5.5533269984 -0.3136925394 -0.8934238761
|  7> C 4.396389628 0.6064481251 -1.2243598188
|  8> O 3.6392954549 0.9487088238 -0.0381182543
|  9> P 2.4017950603 0.1379371476 0.5125083542
| 10> S 1.6908416093 1.0022752602 2.1124414554
| 11> O 2.9768015374 -1.330891306 0.7024011916
| 12> C 2.3820653275 -2.2911296928 1.5937554111
| 13> C 0.9865998041 -2.6915195595 1.167166498
| 14> S 1.0949101565 -0.0235157459 -1.1659062999
| 15> C 0.2438559797 1.5719467604 -0.9196983412
| 16> S -1.4832403679 1.5375985318 -1.4460051967
| 17> P -2.1949882857 -0.1576026945 -0.3310641952
| 18> S -1.8133483845 -1.9553503677 -0.9973582413
| 19> O -3.7306063275 0.2103065326 -0.1529463777
| 20> C -4.6066624027 0.6341656027 -1.2140349852
| 21> C -4.5759649389 -0.2913758658 -2.4116628794
| 22> O -1.6202447853 0.0178985194 1.1273988809
| 23> C -1.9706867644 1.1175244743 2.0058477087
| 24> C -3.0514610188 0.689541244 2.9760210651
| 25> H 6.172325924 0.1306502234 -0.1186856263
| 26> H 5.1865200497 -1.2744407815 -0.5425060198
| 27> H 6.1510288088 -0.4645465048 -1.7870472789
| 28> H 3.7218029214 0.1479829618 -1.9534149809
| 29> H 4.7495873573 1.5690421122 -1.5984245271
| 30> H 3.0693584766 -3.1376094236 1.5602982671
| 31> H 2.3664220362 -1.8619810849 2.6003395838
| 32> H 0.6303324419 -3.4988900556 1.7986736086
| 33> H 0.301782195 -1.848992261 1.2668295676
| 34> H 0.974503701 -3.0211306064 0.1304074759
| 35> H 0.7163763372 2.3330437345 -1.5369999912
| 36> H 0.3073377405 1.8297119581 0.1404849908
| 37> H -5.5918452987 0.6458898001 -0.7444072452
| 38> H -4.3202319035 1.6488087789 -1.5054216048
| 39> H -5.3084247225 0.0389349603 -3.1410964517
| 40> H -3.5875228803 -0.2780489837 -2.8697558519
| 41> H -4.8001253704 -1.3118650099 -2.1100595294
| 42> H -1.041612054 1.3631546568 2.5266935309
| 43> H -2.2959143057 1.9691268136 1.4026382488
| 44> H -3.2608650498 1.5095240081 3.6556770854
| 45> H -3.9572566051 0.4245028906 2.4367742828
| 46> H -2.7173708328 -0.1726135226 3.5463771916
| 47> *
| 48>
| 49>                          ****END OF INPUT****

CARTESIAN COORDINATES (ANGSTROEM)
---------------------------------
  C      5.553327   -0.313693   -0.893424
  C      4.396390    0.606448   -1.224360
  O      3.639295    0.948709   -0.038118
  P      2.401795    0.137937    0.512508
  S      1.690842    1.002275    2.112441
  O      2.976802   -1.330891    0.702401
  C      2.382065   -2.291130    1.593755
  C      0.986600   -2.691520    1.167166
  S      1.094910   -0.023516   -1.165906
  C      0.243856    1.571947   -0.919698
  S     -1.483240    1.537599   -1.446005
  P     -2.194988   -0.157603   -0.331064
  S     -1.813348   -1.955350   -0.997358
  O     -3.730606    0.210307   -0.152946
  C     -4.606662    0.634166   -1.214035
  C     -4.575965   -0.291376   -2.411663
  O     -1.620245    0.017899    1.127399
  C     -1.970687    1.117524    2.005848
  C     -3.051461    0.689541    2.976021
  H      6.172326    0.130650   -0.118686
  H      5.186520   -1.274441   -0.542506
  H      6.151029   -0.464547   -1.787047
  H      3.721803    0.147983   -1.953415
  H      4.749587    1.569042   -1.598425
  H      3.069358   -3.137609    1.560298
  H      2.366422   -1.861981    2.600340
  H      0.630332   -3.498890    1.798674
  H      0.301782   -1.848992    1.266830
  H      0.974504   -3.021131    0.130407
  H      0.716376    2.333044   -1.537000
  H      0.307338    1.829712    0.140485
  H     -5.591845    0.645890   -0.744407
  H     -4.320232    1.648809   -1.505422
  H     -5.308425    0.038935   -3.141096
  H     -3.587523   -0.278049   -2.869756
  H     -4.800125   -1.311865   -2.110060
  H     -1.041612    1.363155    2.526694
  H     -2.295914    1.969127    1.402638
  H     -3.260865    1.509524    3.655677
  H     -3.957257    0.424503    2.436774
  H     -2.717371   -0.172614    3.546377

 Total Charge           Charge          ....    0
 Multiplicity           Mult            ....    1
 Number of Electrons    NEL             ....  202
 Basis Dimension        Dim             ....  334

ORBITAL ENERGIES
----------------

  NO   OCC          E(Eh)            E(eV)
   0   2.0000     -88.044966     -2395.8253
   1   2.0000     -88.041296     -2395.7255
   2   2.0000     -87.987908     -2394.2727
   3   2.0000     -87.976914     -2393.9735
   4   2.0000     -76.426964     -2079.6834
   5   2.0000     -76.425620     -2079.6469
   6   2.0000     -18.795235      -511.4444
   7   2.0000     -18.793428      -511.3952
   8   2.0000     -18.790988      -511.3288
   9   2.0000     -18.789891      -511.2989
  10   2.0000      -9.961103      -271.0554
  11   2.0000      -9.957390      -270.9544
  12   2.0000      -9.955569      -270.9048
  13   2.0000      -9.948278      -270.7064
  14   2.0000      -9.948248      -270.7056
  15   2.0000      -9.885770      -269.0055
  16   2.0000      -9.884607      -268.9738
  17   2.0000      -9.881760      -268.8964
  18   2.0000      -9.869231      -268.5554
  19   2.0000      -7.689880      -209.2523
  20   2.0000      -7.685735      -209.1395
  21   2.0000      -7.633091      -207.7070
  22   2.0000      -7.622221      -207.4112
  23   2.0000      -6.424518      -174.8200
  24   2.0000      -6.422507      -174.7653
  25   2.0000      -5.717801      -155.5893
  26   2.0000      -5.714304      -155.4941
  27   2.0000      -5.713560      -155.4739
  28   2.0000      -5.710393      -155.3877
  29   2.0000      -5.706970      -155.2946
  30   2.0000      -5.702675      -155.1777
  31   2.0000      -5.661971      -154.0701
  32   2.0000      -5.653784      -153.8473
  33   2.0000      -5.653128      -153.8294
  34   2.0000      -5.651390      -153.7821
  35   2.0000      -5.642577      -153.5423
  36   2.0000      -5.642358      -153.5364
  37   2.0000      -4.647431      -126.4630
  38   2.0000      -4.646102      -126.4269
  39   2.0000      -4.645664      -126.4149
  40   2.0000      -4.644860      -126.3931
  41   2.0000      -4.644686      -126.3883
  42   2.0000      -4.642142      -126.3191
  43   2.0000      -0.988197       -26.8902
  44   2.0000      -0.987437       -26.8695
  45   2.0000      -0.945558       -25.7299
  46   2.0000      -0.944965       -25.7138
  47   2.0000      -0.761650       -20.7255
  48   2.0000      -0.720067       -19.5940
  49   2.0000      -0.710369       -19.3301
  50   2.0000      -0.691076       -18.8051
  51   2.0000      -0.685291       -18.6477
  52   2.0000      -0.674243       -18.3471
  53   2.0000      -0.650009       -17.6876
  54   2.0000      -0.639127       -17.3915
  55   2.0000      -0.591937       -16.1074
  56   2.0000      -0.587205       -15.9787
  57   2.0000      -0.575602       -15.6629
  58   2.0000      -0.572292       -15.5729
  59   2.0000      -0.562853       -15.3160
  60   2.0000      -0.502726       -13.6799
  61   2.0000      -0.497872       -13.5478
  62   2.0000      -0.473303       -12.8792
  63   2.0000      -0.471574       -12.8322
  64   2.0000      -0.454872       -12.3777
  65   2.0000      -0.447281       -12.1711
  66   2.0000      -0.442725       -12.0472
  67   2.0000      -0.433146       -11.7865
  68   2.0000      -0.430470       -11.7137
  69   2.0000      -0.424579       -11.5534
  70   2.0000      -0.412482       -11.2242
  71   2.0000      -0.396894       -10.8000
  72   2.0000      -0.391847       -10.6627
  73   2.0000      -0.386982       -10.5303
  74   2.0000      -0.384709       -10.4685
  75   2.0000      -0.366078        -9.9615
  76   2.0000      -0.357762        -9.7352
  77   2.0000      -0.356050        -9.6886
  78   2.0000      -0.352230        -9.5847
  79   2.0000      -0.348548        -9.4845
  80   2.0000      -0.347280        -9.4500
  81   2.0000      -0.341945        -9.3048
  82   2.0000      -0.339810        -9.2467
  83   2.0000      -0.337186        -9.1753
  84   2.0000      -0.331324        -9.0158
  85   2.0000      -0.319690        -8.6992
  86   2.0000      -0.312466        -8.5026
  87   2.0000      -0.297636        -8.0991
  88   2.0000      -0.294788        -8.0216
  89   2.0000      -0.290087        -7.8937
  90   2.0000      -0.286482        -7.7956
  91   2.0000      -0.276332        -7.5194
  92   2.0000      -0.269621        -7.3368
  93   2.0000      -0.262780        -7.1506
  94   2.0000      -0.256667        -6.9843
  95   2.0000      -0.241479        -6.5710
  96   2.0000      -0.221665        -6.0318
  97   2.0000      -0.207454        -5.6451
  98   2.0000      -0.205081        -5.5805
  99   2.0000      -0.192068        -5.2264
 100   2.0000      -0.184690        -5.0257
 101   0.0000      -0.046534        -1.2663
 102   0.0000      -0.032163        -0.8752
 103   0.0000      -0.021107        -0.5743
 104   0.0000       0.004204         0.1144
 105   0.0000       0.020599         0.5605

MULLIKEN ATOMIC CHARGES
-----------------------
   0 C :   -0.294827
   1 C :   -0.013816
   2 O :   -0.358673
   3 P :    0.611754
   4 S :   -0.318944
   5 O :   -0.380793
   6 C :    0.002872
   7 C :   -0.340629
   8 S :   -0.082967
   9 C :   -0.337916
  10 S :   -0.130591
  11 P :    0.597097
  12 S :   -0.292213
  13 O :   -0.378226
  14 C :   -0.013719
  15 C :   -0.313111
  16 O :   -0.349335
  17 C :   -0.031585
  18 C :   -0.280427
  19 H :    0.119346
  20 H :    0.125577
  21 H :    0.109574
  22 H :    0.104103
  23 H :    0.107251
  24 H :    0.101852
  25 H :    0.109610
  26 H :    0.108738
  27 H :    0.152385
  28 H :    0.123002
  29 H :    0.180605
  30 H :    0.197643
  31 H :    0.111313
  32 H :    0.114409
  33 H :    0.112160
  34 H :    0.129363
  35 H :    0.130246
  36 H :    0.127836
  37 H :    0.095147
  38 H :    0.107906
  39 H :    0.118005
  40 H :    0.119978
Sum of atomic charges:   -0.0000000

LOEWDIN ATOMIC CHARGES
----------------------
   0 C :   -0.361048
   1 C :   -0.117103
   2 O :   -0.241316
   3 P :    0.576903
   4 S :   -0.299601
   5 O :   -0.243271
   6 C :   -0.117018
   7 C :   -0.376211
   8 S :    0.087726
   9 C :   -0.478123
  10 S :    0.054628
  11 P :    0.566896
  12 S :   -0.296291
  13 O :   -0.245682
  14 C :   -0.116102
  15 C :   -0.370851
  16 O :   -0.227119
  17 C :   -0.122638
  18 C :   -0.357030
  19 H :    0.128555
  20 H :    0.126747
  21 H :    0.129490
  22 H :    0.102716
  23 H :    0.120038
  24 H :    0.116996
  25 H :    0.111875
  26 H :    0.130861
  27 H :    0.122981
  28 H :    0.123870
  29 H :    0.134849
  30 H :    0.119517
  31 H :    0.122257
  32 H :    0.107680
  33 H :    0.130405
  34 H :    0.122038
  35 H :    0.131555
  36 H :    0.114422
  37 H :    0.103675
  38 H :    0.129167
  39 H :    0.124530
  40 H :    0.129029

  Mayer bond orders larger than 0.100000
B(  0-C ,  1-C ) :   1.1640 B(  0-C , 19-H ) :   0.9474 B(  0-C , 20-H ) :   0.9408
B(  0-C , 21-H ) :   0.9391 B(  1-C ,  2-O ) :   0.9021 B(  1-C , 22-H ) :   0.9082
B(  1-C , 23-H ) :   0.9366 B(  2-O ,  3-P ) :   1.1338 B(  3-P ,  4-S ) :   1.6070
B(  3-P ,  5-O ) :   1.1030 B(  3-P ,  8-S ) :   0.9620 B(  4-S ,  8-S ) :   0.1117
B(  4-S , 30-H ) :   0.1060 B(  5-O ,  6-C ) :   0.8936 B(  6-C ,  7-C ) :   1.1580
B(  6-C , 24-H ) :   0.9323 B(  6-C , 25-H ) :   0.9205 B(  7-C , 26-H ) :   0.9369
B(  7-C , 27-H ) :   0.9231 B(  7-C , 28-H ) :   0.9409 B(  8-S ,  9-C ) :   0.9899
B(  9-C , 10-S ) :   1.0126 B(  9-C , 29-H ) :   0.9117 B(  9-C , 30-H ) :   0.8542
B( 10-S , 11-P ) :   0.9240 B( 10-S , 12-S ) :   0.1115 B( 11-P , 12-S ) :   1.6812
B( 11-P , 13-O ) :   1.0685 B( 11-P , 16-O ) :   1.1214 B( 13-O , 14-C ) :   0.9161
B( 14-C , 15-C ) :   1.1670 B( 14-C , 31-H ) :   0.9331 B( 14-C , 32-H ) :   0.9239
B( 15-C , 33-H ) :   0.9337 B( 15-C , 34-H ) :   0.9325 B( 15-C , 35-H ) :   0.9409
B( 16-O , 17-C ) :   0.8862 B( 17-C , 18-C ) :   1.1687 B( 17-C , 36-H ) :   0.9132
B( 17-C , 37-H ) :   0.9127 B( 18-C , 38-H ) :   0.9402 B( 18-C , 39-H ) :   0.9431
B( 18-C , 40-H ) :   0.9474

Dispersion correction           -0.065915043
FINAL SINGLE POINT ENERGY     -2929.511329023137

DIPOLE MOMENT
-------------

Method             : SCF
Type of density    : Electron Density
Multiplicity       :   1
Irrep              :   0
Energy             : -2929.6318086355408923 Eh
Relativity type    :
Basis              : AO
                                X                 Y                 Z
Electronic contribution:      2.410080121       3.639060909      -3.228043580
Nuclear contribution   :     -2.528388417      -3.059149973       2.867637570
                        -----------------------------------------
Total Dipole Moment    :     -0.118308296       0.579910936      -0.360406010
                        -----------------------------------------
Magnitude (a.u.)       :      0.692954572
Magnitude (Debye)      :      1.761350544

Rotational constants in cm-1:             0.013301             0.004828             0.004603
Rotational constants in MHz :           398.750864           144.745884           137.993691

                             ****ORCA TERMINATED NORMALLY****
TOTAL RUN TIME: 0 days 0 hours 0 minutes 21 seconds 288 msec
