                         Program Version 6.0.0  -   RELEASE  -
|  1> ! pbe def2-sv(p) def2/J RI DEFGRID1 loosescf d4 GCP(DFT/SV(P)) printgap
|  2> %output
|  3>     printlevel normal
|  4> end
|  5> * xyz 0 1
|  6> C 5.8085647719 -1.5773471144 -1.3647906674
|  7> C 4.5130975504 -0.8054463829 -1.5103909879
|  8> O 3.7905946099 -0.9151714926 -0.2655534914
|  9> P 2.5734663297 0.0512057594 0.0583556282
| 10> S 2.937432792 1.9668443335 -0.0788526349
| 11> O 2.1582323887 -0.3663608315 1.5160739815
| 12> C 1.8489141428 -1.727244633 1.9091517755
| 13> C 3.0629171213 -2.401753004 2.5132693292
| 14> S 1.048404442 -0.6761042776 -1.2470604701
| 15> C -0.037649892 0.7575741526 -1.08686687
| 16> S -0.8490034808 0.8532155573 0.5342594141
| 17> P -2.8441339141 0.2931701961 -0.0039604179
| 18> S -3.1977135606 0.1888221542 -1.9337037874
| 19> O -3.7266418777 1.321273836 0.8118092077
| 20> C -3.7520819961 2.7157925144 0.4457538917
| 21> C -4.8833777236 3.3723973021 1.2103995509
| 22> O -3.2331869807 -0.9748134172 0.8514416802
| 23> C -3.1361522587 -2.3136067696 0.3300806815
| 24> C -1.701851491 -2.8013131693 0.3001404185
| 25> H 5.5986084202 -2.6204953735 -1.147381902
| 26> H 6.3678753584 -1.5099786383 -2.2920502363
| 27> H 6.403260484 -1.1597668432 -0.5571896765
| 28> H 3.8867782281 -1.21912037 -2.3052609072
| 29> H 4.6968582571 0.2546607583 -1.713375097
| 30> H 1.0460074015 -1.6178788703 2.6408888601
| 31> H 1.4862643682 -2.2749903113 1.0345936824
| 32> H 2.7838912097 -3.3932655986 2.8559275973
| 33> H 3.8533058437 -2.485930087 1.7725024605
| 34> H 3.4315776008 -1.8212204091 3.3544393527
| 35> H -0.8005965071 0.6773740593 -1.8651633984
| 36> H 0.5632177595 1.6597206143 -1.2047905814
| 37> H -2.7858549443 3.1610171525 0.703047594
| 38> H -3.9034997708 2.7923521431 -0.63664753
| 39> H -4.917389962 4.4278911334 0.9612645324
| 40> H -5.8291243422 2.9084581318 0.9457744675
| 41> H -4.7223296215 3.2578175804 2.2782476843
| 42> H -3.7477516324 -2.9047889504 1.0131440795
| 43> H -3.5747861546 -2.3341162128 -0.6729401788
| 44> H -1.1269298221 -2.2322483214 -0.4300264438
| 45> H -1.2476688293 -2.6852791414 1.2809132502
| 46> H -1.6840432434 -3.8486897845 0.0167871202
| 47> *
| 48>
| 49>                          ****END OF INPUT****

CARTESIAN COORDINATES (ANGSTROEM)
---------------------------------
  C      5.808565   -1.577347   -1.364791
  C      4.513098   -0.805446   -1.510391
  O      3.790595   -0.915171   -0.265553
  P      2.573466    0.051206    0.058356
  S      2.937433    1.966844   -0.078853
  O      2.158232   -0.366361    1.516074
  C      1.848914   -1.727245    1.909152
  C      3.062917   -2.401753    2.513269
  S      1.048404   -0.676104   -1.247060
  C     -0.037650    0.757574   -1.086867
  S     -0.849003    0.853216    0.534259
  P     -2.844134    0.293170   -0.003960
  S     -3.197714    0.188822   -1.933704
  O     -3.726642    1.321274    0.811809
  C     -3.752082    2.715793    0.445754
  C     -4.883378    3.372397    1.210400
  O     -3.233187   -0.974813    0.851442
  C     -3.136152   -2.313607    0.330081
  C     -1.701851   -2.801313    0.300140
  H      5.598608   -2.620495   -1.147382
  H      6.367875   -1.509979   -2.292050
  H      6.403260   -1.159767   -0.557190
  H      3.886778   -1.219120   -2.305261
  H      4.696858    0.254661   -1.713375
  H      1.046007   -1.617879    2.640889
  H      1.486264   -2.274990    1.034594
  H      2.783891   -3.393266    2.855928
  H      3.853306   -2.485930    1.772502
  H      3.431578   -1.821220    3.354439
  H     -0.800597    0.677374   -1.865163
  H      0.563218    1.659721   -1.204791
  H     -2.785855    3.161017    0.703048
  H     -3.903500    2.792352   -0.636648
  H     -4.917390    4.427891    0.961265
  H     -5.829124    2.908458    0.945774
  H     -4.722330    3.257818    2.278248
  H     -3.747752   -2.904789    1.013144
  H     -3.574786   -2.334116   -0.672940
  H     -1.126930   -2.232248   -0.430026
  H     -1.247669   -2.685279    1.280913
  H     -1.684043   -3.848690    0.016787

 Total Charge           Charge          ....    0
 Multiplicity           Mult            ....    1
 Number of Electrons    NEL             ....  202
 Basis Dimension        Dim             ....  334

ORBITAL ENERGIES
----------------

  NO   OCC          E(Eh)            E(eV)
   0   2.0000     -88.044582     -2395.8149
   1   2.0000     -88.042642     -2395.7621
   2   2.0000     -87.994014     -2394.4388
   3   2.0000     -87.986332     -2394.2298
   4   2.0000     -76.428240     -2079.7181
   5   2.0000     -76.427763     -2079.7052
   6   2.0000     -18.800170      -511.5786
   7   2.0000     -18.796462      -511.4777
   8   2.0000     -18.793174      -511.3883
   9   2.0000     -18.792000      -511.3563
  10   2.0000      -9.958613      -270.9876
  11   2.0000      -9.958164      -270.9754
  12   2.0000      -9.954868      -270.8857
  13   2.0000      -9.952113      -270.8107
  14   2.0000      -9.949066      -270.7279
  15   2.0000      -9.893299      -269.2103
  16   2.0000      -9.888999      -269.0933
  17   2.0000      -9.886728      -269.0315
  18   2.0000      -9.886194      -269.0170
  19   2.0000      -7.689188      -209.2334
  20   2.0000      -7.687348      -209.1834
  21   2.0000      -7.638875      -207.8643
  22   2.0000      -7.631673      -207.6684
  23   2.0000      -6.425968      -174.8595
  24   2.0000      -6.425638      -174.8505
  25   2.0000      -5.716758      -155.5609
  26   2.0000      -5.715141      -155.5169
  27   2.0000      -5.713745      -155.4789
  28   2.0000      -5.711832      -155.4269
  29   2.0000      -5.706506      -155.2819
  30   2.0000      -5.704524      -155.2280
  31   2.0000      -5.667543      -154.2217
  32   2.0000      -5.660675      -154.0348
  33   2.0000      -5.659438      -154.0011
  34   2.0000      -5.659359      -153.9990
  35   2.0000      -5.652157      -153.8030
  36   2.0000      -5.651840      -153.7944
  37   2.0000      -4.648530      -126.4929
  38   2.0000      -4.648137      -126.4822
  39   2.0000      -4.647887      -126.4754
  40   2.0000      -4.647409      -126.4624
  41   2.0000      -4.646530      -126.4385
  42   2.0000      -4.645717      -126.4164
  43   2.0000      -0.993751       -27.0413
  44   2.0000      -0.991785       -26.9878
  45   2.0000      -0.951220       -25.8840
  46   2.0000      -0.947617       -25.7860
  47   2.0000      -0.762056       -20.7366
  48   2.0000      -0.724905       -19.7257
  49   2.0000      -0.715481       -19.4692
  50   2.0000      -0.696875       -18.9629
  51   2.0000      -0.686460       -18.6795
  52   2.0000      -0.678090       -18.4518
  53   2.0000      -0.650792       -17.7090
  54   2.0000      -0.639216       -17.3940
  55   2.0000      -0.602259       -16.3883
  56   2.0000      -0.592531       -16.1236
  57   2.0000      -0.573608       -15.6087
  58   2.0000      -0.566059       -15.4032
  59   2.0000      -0.561829       -15.2881
  60   2.0000      -0.513188       -13.9646
  61   2.0000      -0.504450       -13.7268
  62   2.0000      -0.486443       -13.2368
  63   2.0000      -0.473680       -12.8895
  64   2.0000      -0.458737       -12.4829
  65   2.0000      -0.449660       -12.2359
  66   2.0000      -0.442385       -12.0379
  67   2.0000      -0.440169       -11.9776
  68   2.0000      -0.433038       -11.7836
  69   2.0000      -0.424759       -11.5583
  70   2.0000      -0.408253       -11.1091
  71   2.0000      -0.397365       -10.8129
  72   2.0000      -0.393561       -10.7093
  73   2.0000      -0.385747       -10.4967
  74   2.0000      -0.383376       -10.4322
  75   2.0000      -0.374915       -10.2019
  76   2.0000      -0.368420       -10.0252
  77   2.0000      -0.360964        -9.8223
  78   2.0000      -0.356289        -9.6951
  79   2.0000      -0.355572        -9.6756
  80   2.0000      -0.352141        -9.5822
  81   2.0000      -0.347994        -9.4694
  82   2.0000      -0.345359        -9.3977
  83   2.0000      -0.341981        -9.3058
  84   2.0000      -0.336979        -9.1697
  85   2.0000      -0.322511        -8.7760
  86   2.0000      -0.312536        -8.5045
  87   2.0000      -0.305437        -8.3114
  88   2.0000      -0.305074        -8.3015
  89   2.0000      -0.296131        -8.0581
  90   2.0000      -0.294918        -8.0251
  91   2.0000      -0.278114        -7.5679
  92   2.0000      -0.270553        -7.3621
  93   2.0000      -0.265712        -7.2304
  94   2.0000      -0.258192        -7.0258
  95   2.0000      -0.234348        -6.3769
  96   2.0000      -0.224891        -6.1196
  97   2.0000      -0.214939        -5.8488
  98   2.0000      -0.209604        -5.7036
  99   2.0000      -0.204951        -5.5770
 100   2.0000      -0.200849        -5.4654
 101   0.0000      -0.044320        -1.2060
 102   0.0000      -0.031227        -0.8497
 103   0.0000      -0.009032        -0.2458
 104   0.0000       0.003480         0.0947
 105   0.0000       0.010291         0.2800

MULLIKEN ATOMIC CHARGES
-----------------------
   0 C :   -0.283126
   1 C :   -0.013258
   2 O :   -0.384615
   3 P :    0.597783
   4 S :   -0.308432
   5 O :   -0.347049
   6 C :   -0.026924
   7 C :   -0.288759
   8 S :   -0.108473
   9 C :   -0.369338
  10 S :   -0.088574
  11 P :    0.596169
  12 S :   -0.330475
  13 O :   -0.359451
  14 C :   -0.013180
  15 C :   -0.277423
  16 O :   -0.354037
  17 C :    0.001514
  18 C :   -0.332815
  19 H :    0.116525
  20 H :    0.115239
  21 H :    0.123624
  22 H :    0.106451
  23 H :    0.109406
  24 H :    0.118520
  25 H :    0.111566
  26 H :    0.109623
  27 H :    0.122263
  28 H :    0.121145
  29 H :    0.192686
  30 H :    0.197191
  31 H :    0.106011
  32 H :    0.104187
  33 H :    0.112432
  34 H :    0.120226
  35 H :    0.118656
  36 H :    0.107027
  37 H :    0.114383
  38 H :    0.134827
  39 H :    0.118176
  40 H :    0.110300
Sum of atomic charges:    0.0000000

LOEWDIN ATOMIC CHARGES
----------------------
   0 C :   -0.350440
   1 C :   -0.119494
   2 O :   -0.249387
   3 P :    0.563809
   4 S :   -0.305883
   5 O :   -0.229251
   6 C :   -0.115157
   7 C :   -0.359545
   8 S :    0.073402
   9 C :   -0.492181
  10 S :    0.076911
  11 P :    0.568443
  12 S :   -0.310063
  13 O :   -0.237530
  14 C :   -0.121901
  15 C :   -0.349241
  16 O :   -0.232550
  17 C :   -0.116195
  18 C :   -0.370215
  19 H :    0.125842
  20 H :    0.132599
  21 H :    0.130172
  22 H :    0.109766
  23 H :    0.111809
  24 H :    0.121929
  25 H :    0.105577
  26 H :    0.129602
  27 H :    0.125682
  28 H :    0.129559
  29 H :    0.123748
  30 H :    0.127554
  31 H :    0.108270
  32 H :    0.108835
  33 H :    0.131098
  34 H :    0.128837
  35 H :    0.128169
  36 H :    0.119754
  37 H :    0.110785
  38 H :    0.113106
  39 H :    0.123526
  40 H :    0.130248

  Mayer bond orders larger than 0.100000
B(  0-C ,  1-C ) :   1.1599 B(  0-C , 19-H ) :   0.9508 B(  0-C , 20-H ) :   0.9415
B(  0-C , 21-H ) :   0.9506 B(  1-C ,  2-O ) :   0.9014 B(  1-C , 22-H ) :   0.9278
B(  1-C , 23-H ) :   0.9112 B(  2-O ,  3-P ) :   1.0817 B(  3-P ,  4-S ) :   1.6567
B(  3-P ,  5-O ) :   1.1497 B(  3-P ,  8-S ) :   0.9481 B(  4-S ,  8-S ) :   0.1089
B(  5-O ,  6-C ) :   0.8897 B(  6-C ,  7-C ) :   1.1610 B(  6-C , 24-H ) :   0.9318
B(  6-C , 25-H ) :   0.9097 B(  7-C , 26-H ) :   0.9399 B(  7-C , 27-H ) :   0.9406
B(  7-C , 28-H ) :   0.9463 B(  8-S ,  9-C ) :   1.0050 B(  9-C , 10-S ) :   1.0070
B(  9-C , 29-H ) :   0.8496 B(  9-C , 30-H ) :   0.8674 B( 10-S , 11-P ) :   0.9492
B( 10-S , 12-S ) :   0.1248 B( 11-P , 12-S ) :   1.5948 B( 11-P , 13-O ) :   1.1323
B( 11-P , 16-O ) :   1.1365 B( 12-S , 29-H ) :   0.1183 B( 13-O , 14-C ) :   0.9066
B( 14-C , 15-C ) :   1.1621 B( 14-C , 31-H ) :   0.9218 B( 14-C , 32-H ) :   0.9144
B( 15-C , 33-H ) :   0.9419 B( 15-C , 34-H ) :   0.9512 B( 15-C , 35-H ) :   0.9507
B( 16-O , 17-C ) :   0.9120 B( 17-C , 18-C ) :   1.1604 B( 17-C , 36-H ) :   0.9332
B( 17-C , 37-H ) :   0.9140 B( 18-C , 38-H ) :   0.9280 B( 18-C , 39-H ) :   0.9416
B( 18-C , 40-H ) :   0.9378

Dispersion correction           -0.061354440
FINAL SINGLE POINT ENERGY     -2929.524651076008

DIPOLE MOMENT
-------------

Method             : SCF
Type of density    : Electron Density
Multiplicity       :   1
Irrep              :   0
Energy             : -2929.6466149094585489 Eh
Relativity type    :
Basis              : AO
                                X                 Y                 Z
Electronic contribution:     -5.353717066      11.277704641      -5.440676553
Nuclear contribution   :      5.649079230     -12.555737576       5.733156093
                        -----------------------------------------
Total Dipole Moment    :      0.295362164      -1.278032934       0.292479540
                        -----------------------------------------
Magnitude (a.u.)       :      1.343931275
Magnitude (Debye)      :      3.416001826

Rotational constants in cm-1:             0.013062             0.004045             0.003778
Rotational constants in MHz :           391.583743           121.265800           113.276575

                             ****ORCA TERMINATED NORMALLY****
TOTAL RUN TIME: 0 days 0 hours 0 minutes 21 seconds 347 msec
