                         Program Version 6.0.0  -   RELEASE  -
|  1> ! r2scan-3c def2/J RI DEFGRID2 scfconv6 printgap
|  2> %output
|  3>     printlevel normal
|  4> end
|  5> * xyz 0 1
|  6> C -1.8293310919 -0.7566506678 -0.1251800633
|  7> C -1.8304633763 0.7561632321 0.1249380633
|  8> C -0.5347378524 1.3043717914 -0.4400749872
|  9> S 0.6567230851 3.18526e-05 3.9116e-06
| 10> C -0.534638657 -1.3031394542 0.443505286
| 11> O 1.4529261743 0.3849932967 1.1581672601
| 12> O 1.4483151657 -0.3857688772 -1.1610032967
| 13> H -1.8642704115 -0.947772674 -1.1981589593
| 14> H -2.6932420385 -1.2254105948 0.3426971448
| 15> H -2.6934528177 1.22382744 -0.3457708623
| 16> H -1.8692822391 0.9472751696 1.1977504214
| 17> H -0.5323251802 1.3658951043 -1.5231717087
| 18> H -0.2027204762 2.2329659917 0.0072141627
| 19> H -0.202145613 -2.2332462775 -0.0004132019
| 20> H -0.5334589944 -1.3611127235 1.5267538661
| 21> *
| 22>
| 23>                          ****END OF INPUT****

CARTESIAN COORDINATES (ANGSTROEM)
---------------------------------
  C     -1.829331   -0.756651   -0.125180
  C     -1.830463    0.756163    0.124938
  C     -0.534738    1.304372   -0.440075
  S      0.656723    0.000032    0.000004
  C     -0.534639   -1.303139    0.443505
  O      1.452926    0.384993    1.158167
  O      1.448315   -0.385769   -1.161003
  H     -1.864270   -0.947773   -1.198159
  H     -2.693242   -1.225411    0.342697
  H     -2.693453    1.223827   -0.345771
  H     -1.869282    0.947275    1.197750
  H     -0.532325    1.365895   -1.523172
  H     -0.202720    2.232966    0.007214
  H     -0.202146   -2.233246   -0.000413
  H     -0.533459   -1.361113    1.526754

 Total Charge           Charge          ....    0
 Multiplicity           Mult            ....    1
 Number of Electrons    NEL             ....   64
 Basis Dimension        Dim             ....  191

ORBITAL ENERGIES
----------------

  NO   OCC          E(Eh)            E(eV)
   0   2.0000     -88.746562     -2414.9167
   1   2.0000     -18.929579      -515.1000
   2   2.0000     -18.929568      -515.0997
   3   2.0000     -10.077079      -274.2113
   4   2.0000     -10.077073      -274.2111
   5   2.0000     -10.067842      -273.9599
   6   2.0000     -10.067715      -273.9565
   7   2.0000      -8.018563      -218.1962
   8   2.0000      -5.963561      -162.2767
   9   2.0000      -5.963438      -162.2734
  10   2.0000      -5.962501      -162.2479
  11   2.0000      -1.060303       -28.8523
  12   2.0000      -0.950746       -25.8711
  13   2.0000      -0.837104       -22.7788
  14   2.0000      -0.737778       -20.0760
  15   2.0000      -0.688949       -18.7473
  16   2.0000      -0.587924       -15.9982
  17   2.0000      -0.559695       -15.2301
  18   2.0000      -0.492975       -13.4145
  19   2.0000      -0.474590       -12.9143
  20   2.0000      -0.442035       -12.0284
  21   2.0000      -0.431785       -11.7495
  22   2.0000      -0.409823       -11.1518
  23   2.0000      -0.406817       -11.0701
  24   2.0000      -0.371814       -10.1176
  25   2.0000      -0.367522       -10.0008
  26   2.0000      -0.355928        -9.6853
  27   2.0000      -0.341839        -9.3019
  28   2.0000      -0.289589        -7.8801
  29   2.0000      -0.272631        -7.4187
  30   2.0000      -0.254326        -6.9206
  31   2.0000      -0.252986        -6.8841
  32   0.0000       0.022658         0.6166
  33   0.0000       0.027129         0.7382
  34   0.0000       0.053564         1.4575
  35   0.0000       0.058135         1.5819
  36   0.0000       0.081384         2.2146

MULLIKEN ATOMIC CHARGES
-----------------------
   0 C :   -0.266331
   1 C :   -0.266014
   2 C :   -0.396393
   3 S :    0.968443
   4 C :   -0.395791
   5 O :   -0.547902
   6 O :   -0.547776
   7 H :    0.175962
   8 H :    0.162474
   9 H :    0.162424
  10 H :    0.175806
  11 H :    0.194786
  12 H :    0.192839
  13 H :    0.192789
  14 H :    0.194684
Sum of atomic charges:   -0.0000000

LOEWDIN ATOMIC CHARGES
----------------------
   0 C :   -0.285550
   1 C :   -0.285546
   2 C :   -0.265613
   3 S :    0.728140
   4 C :   -0.265593
   5 O :   -0.519789
   6 O :   -0.519815
   7 H :    0.166572
   8 H :    0.165942
   9 H :    0.165956
  10 H :    0.166488
  11 H :    0.185740
  12 H :    0.188684
  13 H :    0.188728
  14 H :    0.185655

  Mayer bond orders larger than 0.100000
B(  0-C ,  1-C ) :   0.8809 B(  0-C ,  4-C ) :   0.9017 B(  0-C ,  7-H ) :   0.9813
B(  0-C ,  8-H ) :   0.9397 B(  1-C ,  2-C ) :   0.9020 B(  1-C ,  9-H ) :   0.9398
B(  1-C , 10-H ) :   0.9813 B(  2-C ,  3-S ) :   0.8606 B(  2-C , 11-H ) :   0.9359
B(  2-C , 12-H ) :   0.9285 B(  3-S ,  4-C ) :   0.8608 B(  3-S ,  5-O ) :   1.6626
B(  3-S ,  6-O ) :   1.6624 B(  4-C , 13-H ) :   0.9284 B(  4-C , 14-H ) :   0.9358

Dispersion correction           -0.004686167
FINAL SINGLE POINT ENERGY      -705.746398831321

DIPOLE MOMENT
-------------

Method             : SCF
Type of density    : Electron Density
Multiplicity       :   1
Irrep              :   0
Energy             :  -705.7571504271238609 Eh
Relativity type    :
Basis              : AO
                                X                 Y                 Z
Electronic contribution:      7.743069964      -0.001517790      -0.003747771
Nuclear contribution   :     -9.911847864       0.002259310       0.006432022
                        -----------------------------------------
Total Dipole Moment    :     -2.168777899       0.000741521       0.002684251
                        -----------------------------------------
Magnitude (a.u.)       :      2.168779687
Magnitude (Debye)      :      5.512599871

Rotational constants in cm-1:             0.125922             0.068338             0.062730
Rotational constants in MHz :          3775.043862          2048.709384          1880.588655

                             ****ORCA TERMINATED NORMALLY****
TOTAL RUN TIME: 0 days 0 hours 0 minutes 23 seconds 739 msec
