                         Program Version 6.0.0  -   RELEASE  -
|  1> ! r2scan-3c def2/J RI DEFGRID2 scfconv6 printgap
|  2> %output
|  3>     printlevel normal
|  4> end
|  5> %cpcm
|  6>     smd true
|  7>     smdsolvent "water"
|  8> end
|  9> * xyz 0 1
| 10> C -1.8293310919 -0.7566506678 -0.1251800633
| 11> C -1.8304633763 0.7561632321 0.1249380633
| 12> C -0.5347378524 1.3043717914 -0.4400749872
| 13> S 0.6567230851 3.18526e-05 3.9116e-06
| 14> C -0.534638657 -1.3031394542 0.443505286
| 15> O 1.4529261743 0.3849932967 1.1581672601
| 16> O 1.4483151657 -0.3857688772 -1.1610032967
| 17> H -1.8642704115 -0.947772674 -1.1981589593
| 18> H -2.6932420385 -1.2254105948 0.3426971448
| 19> H -2.6934528177 1.22382744 -0.3457708623
| 20> H -1.8692822391 0.9472751696 1.1977504214
| 21> H -0.5323251802 1.3658951043 -1.5231717087
| 22> H -0.2027204762 2.2329659917 0.0072141627
| 23> H -0.202145613 -2.2332462775 -0.0004132019
| 24> H -0.5334589944 -1.3611127235 1.5267538661
| 25> *
| 26>
| 27>                          ****END OF INPUT****

CARTESIAN COORDINATES (ANGSTROEM)
---------------------------------
  C     -1.829331   -0.756651   -0.125180
  C     -1.830463    0.756163    0.124938
  C     -0.534738    1.304372   -0.440075
  S      0.656723    0.000032    0.000004
  C     -0.534639   -1.303139    0.443505
  O      1.452926    0.384993    1.158167
  O      1.448315   -0.385769   -1.161003
  H     -1.864270   -0.947773   -1.198159
  H     -2.693242   -1.225411    0.342697
  H     -2.693453    1.223827   -0.345771
  H     -1.869282    0.947275    1.197750
  H     -0.532325    1.365895   -1.523172
  H     -0.202720    2.232966    0.007214
  H     -0.202146   -2.233246   -0.000413
  H     -0.533459   -1.361113    1.526754

 Total Charge           Charge          ....    0
 Multiplicity           Mult            ....    1
 Number of Electrons    NEL             ....   64
 Basis Dimension        Dim             ....  191

ORBITAL ENERGIES
----------------

  NO   OCC          E(Eh)            E(eV)
   0   2.0000     -88.753601     -2415.1083
   1   2.0000     -18.946076      -515.5489
   2   2.0000     -18.946075      -515.5489
   3   2.0000     -10.062483      -273.8141
   4   2.0000     -10.062479      -273.8140
   5   2.0000     -10.041424      -273.2410
   6   2.0000     -10.041297      -273.2376
   7   2.0000      -8.026280      -218.4062
   8   2.0000      -5.972019      -162.5069
   9   2.0000      -5.970344      -162.4613
  10   2.0000      -5.970072      -162.4539
  11   2.0000      -1.076076       -29.2815
  12   2.0000      -0.969331       -26.3768
  13   2.0000      -0.820501       -22.3270
  14   2.0000      -0.720389       -19.6028
  15   2.0000      -0.676023       -18.3955
  16   2.0000      -0.567250       -15.4357
  17   2.0000      -0.551695       -15.0124
  18   2.0000      -0.477487       -12.9931
  19   2.0000      -0.474144       -12.9021
  20   2.0000      -0.435184       -11.8420
  21   2.0000      -0.422340       -11.4925
  22   2.0000      -0.413208       -11.2440
  23   2.0000      -0.403816       -10.9884
  24   2.0000      -0.358828        -9.7642
  25   2.0000      -0.346403        -9.4261
  26   2.0000      -0.334725        -9.1083
  27   2.0000      -0.319023        -8.6811
  28   2.0000      -0.303797        -8.2667
  29   2.0000      -0.288139        -7.8407
  30   2.0000      -0.274440        -7.4679
  31   2.0000      -0.258067        -7.0224
  32   0.0000       0.030185         0.8214
  33   0.0000       0.032157         0.8750
  34   0.0000       0.057920         1.5761
  35   0.0000       0.058458         1.5907
  36   0.0000       0.097748         2.6598

MULLIKEN ATOMIC CHARGES
-----------------------
   0 C :   -0.266749
   1 C :   -0.266280
   2 C :   -0.396959
   3 S :    0.948796
   4 C :   -0.396410
   5 O :   -0.621342
   6 O :   -0.621152
   7 H :    0.193276
   8 H :    0.184679
   9 H :    0.184583
  10 H :    0.193242
  11 H :    0.216758
  12 H :    0.215426
  13 H :    0.215420
  14 H :    0.216713
Sum of atomic charges:   -0.0000000

LOEWDIN ATOMIC CHARGES
----------------------
   0 C :   -0.278355
   1 C :   -0.278352
   2 C :   -0.249349
   3 S :    0.737792
   4 C :   -0.249336
   5 O :   -0.583936
   6 O :   -0.583917
   7 H :    0.172204
   8 H :    0.176808
   9 H :    0.176798
  10 H :    0.172192
  11 H :    0.196217
  12 H :    0.197514
  13 H :    0.197558
  14 H :    0.196163

  Mayer bond orders larger than 0.100000
B(  0-C ,  1-C ) :   0.8601 B(  0-C ,  4-C ) :   0.8904 B(  0-C ,  7-H ) :   0.9820
B(  0-C ,  8-H ) :   0.9316 B(  1-C ,  2-C ) :   0.8906 B(  1-C ,  9-H ) :   0.9317
B(  1-C , 10-H ) :   0.9819 B(  2-C ,  3-S ) :   0.8911 B(  2-C , 11-H ) :   0.9194
B(  2-C , 12-H ) :   0.9185 B(  3-S ,  4-C ) :   0.8913 B(  3-S ,  5-O ) :   1.5941
B(  3-S ,  6-O ) :   1.5941 B(  4-C , 13-H ) :   0.9184 B(  4-C , 14-H ) :   0.9193

Dispersion correction           -0.004686167
FINAL SINGLE POINT ENERGY      -705.767926793924

DIPOLE MOMENT
-------------

Method             : SCF
Type of density    : Electron Density
Multiplicity       :   1
Irrep              :   0
Energy             :  -705.7786783897262239 Eh
Relativity type    :
Basis              : AO
                                X                 Y                 Z
Electronic contribution:      6.874830137      -0.001178786      -0.002446783
Nuclear contribution   :     -9.911847864       0.002259310       0.006432022
                        -----------------------------------------
Total Dipole Moment    :     -3.037017726       0.001080524       0.003985238
                        -----------------------------------------
Magnitude (a.u.)       :      3.037020533
Magnitude (Debye)      :      7.719492718

Rotational constants in cm-1:             0.125922             0.068338             0.062730
Rotational constants in MHz :          3775.043862          2048.709384          1880.588655

                             ****ORCA TERMINATED NORMALLY****
TOTAL RUN TIME: 0 days 0 hours 0 minutes 29 seconds 650 msec
