                         Program Version 6.0.0  -   RELEASE  -
|  1> ! r2scan-3c def2/J RI DEFGRID2 scfconv6 printgap
|  2> %output
|  3>     printlevel normal
|  4> end
|  5> * xyz 0 1
|  6> C 0.7664872996 -1.4646836289 3.1700563757
|  7> C 2.0277817725 -0.87784494 2.5709910445
|  8> O 1.663113866 -0.0126063317 1.4654158651
|  9> P 2.4428879939 -0.0135110803 0.0919560818
| 10> S 3.1998707359 -1.7324679344 -0.4802965826
| 11> O 3.5021523617 1.146333029 0.3245796225
| 12> C 4.6304139579 1.3663623357 -0.5468509167
| 13> C 5.8997389642 1.3629494167 0.2826718357
| 14> S 1.0184659728 0.8543312831 -1.2034712941
| 15> C 0.1439780263 -0.691346173 -1.5815804825
| 16> S -0.9645391336 -1.2016809709 -0.2533132806
| 17> P -2.4188109164 0.3313190956 -0.5686140819
| 18> S -2.6923989756 0.8341581743 -2.4405627032
| 19> O -2.0165737355 1.5752145998 0.3025119915
| 20> C -1.4760252256 1.5808191789 1.6469938767
| 21> C -2.3551542931 0.8492140156 2.637749945
| 22> O -3.7058384457 -0.2357552383 0.1650641814
| 23> C -4.4824617341 -1.3052516383 -0.4119206392
| 24> C -5.8270328465 -1.330563028 0.2860225052
| 25> H 0.1257656415 -0.6734525506 3.5467252713
| 26> H 0.2246134779 -2.0316201494 2.4167479963
| 27> H 1.0394455323 -2.1253359469 3.9865282134
| 28> H 2.6894855671 -1.6651749824 2.1952473546
| 29> H 2.5683927554 -0.2605772413 3.2907052597
| 30> H 4.6585239817 0.578227821 -1.3056937909
| 31> H 4.4679446342 2.3317874394 -1.0300159319
| 32> H 6.7444405461 1.5971778242 -0.356909616
| 33> H 5.8288373926 2.1043649883 1.0732128657
| 34> H 6.0511049466 0.3828833774 0.7285202121
| 35> H 0.8701965196 -1.4916127841 -1.7281409427
| 36> H -0.4401626908 -0.50828297 -2.4843610754
| 37> H -0.4718684108 1.1489473335 1.6134580778
| 38> H -1.4071547042 2.6454721639 1.8764335776
| 39> H -2.3569462529 -0.21815611 2.4278842914
| 40> H -1.973421838 1.0162986435 3.6406591636
| 41> H -3.3744814023 1.2215868968 2.5777871692
| 42> H -4.5899676697 -1.1189906125 -1.4857002997
| 43> H -3.9366159352 -2.2408961739 -0.2643720959
| 44> H -6.3405590174 -0.3846972456 0.1392979151
| 45> H -6.4283554969 -2.1323145301 -0.1296378892
| 46> H -5.6909695296 -1.4970093339 1.3503648626
| 47> *
| 48>
| 49>                          ****END OF INPUT****

CARTESIAN COORDINATES (ANGSTROEM)
---------------------------------
  C      0.766487   -1.464684    3.170056
  C      2.027782   -0.877845    2.570991
  O      1.663114   -0.012606    1.465416
  P      2.442888   -0.013511    0.091956
  S      3.199871   -1.732468   -0.480297
  O      3.502152    1.146333    0.324580
  C      4.630414    1.366362   -0.546851
  C      5.899739    1.362949    0.282672
  S      1.018466    0.854331   -1.203471
  C      0.143978   -0.691346   -1.581580
  S     -0.964539   -1.201681   -0.253313
  P     -2.418811    0.331319   -0.568614
  S     -2.692399    0.834158   -2.440563
  O     -2.016574    1.575215    0.302512
  C     -1.476025    1.580819    1.646994
  C     -2.355154    0.849214    2.637750
  O     -3.705838   -0.235755    0.165064
  C     -4.482462   -1.305252   -0.411921
  C     -5.827033   -1.330563    0.286023
  H      0.125766   -0.673453    3.546725
  H      0.224613   -2.031620    2.416748
  H      1.039446   -2.125336    3.986528
  H      2.689486   -1.665175    2.195247
  H      2.568393   -0.260577    3.290705
  H      4.658524    0.578228   -1.305694
  H      4.467945    2.331787   -1.030016
  H      6.744441    1.597178   -0.356910
  H      5.828837    2.104365    1.073213
  H      6.051105    0.382883    0.728520
  H      0.870197   -1.491613   -1.728141
  H     -0.440163   -0.508283   -2.484361
  H     -0.471868    1.148947    1.613458
  H     -1.407155    2.645472    1.876434
  H     -2.356946   -0.218156    2.427884
  H     -1.973422    1.016299    3.640659
  H     -3.374481    1.221587    2.577787
  H     -4.589968   -1.118991   -1.485700
  H     -3.936616   -2.240896   -0.264372
  H     -6.340559   -0.384697    0.139298
  H     -6.428355   -2.132315   -0.129638
  H     -5.690970   -1.497009    1.350365

 Total Charge           Charge          ....    0
 Multiplicity           Mult            ....    1
 Number of Electrons    NEL             ....  202
 Basis Dimension        Dim             ....  539

ORBITAL ENERGIES
----------------

  NO   OCC          E(Eh)            E(eV)
   0   2.0000     -88.577295     -2410.3107
   1   2.0000     -88.575197     -2410.2536
   2   2.0000     -88.524140     -2408.8643
   3   2.0000     -88.515569     -2408.6311
   4   2.0000     -76.917362     -2093.0278
   5   2.0000     -76.913004     -2092.9092
   6   2.0000     -18.996645      -516.9250
   7   2.0000     -18.995744      -516.9005
   8   2.0000     -18.993824      -516.8482
   9   2.0000     -18.990556      -516.7593
  10   2.0000     -10.103303      -274.9248
  11   2.0000     -10.101973      -274.8887
  12   2.0000     -10.101638      -274.8795
  13   2.0000     -10.099599      -274.8241
  14   2.0000     -10.099186      -274.8128
  15   2.0000     -10.035962      -273.0924
  16   2.0000     -10.034377      -273.0493
  17   2.0000     -10.034074      -273.0410
  18   2.0000     -10.033560      -273.0270
  19   2.0000      -7.871282      -214.1885
  20   2.0000      -7.869576      -214.1421
  21   2.0000      -7.819010      -212.7661
  22   2.0000      -7.810412      -212.5321
  23   2.0000      -6.595978      -179.4857
  24   2.0000      -6.591439      -179.3622
  25   2.0000      -5.818161      -158.3202
  26   2.0000      -5.816298      -158.2695
  27   2.0000      -5.815142      -158.2381
  28   2.0000      -5.813388      -158.1903
  29   2.0000      -5.808462      -158.0563
  30   2.0000      -5.806896      -158.0137
  31   2.0000      -5.766533      -156.9153
  32   2.0000      -5.759252      -156.7172
  33   2.0000      -5.759150      -156.7145
  34   2.0000      -5.758101      -156.6859
  35   2.0000      -5.750658      -156.4834
  36   2.0000      -5.750385      -156.4759
  37   2.0000      -4.741482      -129.0223
  38   2.0000      -4.740833      -129.0046
  39   2.0000      -4.739726      -128.9745
  40   2.0000      -4.737115      -128.9034
  41   2.0000      -4.736593      -128.8892
  42   2.0000      -4.734800      -128.8405
  43   2.0000      -1.053986       -28.6804
  44   2.0000      -1.050583       -28.5878
  45   2.0000      -1.014916       -27.6173
  46   2.0000      -1.011419       -27.5221
  47   2.0000      -0.802706       -21.8427
  48   2.0000      -0.763493       -20.7757
  49   2.0000      -0.754508       -20.5312
  50   2.0000      -0.737901       -20.0793
  51   2.0000      -0.736664       -20.0457
  52   2.0000      -0.711717       -19.3668
  53   2.0000      -0.684298       -18.6207
  54   2.0000      -0.668517       -18.1913
  55   2.0000      -0.631018       -17.1709
  56   2.0000      -0.625591       -17.0232
  57   2.0000      -0.607805       -16.5392
  58   2.0000      -0.602911       -16.4061
  59   2.0000      -0.593399       -16.1472
  60   2.0000      -0.537948       -14.6383
  61   2.0000      -0.526587       -14.3291
  62   2.0000      -0.505009       -13.7420
  63   2.0000      -0.495715       -13.4891
  64   2.0000      -0.476636       -12.9699
  65   2.0000      -0.464872       -12.6498
  66   2.0000      -0.460894       -12.5416
  67   2.0000      -0.454543       -12.3687
  68   2.0000      -0.452903       -12.3241
  69   2.0000      -0.435867       -11.8605
  70   2.0000      -0.425324       -11.5736
  71   2.0000      -0.418755       -11.3949
  72   2.0000      -0.411307       -11.1922
  73   2.0000      -0.401937       -10.9373
  74   2.0000      -0.394042       -10.7224
  75   2.0000      -0.392486       -10.6801
  76   2.0000      -0.382423       -10.4062
  77   2.0000      -0.380398       -10.3512
  78   2.0000      -0.374228       -10.1833
  79   2.0000      -0.369672       -10.0593
  80   2.0000      -0.367821       -10.0089
  81   2.0000      -0.363266        -9.8850
  82   2.0000      -0.359979        -9.7955
  83   2.0000      -0.357542        -9.7292
  84   2.0000      -0.351541        -9.5659
  85   2.0000      -0.335690        -9.1346
  86   2.0000      -0.326318        -8.8796
  87   2.0000      -0.316071        -8.6007
  88   2.0000      -0.314490        -8.5577
  89   2.0000      -0.308701        -8.4002
  90   2.0000      -0.305700        -8.3185
  91   2.0000      -0.297458        -8.0942
  92   2.0000      -0.286727        -7.8022
  93   2.0000      -0.280395        -7.6299
  94   2.0000      -0.273918        -7.4537
  95   2.0000      -0.249906        -6.8003
  96   2.0000      -0.234437        -6.3794
  97   2.0000      -0.226560        -6.1650
  98   2.0000      -0.218019        -5.9326
  99   2.0000      -0.214022        -5.8238
 100   2.0000      -0.211358        -5.7513
 101   0.0000      -0.046582        -1.2676
 102   0.0000      -0.026261        -0.7146
 103   0.0000      -0.002365        -0.0644
 104   0.0000       0.002353         0.0640
 105   0.0000       0.014246         0.3877

MULLIKEN ATOMIC CHARGES
-----------------------
   0 C :   -0.465934
   1 C :   -0.125213
   2 O :   -0.263719
   3 P :    0.672534
   4 S :   -0.492035
   5 O :   -0.304673
   6 C :   -0.116403
   7 C :   -0.455474
   8 S :   -0.109129
   9 C :   -0.239799
  10 S :   -0.184019
  11 P :    0.677043
  12 S :   -0.463781
  13 O :   -0.257160
  14 C :   -0.164343
  15 C :   -0.449090
  16 O :   -0.264391
  17 C :   -0.158706
  18 C :   -0.438936
  19 H :    0.150088
  20 H :    0.172937
  21 H :    0.147162
  22 H :    0.171622
  23 H :    0.150226
  24 H :    0.165142
  25 H :    0.151223
  26 H :    0.147658
  27 H :    0.153531
  28 H :    0.162625
  29 H :    0.213180
  30 H :    0.221538
  31 H :    0.188671
  32 H :    0.153064
  33 H :    0.163498
  34 H :    0.148844
  35 H :    0.160847
  36 H :    0.173303
  37 H :    0.151163
  38 H :    0.159758
  39 H :    0.147403
  40 H :    0.149744
Sum of atomic charges:   -0.0000000

LOEWDIN ATOMIC CHARGES
----------------------
   0 C :   -0.393090
   1 C :    0.023911
   2 O :   -0.683884
   3 P :    0.369904
   4 S :   -0.144346
   5 O :   -0.659636
   6 C :    0.023220
   7 C :   -0.389721
   8 S :    0.181843
   9 C :   -0.424126
  10 S :    0.133991
  11 P :    0.379587
  12 S :   -0.112048
  13 O :   -0.647170
  14 C :    0.022873
  15 C :   -0.405333
  16 O :   -0.674261
  17 C :    0.019228
  18 C :   -0.385450
  19 H :    0.158097
  20 H :    0.166540
  21 H :    0.159864
  22 H :    0.183612
  23 H :    0.172795
  24 H :    0.181166
  25 H :    0.174450
  26 H :    0.160115
  27 H :    0.159138
  28 H :    0.162207
  29 H :    0.193127
  30 H :    0.194555
  31 H :    0.194229
  32 H :    0.183283
  33 H :    0.162480
  34 H :    0.158709
  35 H :    0.165600
  36 H :    0.182225
  37 H :    0.171508
  38 H :    0.162291
  39 H :    0.160448
  40 H :    0.158066

  Mayer bond orders larger than 0.100000
B(  0-C ,  1-C ) :   0.9562 B(  0-C , 19-H ) :   0.9670 B(  0-C , 20-H ) :   0.9672
B(  0-C , 21-H ) :   0.9634 B(  1-C ,  2-O ) :   0.7634 B(  1-C , 22-H ) :   0.9543
B(  1-C , 23-H ) :   0.9504 B(  2-O ,  3-P ) :   1.1619 B(  3-P ,  4-S ) :   1.7463
B(  3-P ,  5-O ) :   1.0790 B(  3-P ,  8-S ) :   1.1021 B(  5-O ,  6-C ) :   0.7535
B(  6-C ,  7-C ) :   0.9620 B(  6-C , 24-H ) :   0.9587 B(  6-C , 25-H ) :   0.9540
B(  7-C , 26-H ) :   0.9654 B(  7-C , 27-H ) :   0.9731 B(  7-C , 28-H ) :   0.9702
B(  8-S ,  9-C ) :   0.9202 B(  9-C , 10-S ) :   0.9186 B(  9-C , 29-H ) :   0.9012
B(  9-C , 30-H ) :   0.9007 B( 10-S , 11-P ) :   0.9643 B( 11-P , 12-S ) :   1.8084
B( 11-P , 13-O ) :   1.1999 B( 11-P , 16-O ) :   1.0581 B( 13-O , 14-C ) :   0.8049
B( 14-C , 15-C ) :   0.8994 B( 14-C , 31-H ) :   0.9561 B( 14-C , 32-H ) :   0.9627
B( 15-C , 33-H ) :   0.9668 B( 15-C , 34-H ) :   0.9606 B( 15-C , 35-H ) :   0.9626
B( 16-O , 17-C ) :   0.7795 B( 17-C , 18-C ) :   0.9557 B( 17-C , 36-H ) :   0.9508
B( 17-C , 37-H ) :   0.9425 B( 18-C , 38-H ) :   0.9715 B( 18-C , 39-H ) :   0.9641
B( 18-C , 40-H ) :   0.9715

Dispersion correction           -0.021150563
FINAL SINGLE POINT ENERGY     -2932.463995174048

DIPOLE MOMENT
-------------

Method             : SCF
Type of density    : Electron Density
Multiplicity       :   1
Irrep              :   0
Energy             : -2932.4893593818683257 Eh
Relativity type    :
Basis              : AO
                                X                 Y                 Z
Electronic contribution:      1.918948721       3.135190061     -19.481706796
Nuclear contribution   :     -1.680077862      -3.327295915      21.299703983
                        -----------------------------------------
Total Dipole Moment    :      0.238870858      -0.192105855       1.817997188
                        -----------------------------------------
Magnitude (a.u.)       :      1.843658786
Magnitude (Debye)      :      4.686208216

Rotational constants in cm-1:             0.014020             0.004435             0.004095
Rotational constants in MHz :           420.309826           132.967541           122.775446

                             ****ORCA TERMINATED NORMALLY****
TOTAL RUN TIME: 0 days 0 hours 1 minutes 18 seconds 262 msec
