                         Program Version 6.0.0  -   RELEASE  -
|  1> ! r2scan-3c def2/J RI DEFGRID2 scfconv6 printgap
|  2> %output
|  3>     printlevel normal
|  4> end
|  5> %cpcm
|  6>     smd true
|  7>     smdsolvent "water"
|  8> end
|  9> * xyz 0 1
| 10> C 0.7664872996 -1.4646836289 3.1700563757
| 11> C 2.0277817725 -0.87784494 2.5709910445
| 12> O 1.663113866 -0.0126063317 1.4654158651
| 13> P 2.4428879939 -0.0135110803 0.0919560818
| 14> S 3.1998707359 -1.7324679344 -0.4802965826
| 15> O 3.5021523617 1.146333029 0.3245796225
| 16> C 4.6304139579 1.3663623357 -0.5468509167
| 17> C 5.8997389642 1.3629494167 0.2826718357
| 18> S 1.0184659728 0.8543312831 -1.2034712941
| 19> C 0.1439780263 -0.691346173 -1.5815804825
| 20> S -0.9645391336 -1.2016809709 -0.2533132806
| 21> P -2.4188109164 0.3313190956 -0.5686140819
| 22> S -2.6923989756 0.8341581743 -2.4405627032
| 23> O -2.0165737355 1.5752145998 0.3025119915
| 24> C -1.4760252256 1.5808191789 1.6469938767
| 25> C -2.3551542931 0.8492140156 2.637749945
| 26> O -3.7058384457 -0.2357552383 0.1650641814
| 27> C -4.4824617341 -1.3052516383 -0.4119206392
| 28> C -5.8270328465 -1.330563028 0.2860225052
| 29> H 0.1257656415 -0.6734525506 3.5467252713
| 30> H 0.2246134779 -2.0316201494 2.4167479963
| 31> H 1.0394455323 -2.1253359469 3.9865282134
| 32> H 2.6894855671 -1.6651749824 2.1952473546
| 33> H 2.5683927554 -0.2605772413 3.2907052597
| 34> H 4.6585239817 0.578227821 -1.3056937909
| 35> H 4.4679446342 2.3317874394 -1.0300159319
| 36> H 6.7444405461 1.5971778242 -0.356909616
| 37> H 5.8288373926 2.1043649883 1.0732128657
| 38> H 6.0511049466 0.3828833774 0.7285202121
| 39> H 0.8701965196 -1.4916127841 -1.7281409427
| 40> H -0.4401626908 -0.50828297 -2.4843610754
| 41> H -0.4718684108 1.1489473335 1.6134580778
| 42> H -1.4071547042 2.6454721639 1.8764335776
| 43> H -2.3569462529 -0.21815611 2.4278842914
| 44> H -1.973421838 1.0162986435 3.6406591636
| 45> H -3.3744814023 1.2215868968 2.5777871692
| 46> H -4.5899676697 -1.1189906125 -1.4857002997
| 47> H -3.9366159352 -2.2408961739 -0.2643720959
| 48> H -6.3405590174 -0.3846972456 0.1392979151
| 49> H -6.4283554969 -2.1323145301 -0.1296378892
| 50> H -5.6909695296 -1.4970093339 1.3503648626
| 51> *
| 52>
| 53>                          ****END OF INPUT****

CARTESIAN COORDINATES (ANGSTROEM)
---------------------------------
  C      0.766487   -1.464684    3.170056
  C      2.027782   -0.877845    2.570991
  O      1.663114   -0.012606    1.465416
  P      2.442888   -0.013511    0.091956
  S      3.199871   -1.732468   -0.480297
  O      3.502152    1.146333    0.324580
  C      4.630414    1.366362   -0.546851
  C      5.899739    1.362949    0.282672
  S      1.018466    0.854331   -1.203471
  C      0.143978   -0.691346   -1.581580
  S     -0.964539   -1.201681   -0.253313
  P     -2.418811    0.331319   -0.568614
  S     -2.692399    0.834158   -2.440563
  O     -2.016574    1.575215    0.302512
  C     -1.476025    1.580819    1.646994
  C     -2.355154    0.849214    2.637750
  O     -3.705838   -0.235755    0.165064
  C     -4.482462   -1.305252   -0.411921
  C     -5.827033   -1.330563    0.286023
  H      0.125766   -0.673453    3.546725
  H      0.224613   -2.031620    2.416748
  H      1.039446   -2.125336    3.986528
  H      2.689486   -1.665175    2.195247
  H      2.568393   -0.260577    3.290705
  H      4.658524    0.578228   -1.305694
  H      4.467945    2.331787   -1.030016
  H      6.744441    1.597178   -0.356910
  H      5.828837    2.104365    1.073213
  H      6.051105    0.382883    0.728520
  H      0.870197   -1.491613   -1.728141
  H     -0.440163   -0.508283   -2.484361
  H     -0.471868    1.148947    1.613458
  H     -1.407155    2.645472    1.876434
  H     -2.356946   -0.218156    2.427884
  H     -1.973422    1.016299    3.640659
  H     -3.374481    1.221587    2.577787
  H     -4.589968   -1.118991   -1.485700
  H     -3.936616   -2.240896   -0.264372
  H     -6.340559   -0.384697    0.139298
  H     -6.428355   -2.132315   -0.129638
  H     -5.690970   -1.497009    1.350365

 Total Charge           Charge          ....    0
 Multiplicity           Mult            ....    1
 Number of Electrons    NEL             ....  202
 Basis Dimension        Dim             ....  539

ORBITAL ENERGIES
----------------

  NO   OCC          E(Eh)            E(eV)
   0   2.0000     -88.582331     -2410.4478
   1   2.0000     -88.579470     -2410.3699
   2   2.0000     -88.529473     -2409.0094
   3   2.0000     -88.528396     -2408.9801
   4   2.0000     -76.921036     -2093.1278
   5   2.0000     -76.920570     -2093.1151
   6   2.0000     -18.996710      -516.9268
   7   2.0000     -18.996580      -516.9232
   8   2.0000     -18.996205      -516.9130
   9   2.0000     -18.994525      -516.8673
  10   2.0000     -10.104098      -274.9465
  11   2.0000     -10.091399      -274.6009
  12   2.0000     -10.090875      -274.5867
  13   2.0000     -10.090512      -274.5768
  14   2.0000     -10.089669      -274.5539
  15   2.0000     -10.020071      -272.6600
  16   2.0000     -10.019925      -272.6560
  17   2.0000     -10.019069      -272.6327
  18   2.0000     -10.018179      -272.6085
  19   2.0000      -7.876461      -214.3294
  20   2.0000      -7.873763      -214.2560
  21   2.0000      -7.824615      -212.9186
  22   2.0000      -7.823618      -212.8915
  23   2.0000      -6.599532      -179.5824
  24   2.0000      -6.599165      -179.5724
  25   2.0000      -5.823282      -158.4596
  26   2.0000      -5.820521      -158.3844
  27   2.0000      -5.820297      -158.3783
  28   2.0000      -5.817596      -158.3048
  29   2.0000      -5.813717      -158.1993
  30   2.0000      -5.811032      -158.1262
  31   2.0000      -5.772090      -157.0665
  32   2.0000      -5.771169      -157.0415
  33   2.0000      -5.764866      -156.8700
  34   2.0000      -5.764745      -156.8667
  35   2.0000      -5.763871      -156.8429
  36   2.0000      -5.763649      -156.8369
  37   2.0000      -4.745171      -129.1227
  38   2.0000      -4.744612      -129.1074
  39   2.0000      -4.744589      -129.1068
  40   2.0000      -4.744017      -129.0913
  41   2.0000      -4.743042      -129.0647
  42   2.0000      -4.743039      -129.0646
  43   2.0000      -1.054737       -28.7009
  44   2.0000      -1.052840       -28.6492
  45   2.0000      -1.015050       -27.6209
  46   2.0000      -1.012944       -27.5636
  47   2.0000      -0.806131       -21.9359
  48   2.0000      -0.759015       -20.6538
  49   2.0000      -0.747697       -20.3459
  50   2.0000      -0.728135       -19.8136
  51   2.0000      -0.723897       -19.6982
  52   2.0000      -0.710578       -19.3358
  53   2.0000      -0.687746       -18.7145
  54   2.0000      -0.674897       -18.3649
  55   2.0000      -0.627703       -17.0807
  56   2.0000      -0.620864       -16.8946
  57   2.0000      -0.599271       -16.3070
  58   2.0000      -0.594798       -16.1853
  59   2.0000      -0.590124       -16.0581
  60   2.0000      -0.532647       -14.4941
  61   2.0000      -0.523642       -14.2490
  62   2.0000      -0.498900       -13.5758
  63   2.0000      -0.493363       -13.4251
  64   2.0000      -0.477523       -12.9941
  65   2.0000      -0.458850       -12.4859
  66   2.0000      -0.456655       -12.4262
  67   2.0000      -0.446179       -12.1411
  68   2.0000      -0.443477       -12.0676
  69   2.0000      -0.436437       -11.8761
  70   2.0000      -0.422236       -11.4896
  71   2.0000      -0.414389       -11.2761
  72   2.0000      -0.407233       -11.0814
  73   2.0000      -0.396130       -10.7793
  74   2.0000      -0.389758       -10.6059
  75   2.0000      -0.388371       -10.5681
  76   2.0000      -0.381260       -10.3746
  77   2.0000      -0.369598       -10.0573
  78   2.0000      -0.366864        -9.9829
  79   2.0000      -0.358604        -9.7581
  80   2.0000      -0.355857        -9.6834
  81   2.0000      -0.353065        -9.6074
  82   2.0000      -0.351960        -9.5773
  83   2.0000      -0.347610        -9.4590
  84   2.0000      -0.344626        -9.3777
  85   2.0000      -0.330288        -8.9876
  86   2.0000      -0.319729        -8.7003
  87   2.0000      -0.313918        -8.5421
  88   2.0000      -0.308028        -8.3819
  89   2.0000      -0.305451        -8.3117
  90   2.0000      -0.304142        -8.2761
  91   2.0000      -0.292836        -7.9685
  92   2.0000      -0.284976        -7.7546
  93   2.0000      -0.279293        -7.6000
  94   2.0000      -0.275789        -7.5046
  95   2.0000      -0.254061        -6.9134
  96   2.0000      -0.241183        -6.5629
  97   2.0000      -0.234390        -6.3781
  98   2.0000      -0.227004        -6.1771
  99   2.0000      -0.224635        -6.1126
 100   2.0000      -0.221732        -6.0336
 101   0.0000      -0.052462        -1.4276
 102   0.0000      -0.032886        -0.8949
 103   0.0000      -0.005938        -0.1616
 104   0.0000      -0.003178        -0.0865
 105   0.0000       0.013626         0.3708

MULLIKEN ATOMIC CHARGES
-----------------------
   0 C :   -0.504890
   1 C :   -0.113664
   2 O :   -0.281395
   3 P :    0.702931
   4 S :   -0.534691
   5 O :   -0.326957
   6 C :   -0.114754
   7 C :   -0.490511
   8 S :   -0.137477
   9 C :   -0.246797
  10 S :   -0.171903
  11 P :    0.684706
  12 S :   -0.522020
  13 O :   -0.291391
  14 C :   -0.159101
  15 C :   -0.475623
  16 O :   -0.282124
  17 C :   -0.145565
  18 C :   -0.480616
  19 H :    0.171693
  20 H :    0.170441
  21 H :    0.168735
  22 H :    0.170216
  23 H :    0.174155
  24 H :    0.167163
  25 H :    0.174700
  26 H :    0.170199
  27 H :    0.166752
  28 H :    0.165496
  29 H :    0.231309
  30 H :    0.234679
  31 H :    0.187023
  32 H :    0.177822
  33 H :    0.169647
  34 H :    0.176765
  35 H :    0.168751
  36 H :    0.173126
  37 H :    0.170915
  38 H :    0.166690
  39 H :    0.169767
  40 H :    0.165798
Sum of atomic charges:   -0.0000000

LOEWDIN ATOMIC CHARGES
----------------------
   0 C :   -0.395661
   1 C :    0.030988
   2 O :   -0.688076
   3 P :    0.375255
   4 S :   -0.171641
   5 O :   -0.670561
   6 C :    0.027485
   7 C :   -0.393669
   8 S :    0.163317
   9 C :   -0.420706
  10 S :    0.146340
  11 P :    0.380628
  12 S :   -0.158457
  13 O :   -0.669339
  14 C :    0.028823
  15 C :   -0.404267
  16 O :   -0.681824
  17 C :    0.024465
  18 C :   -0.388464
  19 H :    0.164859
  20 H :    0.163986
  21 H :    0.167920
  22 H :    0.183432
  23 H :    0.183240
  24 H :    0.182043
  25 H :    0.184007
  26 H :    0.168572
  27 H :    0.163263
  28 H :    0.161650
  29 H :    0.198286
  30 H :    0.197864
  31 H :    0.194611
  32 H :    0.193272
  33 H :    0.163845
  34 H :    0.170626
  35 H :    0.166356
  36 H :    0.181982
  37 H :    0.179918
  38 H :    0.163278
  39 H :    0.169243
  40 H :    0.163111

  Mayer bond orders larger than 0.100000
B(  0-C ,  1-C ) :   0.9491 B(  0-C , 19-H ) :   0.9638 B(  0-C , 20-H ) :   0.9666
B(  0-C , 21-H ) :   0.9584 B(  1-C ,  2-O ) :   0.7524 B(  1-C , 22-H ) :   0.9531
B(  1-C , 23-H ) :   0.9404 B(  2-O ,  3-P ) :   1.1782 B(  3-P ,  4-S ) :   1.7140
B(  3-P ,  5-O ) :   1.0870 B(  3-P ,  8-S ) :   1.1043 B(  5-O ,  6-C ) :   0.7422
B(  6-C ,  7-C ) :   0.9570 B(  6-C , 24-H ) :   0.9554 B(  6-C , 25-H ) :   0.9454
B(  7-C , 26-H ) :   0.9603 B(  7-C , 27-H ) :   0.9696 B(  7-C , 28-H ) :   0.9687
B(  8-S ,  9-C ) :   0.9078 B(  9-C , 10-S ) :   0.9102 B(  9-C , 29-H ) :   0.8981
B(  9-C , 30-H ) :   0.8974 B( 10-S , 11-P ) :   0.9854 B( 11-P , 12-S ) :   1.7837
B( 11-P , 13-O ) :   1.2034 B( 11-P , 16-O ) :   1.0688 B( 13-O , 14-C ) :   0.7940
B( 14-C , 15-C ) :   0.8981 B( 14-C , 31-H ) :   0.9495 B( 14-C , 32-H ) :   0.9513
B( 15-C , 33-H ) :   0.9614 B( 15-C , 34-H ) :   0.9516 B( 15-C , 35-H ) :   0.9647
B( 16-O , 17-C ) :   0.7708 B( 17-C , 18-C ) :   0.9539 B( 17-C , 36-H ) :   0.9483
B( 17-C , 37-H ) :   0.9328 B( 18-C , 38-H ) :   0.9697 B( 18-C , 39-H ) :   0.9581
B( 18-C , 40-H ) :   0.9680

Dispersion correction           -0.021150563
FINAL SINGLE POINT ENERGY     -2932.473501475262

DIPOLE MOMENT
-------------

Method             : SCF
Type of density    : Electron Density
Multiplicity       :   1
Irrep              :   0
Energy             : -2932.4988656830819309 Eh
Relativity type    :
Basis              : AO
                                X                 Y                 Z
Electronic contribution:      2.067685902       2.865811899     -18.788055131
Nuclear contribution   :     -1.680077862      -3.327295915      21.299703983
                        -----------------------------------------
Total Dipole Moment    :      0.387608040      -0.461484016       2.511648853
                        -----------------------------------------
Magnitude (a.u.)       :      2.582941627
Magnitude (Debye)      :      6.565315862

Rotational constants in cm-1:             0.014020             0.004435             0.004095
Rotational constants in MHz :           420.309826           132.967541           122.775446

                             ****ORCA TERMINATED NORMALLY****
TOTAL RUN TIME: 0 days 0 hours 1 minutes 48 seconds 287 msec
