                         Program Version 6.0.0  -   RELEASE  -
|  1> ! pbe def2-sv(p) def2/J RI DEFGRID1 loosescf d4 GCP(DFT/SV(P)) printgap
|  2> %output
|  3>     printlevel normal
|  4> end
|  5> * xyz 0 1
|  6> C 4.7812900945 0.0130266509 -1.3893613439
|  7> C 4.5917650688 0.0412468309 0.1138143742
|  8> O 3.3108391195 -0.4714323774 0.5018087245
|  9> P 1.9492963412 0.3004022397 0.1556075801
| 10> S 2.1332190193 2.2389201667 0.4038280591
| 11> O 0.9365707936 -0.4557042075 1.1093166391
| 12> C 0.9191396405 -0.1765411121 2.5258686313
| 13> C 1.7120955999 -1.21641045 3.2904152759
| 14> S 1.3768279997 -0.4255426774 -1.748047808
| 15> C 0.1641305067 -1.7351613477 -1.3834588677
| 16> S -1.5190839968 -1.3301079427 -1.9430154252
| 17> P -2.1702000631 -0.0163145059 -0.4311667196
| 18> S -3.9970183036 0.6508158988 -0.647190616
| 19> O -1.0093128379 1.0774788463 -0.444267723
| 20> C -1.3118897548 2.4595229524 -0.1598885072
| 21> C -1.5417833853 2.6873411891 1.3180378904
| 22> O -1.8907092697 -0.7523814011 0.9587157084
| 23> C -2.8883439057 -1.5873197981 1.5736773016
| 24> C -3.0443772152 -2.9139970794 0.8573906825
| 25> H 5.7848063213 0.3463223728 -1.6333888724
| 26> H 4.6291306863 -0.9920429167 -1.7735517201
| 27> H 4.061264104 0.6801927516 -1.8649963838
| 28> H 4.6837300623 1.0648150427 0.4924661302
| 29> H 5.3057851043 -0.6080983174 0.6222399913
| 30> H 1.3191197608 0.8297537646 2.69320419
| 31> H -0.1381083806 -0.1961414572 2.798287122
| 32> H 2.7564016327 -1.1895487513 2.9900591203
| 33> H 1.6401064821 -1.0040443458 4.3526000939
| 34> H 1.315994576 -2.2090107787 3.0952102204
| 35> H 0.16181277 -1.9403390148 -0.318485851
| 36> H 0.4551007432 -2.603892673 -1.9679843556
| 37> H -0.4388013883 3.00683273 -0.5191033895
| 38> H -2.1958929192 2.7457277882 -0.7379664322
| 39> H -1.756504706 3.7378080408 1.4861695419
| 40> H -2.3876488731 2.0903165818 1.6567245239
| 41> H -0.6548779303 2.4100039673 1.8820526762
| 42> H -2.5314570189 -1.7218395389 2.5960593204
| 43> H -3.8376774848 -1.0419833506 1.5804156552
| 44> H -3.7449980901 -3.5341031069 1.4075226633
| 45> H -3.4311989761 -2.7526772223 -0.1479710039
| 46> H -2.0890196563 -3.4277672833 0.7892923445
| 47> *
| 48>
| 49>                          ****END OF INPUT****

CARTESIAN COORDINATES (ANGSTROEM)
---------------------------------
  C      4.781290    0.013027   -1.389361
  C      4.591765    0.041247    0.113814
  O      3.310839   -0.471432    0.501809
  P      1.949296    0.300402    0.155608
  S      2.133219    2.238920    0.403828
  O      0.936571   -0.455704    1.109317
  C      0.919140   -0.176541    2.525869
  C      1.712096   -1.216410    3.290415
  S      1.376828   -0.425543   -1.748048
  C      0.164131   -1.735161   -1.383459
  S     -1.519084   -1.330108   -1.943015
  P     -2.170200   -0.016315   -0.431167
  S     -3.997018    0.650816   -0.647191
  O     -1.009313    1.077479   -0.444268
  C     -1.311890    2.459523   -0.159889
  C     -1.541783    2.687341    1.318038
  O     -1.890709   -0.752381    0.958716
  C     -2.888344   -1.587320    1.573677
  C     -3.044377   -2.913997    0.857391
  H      5.784806    0.346322   -1.633389
  H      4.629131   -0.992043   -1.773552
  H      4.061264    0.680193   -1.864996
  H      4.683730    1.064815    0.492466
  H      5.305785   -0.608098    0.622240
  H      1.319120    0.829754    2.693204
  H     -0.138108   -0.196141    2.798287
  H      2.756402   -1.189549    2.990059
  H      1.640106   -1.004044    4.352600
  H      1.315995   -2.209011    3.095210
  H      0.161813   -1.940339   -0.318486
  H      0.455101   -2.603893   -1.967984
  H     -0.438801    3.006833   -0.519103
  H     -2.195893    2.745728   -0.737966
  H     -1.756505    3.737808    1.486170
  H     -2.387649    2.090317    1.656725
  H     -0.654878    2.410004    1.882053
  H     -2.531457   -1.721840    2.596059
  H     -3.837677   -1.041983    1.580416
  H     -3.744998   -3.534103    1.407523
  H     -3.431199   -2.752677   -0.147971
  H     -2.089020   -3.427767    0.789292

 Total Charge           Charge          ....    0
 Multiplicity           Mult            ....    1
 Number of Electrons    NEL             ....  202
 Basis Dimension        Dim             ....  334

ORBITAL ENERGIES
----------------

  NO   OCC          E(Eh)            E(eV)
   0   2.0000     -88.045256     -2395.8332
   1   2.0000     -88.042985     -2395.7714
   2   2.0000     -87.991104     -2394.3597
   3   2.0000     -87.989230     -2394.3087
   4   2.0000     -76.430325     -2079.7749
   5   2.0000     -76.426685     -2079.6758
   6   2.0000     -18.797530      -511.5068
   7   2.0000     -18.795268      -511.4452
   8   2.0000     -18.791078      -511.3312
   9   2.0000     -18.786368      -511.2031
  10   2.0000      -9.963196      -271.1123
  11   2.0000      -9.956197      -270.9219
  12   2.0000      -9.955630      -270.9065
  13   2.0000      -9.951487      -270.7937
  14   2.0000      -9.937586      -270.4155
  15   2.0000      -9.890029      -269.1214
  16   2.0000      -9.888596      -269.0824
  17   2.0000      -9.885886      -269.0086
  18   2.0000      -9.873598      -268.6743
  19   2.0000      -7.690686      -209.2742
  20   2.0000      -7.688470      -209.2139
  21   2.0000      -7.636039      -207.7872
  22   2.0000      -7.634403      -207.7427
  23   2.0000      -6.427944      -174.9132
  24   2.0000      -6.424552      -174.8210
  25   2.0000      -5.718922      -155.6198
  26   2.0000      -5.717057      -155.5690
  27   2.0000      -5.714887      -155.5100
  28   2.0000      -5.712719      -155.4510
  29   2.0000      -5.707537      -155.3100
  30   2.0000      -5.704881      -155.2377
  31   2.0000      -5.664971      -154.1517
  32   2.0000      -5.663342      -154.1074
  33   2.0000      -5.657016      -153.9352
  34   2.0000      -5.655808      -153.9023
  35   2.0000      -5.654943      -153.8788
  36   2.0000      -5.654607      -153.8697
  37   2.0000      -4.650628      -126.5500
  38   2.0000      -4.649804      -126.5276
  39   2.0000      -4.648221      -126.4845
  40   2.0000      -4.646771      -126.4451
  41   2.0000      -4.646545      -126.4389
  42   2.0000      -4.645088      -126.3993
  43   2.0000      -0.991276       -26.9740
  44   2.0000      -0.984051       -26.7774
  45   2.0000      -0.947463       -25.7818
  46   2.0000      -0.943577       -25.6760
  47   2.0000      -0.763971       -20.7887
  48   2.0000      -0.722980       -19.6733
  49   2.0000      -0.707894       -19.2628
  50   2.0000      -0.689850       -18.7718
  51   2.0000      -0.685285       -18.6476
  52   2.0000      -0.673972       -18.3397
  53   2.0000      -0.659005       -17.9324
  54   2.0000      -0.641054       -17.4440
  55   2.0000      -0.601591       -16.3701
  56   2.0000      -0.595532       -16.2053
  57   2.0000      -0.575228       -15.6527
  58   2.0000      -0.570140       -15.5143
  59   2.0000      -0.562476       -15.3058
  60   2.0000      -0.502027       -13.6609
  61   2.0000      -0.492252       -13.3949
  62   2.0000      -0.476137       -12.9564
  63   2.0000      -0.471981       -12.8433
  64   2.0000      -0.465959       -12.6794
  65   2.0000      -0.450223       -12.2512
  66   2.0000      -0.441023       -12.0008
  67   2.0000      -0.434885       -11.8338
  68   2.0000      -0.424817       -11.5599
  69   2.0000      -0.421023       -11.4566
  70   2.0000      -0.415188       -11.2978
  71   2.0000      -0.399323       -10.8661
  72   2.0000      -0.395416       -10.7598
  73   2.0000      -0.391170       -10.6443
  74   2.0000      -0.384646       -10.4668
  75   2.0000      -0.379218       -10.3190
  76   2.0000      -0.369618       -10.0578
  77   2.0000      -0.359941        -9.7945
  78   2.0000      -0.355085        -9.6623
  79   2.0000      -0.353419        -9.6170
  80   2.0000      -0.349035        -9.4977
  81   2.0000      -0.344561        -9.3760
  82   2.0000      -0.340382        -9.2623
  83   2.0000      -0.336226        -9.1492
  84   2.0000      -0.327591        -8.9142
  85   2.0000      -0.319347        -8.6899
  86   2.0000      -0.311490        -8.4761
  87   2.0000      -0.301468        -8.2034
  88   2.0000      -0.297263        -8.0889
  89   2.0000      -0.293608        -7.9895
  90   2.0000      -0.282968        -7.6999
  91   2.0000      -0.278774        -7.5858
  92   2.0000      -0.266904        -7.2628
  93   2.0000      -0.264307        -7.1922
  94   2.0000      -0.262435        -7.1412
  95   2.0000      -0.233660        -6.3582
  96   2.0000      -0.218673        -5.9504
  97   2.0000      -0.212515        -5.7828
  98   2.0000      -0.210053        -5.7158
  99   2.0000      -0.206574        -5.6212
 100   2.0000      -0.198217        -5.3938
 101   0.0000      -0.048568        -1.3216
 102   0.0000      -0.033101        -0.9007
 103   0.0000      -0.022409        -0.6098
 104   0.0000      -0.007465        -0.2031
 105   0.0000       0.011685         0.3180

MULLIKEN ATOMIC CHARGES
-----------------------
   0 C :   -0.313813
   1 C :   -0.007454
   2 O :   -0.377846
   3 P :    0.635734
   4 S :   -0.323749
   5 O :   -0.378064
   6 C :   -0.036279
   7 C :   -0.276349
   8 S :   -0.076726
   9 C :   -0.365021
  10 S :   -0.070731
  11 P :    0.626810
  12 S :   -0.317895
  13 O :   -0.379528
  14 C :   -0.008380
  15 C :   -0.312738
  16 O :   -0.375917
  17 C :   -0.013068
  18 C :   -0.312010
  19 H :    0.114210
  20 H :    0.118019
  21 H :    0.123723
  22 H :    0.109894
  23 H :    0.102462
  24 H :    0.112474
  25 H :    0.119919
  26 H :    0.120879
  27 H :    0.110601
  28 H :    0.109714
  29 H :    0.208779
  30 H :    0.187184
  31 H :    0.117610
  32 H :    0.111772
  33 H :    0.108549
  34 H :    0.111591
  35 H :    0.123188
  36 H :    0.101673
  37 H :    0.114447
  38 H :    0.114035
  39 H :    0.130017
  40 H :    0.112287
Sum of atomic charges:    0.0000000

LOEWDIN ATOMIC CHARGES
----------------------
   0 C :   -0.367673
   1 C :   -0.125318
   2 O :   -0.253967
   3 P :    0.582524
   4 S :   -0.301813
   5 O :   -0.234105
   6 C :   -0.120257
   7 C :   -0.357403
   8 S :    0.092260
   9 C :   -0.476528
  10 S :    0.095024
  11 P :    0.575422
  12 S :   -0.310062
  13 O :   -0.244539
  14 C :   -0.126285
  15 C :   -0.366032
  16 O :   -0.241855
  17 C :   -0.123369
  18 C :   -0.367209
  19 H :    0.131409
  20 H :    0.124498
  21 H :    0.117962
  22 H :    0.107508
  23 H :    0.117113
  24 H :    0.108178
  25 H :    0.117616
  26 H :    0.126577
  27 H :    0.130233
  28 H :    0.123583
  29 H :    0.134750
  30 H :    0.140802
  31 H :    0.115021
  32 H :    0.107569
  33 H :    0.130583
  34 H :    0.116673
  35 H :    0.120571
  36 H :    0.114097
  37 H :    0.110215
  38 H :    0.131677
  39 H :    0.122769
  40 H :    0.121782

  Mayer bond orders larger than 0.100000
B(  0-C ,  1-C ) :   1.1633 B(  0-C , 19-H ) :   0.9386 B(  0-C , 20-H ) :   0.9442
B(  0-C , 21-H ) :   0.9346 B(  1-C ,  2-O ) :   0.9219 B(  1-C , 22-H ) :   0.9119
B(  1-C , 23-H ) :   0.9321 B(  2-O ,  3-P ) :   1.0624 B(  3-P ,  4-S ) :   1.6234
B(  3-P ,  5-O ) :   1.1106 B(  3-P ,  8-S ) :   0.9717 B(  5-O ,  6-C ) :   0.8904
B(  6-C ,  7-C ) :   1.1663 B(  6-C , 24-H ) :   0.8982 B(  6-C , 25-H ) :   0.9212
B(  7-C , 26-H ) :   0.9409 B(  7-C , 27-H ) :   0.9407 B(  7-C , 28-H ) :   0.9486
B(  8-S ,  9-C ) :   0.9930 B(  9-C , 10-S ) :   0.9864 B(  9-C , 29-H ) :   0.8734
B(  9-C , 30-H ) :   0.9096 B( 10-S , 11-P ) :   0.9825 B( 11-P , 12-S ) :   1.6332
B( 11-P , 13-O ) :   1.1115 B( 11-P , 16-O ) :   1.0626 B( 13-O , 14-C ) :   0.8908
B( 14-C , 15-C ) :   1.1695 B( 14-C , 31-H ) :   0.9125 B( 14-C , 32-H ) :   0.9130
B( 15-C , 33-H ) :   0.9388 B( 15-C , 34-H ) :   0.9360 B( 15-C , 35-H ) :   0.9354
B( 16-O , 17-C ) :   0.9140 B( 17-C , 18-C ) :   1.1644 B( 17-C , 36-H ) :   0.9308
B( 17-C , 37-H ) :   0.9107 B( 18-C , 38-H ) :   0.9385 B( 18-C , 39-H ) :   0.9353
B( 18-C , 40-H ) :   0.9463

Dispersion correction           -0.068457039
FINAL SINGLE POINT ENERGY     -2929.515836197966

DIPOLE MOMENT
-------------

Method             : SCF
Type of density    : Electron Density
Multiplicity       :   1
Irrep              :   0
Energy             : -2929.6375283147353912 Eh
Relativity type    :
Basis              : AO
                                X                 Y                 Z
Electronic contribution:     -7.626493661       4.929317536     -17.492589869
Nuclear contribution   :      8.631762285      -6.215176058      18.666097362
                        -----------------------------------------
Total Dipole Moment    :      1.005268624      -1.285858523       1.173507494
                        -----------------------------------------
Magnitude (a.u.)       :      2.010252965
Magnitude (Debye)      :      5.109656966

Rotational constants in cm-1:             0.012166             0.005545             0.005441
Rotational constants in MHz :           364.733289           166.221655           163.116487

                             ****ORCA TERMINATED NORMALLY****
TOTAL RUN TIME: 0 days 0 hours 0 minutes 22 seconds 480 msec
