                         Program Version 6.0.0  -   RELEASE  -
|  1> ! pbe def2-sv(p) def2/J RI DEFGRID1 loosescf d4 GCP(DFT/SV(P)) printgap
|  2> %output
|  3>     printlevel normal
|  4> end
|  5> * xyz 0 1
|  6> C 5.0733209316 -2.3649733263 -1.6688729675
|  7> C 4.0521525118 -1.2511934881 -1.7836794938
|  8> O 3.0314173963 -1.4782585078 -0.7909723107
|  9> P 2.1047113666 -0.3058449192 -0.2450353177
| 10> S 3.0825378779 1.3326572839 0.2204474618
| 11> O 1.3411242367 -1.057148019 0.9174508358
| 12> C 1.821998635 -1.074141515 2.2815026579
| 13> C 1.0326519097 -0.0988073949 3.1317206352
| 14> S 0.6060562493 -0.1561178552 -1.7168306869
| 15> C 0.0132057245 1.5052254029 -1.2866339366
| 16> S -0.5664707048 1.6312246444 0.4213401608
| 17> P -2.2318405232 0.3433513464 0.2555637865
| 18> S -3.1763310056 0.2962253505 -1.4661961173
| 19> O -3.0936353626 0.7146810279 1.540476452
| 20> C -3.5305788431 2.03418974 1.9167289612
| 21> C -4.2147166987 2.778444564 0.7890072236
| 22> O -1.6574978243 -1.0548777993 0.7302954049
| 23> C -2.1921067655 -2.3284134765 0.3092531129
| 24> C -1.2874249035 -2.980976486 -0.7172562386
| 25> H 4.589327257 -3.3265927235 -1.8124579749
| 26> H 5.8355691995 -2.227821908 -2.4287384297
| 27> H 5.5383637016 -2.3474204722 -0.6872256396
| 28> H 3.5737134119 -1.2475255865 -2.7663622086
| 29> H 4.5053940297 -0.2710512016 -1.6000981996
| 30> H 1.6781693287 -2.1030770274 2.6147922154
| 31> H 2.887555546 -0.8282938072 2.2918599324
| 32> H 1.3243745826 -0.2111902726 4.1709669447
| 33> H 1.2296110658 0.9230409721 2.8134469921
| 34> H -0.0320748829 -0.2963339588 3.0304187671
| 35> H -0.80473366 1.7220452385 -1.973548185
| 36> H 0.825247437 2.2239025217 -1.3880969261
| 37> H -4.2160740973 1.8492271081 2.7458151874
| 38> H -2.6587811182 2.5896363721 2.2736060702
| 39> H -5.0331494114 2.1874465629 0.3845513295
| 40> H -4.602591645 3.7201585857 1.1638894555
| 41> H -3.5064315875 2.9811742308 -0.0131142851
| 42> H -2.2503009134 -2.9211470876 1.223621017
| 43> H -3.1962654457 -2.1804928119 -0.0985716381
| 44> H -0.263964401 -3.0065128708 -0.3507074687
| 45> H -1.6308186261 -3.9937461327 -0.902180657
| 46> H -1.3094358721 -2.4212077742 -1.6499720489
| 47> *
| 48>
| 49>                          ****END OF INPUT****

CARTESIAN COORDINATES (ANGSTROEM)
---------------------------------
  C      5.073321   -2.364973   -1.668873
  C      4.052153   -1.251193   -1.783679
  O      3.031417   -1.478259   -0.790972
  P      2.104711   -0.305845   -0.245035
  S      3.082538    1.332657    0.220447
  O      1.341124   -1.057148    0.917451
  C      1.821999   -1.074142    2.281503
  C      1.032652   -0.098807    3.131721
  S      0.606056   -0.156118   -1.716831
  C      0.013206    1.505225   -1.286634
  S     -0.566471    1.631225    0.421340
  P     -2.231841    0.343351    0.255564
  S     -3.176331    0.296225   -1.466196
  O     -3.093635    0.714681    1.540476
  C     -3.530579    2.034190    1.916729
  C     -4.214717    2.778445    0.789007
  O     -1.657498   -1.054878    0.730295
  C     -2.192107   -2.328413    0.309253
  C     -1.287425   -2.980976   -0.717256
  H      4.589327   -3.326593   -1.812458
  H      5.835569   -2.227822   -2.428738
  H      5.538364   -2.347420   -0.687226
  H      3.573713   -1.247526   -2.766362
  H      4.505394   -0.271051   -1.600098
  H      1.678169   -2.103077    2.614792
  H      2.887556   -0.828294    2.291860
  H      1.324375   -0.211190    4.170967
  H      1.229611    0.923041    2.813447
  H     -0.032075   -0.296334    3.030419
  H     -0.804734    1.722045   -1.973548
  H      0.825247    2.223903   -1.388097
  H     -4.216074    1.849227    2.745815
  H     -2.658781    2.589636    2.273606
  H     -5.033149    2.187447    0.384551
  H     -4.602592    3.720159    1.163889
  H     -3.506432    2.981174   -0.013114
  H     -2.250301   -2.921147    1.223621
  H     -3.196265   -2.180493   -0.098572
  H     -0.263964   -3.006513   -0.350707
  H     -1.630819   -3.993746   -0.902181
  H     -1.309436   -2.421208   -1.649972

 Total Charge           Charge          ....    0
 Multiplicity           Mult            ....    1
 Number of Electrons    NEL             ....  202
 Basis Dimension        Dim             ....  334

ORBITAL ENERGIES
----------------

  NO   OCC          E(Eh)            E(eV)
   0   2.0000     -88.046481     -2395.8665
   1   2.0000     -88.043654     -2395.7896
   2   2.0000     -87.988571     -2394.2907
   3   2.0000     -87.985931     -2394.2189
   4   2.0000     -76.426490     -2079.6705
   5   2.0000     -76.426256     -2079.6642
   6   2.0000     -18.792924      -511.3814
   7   2.0000     -18.791185      -511.3341
   8   2.0000     -18.788342      -511.2568
   9   2.0000     -18.783459      -511.1239
  10   2.0000      -9.957297      -270.9518
  11   2.0000      -9.956772      -270.9375
  12   2.0000      -9.951902      -270.8050
  13   2.0000      -9.951357      -270.7902
  14   2.0000      -9.946365      -270.6544
  15   2.0000      -9.888316      -269.0748
  16   2.0000      -9.882586      -268.9188
  17   2.0000      -9.876709      -268.7589
  18   2.0000      -9.872662      -268.6488
  19   2.0000      -7.691187      -209.2878
  20   2.0000      -7.688753      -209.2216
  21   2.0000      -7.633534      -207.7190
  22   2.0000      -7.630909      -207.6476
  23   2.0000      -6.424091      -174.8084
  24   2.0000      -6.423395      -174.7895
  25   2.0000      -5.718996      -155.6218
  26   2.0000      -5.716663      -155.5583
  27   2.0000      -5.715661      -155.5310
  28   2.0000      -5.713298      -155.4667
  29   2.0000      -5.708249      -155.3293
  30   2.0000      -5.705592      -155.2571
  31   2.0000      -5.662358      -154.0806
  32   2.0000      -5.659771      -154.0102
  33   2.0000      -5.654234      -153.8595
  34   2.0000      -5.653737      -153.8460
  35   2.0000      -5.651736      -153.7916
  36   2.0000      -5.650937      -153.7698
  37   2.0000      -4.646507      -126.4379
  38   2.0000      -4.645864      -126.4204
  39   2.0000      -4.645859      -126.4203
  40   2.0000      -4.645323      -126.4057
  41   2.0000      -4.644674      -126.3880
  42   2.0000      -4.643867      -126.3661
  43   2.0000      -0.985835       -26.8259
  44   2.0000      -0.982557       -26.7367
  45   2.0000      -0.943705       -25.6795
  46   2.0000      -0.939840       -25.5744
  47   2.0000      -0.767815       -20.8933
  48   2.0000      -0.722030       -19.6474
  49   2.0000      -0.708707       -19.2849
  50   2.0000      -0.686315       -18.6756
  51   2.0000      -0.682807       -18.5801
  52   2.0000      -0.672153       -18.2902
  53   2.0000      -0.649831       -17.6828
  54   2.0000      -0.640435       -17.4271
  55   2.0000      -0.597940       -16.2708
  56   2.0000      -0.589004       -16.0276
  57   2.0000      -0.574498       -15.6329
  58   2.0000      -0.567293       -15.4368
  59   2.0000      -0.557285       -15.1645
  60   2.0000      -0.507424       -13.8077
  61   2.0000      -0.497667       -13.5422
  62   2.0000      -0.475730       -12.9453
  63   2.0000      -0.466629       -12.6976
  64   2.0000      -0.459438       -12.5019
  65   2.0000      -0.441813       -12.0223
  66   2.0000      -0.435589       -11.8530
  67   2.0000      -0.433190       -11.7877
  68   2.0000      -0.429743       -11.6939
  69   2.0000      -0.417715       -11.3666
  70   2.0000      -0.409436       -11.1413
  71   2.0000      -0.394326       -10.7302
  72   2.0000      -0.388274       -10.5655
  73   2.0000      -0.381354       -10.3772
  74   2.0000      -0.380101       -10.3431
  75   2.0000      -0.375025       -10.2049
  76   2.0000      -0.368660       -10.0317
  77   2.0000      -0.354196        -9.6382
  78   2.0000      -0.351490        -9.5645
  79   2.0000      -0.347427        -9.4540
  80   2.0000      -0.345832        -9.4106
  81   2.0000      -0.341037        -9.2801
  82   2.0000      -0.338546        -9.2123
  83   2.0000      -0.336538        -9.1577
  84   2.0000      -0.336080        -9.1452
  85   2.0000      -0.316518        -8.6129
  86   2.0000      -0.301950        -8.2165
  87   2.0000      -0.299916        -8.1611
  88   2.0000      -0.297121        -8.0851
  89   2.0000      -0.290815        -7.9135
  90   2.0000      -0.280336        -7.6283
  91   2.0000      -0.278295        -7.5728
  92   2.0000      -0.269921        -7.3449
  93   2.0000      -0.263553        -7.1717
  94   2.0000      -0.256663        -6.9842
  95   2.0000      -0.232551        -6.3280
  96   2.0000      -0.220569        -6.0020
  97   2.0000      -0.213625        -5.8130
  98   2.0000      -0.205632        -5.5955
  99   2.0000      -0.200079        -5.4444
 100   2.0000      -0.197952        -5.3866
 101   0.0000      -0.047588        -1.2949
 102   0.0000      -0.026629        -0.7246
 103   0.0000      -0.002937        -0.0799
 104   0.0000       0.002823         0.0768
 105   0.0000       0.004876         0.1327

MULLIKEN ATOMIC CHARGES
-----------------------
   0 C :   -0.280607
   1 C :   -0.010684
   2 O :   -0.379621
   3 P :    0.620183
   4 S :   -0.339528
   5 O :   -0.356139
   6 C :   -0.001219
   7 C :   -0.297365
   8 S :   -0.078459
   9 C :   -0.351678
  10 S :   -0.087223
  11 P :    0.622254
  12 S :   -0.335069
  13 O :   -0.377045
  14 C :   -0.008367
  15 C :   -0.310149
  16 O :   -0.358625
  17 C :   -0.003151
  18 C :   -0.295393
  19 H :    0.116688
  20 H :    0.112261
  21 H :    0.117192
  22 H :    0.101660
  23 H :    0.105797
  24 H :    0.103899
  25 H :    0.102534
  26 H :    0.103872
  27 H :    0.127562
  28 H :    0.121047
  29 H :    0.190746
  30 H :    0.191286
  31 H :    0.108447
  32 H :    0.112107
  33 H :    0.127323
  34 H :    0.110922
  35 H :    0.122415
  36 H :    0.099910
  37 H :    0.104744
  38 H :    0.118780
  39 H :    0.101496
  40 H :    0.127197
Sum of atomic charges:    0.0000000

LOEWDIN ATOMIC CHARGES
----------------------
   0 C :   -0.350506
   1 C :   -0.121249
   2 O :   -0.252132
   3 P :    0.566466
   4 S :   -0.329773
   5 O :   -0.232354
   6 C :   -0.109762
   7 C :   -0.364019
   8 S :    0.101549
   9 C :   -0.478025
  10 S :    0.103266
  11 P :    0.570539
  12 S :   -0.322846
  13 O :   -0.248963
  14 C :   -0.114194
  15 C :   -0.369952
  16 O :   -0.236172
  17 C :   -0.112632
  18 C :   -0.364459
  19 H :    0.126825
  20 H :    0.130942
  21 H :    0.127479
  22 H :    0.110543
  23 H :    0.107034
  24 H :    0.117502
  25 H :    0.108278
  26 H :    0.126029
  27 H :    0.122737
  28 H :    0.123765
  29 H :    0.130932
  30 H :    0.132485
  31 H :    0.121132
  32 H :    0.109108
  33 H :    0.129566
  34 H :    0.129712
  35 H :    0.119793
  36 H :    0.115494
  37 H :    0.107412
  38 H :    0.122539
  39 H :    0.125018
  40 H :    0.120895

  Mayer bond orders larger than 0.100000
B(  0-C ,  1-C ) :   1.1613 B(  0-C , 19-H ) :   0.9508 B(  0-C , 20-H ) :   0.9420
B(  0-C , 21-H ) :   0.9512 B(  1-C ,  2-O ) :   0.9063 B(  1-C , 22-H ) :   0.9298
B(  1-C , 23-H ) :   0.9072 B(  2-O ,  3-P ) :   1.1066 B(  3-P ,  4-S ) :   1.5911
B(  3-P ,  5-O ) :   1.1324 B(  3-P ,  8-S ) :   0.9695 B(  4-S ,  8-S ) :   0.1092
B(  5-O ,  6-C ) :   0.8931 B(  6-C ,  7-C ) :   1.1730 B(  6-C , 24-H ) :   0.9335
B(  6-C , 25-H ) :   0.9137 B(  7-C , 26-H ) :   0.9390 B(  7-C , 27-H ) :   0.9376
B(  7-C , 28-H ) :   0.9414 B(  8-S ,  9-C ) :   1.0019 B(  9-C , 10-S ) :   1.0122
B(  9-C , 29-H ) :   0.8822 B(  9-C , 30-H ) :   0.8882 B( 10-S , 11-P ) :   0.9490
B( 10-S , 12-S ) :   0.1077 B( 11-P , 12-S ) :   1.5917 B( 11-P , 13-O ) :   1.1098
B( 11-P , 16-O ) :   1.1291 B( 13-O , 14-C ) :   0.9162 B( 14-C , 15-C ) :   1.1653
B( 14-C , 31-H ) :   0.9343 B( 14-C , 32-H ) :   0.9282 B( 15-C , 33-H ) :   0.9419
B( 15-C , 34-H ) :   0.9348 B( 15-C , 35-H ) :   0.9343 B( 16-O , 17-C ) :   0.8987
B( 17-C , 18-C ) :   1.1716 B( 17-C , 36-H ) :   0.9337 B( 17-C , 37-H ) :   0.9107
B( 18-C , 38-H ) :   0.9419 B( 18-C , 39-H ) :   0.9383 B( 18-C , 40-H ) :   0.9381

Dispersion correction           -0.067012233
FINAL SINGLE POINT ENERGY     -2929.524846666061

DIPOLE MOMENT
-------------

Method             : SCF
Type of density    : Electron Density
Multiplicity       :   1
Irrep              :   0
Energy             : -2929.6420813989648195 Eh
Relativity type    :
Basis              : AO
                                X                 Y                 Z
Electronic contribution:     -2.243879645       8.295516248      -6.102185584
Nuclear contribution   :      2.438755484      -8.783793969       6.706164972
                        -----------------------------------------
Total Dipole Moment    :      0.194875839      -0.488277722       0.603979388
                        -----------------------------------------
Magnitude (a.u.)       :      0.800738926
Magnitude (Debye)      :      2.035316601

Rotational constants in cm-1:             0.013214             0.005137             0.004856
Rotational constants in MHz :           396.136570           154.005355           145.578684

                             ****ORCA TERMINATED NORMALLY****
TOTAL RUN TIME: 0 days 0 hours 0 minutes 21 seconds 701 msec
