                         Program Version 6.0.0  -   RELEASE  -
|  1> ! wb97x-v def2-tzvp def2/J RIJCOSX DEFGRID2 scfconv7 GCP(DFT/TZ) printgap
|  2> %output
|  3>     printlevel normal
|  4> end
|  5> * xyz 0 1
|  6> C -0.5040308081577538 -0.00035829186748210086 -0.5604956698820943
|  7> C 0.5040382574989892 0.00035054319258009486 0.5604973414786857
|  8> Cl 2.1742333049220317 -0.00023761774752476997 -0.19683719238464906
|  9> Cl -2.1742250667151772 0.00023301348000008196 0.19684028074072954
| 10> H -0.4387342710396276 -0.8980561858690368 -1.1757663042606776
| 11> H -0.4386474063700129 0.8965034375433082 -1.1769736447364818
| 12> H 0.43874049994816167 0.8980467386684877 1.175768920999158
| 13> H 0.4386564390057002 -0.8965119473257384 1.176975893531819
| 14> *
| 15>
| 16>                          ****END OF INPUT****

CARTESIAN COORDINATES (ANGSTROEM)
---------------------------------
  C     -0.504031   -0.000358   -0.560496
  C      0.504038    0.000351    0.560497
  Cl     2.174233   -0.000238   -0.196837
  Cl    -2.174225    0.000233    0.196840
  H     -0.438734   -0.898056   -1.175766
  H     -0.438647    0.896503   -1.176974
  H      0.438740    0.898047    1.175769
  H      0.438656   -0.896512    1.176976

 Total Charge           Charge          ....    0
 Multiplicity           Mult            ....    1
 Number of Electrons    NEL             ....   50
 Basis Dimension        Dim             ....  160

ORBITAL ENERGIES
----------------

  NO   OCC          E(Eh)            E(eV)
   0   2.0000    -107.142482     -2915.4951
   1   2.0000    -107.142473     -2915.4949
   2   2.0000     -12.131769      -330.1222
   3   2.0000     -12.130435      -330.0859
   4   2.0000     -11.295655      -307.3704
   5   2.0000     -11.295519      -307.3667
   6   2.0000      -9.087660      -247.2878
   7   2.0000      -9.086422      -247.2541
   8   2.0000      -9.084421      -247.1997
   9   2.0000      -9.084217      -247.1941
  10   2.0000      -9.084210      -247.1939
  11   2.0000      -9.084152      -247.1923
  12   2.0000      -1.420351       -38.6497
  13   2.0000      -1.394375       -37.9429
  14   2.0000      -1.265057       -34.4239
  15   2.0000      -1.121706       -30.5232
  16   2.0000      -0.943871       -25.6840
  17   2.0000      -0.919245       -25.0139
  18   2.0000      -0.908458       -24.7204
  19   2.0000      -0.857284       -23.3279
  20   2.0000      -0.856270       -23.3003
  21   2.0000      -0.792122       -21.5547
  22   2.0000      -0.780845       -21.2479
  23   2.0000      -0.776638       -21.1334
  24   2.0000      -0.772480       -21.0202
  25   0.0000      -0.316994        -8.6258
  26   0.0000      -0.233893        -6.3646
  27   0.0000      -0.047416        -1.2903
  28   0.0000      -0.013715        -0.3732
  29   0.0000      -0.004371        -0.1189

MULLIKEN ATOMIC CHARGES
-----------------------
   0 C :   -0.124472
   1 C :   -0.124477
   2 Cl:   -0.158321
   3 Cl:   -0.158321
   4 H :    0.141397
   5 H :    0.141397
   6 H :    0.141400
   7 H :    0.141397
Sum of atomic charges:   -0.0000000

LOEWDIN ATOMIC CHARGES
----------------------
   0 C :   -0.483544
   1 C :   -0.483544
   2 Cl:    0.233651
   3 Cl:    0.233651
   4 H :    0.124947
   5 H :    0.124946
   6 H :    0.124947
   7 H :    0.124947

  Mayer bond orders larger than 0.100000
B(  0-C ,  1-C ) :   1.0111 B(  0-C ,  3-Cl) :   1.0438 B(  0-C ,  4-H ) :   0.9619
B(  0-C ,  5-H ) :   0.9619 B(  1-C ,  2-Cl) :   1.0438 B(  1-C ,  6-H ) :   0.9619
B(  1-C ,  7-H ) :   0.9619

FINAL SINGLE POINT ENERGY      -998.915438103096

DIPOLE MOMENT
-------------

Method             : SCF
Type of density    : Electron Density
Multiplicity       :   1
Irrep              :   0
Energy             :  -998.9204461052964916 Eh
Relativity type    :
Basis              : AO
                                X                 Y                 Z
Electronic contribution:     -0.000000244       0.000006800       0.000000763
Nuclear contribution   :     -0.000001024      -0.000007705      -0.000001032
                        -----------------------------------------
Total Dipole Moment    :     -0.000001269      -0.000000905      -0.000000269
                        -----------------------------------------
Magnitude (a.u.)       :      0.000001581
Magnitude (Debye)      :      0.000004020

Rotational constants in cm-1:             0.951782             0.048620             0.047096
Rotational constants in MHz :         28533.720636          1457.579463          1411.893774

                             ****ORCA TERMINATED NORMALLY****
TOTAL RUN TIME: 0 days 0 hours 1 minutes 15 seconds 222 msec
