                         Program Version 6.0.0  -   RELEASE  -
|  1> ! wb97x-v def2-tzvp def2/J RIJCOSX DEFGRID2 scfconv7 GCP(DFT/TZ) printgap
|  2> %output
|  3>     printlevel normal
|  4> end
|  5> %cpcm
|  6>     smd true
|  7>     smdsolvent "water"
|  8> end
|  9> * xyz 0 1
| 10> C -0.5040308081577538 -0.00035829186748210086 -0.5604956698820943
| 11> C 0.5040382574989892 0.00035054319258009486 0.5604973414786857
| 12> Cl 2.1742333049220317 -0.00023761774752476997 -0.19683719238464906
| 13> Cl -2.1742250667151772 0.00023301348000008196 0.19684028074072954
| 14> H -0.4387342710396276 -0.8980561858690368 -1.1757663042606776
| 15> H -0.4386474063700129 0.8965034375433082 -1.1769736447364818
| 16> H 0.43874049994816167 0.8980467386684877 1.175768920999158
| 17> H 0.4386564390057002 -0.8965119473257384 1.176975893531819
| 18> *
| 19>
| 20>                          ****END OF INPUT****

CARTESIAN COORDINATES (ANGSTROEM)
---------------------------------
  C     -0.504031   -0.000358   -0.560496
  C      0.504038    0.000351    0.560497
  Cl     2.174233   -0.000238   -0.196837
  Cl    -2.174225    0.000233    0.196840
  H     -0.438734   -0.898056   -1.175766
  H     -0.438647    0.896503   -1.176974
  H      0.438740    0.898047    1.175769
  H      0.438656   -0.896512    1.176976

 Total Charge           Charge          ....    0
 Multiplicity           Mult            ....    1
 Number of Electrons    NEL             ....   50
 Basis Dimension        Dim             ....  160

ORBITAL ENERGIES
----------------

  NO   OCC          E(Eh)            E(eV)
   0   2.0000    -107.135427     -2915.3032
   1   2.0000    -107.135419     -2915.3030
   2   2.0000     -12.113437      -329.6234
   3   2.0000     -12.112102      -329.5870
   4   2.0000     -11.288711      -307.1814
   5   2.0000     -11.288563      -307.1774
   6   2.0000      -9.080665      -247.0975
   7   2.0000      -9.079438      -247.0641
   8   2.0000      -9.077559      -247.0129
   9   2.0000      -9.077368      -247.0077
  10   2.0000      -9.077362      -247.0076
  11   2.0000      -9.077304      -247.0060
  12   2.0000      -1.410180       -38.3730
  13   2.0000      -1.386744       -37.7352
  14   2.0000      -1.250481       -34.0273
  15   2.0000      -1.103918       -30.0391
  16   2.0000      -0.924561       -25.1586
  17   2.0000      -0.907496       -24.6942
  18   2.0000      -0.892696       -24.2915
  19   2.0000      -0.844883       -22.9904
  20   2.0000      -0.840562       -22.8729
  21   2.0000      -0.785690       -21.3797
  22   2.0000      -0.773608       -21.0509
  23   2.0000      -0.768873       -20.9221
  24   2.0000      -0.762037       -20.7361
  25   0.0000      -0.305131        -8.3030
  26   0.0000      -0.219923        -5.9844
  27   0.0000      -0.029999        -0.8163
  28   0.0000       0.009948         0.2707
  29   0.0000       0.019980         0.5437

MULLIKEN ATOMIC CHARGES
-----------------------
   0 C :   -0.137922
   1 C :   -0.137927
   2 Cl:   -0.201358
   3 Cl:   -0.201359
   4 H :    0.169641
   5 H :    0.169641
   6 H :    0.169644
   7 H :    0.169641
Sum of atomic charges:   -0.0000000

LOEWDIN ATOMIC CHARGES
----------------------
   0 C :   -0.473238
   1 C :   -0.473238
   2 Cl:    0.207478
   3 Cl:    0.207478
   4 H :    0.132880
   5 H :    0.132880
   6 H :    0.132880
   7 H :    0.132880

  Mayer bond orders larger than 0.100000
B(  0-C ,  1-C ) :   1.0081 B(  0-C ,  3-Cl) :   1.0060 B(  0-C ,  4-H ) :   0.9568
B(  0-C ,  5-H ) :   0.9568 B(  1-C ,  2-Cl) :   1.0060 B(  1-C ,  6-H ) :   0.9568
B(  1-C ,  7-H ) :   0.9568

FINAL SINGLE POINT ENERGY      -998.920087313953

DIPOLE MOMENT
-------------

Method             : SCF
Type of density    : Electron Density
Multiplicity       :   1
Irrep              :   0
Energy             :  -998.9250953161526922 Eh
Relativity type    :
Basis              : AO
                                X                 Y                 Z
Electronic contribution:     -0.000000493       0.000006478       0.000000676
Nuclear contribution   :     -0.000001024      -0.000007705      -0.000001032
                        -----------------------------------------
Total Dipole Moment    :     -0.000001517      -0.000001226      -0.000000356
                        -----------------------------------------
Magnitude (a.u.)       :      0.000001983
Magnitude (Debye)      :      0.000005041

Rotational constants in cm-1:             0.951782             0.048620             0.047096
Rotational constants in MHz :         28533.720636          1457.579463          1411.893774

                             ****ORCA TERMINATED NORMALLY****
TOTAL RUN TIME: 0 days 0 hours 1 minutes 22 seconds 434 msec
