                         Program Version 6.0.1  -  RELEASE   -
|  1> ! pbe def2-sv(p) def2/J RI DEFGRID1 loosescf d4 GCP(DFT/SV(P)) printgap
|  2> %output
|  3>     printlevel normal
|  4> end
|  5> * xyz 0 1
|  6> C 2.8687301434 -4.2989492993 0.7570303358
|  7> C 2.7459713286 -3.629153638 -0.6021041392
|  8> O 2.8977655708 -2.1998824796 -0.4861423708
|  9> C 1.8377798056 -1.4729357634 -0.2150365797
| 10> O 0.7155211253 -1.9242833629 -0.084713818
| 11> C 2.1799210267 -0.0075773015 -0.0835232347
| 12> C 0.9415851343 0.8541301501 -0.2600570845
| 13> H 0.4290059756 0.6065125568 -1.2015772421
| 14> C 1.2560254773 2.3417635732 -0.264902919
| 15> O 2.3738527788 2.7888708782 -0.1618827631
| 16> O 0.160896551 3.0533917124 -0.4211295072
| 17> C 0.2740900517 4.4915781372 -0.4011240738
| 18> C 0.235691172 5.0159721305 1.0251353036
| 19> S -0.2913138419 0.5536723238 1.0569569847
| 20> P -1.6547778731 -0.6711113071 -0.0355437875
| 21> S -1.4285178913 -0.792438523 -1.9772833724
| 22> O -1.8509188406 -2.0501800754 0.7017122296
| 23> C -2.1233492128 -2.1281366981 2.1142961503
| 24> O -3.0537752305 0.0252928586 0.3598294945
| 25> C -3.3790210339 1.3287658049 -0.1259125338
| 26> H 2.0519783571 -3.9864742452 1.4036149847
| 27> H 2.8244885843 -5.3755482028 0.6301916388
| 28> H 3.813359612 -4.0302901021 1.2216561752
| 29> H 1.7733022478 -3.8407700417 -1.0560023612
| 30> H 3.5514005999 -3.932801273 -1.2707195148
| 31> H 2.9325809011 0.2567974766 -0.8274741497
| 32> H 2.6181483866 0.1599132889 0.9037572262
| 33> H 1.2086650821 4.7727851349 -0.8940210234
| 34> H -0.5821051769 4.8380911215 -0.9796089448
| 35> H 0.2507909215 6.1005868425 1.0076189391
| 36> H -0.6666153693 4.6767973906 1.5262977518
| 37> H 1.1011901881 4.6583607714 1.5778895225
| 38> H -2.1080042225 -3.1899874309 2.3459837654
| 39> H -3.0998711588 -1.6968020883 2.3272792617
| 40> H -1.3500294607 -1.5998256976 2.6722751389
| 41> H -3.3239067699 1.3461831214 -1.2156777025
| 42> H -2.6886328916 2.0649095553 0.2878526014
| 43> H -4.39456671 1.5223041123 0.2089490623
| 44> *
| 45>
| 46>                          ****END OF INPUT****

CARTESIAN COORDINATES (ANGSTROEM)
---------------------------------
  C      2.868730   -4.298949    0.757030
  C      2.745971   -3.629154   -0.602104
  O      2.897766   -2.199882   -0.486142
  C      1.837780   -1.472936   -0.215037
  O      0.715521   -1.924283   -0.084714
  C      2.179921   -0.007577   -0.083523
  C      0.941585    0.854130   -0.260057
  H      0.429006    0.606513   -1.201577
  C      1.256025    2.341764   -0.264903
  O      2.373853    2.788871   -0.161883
  O      0.160897    3.053392   -0.421130
  C      0.274090    4.491578   -0.401124
  C      0.235691    5.015972    1.025135
  S     -0.291314    0.553672    1.056957
  P     -1.654778   -0.671111   -0.035544
  S     -1.428518   -0.792439   -1.977283
  O     -1.850919   -2.050180    0.701712
  C     -2.123349   -2.128137    2.114296
  O     -3.053775    0.025293    0.359829
  C     -3.379021    1.328766   -0.125913
  H      2.051978   -3.986474    1.403615
  H      2.824489   -5.375548    0.630192
  H      3.813360   -4.030290    1.221656
  H      1.773302   -3.840770   -1.056002
  H      3.551401   -3.932801   -1.270720
  H      2.932581    0.256797   -0.827474
  H      2.618148    0.159913    0.903757
  H      1.208665    4.772785   -0.894021
  H     -0.582105    4.838091   -0.979609
  H      0.250791    6.100587    1.007619
  H     -0.666615    4.676797    1.526298
  H      1.101190    4.658361    1.577890
  H     -2.108004   -3.189987    2.345984
  H     -3.099871   -1.696802    2.327279
  H     -1.350029   -1.599826    2.672275
  H     -3.323907    1.346183   -1.215678
  H     -2.688633    2.064910    0.287853
  H     -4.394567    1.522304    0.208949

 Total Charge           Charge          ....    0
 Multiplicity           Mult            ....    1
 Number of Electrons    NEL             ....  174
 Basis Dimension        Dim             ....  316

ORBITAL ENERGIES
----------------

  NO   OCC          E(Eh)            E(eV)
   0   2.0000     -88.034591     -2395.5430
   1   2.0000     -87.974952     -2393.9202
   2   2.0000     -76.417854     -2079.4355
   3   2.0000     -18.807889      -511.7887
   4   2.0000     -18.806574      -511.7529
   5   2.0000     -18.785066      -511.1676
   6   2.0000     -18.778621      -510.9923
   7   2.0000     -18.745912      -510.1022
   8   2.0000     -18.741858      -509.9919
   9   2.0000     -10.017767      -272.5973
  10   2.0000     -10.013279      -272.4752
  11   2.0000      -9.952513      -270.8217
  12   2.0000      -9.949450      -270.7383
  13   2.0000      -9.945792      -270.6388
  14   2.0000      -9.939195      -270.4592
  15   2.0000      -9.933379      -270.3010
  16   2.0000      -9.908478      -269.6234
  17   2.0000      -9.890524      -269.1348
  18   2.0000      -9.889520      -269.1075
  19   2.0000      -7.678916      -208.9539
  20   2.0000      -7.620223      -207.3568
  21   2.0000      -6.414366      -174.5438
  22   2.0000      -5.706860      -155.2916
  23   2.0000      -5.703731      -155.2064
  24   2.0000      -5.695644      -154.9863
  25   2.0000      -5.649401      -153.7280
  26   2.0000      -5.641117      -153.5026
  27   2.0000      -5.639771      -153.4660
  28   2.0000      -4.637131      -126.1828
  29   2.0000      -4.636254      -126.1589
  30   2.0000      -4.634743      -126.1178
  31   2.0000      -1.017410       -27.6851
  32   2.0000      -1.014869       -27.6160
  33   2.0000      -0.977822       -26.6079
  34   2.0000      -0.931627       -25.3509
  35   2.0000      -0.924334       -25.1524
  36   2.0000      -0.919047       -25.0085
  37   2.0000      -0.760262       -20.6878
  38   2.0000      -0.715364       -19.4660
  39   2.0000      -0.704762       -19.1776
  40   2.0000      -0.688650       -18.7391
  41   2.0000      -0.656025       -17.8513
  42   2.0000      -0.628092       -17.0913
  43   2.0000      -0.620952       -16.8970
  44   2.0000      -0.612212       -16.6591
  45   2.0000      -0.601111       -16.3571
  46   2.0000      -0.563084       -15.3223
  47   2.0000      -0.508196       -13.8287
  48   2.0000      -0.503513       -13.7013
  49   2.0000      -0.495995       -13.4967
  50   2.0000      -0.476519       -12.9667
  51   2.0000      -0.467431       -12.7195
  52   2.0000      -0.457438       -12.4475
  53   2.0000      -0.451086       -12.2747
  54   2.0000      -0.437533       -11.9059
  55   2.0000      -0.427267       -11.6265
  56   2.0000      -0.424873       -11.5614
  57   2.0000      -0.417317       -11.3558
  58   2.0000      -0.410830       -11.1792
  59   2.0000      -0.408164       -11.1067
  60   2.0000      -0.401822       -10.9341
  61   2.0000      -0.397486       -10.8161
  62   2.0000      -0.392397       -10.6777
  63   2.0000      -0.383579       -10.4377
  64   2.0000      -0.378402       -10.2968
  65   2.0000      -0.369994       -10.0680
  66   2.0000      -0.360083        -9.7984
  67   2.0000      -0.354541        -9.6475
  68   2.0000      -0.350047        -9.5253
  69   2.0000      -0.339114        -9.2278
  70   2.0000      -0.337054        -9.1717
  71   2.0000      -0.328996        -8.9524
  72   2.0000      -0.325439        -8.8556
  73   2.0000      -0.305658        -8.3174
  74   2.0000      -0.301924        -8.2158
  75   2.0000      -0.297414        -8.0931
  76   2.0000      -0.291301        -7.9267
  77   2.0000      -0.287521        -7.8238
  78   2.0000      -0.267968        -7.2918
  79   2.0000      -0.265828        -7.2335
  80   2.0000      -0.261762        -7.1229
  81   2.0000      -0.253907        -6.9092
  82   2.0000      -0.239742        -6.5237
  83   2.0000      -0.228949        -6.2300
  84   2.0000      -0.206392        -5.6162
  85   2.0000      -0.195724        -5.3259
  86   2.0000      -0.186743        -5.0815
  87   0.0000      -0.043933        -1.1955
  88   0.0000      -0.033069        -0.8998
  89   0.0000      -0.024397        -0.6639
  90   0.0000       0.023113         0.6289
  91   0.0000       0.031084         0.8458

MULLIKEN ATOMIC CHARGES
-----------------------
   0 C :   -0.305112
   1 C :   -0.014318
   2 O :   -0.224585
   3 C :    0.148804
   4 O :   -0.202228
   5 C :   -0.063687
   6 C :   -0.361290
   7 H :    0.157329
   8 C :    0.219545
   9 O :   -0.193411
  10 O :   -0.220885
  11 C :   -0.008705
  12 C :   -0.306827
  13 S :   -0.113333
  14 P :    0.632537
  15 S :   -0.308281
  16 O :   -0.355248
  17 C :   -0.104580
  18 O :   -0.394563
  19 C :   -0.102298
  20 H :    0.123621
  21 H :    0.115182
  22 H :    0.115042
  23 H :    0.120477
  24 H :    0.105233
  25 H :    0.124886
  26 H :    0.125638
  27 H :    0.110195
  28 H :    0.106100
  29 H :    0.114694
  30 H :    0.119146
  31 H :    0.126804
  32 H :    0.129864
  33 H :    0.124401
  34 H :    0.117310
  35 H :    0.113297
  36 H :    0.111810
  37 H :    0.117436
Sum of atomic charges:    0.0000000

LOEWDIN ATOMIC CHARGES
----------------------
   0 C :   -0.355628
   1 C :   -0.109691
   2 O :   -0.053352
   3 C :    0.041425
   4 O :   -0.167202
   5 C :   -0.249779
   6 C :   -0.275834
   7 H :    0.135161
   8 C :    0.017688
   9 O :   -0.156997
  10 O :   -0.052465
  11 C :   -0.108373
  12 C :   -0.355742
  13 S :    0.090031
  14 P :    0.596539
  15 S :   -0.302678
  16 O :   -0.229712
  17 C :   -0.208080
  18 O :   -0.269078
  19 C :   -0.223030
  20 H :    0.129188
  21 H :    0.131778
  22 H :    0.125160
  23 H :    0.125239
  24 H :    0.119259
  25 H :    0.148676
  26 H :    0.148307
  27 H :    0.120647
  28 H :    0.119449
  29 H :    0.131489
  30 H :    0.126306
  31 H :    0.130857
  32 H :    0.125492
  33 H :    0.115823
  34 H :    0.108956
  35 H :    0.108857
  36 H :    0.103114
  37 H :    0.118195

  Mayer bond orders larger than 0.100000
B(  0-C ,  1-C ) :   1.1745 B(  0-C , 20-H ) :   0.9466 B(  0-C , 21-H ) :   0.9442
B(  0-C , 22-H ) :   0.9487 B(  1-C ,  2-O ) :   0.9106 B(  1-C , 23-H ) :   0.9137
B(  1-C , 24-H ) :   0.9370 B(  2-O ,  3-C ) :   1.2559 B(  3-C ,  4-O ) :   1.9568
B(  3-C ,  5-C ) :   1.0064 B(  5-C ,  6-C ) :   1.0319 B(  5-C , 25-H ) :   0.8864
B(  5-C , 26-H ) :   0.8822 B(  6-C ,  7-H ) :   0.8120 B(  6-C ,  8-C ) :   0.9074
B(  6-C , 13-S ) :   1.0183 B(  7-H , 15-S ) :   0.1383 B(  8-C ,  9-O ) :   2.0586
B(  8-C , 10-O ) :   1.2544 B( 10-O , 11-C ) :   0.9119 B( 11-C , 12-C ) :   1.1755
B( 11-C , 27-H ) :   0.9149 B( 11-C , 28-H ) :   0.9371 B( 12-C , 29-H ) :   0.9437
B( 12-C , 30-H ) :   0.9485 B( 12-C , 31-H ) :   0.9453 B( 13-S , 14-P ) :   0.9301
B( 13-S , 15-S ) :   0.1147 B( 14-P , 15-S ) :   1.6068 B( 14-P , 16-O ) :   1.1357
B( 14-P , 18-O ) :   1.0459 B( 16-O , 17-C ) :   0.9231 B( 17-C , 32-H ) :   0.9598
B( 17-C , 33-H ) :   0.9467 B( 17-C , 34-H ) :   0.9397 B( 18-O , 19-C ) :   0.9421
B( 19-C , 35-H ) :   0.9366 B( 19-C , 36-H ) :   0.9384 B( 19-C , 37-H ) :   0.9580

Dispersion correction           -0.050801196
FINAL SINGLE POINT ENERGY     -1979.016885673223

DIPOLE MOMENT
-------------

Method             : SCF
Type of density    : Electron Density
Multiplicity       :   1
Irrep              :   0
Energy             : -1979.1479407761189577 Eh
Relativity type    :
Basis              : AO
                                X                 Y                 Z
Electronic contribution:     -5.500477117      -3.487166098      -7.146614639
Nuclear contribution   :      5.619525367       3.745580878       8.189370190
                        -----------------------------------------
Total Dipole Moment    :      0.119048250       0.258414781       1.042755551
                        -----------------------------------------
Magnitude (a.u.)       :      1.080874564
Magnitude (Debye)      :      2.747364806

Rotational constants in cm-1:             0.011444             0.007658             0.005463
Rotational constants in MHz :           343.076721           229.594720           163.776391

                             ****ORCA TERMINATED NORMALLY****
TOTAL RUN TIME: 0 days 0 hours 0 minutes 38 seconds 881 msec
