                         Program Version 6.0.0  -   RELEASE  -
|  1> ! r2scan-3c def2/J RI DEFGRID2 scfconv6 printgap
|  2> %output
|  3>     printlevel normal
|  4> end
|  5> * xyz 0 1
|  6> C 1.0436177774 -0.9406983075 3.2515146508
|  7> C 1.8757240484 0.2049824743 2.7116897024
|  8> O 1.5039485627 0.5148827095 1.3439695941
|  9> P 2.2966932994 -0.0855052093 0.1141476878
| 10> S 2.9047665446 -1.9467954548 0.2574376084
| 11> O 3.4498814125 0.9963680945 -0.0592472207
| 12> C 4.5438499876 0.807959029 -0.9818557219
| 13> C 5.7768264978 0.3183175756 -0.2474061433
| 14> S 0.9810306564 0.3382137152 -1.4808791242
| 15> C 0.017072358 -1.1954207422 -1.3525772812
| 16> S -1.0548301076 -1.230141927 0.0992861883
| 17> P -2.3474290765 0.3485652138 -0.5386286698
| 18> S -2.6985926324 0.4484460541 -2.4577956468
| 19> O -1.6874153682 1.6722373852 0.0100981067
| 20> C -1.4450978747 1.9179825936 1.4161834044
| 21> C -2.5270840146 2.8046971428 1.9963672692
| 22> O -3.6210233135 0.1853064392 0.3989314697
| 23> C -4.7383041642 -0.6535321586 0.04980682
| 24> C -4.3636715876 -2.119199471 -0.0240295352
| 25> H -0.015338431 -0.7122072767 3.1729566456
| 26> H 1.2425750029 -1.849560981 2.6879315367
| 27> H 1.3001641474 -1.1059679779 4.2929655974
| 28> H 2.9409617462 -0.0368975433 2.7468708058
| 29> H 1.6909428917 1.1297323159 3.2602450725
| 30> H 4.2448013016 0.0990539863 -1.7589623793
| 31> H 4.7068714446 1.7900414094 -1.4290411913
| 32> H 6.6039370576 0.2471668799 -0.9462511945
| 33> H 6.0362689911 1.010054287 0.5489965483
| 34> H 5.5911463003 -0.6636601741 0.1825263637
| 35> H 0.6946938905 -2.0455431362 -1.269117025
| 36> H -0.590963035 -1.2526079324 -2.2553157091
| 37> H -1.3948667107 0.9589383622 1.9388305006
| 38> H -0.466846402 2.4023237041 1.4464525705
| 39> H -3.4890474255 2.3010566636 1.9517982605
| 40> H -2.2861198143 3.0292437466 3.0307193551
| 41> H -2.5896174582 3.7311021234 1.4320274544
| 42> H -5.4623100506 -0.4631965048 0.843380363
| 43> H -5.1369411224 -0.3104731668 -0.9095506745
| 44> H -3.8614011084 -2.4308968511 0.8883439119
| 45> H -5.2632090404 -2.710660908 -0.1612504944
| 46> H -3.6981324702 -2.2915658437 -0.8685113243
| 47> *
| 48>
| 49>                          ****END OF INPUT****

CARTESIAN COORDINATES (ANGSTROEM)
---------------------------------
  C      1.043618   -0.940698    3.251515
  C      1.875724    0.204982    2.711690
  O      1.503949    0.514883    1.343970
  P      2.296693   -0.085505    0.114148
  S      2.904767   -1.946795    0.257438
  O      3.449881    0.996368   -0.059247
  C      4.543850    0.807959   -0.981856
  C      5.776826    0.318318   -0.247406
  S      0.981031    0.338214   -1.480879
  C      0.017072   -1.195421   -1.352577
  S     -1.054830   -1.230142    0.099286
  P     -2.347429    0.348565   -0.538629
  S     -2.698593    0.448446   -2.457796
  O     -1.687415    1.672237    0.010098
  C     -1.445098    1.917983    1.416183
  C     -2.527084    2.804697    1.996367
  O     -3.621023    0.185306    0.398931
  C     -4.738304   -0.653532    0.049807
  C     -4.363672   -2.119199   -0.024030
  H     -0.015338   -0.712207    3.172957
  H      1.242575   -1.849561    2.687932
  H      1.300164   -1.105968    4.292966
  H      2.940962   -0.036898    2.746871
  H      1.690943    1.129732    3.260245
  H      4.244801    0.099054   -1.758962
  H      4.706871    1.790041   -1.429041
  H      6.603937    0.247167   -0.946251
  H      6.036269    1.010054    0.548997
  H      5.591146   -0.663660    0.182526
  H      0.694694   -2.045543   -1.269117
  H     -0.590963   -1.252608   -2.255316
  H     -1.394867    0.958938    1.938831
  H     -0.466846    2.402324    1.446453
  H     -3.489047    2.301057    1.951798
  H     -2.286120    3.029244    3.030719
  H     -2.589617    3.731102    1.432027
  H     -5.462310   -0.463197    0.843380
  H     -5.136941   -0.310473   -0.909551
  H     -3.861401   -2.430897    0.888344
  H     -5.263209   -2.710661   -0.161250
  H     -3.698132   -2.291566   -0.868511

 Total Charge           Charge          ....    0
 Multiplicity           Mult            ....    1
 Number of Electrons    NEL             ....  202
 Basis Dimension        Dim             ....  539

ORBITAL ENERGIES
----------------

  NO   OCC          E(Eh)            E(eV)
   0   2.0000     -88.574328     -2410.2300
   1   2.0000     -88.571964     -2410.1657
   2   2.0000     -88.522051     -2408.8075
   3   2.0000     -88.520015     -2408.7521
   4   2.0000     -76.915344     -2092.9729
   5   2.0000     -76.913500     -2092.9227
   6   2.0000     -18.995865      -516.9038
   7   2.0000     -18.993067      -516.8276
   8   2.0000     -18.992752      -516.8191
   9   2.0000     -18.987626      -516.6796
  10   2.0000     -10.104442      -274.9558
  11   2.0000     -10.101855      -274.8855
  12   2.0000     -10.101708      -274.8815
  13   2.0000     -10.100769      -274.8559
  14   2.0000     -10.099337      -274.8169
  15   2.0000     -10.030374      -272.9404
  16   2.0000     -10.029808      -272.9250
  17   2.0000     -10.029001      -272.9030
  18   2.0000     -10.027785      -272.8699
  19   2.0000      -7.868398      -214.1100
  20   2.0000      -7.866441      -214.0568
  21   2.0000      -7.817026      -212.7121
  22   2.0000      -7.814794      -212.6514
  23   2.0000      -6.593828      -179.4272
  24   2.0000      -6.591948      -179.3760
  25   2.0000      -5.815311      -158.2427
  26   2.0000      -5.813258      -158.1868
  27   2.0000      -5.812270      -158.1599
  28   2.0000      -5.810334      -158.1072
  29   2.0000      -5.805505      -157.9758
  30   2.0000      -5.803552      -157.9227
  31   2.0000      -5.764598      -156.8627
  32   2.0000      -5.762498      -156.8055
  33   2.0000      -5.757352      -156.6655
  34   2.0000      -5.757027      -156.6567
  35   2.0000      -5.754987      -156.6011
  36   2.0000      -5.754822      -156.5967
  37   2.0000      -4.739375      -128.9649
  38   2.0000      -4.738669      -128.9457
  39   2.0000      -4.737827      -128.9228
  40   2.0000      -4.737606      -128.9168
  41   2.0000      -4.736790      -128.8946
  42   2.0000      -4.735433      -128.8577
  43   2.0000      -1.051587       -28.6151
  44   2.0000      -1.051092       -28.6017
  45   2.0000      -1.011556       -27.5258
  46   2.0000      -1.010081       -27.4857
  47   2.0000      -0.800966       -21.7954
  48   2.0000      -0.759080       -20.6556
  49   2.0000      -0.750336       -20.4177
  50   2.0000      -0.735356       -20.0101
  51   2.0000      -0.732227       -19.9249
  52   2.0000      -0.711019       -19.3478
  53   2.0000      -0.686441       -18.6790
  54   2.0000      -0.669136       -18.2081
  55   2.0000      -0.629607       -17.1325
  56   2.0000      -0.622842       -16.9484
  57   2.0000      -0.608512       -16.5585
  58   2.0000      -0.606864       -16.5136
  59   2.0000      -0.590132       -16.0583
  60   2.0000      -0.533883       -14.5277
  61   2.0000      -0.522627       -14.2214
  62   2.0000      -0.497781       -13.5453
  63   2.0000      -0.494124       -13.4458
  64   2.0000      -0.475708       -12.9447
  65   2.0000      -0.467874       -12.7315
  66   2.0000      -0.459292       -12.4980
  67   2.0000      -0.451297       -12.2804
  68   2.0000      -0.445099       -12.1118
  69   2.0000      -0.438032       -11.9194
  70   2.0000      -0.421686       -11.4747
  71   2.0000      -0.416846       -11.3429
  72   2.0000      -0.410725       -11.1764
  73   2.0000      -0.401852       -10.9349
  74   2.0000      -0.394123       -10.7246
  75   2.0000      -0.386116       -10.5067
  76   2.0000      -0.383043       -10.4231
  77   2.0000      -0.378312       -10.2944
  78   2.0000      -0.370663       -10.0862
  79   2.0000      -0.369000       -10.0410
  80   2.0000      -0.364083        -9.9072
  81   2.0000      -0.360072        -9.7981
  82   2.0000      -0.358352        -9.7513
  83   2.0000      -0.356528        -9.7016
  84   2.0000      -0.347784        -9.4637
  85   2.0000      -0.333520        -9.0755
  86   2.0000      -0.323810        -8.8113
  87   2.0000      -0.314101        -8.5471
  88   2.0000      -0.312535        -8.5045
  89   2.0000      -0.308402        -8.3921
  90   2.0000      -0.307212        -8.3597
  91   2.0000      -0.296348        -8.0640
  92   2.0000      -0.283804        -7.7227
  93   2.0000      -0.279462        -7.6045
  94   2.0000      -0.273535        -7.4433
  95   2.0000      -0.245528        -6.6811
  96   2.0000      -0.230497        -6.2722
  97   2.0000      -0.226178        -6.1546
  98   2.0000      -0.217512        -5.9188
  99   2.0000      -0.214823        -5.8456
 100   2.0000      -0.213203        -5.8015
 101   0.0000      -0.045544        -1.2393
 102   0.0000      -0.024377        -0.6633
 103   0.0000      -0.002306        -0.0627
 104   0.0000      -0.000457        -0.0124
 105   0.0000       0.012900         0.3510

MULLIKEN ATOMIC CHARGES
-----------------------
   0 C :   -0.450269
   1 C :   -0.128931
   2 O :   -0.252904
   3 P :    0.655894
   4 S :   -0.483379
   5 O :   -0.305022
   6 C :   -0.118432
   7 C :   -0.460230
   8 S :   -0.107128
   9 C :   -0.241858
  10 S :   -0.158539
  11 P :    0.644106
  12 S :   -0.441949
  13 O :   -0.256864
  14 C :   -0.092632
  15 C :   -0.487785
  16 O :   -0.291089
  17 C :   -0.168524
  18 C :   -0.440980
  19 H :    0.145240
  20 H :    0.184912
  21 H :    0.145887
  22 H :    0.155275
  23 H :    0.149645
  24 H :    0.155690
  25 H :    0.151342
  26 H :    0.146029
  27 H :    0.151004
  28 H :    0.179633
  29 H :    0.212785
  30 H :    0.218663
  31 H :    0.149026
  32 H :    0.167737
  33 H :    0.165372
  34 H :    0.144132
  35 H :    0.160121
  36 H :    0.147517
  37 H :    0.174788
  38 H :    0.153220
  39 H :    0.148137
  40 H :    0.180361
Sum of atomic charges:    0.0000000

LOEWDIN ATOMIC CHARGES
----------------------
   0 C :   -0.405179
   1 C :    0.023608
   2 O :   -0.673609
   3 P :    0.372885
   4 S :   -0.137066
   5 O :   -0.661459
   6 C :    0.022080
   7 C :   -0.400194
   8 S :    0.186278
   9 C :   -0.424642
  10 S :    0.143391
  11 P :    0.382447
  12 S :   -0.100106
  13 O :   -0.650484
  14 C :    0.019616
  15 C :   -0.392681
  16 O :   -0.673339
  17 C :    0.022259
  18 C :   -0.408983
  19 H :    0.155463
  20 H :    0.170108
  21 H :    0.157993
  22 H :    0.177573
  23 H :    0.177631
  24 H :    0.177642
  25 H :    0.178191
  26 H :    0.159000
  27 H :    0.157588
  28 H :    0.167532
  29 H :    0.192088
  30 H :    0.191230
  31 H :    0.174262
  32 H :    0.186789
  33 H :    0.165338
  34 H :    0.157776
  35 H :    0.162758
  36 H :    0.179053
  37 H :    0.180728
  38 H :    0.160022
  39 H :    0.159508
  40 H :    0.166902

  Mayer bond orders larger than 0.100000
B(  0-C ,  1-C ) :   0.9362 B(  0-C , 19-H ) :   0.9712 B(  0-C , 20-H ) :   0.9590
B(  0-C , 21-H ) :   0.9653 B(  1-C ,  2-O ) :   0.7365 B(  1-C , 22-H ) :   0.9617
B(  1-C , 23-H ) :   0.9642 B(  2-O ,  3-P ) :   1.1511 B(  3-P ,  4-S ) :   1.7390
B(  3-P ,  5-O ) :   1.0723 B(  3-P ,  8-S ) :   1.1279 B(  5-O ,  6-C ) :   0.7686
B(  6-C ,  7-C ) :   0.9550 B(  6-C , 24-H ) :   0.9628 B(  6-C , 25-H ) :   0.9619
B(  7-C , 26-H ) :   0.9644 B(  7-C , 27-H ) :   0.9754 B(  7-C , 28-H ) :   0.9603
B(  8-S ,  9-C ) :   0.9073 B(  9-C , 10-S ) :   0.9072 B(  9-C , 29-H ) :   0.9035
B(  9-C , 30-H ) :   0.9073 B( 10-S , 11-P ) :   1.0131 B( 11-P , 12-S ) :   1.8358
B( 11-P , 13-O ) :   1.1432 B( 11-P , 16-O ) :   1.0310 B( 13-O , 14-C ) :   0.7370
B( 14-C , 15-C ) :   0.9317 B( 14-C , 31-H ) :   0.9684 B( 14-C , 32-H ) :   0.9539
B( 15-C , 33-H ) :   0.9707 B( 15-C , 34-H ) :   0.9661 B( 15-C , 35-H ) :   0.9739
B( 16-O , 17-C ) :   0.8192 B( 17-C , 18-C ) :   0.9175 B( 17-C , 36-H ) :   0.9613
B( 17-C , 37-H ) :   0.9685 B( 18-C , 38-H ) :   0.9667 B( 18-C , 39-H ) :   0.9560
B( 18-C , 40-H ) :   0.9634

Dispersion correction           -0.021630371
FINAL SINGLE POINT ENERGY     -2932.463091889666

DIPOLE MOMENT
-------------

Method             : SCF
Type of density    : Electron Density
Multiplicity       :   1
Irrep              :   0
Energy             : -2932.4878331811182761 Eh
Relativity type    :
Basis              : AO
                                X                 Y                 Z
Electronic contribution:     -0.728795121      -0.395592995     -16.635693662
Nuclear contribution   :      0.784506397       0.658476493      18.170112884
                        -----------------------------------------
Total Dipole Moment    :      0.055711276       0.262883497       1.534419222
                        -----------------------------------------
Magnitude (a.u.)       :      1.557772072
Magnitude (Debye)      :      3.959541938

Rotational constants in cm-1:             0.013363             0.004737             0.004518
Rotational constants in MHz :           400.605071           142.002950           135.455433

                             ****ORCA TERMINATED NORMALLY****
TOTAL RUN TIME: 0 days 0 hours 1 minutes 20 seconds 70 msec
