                         Program Version 6.0.0  -   RELEASE  -
|  1> ! r2scan-3c def2/J RI DEFGRID2 scfconv6 printgap
|  2> %output
|  3>     printlevel normal
|  4> end
|  5> %cpcm
|  6>     smd true
|  7>     smdsolvent "water"
|  8> end
|  9> * xyz 0 1
| 10> C 1.0436177774 -0.9406983075 3.2515146508
| 11> C 1.8757240484 0.2049824743 2.7116897024
| 12> O 1.5039485627 0.5148827095 1.3439695941
| 13> P 2.2966932994 -0.0855052093 0.1141476878
| 14> S 2.9047665446 -1.9467954548 0.2574376084
| 15> O 3.4498814125 0.9963680945 -0.0592472207
| 16> C 4.5438499876 0.807959029 -0.9818557219
| 17> C 5.7768264978 0.3183175756 -0.2474061433
| 18> S 0.9810306564 0.3382137152 -1.4808791242
| 19> C 0.017072358 -1.1954207422 -1.3525772812
| 20> S -1.0548301076 -1.230141927 0.0992861883
| 21> P -2.3474290765 0.3485652138 -0.5386286698
| 22> S -2.6985926324 0.4484460541 -2.4577956468
| 23> O -1.6874153682 1.6722373852 0.0100981067
| 24> C -1.4450978747 1.9179825936 1.4161834044
| 25> C -2.5270840146 2.8046971428 1.9963672692
| 26> O -3.6210233135 0.1853064392 0.3989314697
| 27> C -4.7383041642 -0.6535321586 0.04980682
| 28> C -4.3636715876 -2.119199471 -0.0240295352
| 29> H -0.015338431 -0.7122072767 3.1729566456
| 30> H 1.2425750029 -1.849560981 2.6879315367
| 31> H 1.3001641474 -1.1059679779 4.2929655974
| 32> H 2.9409617462 -0.0368975433 2.7468708058
| 33> H 1.6909428917 1.1297323159 3.2602450725
| 34> H 4.2448013016 0.0990539863 -1.7589623793
| 35> H 4.7068714446 1.7900414094 -1.4290411913
| 36> H 6.6039370576 0.2471668799 -0.9462511945
| 37> H 6.0362689911 1.010054287 0.5489965483
| 38> H 5.5911463003 -0.6636601741 0.1825263637
| 39> H 0.6946938905 -2.0455431362 -1.269117025
| 40> H -0.590963035 -1.2526079324 -2.2553157091
| 41> H -1.3948667107 0.9589383622 1.9388305006
| 42> H -0.466846402 2.4023237041 1.4464525705
| 43> H -3.4890474255 2.3010566636 1.9517982605
| 44> H -2.2861198143 3.0292437466 3.0307193551
| 45> H -2.5896174582 3.7311021234 1.4320274544
| 46> H -5.4623100506 -0.4631965048 0.843380363
| 47> H -5.1369411224 -0.3104731668 -0.9095506745
| 48> H -3.8614011084 -2.4308968511 0.8883439119
| 49> H -5.2632090404 -2.710660908 -0.1612504944
| 50> H -3.6981324702 -2.2915658437 -0.8685113243
| 51> *
| 52>
| 53>                          ****END OF INPUT****

CARTESIAN COORDINATES (ANGSTROEM)
---------------------------------
  C      1.043618   -0.940698    3.251515
  C      1.875724    0.204982    2.711690
  O      1.503949    0.514883    1.343970
  P      2.296693   -0.085505    0.114148
  S      2.904767   -1.946795    0.257438
  O      3.449881    0.996368   -0.059247
  C      4.543850    0.807959   -0.981856
  C      5.776826    0.318318   -0.247406
  S      0.981031    0.338214   -1.480879
  C      0.017072   -1.195421   -1.352577
  S     -1.054830   -1.230142    0.099286
  P     -2.347429    0.348565   -0.538629
  S     -2.698593    0.448446   -2.457796
  O     -1.687415    1.672237    0.010098
  C     -1.445098    1.917983    1.416183
  C     -2.527084    2.804697    1.996367
  O     -3.621023    0.185306    0.398931
  C     -4.738304   -0.653532    0.049807
  C     -4.363672   -2.119199   -0.024030
  H     -0.015338   -0.712207    3.172957
  H      1.242575   -1.849561    2.687932
  H      1.300164   -1.105968    4.292966
  H      2.940962   -0.036898    2.746871
  H      1.690943    1.129732    3.260245
  H      4.244801    0.099054   -1.758962
  H      4.706871    1.790041   -1.429041
  H      6.603937    0.247167   -0.946251
  H      6.036269    1.010054    0.548997
  H      5.591146   -0.663660    0.182526
  H      0.694694   -2.045543   -1.269117
  H     -0.590963   -1.252608   -2.255316
  H     -1.394867    0.958938    1.938831
  H     -0.466846    2.402324    1.446453
  H     -3.489047    2.301057    1.951798
  H     -2.286120    3.029244    3.030719
  H     -2.589617    3.731102    1.432027
  H     -5.462310   -0.463197    0.843380
  H     -5.136941   -0.310473   -0.909551
  H     -3.861401   -2.430897    0.888344
  H     -5.263209   -2.710661   -0.161250
  H     -3.698132   -2.291566   -0.868511

 Total Charge           Charge          ....    0
 Multiplicity           Mult            ....    1
 Number of Electrons    NEL             ....  202
 Basis Dimension        Dim             ....  539

ORBITAL ENERGIES
----------------

  NO   OCC          E(Eh)            E(eV)
   0   2.0000     -88.579787     -2410.3786
   1   2.0000     -88.575317     -2410.2569
   2   2.0000     -88.530617     -2409.0406
   3   2.0000     -88.527266     -2408.9494
   4   2.0000     -76.920006     -2093.0998
   5   2.0000     -76.919118     -2093.0756
   6   2.0000     -18.996464      -516.9201
   7   2.0000     -18.994573      -516.8686
   8   2.0000     -18.992903      -516.8232
   9   2.0000     -18.992085      -516.8009
  10   2.0000     -10.102918      -274.9144
  11   2.0000     -10.091020      -274.5906
  12   2.0000     -10.090910      -274.5876
  13   2.0000     -10.090890      -274.5871
  14   2.0000     -10.090839      -274.5857
  15   2.0000     -10.018519      -272.6178
  16   2.0000     -10.018123      -272.6070
  17   2.0000     -10.016995      -272.5763
  18   2.0000     -10.015757      -272.5426
  19   2.0000      -7.874002      -214.2625
  20   2.0000      -7.869739      -214.1465
  21   2.0000      -7.825764      -212.9499
  22   2.0000      -7.822496      -212.8609
  23   2.0000      -6.598491      -179.5541
  24   2.0000      -6.597600      -179.5298
  25   2.0000      -5.820850      -158.3934
  26   2.0000      -5.817838      -158.3114
  27   2.0000      -5.816587      -158.2774
  28   2.0000      -5.813664      -158.1978
  29   2.0000      -5.811205      -158.1309
  30   2.0000      -5.806794      -158.0109
  31   2.0000      -5.773347      -157.1008
  32   2.0000      -5.770035      -157.0106
  33   2.0000      -5.765931      -156.8989
  34   2.0000      -5.765865      -156.8972
  35   2.0000      -5.762826      -156.8145
  36   2.0000      -5.762479      -156.8050
  37   2.0000      -4.744303      -129.0990
  38   2.0000      -4.743301      -129.0718
  39   2.0000      -4.743073      -129.0656
  40   2.0000      -4.742445      -129.0485
  41   2.0000      -4.742112      -129.0394
  42   2.0000      -4.741478      -129.0222
  43   2.0000      -1.053855       -28.6769
  44   2.0000      -1.051332       -28.6082
  45   2.0000      -1.012410       -27.5491
  46   2.0000      -1.010763       -27.5042
  47   2.0000      -0.803993       -21.8778
  48   2.0000      -0.755448       -20.5568
  49   2.0000      -0.743974       -20.2445
  50   2.0000      -0.726187       -19.7605
  51   2.0000      -0.721861       -19.6428
  52   2.0000      -0.710001       -19.3201
  53   2.0000      -0.689518       -18.7627
  54   2.0000      -0.674970       -18.3669
  55   2.0000      -0.627733       -17.0815
  56   2.0000      -0.617716       -16.8089
  57   2.0000      -0.602435       -16.3931
  58   2.0000      -0.599395       -16.3104
  59   2.0000      -0.587985       -15.9999
  60   2.0000      -0.528969       -14.3940
  61   2.0000      -0.518382       -14.1059
  62   2.0000      -0.492266       -13.3952
  63   2.0000      -0.489825       -13.3288
  64   2.0000      -0.476194       -12.9579
  65   2.0000      -0.463395       -12.6096
  66   2.0000      -0.454369       -12.3640
  67   2.0000      -0.444663       -12.0999
  68   2.0000      -0.439116       -11.9490
  69   2.0000      -0.433353       -11.7921
  70   2.0000      -0.419010       -11.4018
  71   2.0000      -0.412459       -11.2236
  72   2.0000      -0.407313       -11.0836
  73   2.0000      -0.396878       -10.7996
  74   2.0000      -0.393910       -10.7188
  75   2.0000      -0.383284       -10.4297
  76   2.0000      -0.379488       -10.3264
  77   2.0000      -0.371769       -10.1164
  78   2.0000      -0.363474        -9.8906
  79   2.0000      -0.362467        -9.8632
  80   2.0000      -0.356244        -9.6939
  81   2.0000      -0.352287        -9.5862
  82   2.0000      -0.350748        -9.5443
  83   2.0000      -0.348264        -9.4768
  84   2.0000      -0.342999        -9.3335
  85   2.0000      -0.331180        -9.0119
  86   2.0000      -0.320440        -8.7196
  87   2.0000      -0.307953        -8.3798
  88   2.0000      -0.307082        -8.3561
  89   2.0000      -0.303614        -8.2618
  90   2.0000      -0.302886        -8.2419
  91   2.0000      -0.292643        -7.9632
  92   2.0000      -0.282906        -7.6983
  93   2.0000      -0.279118        -7.5952
  94   2.0000      -0.275789        -7.5046
  95   2.0000      -0.250135        -6.8065
  96   2.0000      -0.237908        -6.4738
  97   2.0000      -0.235108        -6.3976
  98   2.0000      -0.225182        -6.1275
  99   2.0000      -0.222778        -6.0621
 100   2.0000      -0.219711        -5.9786
 101   0.0000      -0.051128        -1.3913
 102   0.0000      -0.030946        -0.8421
 103   0.0000      -0.006595        -0.1794
 104   0.0000      -0.004335        -0.1180
 105   0.0000       0.012497         0.3401

MULLIKEN ATOMIC CHARGES
-----------------------
   0 C :   -0.492475
   1 C :   -0.125785
   2 O :   -0.275758
   3 P :    0.688135
   4 S :   -0.521376
   5 O :   -0.328952
   6 C :   -0.118474
   7 C :   -0.493954
   8 S :   -0.140662
   9 C :   -0.249898
  10 S :   -0.151738
  11 P :    0.659784
  12 S :   -0.498371
  13 O :   -0.290793
  14 C :   -0.086125
  15 C :   -0.533441
  16 O :   -0.307703
  17 C :   -0.161480
  18 C :   -0.479093
  19 H :    0.166320
  20 H :    0.172730
  21 H :    0.169650
  22 H :    0.170069
  23 H :    0.177753
  24 H :    0.164899
  25 H :    0.176142
  26 H :    0.169739
  27 H :    0.166568
  28 H :    0.170966
  29 H :    0.231896
  30 H :    0.235516
  31 H :    0.173787
  32 H :    0.180458
  33 H :    0.170441
  34 H :    0.171185
  35 H :    0.168688
  36 H :    0.176358
  37 H :    0.179700
  38 H :    0.168064
  39 H :    0.172744
  40 H :    0.174486
Sum of atomic charges:    0.0000000

LOEWDIN ATOMIC CHARGES
----------------------
   0 C :   -0.408920
   1 C :    0.030403
   2 O :   -0.682200
   3 P :    0.377840
   4 S :   -0.160129
   5 O :   -0.673710
   6 C :    0.026296
   7 C :   -0.403907
   8 S :    0.165105
   9 C :   -0.419926
  10 S :    0.151521
  11 P :    0.384982
  12 S :   -0.142561
  13 O :   -0.675525
  14 C :    0.025172
  15 C :   -0.394849
  16 O :   -0.676167
  17 C :    0.028363
  18 C :   -0.411707
  19 H :    0.161380
  20 H :    0.162926
  21 H :    0.166615
  22 H :    0.181954
  23 H :    0.190191
  24 H :    0.180527
  25 H :    0.188612
  26 H :    0.167680
  27 H :    0.162440
  28 H :    0.162405
  29 H :    0.197571
  30 H :    0.196152
  31 H :    0.183515
  32 H :    0.192002
  33 H :    0.165484
  34 H :    0.168891
  35 H :    0.164137
  36 H :    0.191506
  37 H :    0.181826
  38 H :    0.163726
  39 H :    0.168443
  40 H :    0.161937

  Mayer bond orders larger than 0.100000
B(  0-C ,  1-C ) :   0.9215 B(  0-C , 19-H ) :   0.9678 B(  0-C , 20-H ) :   0.9641
B(  0-C , 21-H ) :   0.9606 B(  1-C ,  2-O ) :   0.7239 B(  1-C , 22-H ) :   0.9584
B(  1-C , 23-H ) :   0.9522 B(  2-O ,  3-P ) :   1.1634 B(  3-P ,  4-S ) :   1.7109
B(  3-P ,  5-O ) :   1.0776 B(  3-P ,  8-S ) :   1.1274 B(  5-O ,  6-C ) :   0.7550
B(  6-C ,  7-C ) :   0.9471 B(  6-C , 24-H ) :   0.9574 B(  6-C , 25-H ) :   0.9520
B(  7-C , 26-H ) :   0.9598 B(  7-C , 27-H ) :   0.9715 B(  7-C , 28-H ) :   0.9636
B(  8-S ,  9-C ) :   0.8956 B(  9-C , 10-S ) :   0.8986 B(  9-C , 29-H ) :   0.9007
B(  9-C , 30-H ) :   0.9023 B( 10-S , 11-P ) :   1.0243 B( 11-P , 12-S ) :   1.8110
B( 11-P , 13-O ) :   1.1488 B( 11-P , 16-O ) :   1.0455 B( 13-O , 14-C ) :   0.7227
B( 14-C , 15-C ) :   0.9278 B( 14-C , 31-H ) :   0.9555 B( 14-C , 32-H ) :   0.9453
B( 15-C , 33-H ) :   0.9697 B( 15-C , 34-H ) :   0.9588 B( 15-C , 35-H ) :   0.9726
B( 16-O , 17-C ) :   0.8067 B( 17-C , 18-C ) :   0.9049 B( 17-C , 36-H ) :   0.9503
B( 17-C , 37-H ) :   0.9675 B( 18-C , 38-H ) :   0.9640 B( 18-C , 39-H ) :   0.9509
B( 18-C , 40-H ) :   0.9655

Dispersion correction           -0.021630371
FINAL SINGLE POINT ENERGY     -2932.472284540323

DIPOLE MOMENT
-------------

Method             : SCF
Type of density    : Electron Density
Multiplicity       :   1
Irrep              :   0
Energy             : -2932.4970258317757725 Eh
Relativity type    :
Basis              : AO
                                X                 Y                 Z
Electronic contribution:     -0.725299904      -0.466066396     -15.946023177
Nuclear contribution   :      0.784506397       0.658476493      18.170112884
                        -----------------------------------------
Total Dipole Moment    :      0.059206493       0.192410096       2.224089708
                        -----------------------------------------
Magnitude (a.u.)       :      2.233182053
Magnitude (Debye)      :      5.676297676

Rotational constants in cm-1:             0.013363             0.004737             0.004518
Rotational constants in MHz :           400.605071           142.002950           135.455433

                             ****ORCA TERMINATED NORMALLY****
TOTAL RUN TIME: 0 days 0 hours 1 minutes 49 seconds 981 msec
