                         Program Version 6.0.1  -  RELEASE   -
|  1> ! pbe def2-sv(p) def2/J RI DEFGRID1 loosescf d4 GCP(DFT/SV(P)) printgap
|  2> %output
|  3>     printlevel normal
|  4> end
|  5> * xyz 0 1
|  6> C 4.1142409438 -2.7489377896 1.1534288185
|  7> C 2.7838490082 -2.0303515528 1.2558018706
|  8> O 2.4661832042 -1.4914138168 -0.0414951681
|  9> C 1.570846745 -0.5452980114 -0.1263962239
| 10> O 1.0208568496 -0.0149436708 0.8274684164
| 11> C 1.3248458098 -0.1012706789 -1.5506439316
| 12> C 0.2989743729 1.0215595159 -1.5615127017
| 13> H 0.3323463776 1.5588692481 -2.5135348988
| 14> C 0.5435488816 2.026341869 -0.4410654126
| 15> O -0.3333532365 2.4998243612 0.2436566806
| 16> O 1.814649396 2.3726024152 -0.3938201832
| 17> C 2.2093194359 3.3499238738 0.5906698969
| 18> C 1.9472160385 4.764241372 0.0993867373
| 19> S -1.4341953221 0.4603838696 -1.4864419442
| 20> P -1.6487845821 -0.9022751636 0.1282025021
| 21> S -0.6299535598 -2.5755324344 0.0948456034
| 22> O -1.6358457395 -0.1911397008 1.5359613919
| 23> C -2.4928844275 0.9132243006 1.8863017825
| 24> O -3.2213200901 -1.1669851905 -0.0364861966
| 25> C -3.7418243376 -1.9347378846 -1.1272003393
| 26> H 4.3572769065 -3.1873721071 2.1153839166
| 27> H 4.0488725989 -3.534141527 0.40686341
| 28> H 4.8964085691 -2.0522034545 0.867229945
| 29> H 2.8091028704 -1.207547119 1.9774893173
| 30> H 1.9738089424 -2.7129097875 1.5335600802
| 31> H 0.9914961843 -0.9558431713 -2.1420524047
| 32> H 2.2730825708 0.2506168426 -1.9608674084
| 33> H 1.6617680009 3.1464718805 1.5155143117
| 34> H 3.2745069311 3.1680734184 0.734625056
| 35> H 2.3175660858 5.47043847 0.8350560073
| 36> H 2.4546522259 4.93135146 -0.8465918115
| 37> H 0.8797743197 4.922205372 -0.0354841885
| 38> H -2.4490476287 0.9670493676 2.9709170592
| 39> H -3.5089822253 0.7236686999 1.5466292848
| 40> H -2.0999305774 1.827219392 1.441713863
| 41> H -3.7402157007 -1.3338357466 -2.0355654832
| 42> H -4.7565213564 -2.1990669041 -0.8404464043
| 43> H -3.1400324107 -2.8335355029 -1.2712285837
| 44> *
| 45>
| 46>                          ****END OF INPUT****

CARTESIAN COORDINATES (ANGSTROEM)
---------------------------------
  C      4.114241   -2.748938    1.153429
  C      2.783849   -2.030352    1.255802
  O      2.466183   -1.491414   -0.041495
  C      1.570847   -0.545298   -0.126396
  O      1.020857   -0.014944    0.827468
  C      1.324846   -0.101271   -1.550644
  C      0.298974    1.021560   -1.561513
  H      0.332346    1.558869   -2.513535
  C      0.543549    2.026342   -0.441065
  O     -0.333353    2.499824    0.243657
  O      1.814649    2.372602   -0.393820
  C      2.209319    3.349924    0.590670
  C      1.947216    4.764241    0.099387
  S     -1.434195    0.460384   -1.486442
  P     -1.648785   -0.902275    0.128203
  S     -0.629954   -2.575532    0.094846
  O     -1.635846   -0.191140    1.535961
  C     -2.492884    0.913224    1.886302
  O     -3.221320   -1.166985   -0.036486
  C     -3.741824   -1.934738   -1.127200
  H      4.357277   -3.187372    2.115384
  H      4.048873   -3.534142    0.406863
  H      4.896409   -2.052203    0.867230
  H      2.809103   -1.207547    1.977489
  H      1.973809   -2.712910    1.533560
  H      0.991496   -0.955843   -2.142052
  H      2.273083    0.250617   -1.960867
  H      1.661768    3.146472    1.515514
  H      3.274507    3.168073    0.734625
  H      2.317566    5.470438    0.835056
  H      2.454652    4.931351   -0.846592
  H      0.879774    4.922205   -0.035484
  H     -2.449048    0.967049    2.970917
  H     -3.508982    0.723669    1.546629
  H     -2.099931    1.827219    1.441714
  H     -3.740216   -1.333836   -2.035565
  H     -4.756521   -2.199067   -0.840446
  H     -3.140032   -2.833536   -1.271229

 Total Charge           Charge          ....    0
 Multiplicity           Mult            ....    1
 Number of Electrons    NEL             ....  174
 Basis Dimension        Dim             ....  316

ORBITAL ENERGIES
----------------

  NO   OCC          E(Eh)            E(eV)
   0   2.0000     -88.032506     -2395.4863
   1   2.0000     -87.971838     -2393.8354
   2   2.0000     -76.418622     -2079.4564
   3   2.0000     -18.803829      -511.6782
   4   2.0000     -18.801992      -511.6282
   5   2.0000     -18.785013      -511.1662
   6   2.0000     -18.779266      -511.0098
   7   2.0000     -18.737812      -509.8818
   8   2.0000     -18.735202      -509.8108
   9   2.0000     -10.014143      -272.4987
  10   2.0000     -10.012105      -272.4432
  11   2.0000      -9.949232      -270.7324
  12   2.0000      -9.948576      -270.7145
  13   2.0000      -9.941005      -270.5085
  14   2.0000      -9.938352      -270.4363
  15   2.0000      -9.927071      -270.1293
  16   2.0000      -9.910864      -269.6883
  17   2.0000      -9.887789      -269.0604
  18   2.0000      -9.885222      -268.9906
  19   2.0000      -7.677365      -208.9117
  20   2.0000      -7.617260      -207.2762
  21   2.0000      -6.415272      -174.5684
  22   2.0000      -5.705491      -155.2543
  23   2.0000      -5.701792      -155.1537
  24   2.0000      -5.694155      -154.9458
  25   2.0000      -5.646315      -153.6440
  26   2.0000      -5.637586      -153.4065
  27   2.0000      -5.637424      -153.4021
  28   2.0000      -4.638315      -126.2150
  29   2.0000      -4.637213      -126.1850
  30   2.0000      -4.635362      -126.1346
  31   2.0000      -1.014389       -27.6029
  32   2.0000      -1.008559       -27.4443
  33   2.0000      -0.976075       -26.5604
  34   2.0000      -0.931280       -25.3414
  35   2.0000      -0.916582       -24.9415
  36   2.0000      -0.914523       -24.8854
  37   2.0000      -0.761466       -20.7205
  38   2.0000      -0.710365       -19.3300
  39   2.0000      -0.704439       -19.1688
  40   2.0000      -0.686726       -18.6868
  41   2.0000      -0.654545       -17.8111
  42   2.0000      -0.628322       -17.0975
  43   2.0000      -0.621402       -16.9092
  44   2.0000      -0.607740       -16.5375
  45   2.0000      -0.588256       -16.0073
  46   2.0000      -0.561300       -15.2737
  47   2.0000      -0.510309       -13.8862
  48   2.0000      -0.505592       -13.7579
  49   2.0000      -0.496361       -13.5067
  50   2.0000      -0.479601       -13.0506
  51   2.0000      -0.464429       -12.6377
  52   2.0000      -0.453066       -12.3286
  53   2.0000      -0.441561       -12.0155
  54   2.0000      -0.428119       -11.6497
  55   2.0000      -0.426389       -11.6026
  56   2.0000      -0.421935       -11.4814
  57   2.0000      -0.417328       -11.3561
  58   2.0000      -0.416125       -11.3233
  59   2.0000      -0.404574       -11.0090
  60   2.0000      -0.402544       -10.9538
  61   2.0000      -0.393063       -10.6958
  62   2.0000      -0.387028       -10.5316
  63   2.0000      -0.380579       -10.3561
  64   2.0000      -0.377832       -10.2813
  65   2.0000      -0.360635        -9.8134
  66   2.0000      -0.356465        -9.6999
  67   2.0000      -0.352091        -9.5809
  68   2.0000      -0.340828        -9.2744
  69   2.0000      -0.336173        -9.1477
  70   2.0000      -0.330290        -8.9876
  71   2.0000      -0.326360        -8.8807
  72   2.0000      -0.317045        -8.6272
  73   2.0000      -0.308457        -8.3935
  74   2.0000      -0.298801        -8.1308
  75   2.0000      -0.296188        -8.0597
  76   2.0000      -0.293372        -7.9831
  77   2.0000      -0.285201        -7.7607
  78   2.0000      -0.263390        -7.1672
  79   2.0000      -0.258859        -7.0439
  80   2.0000      -0.252696        -6.8762
  81   2.0000      -0.248539        -6.7631
  82   2.0000      -0.229801        -6.2532
  83   2.0000      -0.225526        -6.1369
  84   2.0000      -0.217512        -5.9188
  85   2.0000      -0.191607        -5.2139
  86   2.0000      -0.184918        -5.0319
  87   0.0000      -0.033549        -0.9129
  88   0.0000      -0.020435        -0.5561
  89   0.0000      -0.018006        -0.4900
  90   0.0000      -0.004930        -0.1342
  91   0.0000       0.034082         0.9274

MULLIKEN ATOMIC CHARGES
-----------------------
   0 C :   -0.276641
   1 C :   -0.028412
   2 O :   -0.212141
   3 C :    0.118536
   4 O :   -0.214674
   5 C :   -0.071940
   6 C :   -0.296309
   7 H :    0.143130
   8 C :    0.217903
   9 O :   -0.181994
  10 O :   -0.246924
  11 C :   -0.003212
  12 C :   -0.307352
  13 S :   -0.100855
  14 P :    0.633054
  15 S :   -0.342058
  16 O :   -0.349044
  17 C :   -0.124085
  18 O :   -0.392920
  19 C :   -0.103221
  20 H :    0.111774
  21 H :    0.117420
  22 H :    0.109558
  23 H :    0.106657
  24 H :    0.120548
  25 H :    0.138600
  26 H :    0.122340
  27 H :    0.114761
  28 H :    0.099969
  29 H :    0.113192
  30 H :    0.110395
  31 H :    0.129634
  32 H :    0.119760
  33 H :    0.114331
  34 H :    0.151637
  35 H :    0.117725
  36 H :    0.123042
  37 H :    0.117813
Sum of atomic charges:   -0.0000000

LOEWDIN ATOMIC CHARGES
----------------------
   0 C :   -0.351007
   1 C :   -0.108067
   2 O :   -0.040743
   3 C :    0.018825
   4 O :   -0.162882
   5 C :   -0.257355
   6 C :   -0.262373
   7 H :    0.150678
   8 C :    0.016443
   9 O :   -0.159846
  10 O :   -0.062981
  11 C :   -0.105871
  12 C :   -0.357927
  13 S :    0.102127
  14 P :    0.578441
  15 S :   -0.315419
  16 O :   -0.224150
  17 C :   -0.214685
  18 O :   -0.260532
  19 C :   -0.217405
  20 H :    0.130866
  21 H :    0.127935
  22 H :    0.123604
  23 H :    0.116706
  24 H :    0.118713
  25 H :    0.147514
  26 H :    0.148085
  27 H :    0.123974
  28 H :    0.116914
  29 H :    0.130894
  30 H :    0.123314
  31 H :    0.131116
  32 H :    0.121755
  33 H :    0.110058
  34 H :    0.123008
  35 H :    0.108934
  36 H :    0.121350
  37 H :    0.109990

  Mayer bond orders larger than 0.100000
B(  0-C ,  1-C ) :   1.1543 B(  0-C , 20-H ) :   0.9444 B(  0-C , 21-H ) :   0.9483
B(  0-C , 22-H ) :   0.9521 B(  1-C ,  2-O ) :   0.8996 B(  1-C , 23-H ) :   0.9241
B(  1-C , 24-H ) :   0.9224 B(  2-O ,  3-C ) :   1.2733 B(  3-C ,  4-O ) :   1.9139
B(  3-C ,  5-C ) :   1.0085 B(  5-C ,  6-C ) :   1.0362 B(  5-C , 25-H ) :   0.8873
B(  5-C , 26-H ) :   0.8720 B(  6-C ,  7-H ) :   0.8666 B(  6-C ,  8-C ) :   0.8678
B(  6-C , 13-S ) :   1.0557 B(  8-C ,  9-O ) :   2.0368 B(  8-C , 10-O ) :   1.2205
B( 10-O , 11-C ) :   0.9121 B( 11-C , 12-C ) :   1.1739 B( 11-C , 27-H ) :   0.9162
B( 11-C , 28-H ) :   0.9380 B( 12-C , 29-H ) :   0.9441 B( 12-C , 30-H ) :   0.9482
B( 12-C , 31-H ) :   0.9443 B( 13-S , 14-P ) :   0.9719 B( 13-S , 15-S ) :   0.1137
B( 14-P , 15-S ) :   1.5969 B( 14-P , 16-O ) :   1.1554 B( 14-P , 18-O ) :   1.0512
B( 16-O , 17-C ) :   0.9100 B( 17-C , 32-H ) :   0.9591 B( 17-C , 33-H ) :   0.9428
B( 17-C , 34-H ) :   0.9241 B( 18-O , 19-C ) :   0.9342 B( 19-C , 35-H ) :   0.9493
B( 19-C , 36-H ) :   0.9586 B( 19-C , 37-H ) :   0.9306

Dispersion correction           -0.053933130
FINAL SINGLE POINT ENERGY     -1979.012554670534

DIPOLE MOMENT
-------------

Method             : SCF
Type of density    : Electron Density
Multiplicity       :   1
Irrep              :   0
Energy             : -1979.1430403962781384 Eh
Relativity type    :
Basis              : AO
                                X                 Y                 Z
Electronic contribution:    -12.591777778      -6.629057981      -4.373547312
Nuclear contribution   :     13.332980103       7.416987364       3.990755541
                        -----------------------------------------
Total Dipole Moment    :      0.741202325       0.787929383      -0.382791771
                        -----------------------------------------
Magnitude (a.u.)       :      1.147494287
Magnitude (Debye)      :      2.916698684

Rotational constants in cm-1:             0.011409             0.008873             0.006128
Rotational constants in MHz :           342.047323           266.007760           183.714939

                             ****ORCA TERMINATED NORMALLY****
TOTAL RUN TIME: 0 days 0 hours 0 minutes 45 seconds 588 msec
