                         Program Version 6.0.0  -   RELEASE  -
|  1> ! pbe def2-sv(p) def2/J RI DEFGRID1 loosescf d4 GCP(DFT/SV(P)) printgap
|  2> %output
|  3>     printlevel normal
|  4> end
|  5> * xyz 0 1
|  6> C 0.7664872996 -1.4646836289 3.1700563757
|  7> C 2.0277817725 -0.87784494 2.5709910445
|  8> O 1.663113866 -0.0126063317 1.4654158651
|  9> P 2.4428879939 -0.0135110803 0.0919560818
| 10> S 3.1998707359 -1.7324679344 -0.4802965826
| 11> O 3.5021523617 1.146333029 0.3245796225
| 12> C 4.6304139579 1.3663623357 -0.5468509167
| 13> C 5.8997389642 1.3629494167 0.2826718357
| 14> S 1.0184659728 0.8543312831 -1.2034712941
| 15> C 0.1439780263 -0.691346173 -1.5815804825
| 16> S -0.9645391336 -1.2016809709 -0.2533132806
| 17> P -2.4188109164 0.3313190956 -0.5686140819
| 18> S -2.6923989756 0.8341581743 -2.4405627032
| 19> O -2.0165737355 1.5752145998 0.3025119915
| 20> C -1.4760252256 1.5808191789 1.6469938767
| 21> C -2.3551542931 0.8492140156 2.637749945
| 22> O -3.7058384457 -0.2357552383 0.1650641814
| 23> C -4.4824617341 -1.3052516383 -0.4119206392
| 24> C -5.8270328465 -1.330563028 0.2860225052
| 25> H 0.1257656415 -0.6734525506 3.5467252713
| 26> H 0.2246134779 -2.0316201494 2.4167479963
| 27> H 1.0394455323 -2.1253359469 3.9865282134
| 28> H 2.6894855671 -1.6651749824 2.1952473546
| 29> H 2.5683927554 -0.2605772413 3.2907052597
| 30> H 4.6585239817 0.578227821 -1.3056937909
| 31> H 4.4679446342 2.3317874394 -1.0300159319
| 32> H 6.7444405461 1.5971778242 -0.356909616
| 33> H 5.8288373926 2.1043649883 1.0732128657
| 34> H 6.0511049466 0.3828833774 0.7285202121
| 35> H 0.8701965196 -1.4916127841 -1.7281409427
| 36> H -0.4401626908 -0.50828297 -2.4843610754
| 37> H -0.4718684108 1.1489473335 1.6134580778
| 38> H -1.4071547042 2.6454721639 1.8764335776
| 39> H -2.3569462529 -0.21815611 2.4278842914
| 40> H -1.973421838 1.0162986435 3.6406591636
| 41> H -3.3744814023 1.2215868968 2.5777871692
| 42> H -4.5899676697 -1.1189906125 -1.4857002997
| 43> H -3.9366159352 -2.2408961739 -0.2643720959
| 44> H -6.3405590174 -0.3846972456 0.1392979151
| 45> H -6.4283554969 -2.1323145301 -0.1296378892
| 46> H -5.6909695296 -1.4970093339 1.3503648626
| 47> *
| 48>
| 49>                          ****END OF INPUT****

CARTESIAN COORDINATES (ANGSTROEM)
---------------------------------
  C      0.766487   -1.464684    3.170056
  C      2.027782   -0.877845    2.570991
  O      1.663114   -0.012606    1.465416
  P      2.442888   -0.013511    0.091956
  S      3.199871   -1.732468   -0.480297
  O      3.502152    1.146333    0.324580
  C      4.630414    1.366362   -0.546851
  C      5.899739    1.362949    0.282672
  S      1.018466    0.854331   -1.203471
  C      0.143978   -0.691346   -1.581580
  S     -0.964539   -1.201681   -0.253313
  P     -2.418811    0.331319   -0.568614
  S     -2.692399    0.834158   -2.440563
  O     -2.016574    1.575215    0.302512
  C     -1.476025    1.580819    1.646994
  C     -2.355154    0.849214    2.637750
  O     -3.705838   -0.235755    0.165064
  C     -4.482462   -1.305252   -0.411921
  C     -5.827033   -1.330563    0.286023
  H      0.125766   -0.673453    3.546725
  H      0.224613   -2.031620    2.416748
  H      1.039446   -2.125336    3.986528
  H      2.689486   -1.665175    2.195247
  H      2.568393   -0.260577    3.290705
  H      4.658524    0.578228   -1.305694
  H      4.467945    2.331787   -1.030016
  H      6.744441    1.597178   -0.356910
  H      5.828837    2.104365    1.073213
  H      6.051105    0.382883    0.728520
  H      0.870197   -1.491613   -1.728141
  H     -0.440163   -0.508283   -2.484361
  H     -0.471868    1.148947    1.613458
  H     -1.407155    2.645472    1.876434
  H     -2.356946   -0.218156    2.427884
  H     -1.973422    1.016299    3.640659
  H     -3.374481    1.221587    2.577787
  H     -4.589968   -1.118991   -1.485700
  H     -3.936616   -2.240896   -0.264372
  H     -6.340559   -0.384697    0.139298
  H     -6.428355   -2.132315   -0.129638
  H     -5.690970   -1.497009    1.350365

 Total Charge           Charge          ....    0
 Multiplicity           Mult            ....    1
 Number of Electrons    NEL             ....  202
 Basis Dimension        Dim             ....  334

ORBITAL ENERGIES
----------------

  NO   OCC          E(Eh)            E(eV)
   0   2.0000     -88.043232     -2395.7782
   1   2.0000     -88.042072     -2395.7466
   2   2.0000     -87.992455     -2394.3964
   3   2.0000     -87.981014     -2394.0851
   4   2.0000     -76.430196     -2079.7714
   5   2.0000     -76.425117     -2079.6332
   6   2.0000     -18.798146      -511.5236
   7   2.0000     -18.796338      -511.4744
   8   2.0000     -18.794974      -511.4372
   9   2.0000     -18.790671      -511.3201
  10   2.0000      -9.957458      -270.9562
  11   2.0000      -9.956026      -270.9172
  12   2.0000      -9.953582      -270.8507
  13   2.0000      -9.951692      -270.7993
  14   2.0000      -9.950731      -270.7732
  15   2.0000      -9.890671      -269.1388
  16   2.0000      -9.889423      -269.1049
  17   2.0000      -9.889118      -269.0966
  18   2.0000      -9.888082      -269.0684
  19   2.0000      -7.688475      -209.2140
  20   2.0000      -7.686917      -209.1716
  21   2.0000      -7.637425      -207.8249
  22   2.0000      -7.626384      -207.5245
  23   2.0000      -6.428116      -174.9179
  24   2.0000      -6.422578      -174.7672
  25   2.0000      -5.716254      -155.5472
  26   2.0000      -5.714562      -155.5011
  27   2.0000      -5.713124      -155.4620
  28   2.0000      -5.711472      -155.4171
  29   2.0000      -5.705399      -155.2518
  30   2.0000      -5.704135      -155.2174
  31   2.0000      -5.666131      -154.1833
  32   2.0000      -5.658010      -153.9623
  33   2.0000      -5.657835      -153.9575
  34   2.0000      -5.655357      -153.8901
  35   2.0000      -5.646922      -153.6606
  36   2.0000      -5.646503      -153.6492
  37   2.0000      -4.650644      -126.5505
  38   2.0000      -4.649806      -126.5276
  39   2.0000      -4.648590      -126.4946
  40   2.0000      -4.645355      -126.4065
  41   2.0000      -4.644501      -126.3833
  42   2.0000      -4.642700      -126.3343
  43   2.0000      -0.991664       -26.9845
  44   2.0000      -0.987481       -26.8707
  45   2.0000      -0.950363       -25.8607
  46   2.0000      -0.945951       -25.7406
  47   2.0000      -0.765197       -20.8221
  48   2.0000      -0.725829       -19.7508
  49   2.0000      -0.713891       -19.4260
  50   2.0000      -0.693257       -18.8645
  51   2.0000      -0.692393       -18.8410
  52   2.0000      -0.676193       -18.4001
  53   2.0000      -0.649926       -17.6854
  54   2.0000      -0.637334       -17.3427
  55   2.0000      -0.599827       -16.3221
  56   2.0000      -0.593577       -16.1521
  57   2.0000      -0.574362       -15.6292
  58   2.0000      -0.568721       -15.4757
  59   2.0000      -0.561960       -15.2917
  60   2.0000      -0.512867       -13.9558
  61   2.0000      -0.502697       -13.6791
  62   2.0000      -0.486357       -13.2344
  63   2.0000      -0.475477       -12.9384
  64   2.0000      -0.459140       -12.4938
  65   2.0000      -0.446596       -12.1525
  66   2.0000      -0.442346       -12.0369
  67   2.0000      -0.437063       -11.8931
  68   2.0000      -0.434592       -11.8258
  69   2.0000      -0.418094       -11.3769
  70   2.0000      -0.407560       -11.0903
  71   2.0000      -0.401210       -10.9175
  72   2.0000      -0.393920       -10.7191
  73   2.0000      -0.385978       -10.5030
  74   2.0000      -0.379061       -10.3148
  75   2.0000      -0.377506       -10.2725
  76   2.0000      -0.366437        -9.9713
  77   2.0000      -0.364051        -9.9063
  78   2.0000      -0.358641        -9.7591
  79   2.0000      -0.355097        -9.6627
  80   2.0000      -0.352242        -9.5850
  81   2.0000      -0.348545        -9.4844
  82   2.0000      -0.345082        -9.3901
  83   2.0000      -0.342125        -9.3097
  84   2.0000      -0.337236        -9.1767
  85   2.0000      -0.322337        -8.7712
  86   2.0000      -0.313058        -8.5187
  87   2.0000      -0.301293        -8.1986
  88   2.0000      -0.299518        -8.1503
  89   2.0000      -0.293612        -7.9896
  90   2.0000      -0.289261        -7.8712
  91   2.0000      -0.283072        -7.7028
  92   2.0000      -0.271420        -7.3857
  93   2.0000      -0.265687        -7.2297
  94   2.0000      -0.259766        -7.0686
  95   2.0000      -0.237587        -6.4651
  96   2.0000      -0.221744        -6.0340
  97   2.0000      -0.213597        -5.8123
  98   2.0000      -0.205864        -5.6018
  99   2.0000      -0.200398        -5.4531
 100   2.0000      -0.197330        -5.3696
 101   0.0000      -0.044211        -1.2030
 102   0.0000      -0.025241        -0.6869
 103   0.0000      -0.003253        -0.0885
 104   0.0000       0.002261         0.0615
 105   0.0000       0.013274         0.3612

MULLIKEN ATOMIC CHARGES
-----------------------
   0 C :   -0.301741
   1 C :   -0.011014
   2 O :   -0.360058
   3 P :    0.612752
   4 S :   -0.336871
   5 O :   -0.377333
   6 C :   -0.007241
   7 C :   -0.285431
   8 S :   -0.063499
   9 C :   -0.378873
  10 S :   -0.110801
  11 P :    0.606509
  12 S :   -0.318907
  13 O :   -0.351843
  14 C :   -0.033966
  15 C :   -0.312083
  16 O :   -0.379167
  17 C :   -0.010882
  18 C :   -0.280773
  19 H :    0.120250
  20 H :    0.131507
  21 H :    0.111853
  22 H :    0.110549
  23 H :    0.105520
  24 H :    0.108228
  25 H :    0.108614
  26 H :    0.112685
  27 H :    0.115832
  28 H :    0.117219
  29 H :    0.193230
  30 H :    0.198522
  31 H :    0.142675
  32 H :    0.107679
  33 H :    0.117863
  34 H :    0.116550
  35 H :    0.122555
  36 H :    0.108326
  37 H :    0.101859
  38 H :    0.122270
  39 H :    0.113157
  40 H :    0.114280
Sum of atomic charges:   -0.0000000

LOEWDIN ATOMIC CHARGES
----------------------
   0 C :   -0.355655
   1 C :   -0.115611
   2 O :   -0.238143
   3 P :    0.569084
   4 S :   -0.322682
   5 O :   -0.249181
   6 C :   -0.117328
   7 C :   -0.352994
   8 S :    0.093741
   9 C :   -0.489520
  10 S :    0.065373
  11 P :    0.569148
  12 S :   -0.313606
  13 O :   -0.228613
  14 C :   -0.118199
  15 C :   -0.366331
  16 O :   -0.244782
  17 C :   -0.120608
  18 C :   -0.350215
  19 H :    0.123806
  20 H :    0.125494
  21 H :    0.131008
  22 H :    0.108062
  23 H :    0.115510
  24 H :    0.109031
  25 H :    0.117140
  26 H :    0.131079
  27 H :    0.126247
  28 H :    0.127323
  29 H :    0.127517
  30 H :    0.129226
  31 H :    0.110932
  32 H :    0.122585
  33 H :    0.118203
  34 H :    0.128754
  35 H :    0.128416
  36 H :    0.110392
  37 H :    0.108528
  38 H :    0.129847
  39 H :    0.131525
  40 H :    0.125500

  Mayer bond orders larger than 0.100000
B(  0-C ,  1-C ) :   1.1666 B(  0-C , 19-H ) :   0.9428 B(  0-C , 20-H ) :   0.9421
B(  0-C , 21-H ) :   0.9388 B(  1-C ,  2-O ) :   0.8910 B(  1-C , 22-H ) :   0.9020
B(  1-C , 23-H ) :   0.9328 B(  2-O ,  3-P ) :   1.1241 B(  3-P ,  4-S ) :   1.5925
B(  3-P ,  5-O ) :   1.1218 B(  3-P ,  8-S ) :   0.9788 B(  4-S ,  8-S ) :   0.1073
B(  5-O ,  6-C ) :   0.8979 B(  6-C ,  7-C ) :   1.1653 B(  6-C , 24-H ) :   0.9056
B(  6-C , 25-H ) :   0.9334 B(  7-C , 26-H ) :   0.9412 B(  7-C , 27-H ) :   0.9501
B(  7-C , 28-H ) :   0.9483 B(  8-S ,  9-C ) :   1.0018 B(  9-C , 10-S ) :   1.0072
B(  9-C , 29-H ) :   0.8675 B(  9-C , 30-H ) :   0.8658 B( 10-S , 11-P ) :   0.9347
B( 10-S , 12-S ) :   0.1093 B( 11-P , 12-S ) :   1.6375 B( 11-P , 13-O ) :   1.1620
B( 11-P , 16-O ) :   1.0902 B( 13-O , 14-C ) :   0.8912 B( 14-C , 15-C ) :   1.1729
B( 14-C , 31-H ) :   0.9005 B( 14-C , 32-H ) :   0.9337 B( 15-C , 33-H ) :   0.9371
B( 15-C , 34-H ) :   0.9303 B( 15-C , 35-H ) :   0.9407 B( 16-O , 17-C ) :   0.9013
B( 17-C , 18-C ) :   1.1601 B( 17-C , 36-H ) :   0.9088 B( 17-C , 37-H ) :   0.9286
B( 18-C , 38-H ) :   0.9506 B( 18-C , 39-H ) :   0.9417 B( 18-C , 40-H ) :   0.9516

Dispersion correction           -0.063736901
FINAL SINGLE POINT ENERGY     -2929.523918639819

DIPOLE MOMENT
-------------

Method             : SCF
Type of density    : Electron Density
Multiplicity       :   1
Irrep              :   0
Energy             : -2929.6448227306723311 Eh
Relativity type    :
Basis              : AO
                                X                 Y                 Z
Electronic contribution:      1.943893068       3.151003220     -19.600333732
Nuclear contribution   :     -1.680077862      -3.327295915      21.299703983
                        -----------------------------------------
Total Dipole Moment    :      0.263815206      -0.176292695       1.699370252
                        -----------------------------------------
Magnitude (a.u.)       :      1.728738508
Magnitude (Debye)      :      4.394104082

Rotational constants in cm-1:             0.014020             0.004435             0.004095
Rotational constants in MHz :           420.309826           132.967541           122.775446

                             ****ORCA TERMINATED NORMALLY****
TOTAL RUN TIME: 0 days 0 hours 0 minutes 20 seconds 912 msec
