                         Program Version 6.0.1  -  RELEASE   -
|  1> ! pbe def2-sv(p) def2/J RI DEFGRID1 loosescf d4 GCP(DFT/SV(P)) printgap
|  2> %output
|  3>     printlevel normal
|  4> end
|  5> * xyz 0 1
|  6> C 3.9782637914 -1.8427915768 1.2602018126
|  7> C 2.8082850731 -2.2692383983 0.3958936191
|  8> O 2.577399775 -1.2375186906 -0.5828968614
|  9> C 1.4099451179 -1.1728600856 -1.1794800045
| 10> O 0.482888977 -1.9324013048 -0.9757884288
| 11> C 1.3380437446 -0.017147986 -2.1564441631
| 12> C 0.2743733506 0.9873595155 -1.7097363026
| 13> H 0.1857387653 1.7803021696 -2.4588971762
| 14> C 0.5805243868 1.6332666725 -0.3710682124
| 15> O -0.2899123474 1.8743753393 0.4432820785
| 16> O 1.8507228779 1.8822267385 -0.217077425
| 17> C 2.2874130515 2.479995992 1.0222113338
| 18> C 2.1026905728 3.9877278975 0.9960317571
| 19> S -1.3990391852 0.2637519899 -1.6171703745
| 20> P -1.6556918087 -0.3026741454 0.4251761359
| 21> S -0.2738544169 -0.7521020348 1.7413709778
| 22> O -2.675914779 0.7298150192 1.0591363937
| 23> C -3.8803270506 1.1642865309 0.4051011718
| 24> O -2.6825835866 -1.5213909104 0.1955349618
| 25> C -2.2999642972 -2.8220542587 -0.2479064428
| 26> H 4.212972066 -2.6380709005 1.9594062214
| 27> H 4.8445258935 -1.638917016 0.6383291435
| 28> H 3.718192578 -0.9477049311 1.8179454606
| 29> H 1.8965588078 -2.3998701659 0.9869185148
| 30> H 3.020459803 -3.197430808 -0.1430005426
| 31> H 1.0548307065 -0.4092477397 -3.1337559935
| 32> H 2.3092728242 0.473449108 -2.2028852952
| 33> H 1.7226700291 2.0268615663 1.8425182622
| 34> H 3.3401083925 2.205740458 1.0882365739
| 35> H 2.6229860269 4.4141784332 0.143031617
| 36> H 1.0454236823 4.2353147459 0.9317641572
| 37> H 2.5056267753 4.4103899971 1.9102731674
| 38> H -4.5436582832 0.3156521977 0.2456062586
| 39> H -3.6391810214 1.6367534341 -0.5472725488
| 40> H -4.3255253401 1.8827677952 1.0884627444
| 41> H -2.011894946 -2.7907574798 -1.2979452779
| 42> H -3.1764713521 -3.4483169711 -0.1016830109
| 43> H -1.4595399823 -3.1889080037 0.3418962304
| 44> *
| 45>
| 46>                          ****END OF INPUT****

CARTESIAN COORDINATES (ANGSTROEM)
---------------------------------
  C      3.978264   -1.842792    1.260202
  C      2.808285   -2.269238    0.395894
  O      2.577400   -1.237519   -0.582897
  C      1.409945   -1.172860   -1.179480
  O      0.482889   -1.932401   -0.975788
  C      1.338044   -0.017148   -2.156444
  C      0.274373    0.987360   -1.709736
  H      0.185739    1.780302   -2.458897
  C      0.580524    1.633267   -0.371068
  O     -0.289912    1.874375    0.443282
  O      1.850723    1.882227   -0.217077
  C      2.287413    2.479996    1.022211
  C      2.102691    3.987728    0.996032
  S     -1.399039    0.263752   -1.617170
  P     -1.655692   -0.302674    0.425176
  S     -0.273854   -0.752102    1.741371
  O     -2.675915    0.729815    1.059136
  C     -3.880327    1.164287    0.405101
  O     -2.682584   -1.521391    0.195535
  C     -2.299964   -2.822054   -0.247906
  H      4.212972   -2.638071    1.959406
  H      4.844526   -1.638917    0.638329
  H      3.718193   -0.947705    1.817945
  H      1.896559   -2.399870    0.986919
  H      3.020460   -3.197431   -0.143001
  H      1.054831   -0.409248   -3.133756
  H      2.309273    0.473449   -2.202885
  H      1.722670    2.026862    1.842518
  H      3.340108    2.205740    1.088237
  H      2.622986    4.414178    0.143032
  H      1.045424    4.235315    0.931764
  H      2.505627    4.410390    1.910273
  H     -4.543658    0.315652    0.245606
  H     -3.639181    1.636753   -0.547273
  H     -4.325525    1.882768    1.088463
  H     -2.011895   -2.790757   -1.297945
  H     -3.176471   -3.448317   -0.101683
  H     -1.459540   -3.188908    0.341896

 Total Charge           Charge          ....    0
 Multiplicity           Mult            ....    1
 Number of Electrons    NEL             ....  174
 Basis Dimension        Dim             ....  316

ORBITAL ENERGIES
----------------

  NO   OCC          E(Eh)            E(eV)
   0   2.0000     -88.030369     -2395.4281
   1   2.0000     -87.964495     -2393.6356
   2   2.0000     -76.413680     -2079.3219
   3   2.0000     -18.818824      -512.0862
   4   2.0000     -18.801365      -511.6111
   5   2.0000     -18.771156      -510.7891
   6   2.0000     -18.769593      -510.7466
   7   2.0000     -18.749486      -510.1995
   8   2.0000     -18.733821      -509.7732
   9   2.0000     -10.023045      -272.7409
  10   2.0000     -10.007286      -272.3121
  11   2.0000      -9.954757      -270.8827
  12   2.0000      -9.953948      -270.8607
  13   2.0000      -9.940060      -270.4828
  14   2.0000      -9.932235      -270.2699
  15   2.0000      -9.921653      -269.9819
  16   2.0000      -9.912374      -269.7294
  17   2.0000      -9.891553      -269.1629
  18   2.0000      -9.885017      -268.9850
  19   2.0000      -7.675248      -208.8541
  20   2.0000      -7.609760      -207.0721
  21   2.0000      -6.408979      -174.3972
  22   2.0000      -5.703500      -155.2001
  23   2.0000      -5.699840      -155.1005
  24   2.0000      -5.691729      -154.8798
  25   2.0000      -5.639143      -153.4489
  26   2.0000      -5.630218      -153.2060
  27   2.0000      -5.629480      -153.1859
  28   2.0000      -4.631792      -126.0375
  29   2.0000      -4.631185      -126.0209
  30   2.0000      -4.629324      -125.9703
  31   2.0000      -1.027771       -27.9671
  32   2.0000      -1.007743       -27.4221
  33   2.0000      -0.965247       -26.2657
  34   2.0000      -0.930399       -25.3174
  35   2.0000      -0.919098       -25.0099
  36   2.0000      -0.911567       -24.8050
  37   2.0000      -0.765554       -20.8318
  38   2.0000      -0.710850       -19.3432
  39   2.0000      -0.708060       -19.2673
  40   2.0000      -0.683468       -18.5981
  41   2.0000      -0.653806       -17.7910
  42   2.0000      -0.624748       -17.0003
  43   2.0000      -0.616291       -16.7701
  44   2.0000      -0.603058       -16.4100
  45   2.0000      -0.589760       -16.0482
  46   2.0000      -0.565289       -15.3823
  47   2.0000      -0.511241       -13.9116
  48   2.0000      -0.505087       -13.7441
  49   2.0000      -0.496605       -13.5133
  50   2.0000      -0.482999       -13.1431
  51   2.0000      -0.458121       -12.4661
  52   2.0000      -0.453175       -12.3315
  53   2.0000      -0.451536       -12.2869
  54   2.0000      -0.432432       -11.7671
  55   2.0000      -0.426302       -11.6003
  56   2.0000      -0.419080       -11.4037
  57   2.0000      -0.412564       -11.2265
  58   2.0000      -0.410890       -11.1809
  59   2.0000      -0.402274       -10.9464
  60   2.0000      -0.399227       -10.8635
  61   2.0000      -0.393631       -10.7113
  62   2.0000      -0.383776       -10.4431
  63   2.0000      -0.379799       -10.3349
  64   2.0000      -0.371896       -10.1198
  65   2.0000      -0.366710        -9.9787
  66   2.0000      -0.356065        -9.6890
  67   2.0000      -0.353435        -9.6174
  68   2.0000      -0.350565        -9.5394
  69   2.0000      -0.342227        -9.3125
  70   2.0000      -0.332794        -9.0558
  71   2.0000      -0.328602        -8.9417
  72   2.0000      -0.314453        -8.5567
  73   2.0000      -0.307226        -8.3600
  74   2.0000      -0.302357        -8.2275
  75   2.0000      -0.294524        -8.0144
  76   2.0000      -0.283826        -7.7233
  77   2.0000      -0.279050        -7.5933
  78   2.0000      -0.268449        -7.3049
  79   2.0000      -0.261806        -7.1241
  80   2.0000      -0.253292        -6.8924
  81   2.0000      -0.244626        -6.6566
  82   2.0000      -0.235329        -6.4036
  83   2.0000      -0.229324        -6.2402
  84   2.0000      -0.198025        -5.3885
  85   2.0000      -0.181623        -4.9422
  86   2.0000      -0.175770        -4.7829
  87   0.0000      -0.044811        -1.2194
  88   0.0000      -0.035613        -0.9691
  89   0.0000      -0.024964        -0.6793
  90   0.0000       0.005164         0.1405
  91   0.0000       0.031886         0.8677

MULLIKEN ATOMIC CHARGES
-----------------------
   0 C :   -0.281697
   1 C :   -0.039695
   2 O :   -0.224615
   3 C :    0.084532
   4 O :   -0.195978
   5 C :   -0.009880
   6 C :   -0.315248
   7 H :    0.155835
   8 C :    0.195524
   9 O :   -0.182158
  10 O :   -0.217180
  11 C :   -0.016794
  12 C :   -0.309133
  13 S :   -0.097569
  14 P :    0.641325
  15 S :   -0.335014
  16 O :   -0.359276
  17 C :   -0.101807
  18 O :   -0.399769
  19 C :   -0.090477
  20 H :    0.111088
  21 H :    0.109304
  22 H :    0.117445
  23 H :    0.137610
  24 H :    0.097482
  25 H :    0.117749
  26 H :    0.111320
  27 H :    0.129944
  28 H :    0.107374
  29 H :    0.112080
  30 H :    0.132720
  31 H :    0.118182
  32 H :    0.116688
  33 H :    0.112796
  34 H :    0.123979
  35 H :    0.114624
  36 H :    0.110434
  37 H :    0.118256
Sum of atomic charges:    0.0000000

LOEWDIN ATOMIC CHARGES
----------------------
   0 C :   -0.350512
   1 C :   -0.112900
   2 O :   -0.050269
   3 C :    0.020550
   4 O :   -0.167315
   5 C :   -0.249709
   6 C :   -0.259787
   7 H :    0.152364
   8 C :    0.008045
   9 O :   -0.151488
  10 O :   -0.035332
  11 C :   -0.107149
  12 C :   -0.356797
  13 S :    0.103875
  14 P :    0.594572
  15 S :   -0.315519
  16 O :   -0.237851
  17 C :   -0.212974
  18 O :   -0.264355
  19 C :   -0.213983
  20 H :    0.130836
  21 H :    0.123194
  22 H :    0.126043
  23 H :    0.119432
  24 H :    0.113594
  25 H :    0.143866
  26 H :    0.138367
  27 H :    0.128395
  28 H :    0.119551
  29 H :    0.123988
  30 H :    0.132631
  31 H :    0.133858
  32 H :    0.111828
  33 H :    0.104812
  34 H :    0.122659
  35 H :    0.108933
  36 H :    0.113672
  37 H :    0.110875

  Mayer bond orders larger than 0.100000
B(  0-C ,  1-C ) :   1.1610 B(  0-C , 20-H ) :   0.9437 B(  0-C , 21-H ) :   0.9491
B(  0-C , 22-H ) :   0.9495 B(  1-C ,  2-O ) :   0.8981 B(  1-C , 23-H ) :   0.9067
B(  1-C , 24-H ) :   0.9338 B(  2-O ,  3-C ) :   1.2497 B(  3-C ,  4-O ) :   1.9990
B(  3-C ,  5-C ) :   1.0083 B(  5-C ,  6-C ) :   1.0317 B(  5-C , 25-H ) :   0.8893
B(  5-C , 26-H ) :   0.8813 B(  6-C ,  7-H ) :   0.8718 B(  6-C ,  8-C ) :   0.8967
B(  6-C , 13-S ) :   1.0394 B(  8-C ,  9-O ) :   1.9779 B(  8-C , 10-O ) :   1.2760
B( 10-O , 11-C ) :   0.8980 B( 11-C , 12-C ) :   1.1720 B( 11-C , 27-H ) :   0.9121
B( 11-C , 28-H ) :   0.9353 B( 12-C , 29-H ) :   0.9475 B( 12-C , 30-H ) :   0.9441
B( 12-C , 31-H ) :   0.9437 B( 13-S , 14-P ) :   0.9265 B( 13-S , 15-S ) :   0.1190
B( 14-P , 15-S ) :   1.5698 B( 14-P , 16-O ) :   1.1221 B( 14-P , 18-O ) :   1.0606
B( 16-O , 17-C ) :   0.9313 B( 17-C , 32-H ) :   0.9465 B( 17-C , 33-H ) :   0.9368
B( 17-C , 34-H ) :   0.9602 B( 18-O , 19-C ) :   0.9364 B( 19-C , 35-H ) :   0.9481
B( 19-C , 36-H ) :   0.9565 B( 19-C , 37-H ) :   0.9393

Dispersion correction           -0.055361887
FINAL SINGLE POINT ENERGY     -1979.002455509164

DIPOLE MOMENT
-------------

Method             : SCF
Type of density    : Electron Density
Multiplicity       :   1
Irrep              :   0
Energy             : -1979.1307751309427658 Eh
Relativity type    :
Basis              : AO
                                X                 Y                 Z
Electronic contribution:    -13.013401531      -2.210045968      -3.464469015
Nuclear contribution   :     14.016224651       2.835420774       2.532080841
                        -----------------------------------------
Total Dipole Moment    :      1.002823120       0.625374806      -0.932388174
                        -----------------------------------------
Magnitude (a.u.)       :      1.505355628
Magnitude (Debye)      :      3.826309924

Rotational constants in cm-1:             0.012385             0.009133             0.007150
Rotational constants in MHz :           371.280217           273.807623           214.345306

                             ****ORCA TERMINATED NORMALLY****
TOTAL RUN TIME: 0 days 0 hours 0 minutes 41 seconds 757 msec
