                         Program Version 6.0.0  -   RELEASE  -
|  1> ! r2scan-3c def2/J RI DEFGRID2 scfconv6 printgap
|  2> %output
|  3>     printlevel normal
|  4> end
|  5> * xyz 0 1
|  6> C 3.4446830815 0.6923171262 -0.6043924236
|  7> C 3.4453122908 -0.6918142957 -0.6032276911
|  8> C 2.3368532054 -1.3836365733 -0.1442877028
|  9> C 1.2288292688 -0.6968877591 0.3247331829
| 10> C 1.2284729445 0.6970519096 0.3242472404
| 11> C 2.3358316455 1.3839651388 -0.1460757429
| 12> C -0.0001244359 1.3990105227 0.8299850536
| 13> C -1.2288090285 0.6968535484 0.3247005361
| 14> C -2.3367865353 1.3836552603 -0.1443516885
| 15> C -3.4452774759 0.691882136 -0.6032111787
| 16> C -3.4447309295 -0.6922183829 -0.6043406499
| 17> C -2.3358965481 -1.3839434343 -0.1461025698
| 18> C -1.2284791339 -0.6970963959 0.3241564566
| 19> C 0.0001290413 -1.3991246549 0.8298033148
| 20> H 4.3059323308 1.2339946844 -0.9662242791
| 21> H 4.3071814969 -1.2333399865 -0.9638070675
| 22> H 2.3347144016 -2.4642564845 -0.1495273227
| 23> H 2.332849877 2.464578048 -0.1528916116
| 24> H 0.0002972508 1.3563225385 1.9259679659
| 25> H -0.0002509152 2.4488137369 0.5350426438
| 26> H -2.3347077092 2.4642779005 -0.1494091922
| 27> H -4.3071699731 1.2334232231 -0.9636156875
| 28> H -4.3060560535 -1.2338236308 -0.9660369423
| 29> H -2.3330739087 -2.4645612065 -0.152765078
| 30> H -0.000148837 -1.3567428314 1.9257860001
| 31> H 0.0003439666 -2.4488545655 0.5346572347
| 32> *
| 33>
| 34>                          ****END OF INPUT****

CARTESIAN COORDINATES (ANGSTROEM)
---------------------------------
  C      3.444683    0.692317   -0.604392
  C      3.445312   -0.691814   -0.603228
  C      2.336853   -1.383637   -0.144288
  C      1.228829   -0.696888    0.324733
  C      1.228473    0.697052    0.324247
  C      2.335832    1.383965   -0.146076
  C     -0.000124    1.399011    0.829985
  C     -1.228809    0.696854    0.324701
  C     -2.336787    1.383655   -0.144352
  C     -3.445277    0.691882   -0.603211
  C     -3.444731   -0.692218   -0.604341
  C     -2.335897   -1.383943   -0.146103
  C     -1.228479   -0.697096    0.324156
  C      0.000129   -1.399125    0.829803
  H      4.305932    1.233995   -0.966224
  H      4.307181   -1.233340   -0.963807
  H      2.334714   -2.464256   -0.149527
  H      2.332850    2.464578   -0.152892
  H      0.000297    1.356323    1.925968
  H     -0.000251    2.448814    0.535043
  H     -2.334708    2.464278   -0.149409
  H     -4.307170    1.233423   -0.963616
  H     -4.306056   -1.233824   -0.966037
  H     -2.333074   -2.464561   -0.152765
  H     -0.000149   -1.356743    1.925786
  H      0.000344   -2.448855    0.534657

 Total Charge           Charge          ....    0
 Multiplicity           Mult            ....    1
 Number of Electrons    NEL             ....   96
 Basis Dimension        Dim             ....  326

ORBITAL ENERGIES
----------------

  NO   OCC          E(Eh)            E(eV)
   0   2.0000     -10.042394      -273.2674
   1   2.0000     -10.042384      -273.2671
   2   2.0000     -10.041032      -273.2304
   3   2.0000     -10.041012      -273.2298
   4   2.0000     -10.040605      -273.2188
   5   2.0000     -10.040589      -273.2183
   6   2.0000     -10.031699      -272.9764
   7   2.0000     -10.031699      -272.9764
   8   2.0000     -10.031683      -272.9760
   9   2.0000     -10.031682      -272.9759
  10   2.0000     -10.030910      -272.9549
  11   2.0000     -10.030904      -272.9548
  12   2.0000     -10.030470      -272.9430
  13   2.0000     -10.030464      -272.9428
  14   2.0000      -0.850626       -23.1467
  15   2.0000      -0.821502       -22.3542
  16   2.0000      -0.768614       -20.9151
  17   2.0000      -0.750463       -20.4211
  18   2.0000      -0.715232       -19.4624
  19   2.0000      -0.706918       -19.2362
  20   2.0000      -0.671653       -18.2766
  21   2.0000      -0.630595       -17.1593
  22   2.0000      -0.576847       -15.6968
  23   2.0000      -0.569789       -15.5048
  24   2.0000      -0.561989       -15.2925
  25   2.0000      -0.523034       -14.2325
  26   2.0000      -0.483781       -13.1643
  27   2.0000      -0.473126       -12.8744
  28   2.0000      -0.449066       -12.2197
  29   2.0000      -0.418817       -11.3966
  30   2.0000      -0.416449       -11.3322
  31   2.0000      -0.415009       -11.2930
  32   2.0000      -0.413144       -11.2422
  33   2.0000      -0.390739       -10.6326
  34   2.0000      -0.385782       -10.4976
  35   2.0000      -0.372797       -10.1443
  36   2.0000      -0.368999       -10.0410
  37   2.0000      -0.359476        -9.7818
  38   2.0000      -0.336145        -9.1470
  39   2.0000      -0.331037        -9.0080
  40   2.0000      -0.323576        -8.8049
  41   2.0000      -0.311953        -8.4887
  42   2.0000      -0.297385        -8.0922
  43   2.0000      -0.294980        -8.0268
  44   2.0000      -0.232972        -6.3395
  45   2.0000      -0.229631        -6.2486
  46   2.0000      -0.222901        -6.0654
  47   2.0000      -0.221972        -6.0402
  48   0.0000      -0.036563        -0.9949
  49   0.0000      -0.030382        -0.8267
  50   0.0000      -0.021047        -0.5727
  51   0.0000      -0.020114        -0.5473
  52   0.0000       0.081554         2.2192

MULLIKEN ATOMIC CHARGES
-----------------------
   0 C :   -0.153774
   1 C :   -0.153773
   2 C :   -0.227341
   3 C :    0.135353
   4 C :    0.135417
   5 C :   -0.227335
   6 C :   -0.430703
   7 C :    0.135366
   8 C :   -0.227329
   9 C :   -0.153754
  10 C :   -0.153778
  11 C :   -0.227321
  12 C :    0.135404
  13 C :   -0.430747
  14 H :    0.144626
  15 H :    0.144626
  16 H :    0.146146
  17 H :    0.146151
  18 H :    0.193705
  19 H :    0.146904
  20 H :    0.146148
  21 H :    0.144621
  22 H :    0.144623
  23 H :    0.146151
  24 H :    0.193701
  25 H :    0.146912
Sum of atomic charges:    0.0000000

LOEWDIN ATOMIC CHARGES
----------------------
   0 C :   -0.167115
   1 C :   -0.167115
   2 C :   -0.155805
   3 C :   -0.069947
   4 C :   -0.069943
   5 C :   -0.155799
   6 C :   -0.238622
   7 C :   -0.069934
   8 C :   -0.155802
   9 C :   -0.167111
  10 C :   -0.167113
  11 C :   -0.155792
  12 C :   -0.069936
  13 C :   -0.238625
  14 H :    0.166640
  15 H :    0.166641
  16 H :    0.168318
  17 H :    0.168318
  18 H :    0.182368
  19 H :    0.172048
  20 H :    0.168320
  21 H :    0.166636
  22 H :    0.166637
  23 H :    0.168319
  24 H :    0.182367
  25 H :    0.172048

  Mayer bond orders larger than 0.100000
B(  0-C ,  1-C ) :   1.4340 B(  0-C ,  5-C ) :   1.4278 B(  0-C , 14-H ) :   0.9488
B(  1-C ,  2-C ) :   1.4278 B(  1-C , 15-H ) :   0.9488 B(  2-C ,  3-C ) :   1.3941
B(  2-C , 16-H ) :   0.9321 B(  3-C ,  4-C ) :   1.4764 B(  3-C , 13-C ) :   0.8332
B(  4-C ,  5-C ) :   1.3940 B(  4-C ,  6-C ) :   0.8332 B(  5-C , 17-H ) :   0.9321
B(  6-C ,  7-C ) :   0.8332 B(  6-C , 18-H ) :   0.9973 B(  6-C , 19-H ) :   1.0050
B(  7-C ,  8-C ) :   1.3941 B(  7-C , 12-C ) :   1.4764 B(  8-C ,  9-C ) :   1.4278
B(  8-C , 20-H ) :   0.9321 B(  9-C , 10-C ) :   1.4340 B(  9-C , 21-H ) :   0.9488
B( 10-C , 11-C ) :   1.4278 B( 10-C , 22-H ) :   0.9488 B( 11-C , 12-C ) :   1.3940
B( 11-C , 23-H ) :   0.9321 B( 12-C , 13-C ) :   0.8332 B( 13-C , 24-H ) :   0.9973
B( 13-C , 25-H ) :   1.0050

Dispersion correction           -0.011418261
FINAL SINGLE POINT ENERGY      -540.583321858332

DIPOLE MOMENT
-------------

Method             : SCF
Type of density    : Electron Density
Multiplicity       :   1
Irrep              :   0
Energy             :  -540.5780347915687116 Eh
Relativity type    :
Basis              : AO
                                X                 Y                 Z
Electronic contribution:     -0.000050822       0.000125904      -0.269932487
Nuclear contribution   :     -0.000082628      -0.000158151       0.428909508
                        -----------------------------------------
Total Dipole Moment    :     -0.000133449      -0.000032247       0.158977022
                        -----------------------------------------
Magnitude (a.u.)       :      0.158977081
Magnitude (Debye)      :      0.404087626

Rotational constants in cm-1:             0.059395             0.015998             0.013667
Rotational constants in MHz :          1780.615384           479.608164           409.713311

                             ****ORCA TERMINATED NORMALLY****
TOTAL RUN TIME: 0 days 0 hours 1 minutes 4 seconds 714 msec
