                         Program Version 6.0.0  -   RELEASE  -
|  1> ! r2scan-3c def2/J RI DEFGRID2 scfconv6 printgap
|  2> %output
|  3>     printlevel normal
|  4> end
|  5> %cpcm
|  6>     smd true
|  7>     smdsolvent "water"
|  8> end
|  9> * xyz 0 1
| 10> C 3.4446830815 0.6923171262 -0.6043924236
| 11> C 3.4453122908 -0.6918142957 -0.6032276911
| 12> C 2.3368532054 -1.3836365733 -0.1442877028
| 13> C 1.2288292688 -0.6968877591 0.3247331829
| 14> C 1.2284729445 0.6970519096 0.3242472404
| 15> C 2.3358316455 1.3839651388 -0.1460757429
| 16> C -0.0001244359 1.3990105227 0.8299850536
| 17> C -1.2288090285 0.6968535484 0.3247005361
| 18> C -2.3367865353 1.3836552603 -0.1443516885
| 19> C -3.4452774759 0.691882136 -0.6032111787
| 20> C -3.4447309295 -0.6922183829 -0.6043406499
| 21> C -2.3358965481 -1.3839434343 -0.1461025698
| 22> C -1.2284791339 -0.6970963959 0.3241564566
| 23> C 0.0001290413 -1.3991246549 0.8298033148
| 24> H 4.3059323308 1.2339946844 -0.9662242791
| 25> H 4.3071814969 -1.2333399865 -0.9638070675
| 26> H 2.3347144016 -2.4642564845 -0.1495273227
| 27> H 2.332849877 2.464578048 -0.1528916116
| 28> H 0.0002972508 1.3563225385 1.9259679659
| 29> H -0.0002509152 2.4488137369 0.5350426438
| 30> H -2.3347077092 2.4642779005 -0.1494091922
| 31> H -4.3071699731 1.2334232231 -0.9636156875
| 32> H -4.3060560535 -1.2338236308 -0.9660369423
| 33> H -2.3330739087 -2.4645612065 -0.152765078
| 34> H -0.000148837 -1.3567428314 1.9257860001
| 35> H 0.0003439666 -2.4488545655 0.5346572347
| 36> *
| 37>
| 38>                          ****END OF INPUT****

CARTESIAN COORDINATES (ANGSTROEM)
---------------------------------
  C      3.444683    0.692317   -0.604392
  C      3.445312   -0.691814   -0.603228
  C      2.336853   -1.383637   -0.144288
  C      1.228829   -0.696888    0.324733
  C      1.228473    0.697052    0.324247
  C      2.335832    1.383965   -0.146076
  C     -0.000124    1.399011    0.829985
  C     -1.228809    0.696854    0.324701
  C     -2.336787    1.383655   -0.144352
  C     -3.445277    0.691882   -0.603211
  C     -3.444731   -0.692218   -0.604341
  C     -2.335897   -1.383943   -0.146103
  C     -1.228479   -0.697096    0.324156
  C      0.000129   -1.399125    0.829803
  H      4.305932    1.233995   -0.966224
  H      4.307181   -1.233340   -0.963807
  H      2.334714   -2.464256   -0.149527
  H      2.332850    2.464578   -0.152892
  H      0.000297    1.356323    1.925968
  H     -0.000251    2.448814    0.535043
  H     -2.334708    2.464278   -0.149409
  H     -4.307170    1.233423   -0.963616
  H     -4.306056   -1.233824   -0.966037
  H     -2.333074   -2.464561   -0.152765
  H     -0.000149   -1.356743    1.925786
  H      0.000344   -2.448855    0.534657

 Total Charge           Charge          ....    0
 Multiplicity           Mult            ....    1
 Number of Electrons    NEL             ....   96
 Basis Dimension        Dim             ....  326

ORBITAL ENERGIES
----------------

  NO   OCC          E(Eh)            E(eV)
   0   2.0000     -10.040738      -273.2224
   1   2.0000     -10.040729      -273.2221
   2   2.0000     -10.040312      -273.2108
   3   2.0000     -10.040305      -273.2106
   4   2.0000     -10.034740      -273.0592
   5   2.0000     -10.034728      -273.0588
   6   2.0000     -10.029523      -272.9172
   7   2.0000     -10.029522      -272.9172
   8   2.0000     -10.029499      -272.9165
   9   2.0000     -10.029498      -272.9165
  10   2.0000     -10.028832      -272.8984
  11   2.0000     -10.028825      -272.8982
  12   2.0000     -10.028400      -272.8866
  13   2.0000     -10.028392      -272.8864
  14   2.0000      -0.849805       -23.1244
  15   2.0000      -0.822019       -22.3683
  16   2.0000      -0.767158       -20.8754
  17   2.0000      -0.747131       -20.3305
  18   2.0000      -0.714230       -19.4352
  19   2.0000      -0.706435       -19.2231
  20   2.0000      -0.668335       -18.1863
  21   2.0000      -0.627820       -17.0839
  22   2.0000      -0.572744       -15.5852
  23   2.0000      -0.567704       -15.4480
  24   2.0000      -0.559554       -15.2262
  25   2.0000      -0.519701       -14.1418
  26   2.0000      -0.480524       -13.0757
  27   2.0000      -0.468801       -12.7567
  28   2.0000      -0.445074       -12.1111
  29   2.0000      -0.413655       -11.2561
  30   2.0000      -0.413555       -11.2534
  31   2.0000      -0.410601       -11.1730
  32   2.0000      -0.410222       -11.1627
  33   2.0000      -0.384219       -10.4551
  34   2.0000      -0.381983       -10.3943
  35   2.0000      -0.370710       -10.0875
  36   2.0000      -0.361045        -9.8245
  37   2.0000      -0.354983        -9.6596
  38   2.0000      -0.338738        -9.2175
  39   2.0000      -0.327438        -8.9100
  40   2.0000      -0.324367        -8.8265
  41   2.0000      -0.307959        -8.3800
  42   2.0000      -0.292213        -7.9515
  43   2.0000      -0.291770        -7.9395
  44   2.0000      -0.235263        -6.4018
  45   2.0000      -0.231324        -6.2947
  46   2.0000      -0.224369        -6.1054
  47   2.0000      -0.223514        -6.0821
  48   0.0000      -0.037562        -1.0221
  49   0.0000      -0.031046        -0.8448
  50   0.0000      -0.022637        -0.6160
  51   0.0000      -0.021435        -0.5833
  52   0.0000       0.093241         2.5372

MULLIKEN ATOMIC CHARGES
-----------------------
   0 C :   -0.190243
   1 C :   -0.190249
   2 C :   -0.250973
   3 C :    0.095915
   4 C :    0.095981
   5 C :   -0.250969
   6 C :   -0.412465
   7 C :    0.095925
   8 C :   -0.250967
   9 C :   -0.190225
  10 C :   -0.190234
  11 C :   -0.250979
  12 C :    0.095976
  13 C :   -0.412492
  14 H :    0.175903
  15 H :    0.175903
  16 H :    0.178366
  17 H :    0.178372
  18 H :    0.217537
  19 H :    0.176925
  20 H :    0.178368
  21 H :    0.175897
  22 H :    0.175898
  23 H :    0.178373
  24 H :    0.217523
  25 H :    0.176933
Sum of atomic charges:    0.0000000

LOEWDIN ATOMIC CHARGES
----------------------
   0 C :   -0.181609
   1 C :   -0.181603
   2 C :   -0.165546
   3 C :   -0.077470
   4 C :   -0.077475
   5 C :   -0.165550
   6 C :   -0.238136
   7 C :   -0.077462
   8 C :   -0.165543
   9 C :   -0.181595
  10 C :   -0.181603
  11 C :   -0.165541
  12 C :   -0.077471
  13 C :   -0.238138
  14 H :    0.176550
  15 H :    0.176552
  16 H :    0.179890
  17 H :    0.179889
  18 H :    0.192383
  19 H :    0.182109
  20 H :    0.179892
  21 H :    0.176547
  22 H :    0.176546
  23 H :    0.179891
  24 H :    0.192382
  25 H :    0.182110

  Mayer bond orders larger than 0.100000
B(  0-C ,  1-C ) :   1.3871 B(  0-C ,  5-C ) :   1.3873 B(  0-C , 14-H ) :   0.9599
B(  1-C ,  2-C ) :   1.3873 B(  1-C , 15-H ) :   0.9599 B(  2-C ,  3-C ) :   1.3820
B(  2-C , 16-H ) :   0.9485 B(  3-C ,  4-C ) :   1.4035 B(  3-C , 13-C ) :   0.8293
B(  4-C ,  5-C ) :   1.3818 B(  4-C ,  6-C ) :   0.8293 B(  5-C , 17-H ) :   0.9485
B(  6-C ,  7-C ) :   0.8293 B(  6-C , 18-H ) :   0.9872 B(  6-C , 19-H ) :   1.0102
B(  7-C ,  8-C ) :   1.3820 B(  7-C , 12-C ) :   1.4034 B(  8-C ,  9-C ) :   1.3873
B(  8-C , 20-H ) :   0.9485 B(  9-C , 10-C ) :   1.3871 B(  9-C , 21-H ) :   0.9599
B( 10-C , 11-C ) :   1.3873 B( 10-C , 22-H ) :   0.9599 B( 11-C , 12-C ) :   1.3819
B( 11-C , 23-H ) :   0.9485 B( 12-C , 13-C ) :   0.8294 B( 13-C , 24-H ) :   0.9872
B( 13-C , 25-H ) :   1.0102

Dispersion correction           -0.011418261
FINAL SINGLE POINT ENERGY      -540.589235484143

DIPOLE MOMENT
-------------

Method             : SCF
Type of density    : Electron Density
Multiplicity       :   1
Irrep              :   0
Energy             :  -540.5839484173801566 Eh
Relativity type    :
Basis              : AO
                                X                 Y                 Z
Electronic contribution:     -0.000106803       0.000097103      -0.106523831
Nuclear contribution   :     -0.000082628      -0.000158151       0.428909508
                        -----------------------------------------
Total Dipole Moment    :     -0.000189431      -0.000061048       0.322385677
                        -----------------------------------------
Magnitude (a.u.)       :      0.322385739
Magnitude (Debye)      :      0.819439426

Rotational constants in cm-1:             0.059395             0.015998             0.013667
Rotational constants in MHz :          1780.615384           479.608164           409.713311

                             ****ORCA TERMINATED NORMALLY****
TOTAL RUN TIME: 0 days 0 hours 1 minutes 10 seconds 597 msec
