                         Program Version 6.0.1  -  RELEASE   -
|  1> ! r2scan-3c def2/J RI DEFGRID2 scfconv6 printgap
|  2> %output
|  3>     printlevel normal
|  4> end
|  5> * xyz 0 1
|  6> C 4.9152625941 -3.2549611964 0.3673833592
|  7> C 4.4683841179 -1.9249635338 -0.2086410808
|  8> O 3.034020424 -1.9462562579 -0.340292201
|  9> C 2.474054838 -1.1491333498 -1.2212895694
| 10> O 3.079196643 -0.4199581123 -1.979764769
| 11> C 0.9612058596 -1.2841719368 -1.2164308339
| 12> C 0.3598130373 0.1129771464 -1.3033019615
| 13> H 0.7418112325 0.607136525 -2.2052784249
| 14> C 0.8082768673 0.961696049 -0.1284944734
| 15> O 1.8621987015 0.7753435996 0.4343031527
| 16> O -0.0381691284 1.9354948411 0.1432347512
| 17> C 0.3140777342 2.8684752561 1.1850185625
| 18> C 1.1394335781 4.0123914225 0.62231616
| 19> S -1.4439347756 0.1043556654 -1.5080351429
| 20> P -2.0920891496 0.0095081845 0.5171115818
| 21> S -0.8534706036 -0.7278768958 1.8455361971
| 22> O -2.6545752631 1.4259003449 0.9297807863
| 23> C -3.6300279448 2.1256384875 0.1287577876
| 24> O -3.4598661961 -0.8067181228 0.3693686827
| 25> C -3.4646655266 -2.2029000328 0.0495119223
| 26> H 4.430365629 -3.4226099114 1.3243888323
| 27> H 4.6506091681 -4.0641170635 -0.3069368645
| 28> H 5.9910498179 -3.2411407985 0.5065892024
| 29> H 4.9035658546 -1.7344948703 -1.1947938852
| 30> H 4.72217162 -1.0919513048 0.4540600281
| 31> H 0.6576167198 -1.7950044136 -0.3017815492
| 32> H 0.6573480913 -1.8673588493 -2.0867762476
| 33> H -0.6435535473 3.2114378827 1.5776093672
| 34> H 0.8633588149 2.3246817959 1.9591691972
| 35> H 0.5992658982 4.5048452422 -0.1814678891
| 36> H 1.3395542009 4.7278368958 1.412846001
| 37> H 2.0852809573 3.6363946273 0.2380496676
| 38> H -3.7845434047 3.0751634787 0.6343134303
| 39> H -4.554603575 1.5537416534 0.0884238065
| 40> H -3.2400177235 2.2808288229 -0.8769556209
| 41> H -2.7654978629 -2.7381547581 0.6937357176
| 42> H -3.1936835065 -2.3432867894 -0.9965109161
| 43> H -4.4817189469 -2.5407367825 0.2311465931
| 44> *
| 45>
| 46>                          ****END OF INPUT****

CARTESIAN COORDINATES (ANGSTROEM)
---------------------------------
  C      4.915263   -3.254961    0.367383
  C      4.468384   -1.924964   -0.208641
  O      3.034020   -1.946256   -0.340292
  C      2.474055   -1.149133   -1.221290
  O      3.079197   -0.419958   -1.979765
  C      0.961206   -1.284172   -1.216431
  C      0.359813    0.112977   -1.303302
  H      0.741811    0.607137   -2.205278
  C      0.808277    0.961696   -0.128494
  O      1.862199    0.775344    0.434303
  O     -0.038169    1.935495    0.143235
  C      0.314078    2.868475    1.185019
  C      1.139434    4.012391    0.622316
  S     -1.443935    0.104356   -1.508035
  P     -2.092089    0.009508    0.517112
  S     -0.853471   -0.727877    1.845536
  O     -2.654575    1.425900    0.929781
  C     -3.630028    2.125638    0.128758
  O     -3.459866   -0.806718    0.369369
  C     -3.464666   -2.202900    0.049512
  H      4.430366   -3.422610    1.324389
  H      4.650609   -4.064117   -0.306937
  H      5.991050   -3.241141    0.506589
  H      4.903566   -1.734495   -1.194794
  H      4.722172   -1.091951    0.454060
  H      0.657617   -1.795004   -0.301782
  H      0.657348   -1.867359   -2.086776
  H     -0.643554    3.211438    1.577609
  H      0.863359    2.324682    1.959169
  H      0.599266    4.504845   -0.181468
  H      1.339554    4.727837    1.412846
  H      2.085281    3.636395    0.238050
  H     -3.784543    3.075163    0.634313
  H     -4.554604    1.553742    0.088424
  H     -3.240018    2.280829   -0.876956
  H     -2.765498   -2.738155    0.693736
  H     -3.193684   -2.343287   -0.996511
  H     -4.481719   -2.540737    0.231147

 Total Charge           Charge          ....    0
 Multiplicity           Mult            ....    1
 Number of Electrons    NEL             ....  174
 Basis Dimension        Dim             ....  510

ORBITAL ENERGIES
----------------

  NO   OCC          E(Eh)            E(eV)
   0   2.0000     -88.579043     -2410.3583
   1   2.0000     -88.521852     -2408.8020
   2   2.0000     -76.918059     -2093.0468
   3   2.0000     -19.003110      -517.1009
   4   2.0000     -18.998332      -516.9709
   5   2.0000     -18.995964      -516.9065
   6   2.0000     -18.989447      -516.7291
   7   2.0000     -18.936665      -515.2928
   8   2.0000     -18.918264      -514.7921
   9   2.0000     -10.164766      -276.5973
  10   2.0000     -10.148156      -276.1454
  11   2.0000     -10.101546      -274.8770
  12   2.0000     -10.097584      -274.7692
  13   2.0000     -10.095761      -274.7196
  14   2.0000     -10.090703      -274.5820
  15   2.0000     -10.082699      -274.3642
  16   2.0000     -10.047901      -273.4173
  17   2.0000     -10.029080      -272.9051
  18   2.0000     -10.024936      -272.7924
  19   2.0000      -7.873365      -214.2452
  20   2.0000      -7.816479      -212.6972
  21   2.0000      -6.596258      -179.4933
  22   2.0000      -5.820331      -158.3793
  23   2.0000      -5.817078      -158.2907
  24   2.0000      -5.810526      -158.1124
  25   2.0000      -5.764411      -156.8576
  26   2.0000      -5.756573      -156.6443
  27   2.0000      -5.756416      -156.6401
  28   2.0000      -4.742013      -129.0367
  29   2.0000      -4.741311      -129.0176
  30   2.0000      -4.739712      -128.9741
  31   2.0000      -1.081955       -29.4415
  32   2.0000      -1.065964       -29.0064
  33   2.0000      -1.055310       -28.7164
  34   2.0000      -1.013350       -27.5747
  35   2.0000      -0.987625       -26.8746
  36   2.0000      -0.968427       -26.3522
  37   2.0000      -0.809838       -22.0368
  38   2.0000      -0.750100       -20.4113
  39   2.0000      -0.741362       -20.1735
  40   2.0000      -0.733413       -19.9572
  41   2.0000      -0.696758       -18.9597
  42   2.0000      -0.680870       -18.5274
  43   2.0000      -0.662834       -18.0366
  44   2.0000      -0.650171       -17.6920
  45   2.0000      -0.621138       -16.9020
  46   2.0000      -0.590478       -16.0677
  47   2.0000      -0.545229       -14.8364
  48   2.0000      -0.530174       -14.4268
  49   2.0000      -0.523486       -14.2448
  50   2.0000      -0.502411       -13.6713
  51   2.0000      -0.498800       -13.5730
  52   2.0000      -0.473807       -12.8929
  53   2.0000      -0.459484       -12.5032
  54   2.0000      -0.458284       -12.4705
  55   2.0000      -0.453367       -12.3367
  56   2.0000      -0.446867       -12.1599
  57   2.0000      -0.439406       -11.9568
  58   2.0000      -0.436837       -11.8869
  59   2.0000      -0.425471       -11.5776
  60   2.0000      -0.423776       -11.5315
  61   2.0000      -0.422067       -11.4850
  62   2.0000      -0.407624       -11.0920
  63   2.0000      -0.398851       -10.8533
  64   2.0000      -0.389421       -10.5967
  65   2.0000      -0.372270       -10.1300
  66   2.0000      -0.370508       -10.0820
  67   2.0000      -0.363870        -9.9014
  68   2.0000      -0.359026        -9.7696
  69   2.0000      -0.351348        -9.5607
  70   2.0000      -0.349889        -9.5210
  71   2.0000      -0.339297        -9.2327
  72   2.0000      -0.337295        -9.1783
  73   2.0000      -0.327364        -8.9080
  74   2.0000      -0.326338        -8.8801
  75   2.0000      -0.316081        -8.6010
  76   2.0000      -0.311386        -8.4733
  77   2.0000      -0.304458        -8.2847
  78   2.0000      -0.292587        -7.9617
  79   2.0000      -0.283132        -7.7044
  80   2.0000      -0.277028        -7.5383
  81   2.0000      -0.261569        -7.1176
  82   2.0000      -0.256128        -6.9696
  83   2.0000      -0.237063        -6.4508
  84   2.0000      -0.226155        -6.1540
  85   2.0000      -0.219943        -5.9849
  86   2.0000      -0.216865        -5.9012
  87   0.0000      -0.044277        -1.2048
  88   0.0000      -0.029660        -0.8071
  89   0.0000      -0.001669        -0.0454
  90   0.0000       0.005554         0.1511
  91   0.0000       0.010337         0.2813

MULLIKEN ATOMIC CHARGES
-----------------------
   0 C :   -0.446122
   1 C :   -0.163281
   2 O :   -0.132527
   3 C :    0.335646
   4 O :   -0.412833
   5 C :   -0.428383
   6 C :    0.059315
   7 H :    0.219937
   8 C :    0.238389
   9 O :   -0.373587
  10 O :   -0.144515
  11 C :   -0.159342
  12 C :   -0.468175
  13 S :   -0.188850
  14 P :    0.759735
  15 S :   -0.418066
  16 O :   -0.307721
  17 C :   -0.292758
  18 O :   -0.357211
  19 C :   -0.298698
  20 H :    0.155657
  21 H :    0.150436
  22 H :    0.145362
  23 H :    0.171952
  24 H :    0.159338
  25 H :    0.211494
  26 H :    0.182864
  27 H :    0.160576
  28 H :    0.182502
  29 H :    0.150938
  30 H :    0.149968
  31 H :    0.173485
  32 H :    0.155672
  33 H :    0.169508
  34 H :    0.171851
  35 H :    0.175384
  36 H :    0.158920
  37 H :    0.153139
Sum of atomic charges:    0.0000000

LOEWDIN ATOMIC CHARGES
----------------------
   0 C :   -0.387206
   1 C :    0.035811
   2 O :   -0.576014
   3 C :    0.356003
   4 O :   -0.440437
   5 C :   -0.212497
   6 C :   -0.197638
   7 H :    0.216968
   8 C :    0.344245
   9 O :   -0.406509
  10 O :   -0.621841
  11 C :    0.031757
  12 C :   -0.387009
  13 S :    0.195995
  14 P :    0.400693
  15 S :   -0.050112
  16 O :   -0.652032
  17 C :   -0.051453
  18 O :   -0.684175
  19 C :   -0.059120
  20 H :    0.160380
  21 H :    0.157516
  22 H :    0.158641
  23 H :    0.187317
  24 H :    0.180726
  25 H :    0.199977
  26 H :    0.184361
  27 H :    0.183752
  28 H :    0.195345
  29 H :    0.156925
  30 H :    0.160072
  31 H :    0.166511
  32 H :    0.179584
  33 H :    0.174855
  34 H :    0.174577
  35 H :    0.176886
  36 H :    0.169294
  37 H :    0.177853

  Mayer bond orders larger than 0.100000
B(  0-C ,  1-C ) :   0.9447 B(  0-C , 20-H ) :   0.9693 B(  0-C , 21-H ) :   0.9761
B(  0-C , 22-H ) :   0.9679 B(  1-C ,  2-O ) :   0.7774 B(  1-C , 23-H ) :   0.9651
B(  1-C , 24-H ) :   0.9471 B(  2-O ,  3-C ) :   1.1432 B(  3-C ,  4-O ) :   1.8503
B(  3-C ,  5-C ) :   0.8569 B(  5-C ,  6-C ) :   0.8836 B(  5-C , 25-H ) :   0.9829
B(  5-C , 26-H ) :   0.9504 B(  6-C ,  7-H ) :   0.8823 B(  6-C ,  8-C ) :   0.9727
B(  6-C , 13-S ) :   0.8298 B(  8-C ,  9-O ) :   1.8052 B(  8-C , 10-O ) :   1.0895
B( 10-O , 11-C ) :   0.7898 B( 11-C , 12-C ) :   0.9279 B( 11-C , 27-H ) :   0.9570
B( 11-C , 28-H ) :   0.9656 B( 12-C , 29-H ) :   0.9755 B( 12-C , 30-H ) :   0.9663
B( 12-C , 31-H ) :   0.9710 B( 13-S , 14-P ) :   1.0164 B( 14-P , 15-S ) :   1.7907
B( 14-P , 16-O ) :   1.1417 B( 14-P , 18-O ) :   1.0233 B( 16-O , 17-C ) :   0.7975
B( 17-C , 32-H ) :   0.9649 B( 17-C , 33-H ) :   0.9608 B( 17-C , 34-H ) :   0.9554
B( 18-O , 19-C ) :   0.8317 B( 19-C , 35-H ) :   0.9590 B( 19-C , 36-H ) :   0.9562
B( 19-C , 37-H ) :   0.9672

Dispersion correction           -0.017467999
FINAL SINGLE POINT ENERGY     -1981.454085508001

DIPOLE MOMENT
-------------

Method             : SCF
Type of density    : Electron Density
Multiplicity       :   1
Irrep              :   0
Energy             : -1981.4739262713428616 Eh
Relativity type    :
Basis              : AO
                                X                 Y                 Z
Electronic contribution:    -11.536070045      -0.797186108      -0.782679188
Nuclear contribution   :     10.386055970       1.040066484       0.431488040
                        -----------------------------------------
Total Dipole Moment    :     -1.150014075       0.242880376      -0.351191148
                        -----------------------------------------
Magnitude (a.u.)       :      1.226726731
Magnitude (Debye)      :      3.118091551

Rotational constants in cm-1:             0.014280             0.006572             0.005517
Rotational constants in MHz :           428.092952           197.036027           165.400155

                             ****ORCA TERMINATED NORMALLY****
TOTAL RUN TIME: 0 days 0 hours 1 minutes 36 seconds 256 msec
