                         Program Version 6.0.1  -  RELEASE   -
|  1> ! r2scan-3c def2/J RI DEFGRID2 scfconv6 printgap
|  2> %output
|  3>     printlevel normal
|  4> end
|  5> %cpcm
|  6>     smd true
|  7>     smdsolvent "water"
|  8> end
|  9> * xyz 0 1
| 10> C 4.9152625941 -3.2549611964 0.3673833592
| 11> C 4.4683841179 -1.9249635338 -0.2086410808
| 12> O 3.034020424 -1.9462562579 -0.340292201
| 13> C 2.474054838 -1.1491333498 -1.2212895694
| 14> O 3.079196643 -0.4199581123 -1.979764769
| 15> C 0.9612058596 -1.2841719368 -1.2164308339
| 16> C 0.3598130373 0.1129771464 -1.3033019615
| 17> H 0.7418112325 0.607136525 -2.2052784249
| 18> C 0.8082768673 0.961696049 -0.1284944734
| 19> O 1.8621987015 0.7753435996 0.4343031527
| 20> O -0.0381691284 1.9354948411 0.1432347512
| 21> C 0.3140777342 2.8684752561 1.1850185625
| 22> C 1.1394335781 4.0123914225 0.62231616
| 23> S -1.4439347756 0.1043556654 -1.5080351429
| 24> P -2.0920891496 0.0095081845 0.5171115818
| 25> S -0.8534706036 -0.7278768958 1.8455361971
| 26> O -2.6545752631 1.4259003449 0.9297807863
| 27> C -3.6300279448 2.1256384875 0.1287577876
| 28> O -3.4598661961 -0.8067181228 0.3693686827
| 29> C -3.4646655266 -2.2029000328 0.0495119223
| 30> H 4.430365629 -3.4226099114 1.3243888323
| 31> H 4.6506091681 -4.0641170635 -0.3069368645
| 32> H 5.9910498179 -3.2411407985 0.5065892024
| 33> H 4.9035658546 -1.7344948703 -1.1947938852
| 34> H 4.72217162 -1.0919513048 0.4540600281
| 35> H 0.6576167198 -1.7950044136 -0.3017815492
| 36> H 0.6573480913 -1.8673588493 -2.0867762476
| 37> H -0.6435535473 3.2114378827 1.5776093672
| 38> H 0.8633588149 2.3246817959 1.9591691972
| 39> H 0.5992658982 4.5048452422 -0.1814678891
| 40> H 1.3395542009 4.7278368958 1.412846001
| 41> H 2.0852809573 3.6363946273 0.2380496676
| 42> H -3.7845434047 3.0751634787 0.6343134303
| 43> H -4.554603575 1.5537416534 0.0884238065
| 44> H -3.2400177235 2.2808288229 -0.8769556209
| 45> H -2.7654978629 -2.7381547581 0.6937357176
| 46> H -3.1936835065 -2.3432867894 -0.9965109161
| 47> H -4.4817189469 -2.5407367825 0.2311465931
| 48> *
| 49>
| 50>                          ****END OF INPUT****

CARTESIAN COORDINATES (ANGSTROEM)
---------------------------------
  C      4.915263   -3.254961    0.367383
  C      4.468384   -1.924964   -0.208641
  O      3.034020   -1.946256   -0.340292
  C      2.474055   -1.149133   -1.221290
  O      3.079197   -0.419958   -1.979765
  C      0.961206   -1.284172   -1.216431
  C      0.359813    0.112977   -1.303302
  H      0.741811    0.607137   -2.205278
  C      0.808277    0.961696   -0.128494
  O      1.862199    0.775344    0.434303
  O     -0.038169    1.935495    0.143235
  C      0.314078    2.868475    1.185019
  C      1.139434    4.012391    0.622316
  S     -1.443935    0.104356   -1.508035
  P     -2.092089    0.009508    0.517112
  S     -0.853471   -0.727877    1.845536
  O     -2.654575    1.425900    0.929781
  C     -3.630028    2.125638    0.128758
  O     -3.459866   -0.806718    0.369369
  C     -3.464666   -2.202900    0.049512
  H      4.430366   -3.422610    1.324389
  H      4.650609   -4.064117   -0.306937
  H      5.991050   -3.241141    0.506589
  H      4.903566   -1.734495   -1.194794
  H      4.722172   -1.091951    0.454060
  H      0.657617   -1.795004   -0.301782
  H      0.657348   -1.867359   -2.086776
  H     -0.643554    3.211438    1.577609
  H      0.863359    2.324682    1.959169
  H      0.599266    4.504845   -0.181468
  H      1.339554    4.727837    1.412846
  H      2.085281    3.636395    0.238050
  H     -3.784543    3.075163    0.634313
  H     -4.554604    1.553742    0.088424
  H     -3.240018    2.280829   -0.876956
  H     -2.765498   -2.738155    0.693736
  H     -3.193684   -2.343287   -0.996511
  H     -4.481719   -2.540737    0.231147

 Total Charge           Charge          ....    0
 Multiplicity           Mult            ....    1
 Number of Electrons    NEL             ....  174
 Basis Dimension        Dim             ....  510

ORBITAL ENERGIES
----------------

  NO   OCC          E(Eh)            E(eV)
   0   2.0000     -88.582145     -2410.4427
   1   2.0000     -88.531900     -2409.0755
   2   2.0000     -76.923091     -2093.1837
   3   2.0000     -19.011328      -517.3245
   4   2.0000     -19.005907      -517.1770
   5   2.0000     -18.998713      -516.9813
   6   2.0000     -18.996285      -516.9152
   7   2.0000     -18.954370      -515.7746
   8   2.0000     -18.942985      -515.4648
   9   2.0000     -10.178977      -276.9841
  10   2.0000     -10.168349      -276.6948
  11   2.0000     -10.100677      -274.8534
  12   2.0000     -10.087173      -274.4859
  13   2.0000     -10.085258      -274.4338
  14   2.0000     -10.084857      -274.4229
  15   2.0000     -10.082642      -274.3626
  16   2.0000     -10.051951      -273.5275
  17   2.0000     -10.020084      -272.6603
  18   2.0000     -10.019206      -272.6364
  19   2.0000      -7.876365      -214.3268
  20   2.0000      -7.826915      -212.9812
  21   2.0000      -6.601351      -179.6319
  22   2.0000      -5.823412      -158.4631
  23   2.0000      -5.820141      -158.3741
  24   2.0000      -5.813391      -158.1904
  25   2.0000      -5.774709      -157.1378
  26   2.0000      -5.767093      -156.9306
  27   2.0000      -5.766833      -156.9235
  28   2.0000      -4.747029      -129.1732
  29   2.0000      -4.746365      -129.1552
  30   2.0000      -4.744965      -129.1170
  31   2.0000      -1.092441       -29.7268
  32   2.0000      -1.083617       -29.4867
  33   2.0000      -1.055454       -28.7204
  34   2.0000      -1.012685       -27.5566
  35   2.0000      -1.003435       -27.3049
  36   2.0000      -0.991505       -26.9802
  37   2.0000      -0.814376       -22.1603
  38   2.0000      -0.753420       -20.5016
  39   2.0000      -0.739531       -20.1237
  40   2.0000      -0.732989       -19.9457
  41   2.0000      -0.697673       -18.9846
  42   2.0000      -0.671950       -18.2847
  43   2.0000      -0.662594       -18.0301
  44   2.0000      -0.652271       -17.7492
  45   2.0000      -0.622622       -16.9424
  46   2.0000      -0.591689       -16.1007
  47   2.0000      -0.543284       -14.7835
  48   2.0000      -0.535643       -14.5756
  49   2.0000      -0.527075       -14.3424
  50   2.0000      -0.506090       -13.7714
  51   2.0000      -0.494084       -13.4447
  52   2.0000      -0.483147       -13.1471
  53   2.0000      -0.469039       -12.7632
  54   2.0000      -0.463524       -12.6131
  55   2.0000      -0.454943       -12.3796
  56   2.0000      -0.451619       -12.2892
  57   2.0000      -0.447794       -12.1851
  58   2.0000      -0.436438       -11.8761
  59   2.0000      -0.428901       -11.6710
  60   2.0000      -0.428023       -11.6471
  61   2.0000      -0.411940       -11.2095
  62   2.0000      -0.406323       -11.0566
  63   2.0000      -0.404017       -10.9939
  64   2.0000      -0.390097       -10.6151
  65   2.0000      -0.372995       -10.1497
  66   2.0000      -0.369544       -10.0558
  67   2.0000      -0.365311        -9.9406
  68   2.0000      -0.361568        -9.8388
  69   2.0000      -0.352368        -9.5884
  70   2.0000      -0.350380        -9.5343
  71   2.0000      -0.342487        -9.3195
  72   2.0000      -0.339287        -9.2325
  73   2.0000      -0.329024        -8.9532
  74   2.0000      -0.323464        -8.8019
  75   2.0000      -0.317871        -8.6497
  76   2.0000      -0.314087        -8.5467
  77   2.0000      -0.309869        -8.4320
  78   2.0000      -0.292974        -7.9722
  79   2.0000      -0.284865        -7.7516
  80   2.0000      -0.283463        -7.7134
  81   2.0000      -0.277833        -7.5602
  82   2.0000      -0.268352        -7.3022
  83   2.0000      -0.256121        -6.9694
  84   2.0000      -0.240574        -6.5463
  85   2.0000      -0.231058        -6.2874
  86   2.0000      -0.226936        -6.1752
  87   0.0000      -0.050779        -1.3818
  88   0.0000      -0.039756        -1.0818
  89   0.0000      -0.018298        -0.4979
  90   0.0000       0.002725         0.0742
  91   0.0000       0.006507         0.1771

MULLIKEN ATOMIC CHARGES
-----------------------
   0 C :   -0.489896
   1 C :   -0.154686
   2 O :   -0.160800
   3 C :    0.361518
   4 O :   -0.489117
   5 C :   -0.442403
   6 C :    0.058828
   7 H :    0.254819
   8 C :    0.257509
   9 O :   -0.441869
  10 O :   -0.152183
  11 C :   -0.152605
  12 C :   -0.499803
  13 S :   -0.179419
  14 P :    0.785022
  15 S :   -0.480198
  16 O :   -0.342027
  17 C :   -0.298358
  18 O :   -0.382850
  19 C :   -0.307440
  20 H :    0.164896
  21 H :    0.166982
  22 H :    0.169604
  23 H :    0.177593
  24 H :    0.177014
  25 H :    0.215200
  26 H :    0.223522
  27 H :    0.182787
  28 H :    0.180355
  29 H :    0.168754
  30 H :    0.173771
  31 H :    0.170333
  32 H :    0.184061
  33 H :    0.185741
  34 H :    0.180949
  35 H :    0.177321
  36 H :    0.176321
  37 H :    0.180754
Sum of atomic charges:    0.0000000

LOEWDIN ATOMIC CHARGES
----------------------
   0 C :   -0.388723
   1 C :    0.039070
   2 O :   -0.585638
   3 C :    0.362164
   4 O :   -0.492611
   5 C :   -0.207187
   6 C :   -0.195989
   7 H :    0.229159
   8 C :    0.349285
   9 O :   -0.457324
  10 O :   -0.620920
  11 C :    0.035412
  12 C :   -0.387506
  13 S :    0.215083
  14 P :    0.404303
  15 S :   -0.095674
  16 O :   -0.669132
  17 C :   -0.042389
  18 O :   -0.692139
  19 C :   -0.053492
  20 H :    0.162868
  21 H :    0.162403
  22 H :    0.168597
  23 H :    0.190316
  24 H :    0.186410
  25 H :    0.199974
  26 H :    0.201741
  27 H :    0.193118
  28 H :    0.193830
  29 H :    0.163528
  30 H :    0.169215
  31 H :    0.163993
  32 H :    0.191796
  33 H :    0.182309
  34 H :    0.179854
  35 H :    0.177912
  36 H :    0.176844
  37 H :    0.189540

  Mayer bond orders larger than 0.100000
B(  0-C ,  1-C ) :   0.9468 B(  0-C , 20-H ) :   0.9663 B(  0-C , 21-H ) :   0.9738
B(  0-C , 22-H ) :   0.9607 B(  1-C ,  2-O ) :   0.7663 B(  1-C , 23-H ) :   0.9581
B(  1-C , 24-H ) :   0.9355 B(  2-O ,  3-C ) :   1.1494 B(  3-C ,  4-O ) :   1.7893
B(  3-C ,  5-C ) :   0.8750 B(  5-C ,  6-C ) :   0.8443 B(  5-C , 25-H ) :   0.9851
B(  5-C , 26-H ) :   0.9295 B(  6-C ,  7-H ) :   0.8823 B(  6-C ,  8-C ) :   0.9654
B(  6-C , 13-S ) :   0.8204 B(  8-C ,  9-O ) :   1.7584 B(  8-C , 10-O ) :   1.1092
B( 10-O , 11-C ) :   0.7704 B( 11-C , 12-C ) :   0.9326 B( 11-C , 27-H ) :   0.9470
B( 11-C , 28-H ) :   0.9570 B( 12-C , 29-H ) :   0.9717 B( 12-C , 30-H ) :   0.9598
B( 12-C , 31-H ) :   0.9696 B( 13-S , 14-P ) :   1.0306 B( 14-P , 15-S ) :   1.7533
B( 14-P , 16-O ) :   1.1491 B( 14-P , 18-O ) :   1.0339 B( 16-O , 17-C ) :   0.7889
B( 17-C , 32-H ) :   0.9539 B( 17-C , 33-H ) :   0.9521 B( 17-C , 34-H ) :   0.9474
B( 18-O , 19-C ) :   0.8236 B( 19-C , 35-H ) :   0.9548 B( 19-C , 36-H ) :   0.9496
B( 19-C , 37-H ) :   0.9572

Dispersion correction           -0.017467999
FINAL SINGLE POINT ENERGY     -1981.469489637762

DIPOLE MOMENT
-------------

Method             : SCF
Type of density    : Electron Density
Multiplicity       :   1
Irrep              :   0
Energy             : -1981.4893304011038708 Eh
Relativity type    :
Basis              : AO
                                X                 Y                 Z
Electronic contribution:    -12.137562649      -0.787861280      -1.237454104
Nuclear contribution   :     10.386055970       1.040066484       0.431488040
                        -----------------------------------------
Total Dipole Moment    :     -1.751506679       0.252205204      -0.805966065
                        -----------------------------------------
Magnitude (a.u.)       :      1.944470213
Magnitude (Debye)      :      4.942450497

Rotational constants in cm-1:             0.014280             0.006572             0.005517
Rotational constants in MHz :           428.092952           197.036027           165.400155

                             ****ORCA TERMINATED NORMALLY****
TOTAL RUN TIME: 0 days 0 hours 1 minutes 58 seconds 161 msec
