                         Program Version 6.0.0  -   RELEASE  -
|  1> ! pbe def2-sv(p) def2/J RI DEFGRID1 loosescf d4 GCP(DFT/SV(P)) printgap
|  2> %output
|  3>     printlevel normal
|  4> end
|  5> * xyz 0 1
|  6> C 0.8453991396 1.2670212507 -1.0256897147
|  7> C 1.4462467833 0.3066032322 0.0015650774
|  8> H 2.4689982235 0.0519699687 -0.3042360635
|  9> C 0.6412259626 -1.0049953537 0.0203232123
| 10> H 0.6354483146 -1.3782980292 1.0554859823
| 11> C -0.8201235553 -0.7762574615 -0.432436918
| 12> H -0.8781523577 -0.919209296 -1.5169991041
| 13> C -1.2788149695 0.6533131696 -0.0889277677
| 14> H -2.3076973524 0.8040667384 -0.4417316508
| 15> O -0.4973369627 1.6342397401 -0.7129673691
| 16> O -1.3384627001 0.8232602372 1.2976031825
| 17> O -1.6911301532 -1.7152260273 0.144790168
| 18> O 1.3014432924 -1.9170067543 -0.8232843799
| 19> O 1.4318200457 0.8441124263 1.3066986846
| 20> H 0.8823605287 0.790110176 -2.0121744229
| 21> H 1.3916787715 2.2109204312 -1.0615180417
| 22> H -0.4253483067 0.9153432165 1.6416582953
| 23> H -1.9341852947 -1.4030205648 1.0317967702
| 24> H 0.823814611 -2.7591278081 -0.8158623793
| 25> H 2.0038764416 1.6243491407 1.3461456326
| 26> *
| 27>
| 28>                          ****END OF INPUT****

CARTESIAN COORDINATES (ANGSTROEM)
---------------------------------
  C      0.845399    1.267021   -1.025690
  C      1.446247    0.306603    0.001565
  H      2.468998    0.051970   -0.304236
  C      0.641226   -1.004995    0.020323
  H      0.635448   -1.378298    1.055486
  C     -0.820124   -0.776257   -0.432437
  H     -0.878152   -0.919209   -1.516999
  C     -1.278815    0.653313   -0.088928
  H     -2.307697    0.804067   -0.441732
  O     -0.497337    1.634240   -0.712967
  O     -1.338463    0.823260    1.297603
  O     -1.691130   -1.715226    0.144790
  O      1.301443   -1.917007   -0.823284
  O      1.431820    0.844112    1.306699
  H      0.882361    0.790110   -2.012174
  H      1.391679    2.210920   -1.061518
  H     -0.425348    0.915343    1.641658
  H     -1.934185   -1.403021    1.031797
  H      0.823815   -2.759128   -0.815862
  H      2.003876    1.624349    1.346146

 Total Charge           Charge          ....    0
 Multiplicity           Mult            ....    1
 Number of Electrons    NEL             ....   80
 Basis Dimension        Dim             ....  160

ORBITAL ENERGIES
----------------

  NO   OCC          E(Eh)            E(eV)
   0   2.0000     -18.788624      -511.2645
   1   2.0000     -18.764527      -510.6087
   2   2.0000     -18.758030      -510.4319
   3   2.0000     -18.747622      -510.1487
   4   2.0000     -18.744865      -510.0737
   5   2.0000      -9.977824      -271.5104
   6   2.0000      -9.959464      -271.0108
   7   2.0000      -9.947387      -270.6822
   8   2.0000      -9.945391      -270.6278
   9   2.0000      -9.937734      -270.4195
  10   2.0000      -0.980298       -26.6753
  11   2.0000      -0.954238       -25.9661
  12   2.0000      -0.938617       -25.5411
  13   2.0000      -0.922026       -25.0896
  14   2.0000      -0.898785       -24.4572
  15   2.0000      -0.710921       -19.3451
  16   2.0000      -0.673158       -18.3176
  17   2.0000      -0.600839       -16.3497
  18   2.0000      -0.584488       -15.9047
  19   2.0000      -0.532579       -14.4922
  20   2.0000      -0.505929       -13.7670
  21   2.0000      -0.490805       -13.3555
  22   2.0000      -0.464145       -12.6300
  23   2.0000      -0.446489       -12.1496
  24   2.0000      -0.435699       -11.8560
  25   2.0000      -0.418409       -11.3855
  26   2.0000      -0.412550       -11.2261
  27   2.0000      -0.387513       -10.5448
  28   2.0000      -0.374214       -10.1829
  29   2.0000      -0.362837        -9.8733
  30   2.0000      -0.328682        -8.9439
  31   2.0000      -0.309924        -8.4334
  32   2.0000      -0.303489        -8.2584
  33   2.0000      -0.294726        -8.0199
  34   2.0000      -0.280921        -7.6442
  35   2.0000      -0.252523        -6.8715
  36   2.0000      -0.242087        -6.5875
  37   2.0000      -0.237600        -6.4654
  38   2.0000      -0.218950        -5.9579
  39   2.0000      -0.201050        -5.4709
  40   0.0000       0.001997         0.0543
  41   0.0000       0.032663         0.8888
  42   0.0000       0.052406         1.4260
  43   0.0000       0.056500         1.5374
  44   0.0000       0.069883         1.9016

MULLIKEN ATOMIC CHARGES
-----------------------
   0 C :    0.057578
   1 C :   -0.005978
   2 H :    0.087792
   3 C :    0.070621
   4 H :    0.065044
   5 C :    0.025970
   6 H :    0.069155
   7 C :    0.158294
   8 H :    0.073880
   9 O :   -0.307124
  10 O :   -0.425780
  11 O :   -0.425389
  12 O :   -0.420779
  13 O :   -0.426762
  14 H :    0.093169
  15 H :    0.085472
  16 H :    0.297670
  17 H :    0.300223
  18 H :    0.309495
  19 H :    0.317450
Sum of atomic charges:   -0.0000000

LOEWDIN ATOMIC CHARGES
----------------------
   0 C :   -0.119161
   1 C :   -0.082323
   2 H :    0.118976
   3 C :   -0.067395
   4 H :    0.106675
   5 C :   -0.101074
   6 H :    0.118204
   7 C :   -0.012111
   8 H :    0.109005
   9 O :   -0.155982
  10 O :   -0.328905
  11 O :   -0.320979
  12 O :   -0.320643
  13 O :   -0.305056
  14 H :    0.112972
  15 H :    0.112913
  16 H :    0.265730
  17 H :    0.279493
  18 H :    0.292384
  19 H :    0.297275

  Mayer bond orders larger than 0.100000
B(  0-C ,  1-C ) :   1.1040 B(  0-C ,  9-O ) :   1.0212 B(  0-C , 14-H ) :   0.9057
B(  0-C , 15-H ) :   0.9137 B(  1-C ,  2-H ) :   0.8819 B(  1-C ,  3-C ) :   1.0011
B(  1-C , 13-O ) :   0.9926 B(  3-C ,  4-H ) :   0.8813 B(  3-C ,  5-C ) :   0.9926
B(  3-C , 12-O ) :   1.0848 B(  5-C ,  6-H ) :   0.8547 B(  5-C ,  7-C ) :   1.0272
B(  5-C , 11-O ) :   1.0671 B(  7-C ,  8-H ) :   0.9015 B(  7-C ,  9-O ) :   1.0632
B(  7-C , 10-O ) :   1.1038 B( 10-O , 16-H ) :   0.7902 B( 11-O , 17-H ) :   0.8281
B( 12-O , 18-H ) :   0.8424 B( 13-O , 16-H ) :   0.1204 B( 13-O , 19-H ) :   0.8389

Dispersion correction           -0.019905972
FINAL SINGLE POINT ENERGY      -571.414535103390

DIPOLE MOMENT
-------------

Method             : SCF
Type of density    : Electron Density
Multiplicity       :   1
Irrep              :   0
Energy             :  -571.5249631287977081 Eh
Relativity type    :
Basis              : AO
                                X                 Y                 Z
Electronic contribution:     -1.437877650       0.187295687       1.061527595
Nuclear contribution   :      2.484519261      -0.063905145      -0.992849692
                        -----------------------------------------
Total Dipole Moment    :      1.046641611       0.123390542       0.068677902
                        -----------------------------------------
Magnitude (a.u.)       :      1.056125249
Magnitude (Debye)      :      2.684457047

Rotational constants in cm-1:             0.051699             0.049523             0.035536
Rotational constants in MHz :          1549.895895          1484.666947          1065.336267

                             ****ORCA TERMINATED NORMALLY****
TOTAL RUN TIME: 0 days 0 hours 0 minutes 12 seconds 476 msec
