                         Program Version 6.0.0  -   RELEASE  -
|  1> ! pbe def2-sv(p) def2/J RI DEFGRID1 loosescf d4 GCP(DFT/SV(P)) printgap
|  2> %output
|  3>     printlevel normal
|  4> end
|  5> * xyz 0 1
|  6> C 2.6973395361 -0.8762848575 -2.7705669108
|  7> C 1.6333590452 0.0173400704 -2.1713242341
|  8> O 1.0963557044 -0.5349643457 -0.9536561683
|  9> P 1.9703811411 -0.6085403254 0.3767903002
| 10> S 3.3202676467 0.7952151858 0.6273146599
| 11> O 2.5493170502 -2.0841431894 0.2763592338
| 12> C 3.6573742121 -2.5359744128 1.0757671471
| 13> C 3.2908890869 -2.653767095 2.5410451217
| 14> S 0.4377776248 -0.8057816717 1.8067356865
| 15> C -0.0003235032 0.9492609694 2.0076093704
| 16> S -0.0908408529 1.8804260456 0.4508198023
| 17> P -1.8134578587 1.0274609695 -0.4287012293
| 18> S -1.9057745355 1.299410013 -2.366286001
| 19> O -2.8717020965 1.7430010339 0.5158563293
| 20> C -4.2460005351 1.3196156393 0.6502762637
| 21> C -5.0564240141 1.6001086402 -0.598497292
| 22> O -1.9493670375 -0.4859148348 0.0382024092
| 23> C -1.7955872855 -1.6328903451 -0.8126086271
| 24> C -3.0683099257 -2.4542932746 -0.7589660179
| 25> H 2.9983518871 -0.4762212426 -3.7335964566
| 26> H 3.5650175571 -0.9089942064 -2.1125737105
| 27> H 2.3116374484 -1.8840267244 -2.8994890315
| 28> H 0.7657243142 0.118739084 -2.8269860059
| 29> H 2.0349622754 1.0128038049 -1.9512964989
| 30> H 3.9136964696 -3.5040949704 0.6436477817
| 31> H 4.4875722574 -1.8349365535 0.9428618789
| 32> H 3.1004235682 -1.6653366448 2.9568665004
| 33> H 2.3977536595 -3.2617611793 2.6601345158
| 34> H 4.1142002689 -3.1100272899 3.0812125853
| 35> H 0.7725754994 1.4472010021 2.5904692416
| 36> H -0.9600268308 0.9765983352 2.5175232936
| 37> H -4.2588464241 0.2550663667 0.8960630208
| 38> H -4.6097699409 1.9014974073 1.4988837474
| 39> H -6.0930785831 1.3299981783 -0.4232637429
| 40> H -4.9980135031 2.6545706319 -0.8567145377
| 41> H -4.6735735329 1.0221049054 -1.4381069562
| 42> H -1.5862683452 -1.2926552183 -1.8321374295
| 43> H -0.9389926425 -2.1945392588 -0.4322770623
| 44> H -2.933787031 -3.3533950549 -1.3512239141
| 45> H -3.2898405848 -2.7308755344 0.2679837168
| 46> H -3.9005930638 -1.8836526421 -1.1643484909
| 47> *
| 48>
| 49>                          ****END OF INPUT****

CARTESIAN COORDINATES (ANGSTROEM)
---------------------------------
  C      2.697340   -0.876285   -2.770567
  C      1.633359    0.017340   -2.171324
  O      1.096356   -0.534964   -0.953656
  P      1.970381   -0.608540    0.376790
  S      3.320268    0.795215    0.627315
  O      2.549317   -2.084143    0.276359
  C      3.657374   -2.535974    1.075767
  C      3.290889   -2.653767    2.541045
  S      0.437778   -0.805782    1.806736
  C     -0.000324    0.949261    2.007609
  S     -0.090841    1.880426    0.450820
  P     -1.813458    1.027461   -0.428701
  S     -1.905775    1.299410   -2.366286
  O     -2.871702    1.743001    0.515856
  C     -4.246001    1.319616    0.650276
  C     -5.056424    1.600109   -0.598497
  O     -1.949367   -0.485915    0.038202
  C     -1.795587   -1.632890   -0.812609
  C     -3.068310   -2.454293   -0.758966
  H      2.998352   -0.476221   -3.733596
  H      3.565018   -0.908994   -2.112574
  H      2.311637   -1.884027   -2.899489
  H      0.765724    0.118739   -2.826986
  H      2.034962    1.012804   -1.951296
  H      3.913696   -3.504095    0.643648
  H      4.487572   -1.834937    0.942862
  H      3.100424   -1.665337    2.956867
  H      2.397754   -3.261761    2.660135
  H      4.114200   -3.110027    3.081213
  H      0.772575    1.447201    2.590469
  H     -0.960027    0.976598    2.517523
  H     -4.258846    0.255066    0.896063
  H     -4.609770    1.901497    1.498884
  H     -6.093079    1.329998   -0.423264
  H     -4.998014    2.654571   -0.856715
  H     -4.673574    1.022105   -1.438107
  H     -1.586268   -1.292655   -1.832137
  H     -0.938993   -2.194539   -0.432277
  H     -2.933787   -3.353395   -1.351224
  H     -3.289841   -2.730876    0.267984
  H     -3.900593   -1.883653   -1.164348

 Total Charge           Charge          ....    0
 Multiplicity           Mult            ....    1
 Number of Electrons    NEL             ....  202
 Basis Dimension        Dim             ....  334

ORBITAL ENERGIES
----------------

  NO   OCC          E(Eh)            E(eV)
   0   2.0000     -88.043557     -2395.7870
   1   2.0000     -88.040081     -2395.6924
   2   2.0000     -87.987887     -2394.2721
   3   2.0000     -87.987691     -2394.2668
   4   2.0000     -76.428033     -2079.7125
   5   2.0000     -76.426813     -2079.6793
   6   2.0000     -18.795968      -511.4643
   7   2.0000     -18.795639      -511.4553
   8   2.0000     -18.792388      -511.3669
   9   2.0000     -18.787557      -511.2354
  10   2.0000      -9.960877      -271.0492
  11   2.0000      -9.956576      -270.9322
  12   2.0000      -9.954343      -270.8714
  13   2.0000      -9.946482      -270.6575
  14   2.0000      -9.939424      -270.4655
  15   2.0000      -9.887541      -269.0537
  16   2.0000      -9.886285      -269.0195
  17   2.0000      -9.884341      -268.9666
  18   2.0000      -9.877801      -268.7886
  19   2.0000      -7.688764      -209.2219
  20   2.0000      -7.684986      -209.1191
  21   2.0000      -7.632819      -207.6996
  22   2.0000      -7.632728      -207.6971
  23   2.0000      -6.425083      -174.8354
  24   2.0000      -6.424365      -174.8159
  25   2.0000      -5.716731      -155.5602
  26   2.0000      -5.713322      -155.4674
  27   2.0000      -5.713319      -155.4673
  28   2.0000      -5.709434      -155.3616
  29   2.0000      -5.705511      -155.2548
  30   2.0000      -5.701506      -155.1459
  31   2.0000      -5.661652      -154.0614
  32   2.0000      -5.661575      -154.0593
  33   2.0000      -5.653494      -153.8394
  34   2.0000      -5.653275      -153.8334
  35   2.0000      -5.653076      -153.8280
  36   2.0000      -5.653019      -153.8265
  37   2.0000      -4.647483      -126.4644
  38   2.0000      -4.647229      -126.4575
  39   2.0000      -4.646888      -126.4483
  40   2.0000      -4.646012      -126.4244
  41   2.0000      -4.645739      -126.4170
  42   2.0000      -4.644725      -126.3894
  43   2.0000      -0.988652       -26.9026
  44   2.0000      -0.986396       -26.8412
  45   2.0000      -0.945304       -25.7230
  46   2.0000      -0.943786       -25.6817
  47   2.0000      -0.765016       -20.8171
  48   2.0000      -0.723522       -19.6880
  49   2.0000      -0.707326       -19.2473
  50   2.0000      -0.689400       -18.7595
  51   2.0000      -0.684553       -18.6276
  52   2.0000      -0.672387       -18.2966
  53   2.0000      -0.655196       -17.8288
  54   2.0000      -0.639285       -17.3958
  55   2.0000      -0.600861       -16.3503
  56   2.0000      -0.591573       -16.0975
  57   2.0000      -0.575854       -15.6698
  58   2.0000      -0.569888       -15.5074
  59   2.0000      -0.564517       -15.3613
  60   2.0000      -0.503152       -13.6915
  61   2.0000      -0.490789       -13.3551
  62   2.0000      -0.477686       -12.9985
  63   2.0000      -0.470299       -12.7975
  64   2.0000      -0.459187       -12.4951
  65   2.0000      -0.442405       -12.0385
  66   2.0000      -0.439493       -11.9592
  67   2.0000      -0.437189       -11.8965
  68   2.0000      -0.425812       -11.5869
  69   2.0000      -0.416574       -11.3356
  70   2.0000      -0.412033       -11.2120
  71   2.0000      -0.395476       -10.7615
  72   2.0000      -0.388809       -10.5800
  73   2.0000      -0.387477       -10.5438
  74   2.0000      -0.386599       -10.5199
  75   2.0000      -0.377517       -10.2728
  76   2.0000      -0.369785       -10.0623
  77   2.0000      -0.358852        -9.7648
  78   2.0000      -0.355527        -9.6744
  79   2.0000      -0.348908        -9.4943
  80   2.0000      -0.347361        -9.4522
  81   2.0000      -0.345978        -9.4146
  82   2.0000      -0.342982        -9.3330
  83   2.0000      -0.338789        -9.2189
  84   2.0000      -0.334708        -9.1079
  85   2.0000      -0.323231        -8.7956
  86   2.0000      -0.308979        -8.4077
  87   2.0000      -0.296871        -8.0783
  88   2.0000      -0.293795        -7.9946
  89   2.0000      -0.290744        -7.9116
  90   2.0000      -0.279992        -7.6190
  91   2.0000      -0.279661        -7.6100
  92   2.0000      -0.272536        -7.4161
  93   2.0000      -0.265740        -7.2312
  94   2.0000      -0.259160        -7.0521
  95   2.0000      -0.230779        -6.2798
  96   2.0000      -0.221221        -6.0197
  97   2.0000      -0.208264        -5.6672
  98   2.0000      -0.205744        -5.5986
  99   2.0000      -0.201994        -5.4965
 100   2.0000      -0.195914        -5.3311
 101   0.0000      -0.046132        -1.2553
 102   0.0000      -0.020010        -0.5445
 103   0.0000      -0.010047        -0.2734
 104   0.0000       0.000148         0.0040
 105   0.0000       0.014304         0.3892

MULLIKEN ATOMIC CHARGES
-----------------------
   0 C :   -0.300934
   1 C :   -0.017313
   2 O :   -0.370165
   3 P :    0.611546
   4 S :   -0.325473
   5 O :   -0.372434
   6 C :   -0.005857
   7 C :   -0.315991
   8 S :   -0.093204
   9 C :   -0.327102
  10 S :   -0.063749
  11 P :    0.636930
  12 S :   -0.322868
  13 O :   -0.374628
  14 C :   -0.012580
  15 C :   -0.314442
  16 O :   -0.380430
  17 C :   -0.012405
  18 C :   -0.288982
  19 H :    0.112144
  20 H :    0.117232
  21 H :    0.110450
  22 H :    0.116631
  23 H :    0.114454
  24 H :    0.105962
  25 H :    0.112694
  26 H :    0.127446
  27 H :    0.117124
  28 H :    0.114222
  29 H :    0.190682
  30 H :    0.178540
  31 H :    0.106535
  32 H :    0.107137
  33 H :    0.108700
  34 H :    0.123412
  35 H :    0.131816
  36 H :    0.110156
  37 H :    0.104810
  38 H :    0.112280
  39 H :    0.114146
  40 H :    0.113509
Sum of atomic charges:    0.0000000

LOEWDIN ATOMIC CHARGES
----------------------
   0 C :   -0.364311
   1 C :   -0.127352
   2 O :   -0.239546
   3 P :    0.568976
   4 S :   -0.324753
   5 O :   -0.243462
   6 C :   -0.119705
   7 C :   -0.369784
   8 S :    0.094272
   9 C :   -0.469440
  10 S :    0.112202
  11 P :    0.568399
  12 S :   -0.308325
  13 O :   -0.249277
  14 C :   -0.115177
  15 C :   -0.367202
  16 O :   -0.238299
  17 C :   -0.125974
  18 C :   -0.355475
  19 H :    0.130588
  20 H :    0.119369
  21 H :    0.123450
  22 H :    0.112876
  23 H :    0.110916
  24 H :    0.118995
  25 H :    0.111135
  26 H :    0.121636
  27 H :    0.123717
  28 H :    0.131640
  29 H :    0.138261
  30 H :    0.133495
  31 H :    0.109298
  32 H :    0.119906
  33 H :    0.128665
  34 H :    0.130820
  35 H :    0.120464
  36 H :    0.105441
  37 H :    0.105764
  38 H :    0.131289
  39 H :    0.124090
  40 H :    0.122419

  Mayer bond orders larger than 0.100000
B(  0-C ,  1-C ) :   1.1621 B(  0-C , 19-H ) :   0.9402 B(  0-C , 20-H ) :   0.9363
B(  0-C , 21-H ) :   0.9465 B(  1-C ,  2-O ) :   0.8925 B(  1-C , 22-H ) :   0.9167
B(  1-C , 23-H ) :   0.9168 B(  2-O ,  3-P ) :   1.0989 B(  3-P ,  4-S ) :   1.5992
B(  3-P ,  5-O ) :   1.1057 B(  3-P ,  8-S ) :   0.9714 B(  4-S ,  8-S ) :   0.1100
B(  5-O ,  6-C ) :   0.9066 B(  6-C ,  7-C ) :   1.1669 B(  6-C , 24-H ) :   0.9337
B(  6-C , 25-H ) :   0.9150 B(  7-C , 26-H ) :   0.9353 B(  7-C , 27-H ) :   0.9445
B(  7-C , 28-H ) :   0.9378 B(  8-S ,  9-C ) :   0.9798 B(  9-C , 10-S ) :   1.0032
B(  9-C , 29-H ) :   0.9014 B(  9-C , 30-H ) :   0.9053 B( 10-S , 11-P ) :   0.9646
B( 11-P , 12-S ) :   1.6408 B( 11-P , 13-O ) :   1.0990 B( 11-P , 16-O ) :   1.0909
B( 13-O , 14-C ) :   0.9118 B( 14-C , 15-C ) :   1.1671 B( 14-C , 31-H ) :   0.9239
B( 14-C , 32-H ) :   0.9354 B( 15-C , 33-H ) :   0.9373 B( 15-C , 34-H ) :   0.9454
B( 15-C , 35-H ) :   0.9321 B( 16-O , 17-C ) :   0.8995 B( 17-C , 18-C ) :   1.1565
B( 17-C , 36-H ) :   0.9039 B( 17-C , 37-H ) :   0.9191 B( 18-C , 38-H ) :   0.9417
B( 18-C , 39-H ) :   0.9482 B( 18-C , 40-H ) :   0.9452

Dispersion correction           -0.068362037
FINAL SINGLE POINT ENERGY     -2929.520636515517

DIPOLE MOMENT
-------------

Method             : SCF
Type of density    : Electron Density
Multiplicity       :   1
Irrep              :   0
Energy             : -2929.6390088920556991 Eh
Relativity type    :
Basis              : AO
                                X                 Y                 Z
Electronic contribution:      6.804099495      15.400974647       3.486771809
Nuclear contribution   :     -7.508405844     -16.793464133      -2.753416520
                        -----------------------------------------
Total Dipole Moment    :     -0.704306349      -1.392489486       0.733355289
                        -----------------------------------------
Magnitude (a.u.)       :      1.724205435
Magnitude (Debye)      :      4.382581926

Rotational constants in cm-1:             0.013303             0.005214             0.005077
Rotational constants in MHz :           398.820737           156.317691           152.213341

                             ****ORCA TERMINATED NORMALLY****
TOTAL RUN TIME: 0 days 0 hours 0 minutes 21 seconds 531 msec
