                         Program Version 6.0.0  -   RELEASE  -
|  1> ! pbe def2-sv(p) def2/J RI DEFGRID1 loosescf d4 GCP(DFT/SV(P)) printgap
|  2> %output
|  3>     printlevel normal
|  4> end
|  5> * xyz 0 1
|  6> C 3.5785675523 -0.7315134895 -2.6557205728
|  7> C 2.1442398853 -0.2907567714 -2.4606753909
|  8> O 1.5501199649 -0.9114037469 -1.3042226079
|  9> P 2.0540842071 -0.6073620661 0.164439733
| 10> S 2.7956125352 1.1758420804 0.524407727
| 11> O 3.0404551561 -1.8389591116 0.3701499993
| 12> C 3.7372971025 -2.0803800435 1.6074702279
| 13> C 5.1145200352 -1.4453496094 1.5917436156
| 14> S 0.402468531 -1.183955302 1.3435508283
| 15> C -0.1728064197 0.4413613403 1.9613199105
| 16> S -1.9531704755 0.65257516 1.8003675587
| 17> P -2.1135351376 1.0197745934 -0.2963436948
| 18> S -0.4565720925 1.635672806 -1.14235186
| 19> O -3.2668886897 2.070817427 -0.4655380794
| 20> C -4.6872698739 1.7982745374 -0.3463909462
| 21> C -5.0692657528 1.2972960529 1.0291104094
| 22> O -2.7654537312 -0.2873683781 -0.9317036424
| 23> C -2.0345465429 -1.5023846202 -1.1749536723
| 24> C -2.7746693507 -2.282587703 -2.2425465096
| 25> H 4.186325371 -0.3787874956 -1.8229949702
| 26> H 3.6336554275 -1.8161348475 -2.697955779
| 27> H 3.9632732005 -0.3088421771 -3.5784655883
| 28> H 1.5027447515 -0.6056592749 -3.2849036115
| 29> H 2.0743669608 0.7960373483 -2.3429184362
| 30> H 3.1389324617 -1.6981176122 2.4398241398
| 31> H 3.8015706379 -3.1679288487 1.6761704021
| 32> H 5.0296142437 -0.3640395904 1.5080670678
| 33> H 5.6311653078 -1.6891556516 2.5143387065
| 34> H 5.6887104634 -1.8186629075 0.7484479874
| 35> H 0.3547702139 1.2257149226 1.4120733647
| 36> H 0.0382070796 0.496059031 3.0261427084
| 37> H -5.140362003 2.766665891 -0.5634995806
| 38> H -4.9599033869 1.0768228106 -1.1182156336
| 39> H -6.1496041758 1.2055888026 1.0847676913
| 40> H -4.6213449311 0.3232559228 1.2165784284
| 41> H -4.728358337 1.9895645134 1.7946257308
| 42> H -1.0185055801 -1.2494494595 -1.4971324959
| 43> H -1.9786104148 -2.0629405426 -0.2371746912
| 44> H -2.8252211585 -1.7041145145 -3.1609834114
| 45> H -2.2465828638 -3.2111990597 -2.4322804549
| 46> H -3.7837112297 -2.504156992 -1.907678771
| 47> *
| 48>
| 49>                          ****END OF INPUT****

CARTESIAN COORDINATES (ANGSTROEM)
---------------------------------
  C      3.578568   -0.731513   -2.655721
  C      2.144240   -0.290757   -2.460675
  O      1.550120   -0.911404   -1.304223
  P      2.054084   -0.607362    0.164440
  S      2.795613    1.175842    0.524408
  O      3.040455   -1.838959    0.370150
  C      3.737297   -2.080380    1.607470
  C      5.114520   -1.445350    1.591744
  S      0.402469   -1.183955    1.343551
  C     -0.172806    0.441361    1.961320
  S     -1.953170    0.652575    1.800368
  P     -2.113535    1.019775   -0.296344
  S     -0.456572    1.635673   -1.142352
  O     -3.266889    2.070817   -0.465538
  C     -4.687270    1.798275   -0.346391
  C     -5.069266    1.297296    1.029110
  O     -2.765454   -0.287368   -0.931704
  C     -2.034547   -1.502385   -1.174954
  C     -2.774669   -2.282588   -2.242547
  H      4.186325   -0.378787   -1.822995
  H      3.633655   -1.816135   -2.697956
  H      3.963273   -0.308842   -3.578466
  H      1.502745   -0.605659   -3.284904
  H      2.074367    0.796037   -2.342918
  H      3.138932   -1.698118    2.439824
  H      3.801571   -3.167929    1.676170
  H      5.029614   -0.364040    1.508067
  H      5.631165   -1.689156    2.514339
  H      5.688710   -1.818663    0.748448
  H      0.354770    1.225715    1.412073
  H      0.038207    0.496059    3.026143
  H     -5.140362    2.766666   -0.563500
  H     -4.959903    1.076823   -1.118216
  H     -6.149604    1.205589    1.084768
  H     -4.621345    0.323256    1.216578
  H     -4.728358    1.989565    1.794626
  H     -1.018506   -1.249449   -1.497132
  H     -1.978610   -2.062941   -0.237175
  H     -2.825221   -1.704115   -3.160983
  H     -2.246583   -3.211199   -2.432280
  H     -3.783711   -2.504157   -1.907679

 Total Charge           Charge          ....    0
 Multiplicity           Mult            ....    1
 Number of Electrons    NEL             ....  202
 Basis Dimension        Dim             ....  334

ORBITAL ENERGIES
----------------

  NO   OCC          E(Eh)            E(eV)
   0   2.0000     -88.042351     -2395.7542
   1   2.0000     -88.041258     -2395.7244
   2   2.0000     -87.985051     -2394.1949
   3   2.0000     -87.978783     -2394.0244
   4   2.0000     -76.424562     -2079.6181
   5   2.0000     -76.423800     -2079.5973
   6   2.0000     -18.793026      -511.3842
   7   2.0000     -18.789928      -511.2999
   8   2.0000     -18.789015      -511.2751
   9   2.0000     -18.786349      -511.2025
  10   2.0000      -9.959323      -271.0070
  11   2.0000      -9.952488      -270.8210
  12   2.0000      -9.951630      -270.7976
  13   2.0000      -9.945954      -270.6432
  14   2.0000      -9.945736      -270.6372
  15   2.0000      -9.892913      -269.1999
  16   2.0000      -9.885588      -269.0005
  17   2.0000      -9.879567      -268.8367
  18   2.0000      -9.879013      -268.8216
  19   2.0000      -7.687327      -209.1828
  20   2.0000      -7.686183      -209.1517
  21   2.0000      -7.629922      -207.6207
  22   2.0000      -7.623676      -207.4508
  23   2.0000      -6.421880      -174.7482
  24   2.0000      -6.421230      -174.7306
  25   2.0000      -5.715365      -155.5230
  26   2.0000      -5.713986      -155.4855
  27   2.0000      -5.711539      -155.4189
  28   2.0000      -5.710677      -155.3954
  29   2.0000      -5.704505      -155.2275
  30   2.0000      -5.703226      -155.1927
  31   2.0000      -5.658801      -153.9838
  32   2.0000      -5.652693      -153.8176
  33   2.0000      -5.650636      -153.7616
  34   2.0000      -5.650033      -153.7452
  35   2.0000      -5.644059      -153.5826
  36   2.0000      -5.643955      -153.5798
  37   2.0000      -4.644162      -126.3741
  38   2.0000      -4.644158      -126.3740
  39   2.0000      -4.643637      -126.3598
  40   2.0000      -4.642858      -126.3386
  41   2.0000      -4.642660      -126.3332
  42   2.0000      -4.641487      -126.3013
  43   2.0000      -0.987613       -26.8743
  44   2.0000      -0.984289       -26.7839
  45   2.0000      -0.942782       -25.6544
  46   2.0000      -0.941739       -25.6260
  47   2.0000      -0.759528       -20.6678
  48   2.0000      -0.721190       -19.6246
  49   2.0000      -0.709801       -19.3147
  50   2.0000      -0.692766       -18.8511
  51   2.0000      -0.683092       -18.5879
  52   2.0000      -0.673684       -18.3319
  53   2.0000      -0.649339       -17.6694
  54   2.0000      -0.632783       -17.2189
  55   2.0000      -0.597807       -16.2671
  56   2.0000      -0.590213       -16.0605
  57   2.0000      -0.572551       -15.5799
  58   2.0000      -0.566897       -15.4261
  59   2.0000      -0.560542       -15.2531
  60   2.0000      -0.504291       -13.7224
  61   2.0000      -0.494411       -13.4536
  62   2.0000      -0.475594       -12.9416
  63   2.0000      -0.470622       -12.8063
  64   2.0000      -0.447894       -12.1878
  65   2.0000      -0.445463       -12.1217
  66   2.0000      -0.444049       -12.0832
  67   2.0000      -0.436439       -11.8761
  68   2.0000      -0.427743       -11.6395
  69   2.0000      -0.415747       -11.3131
  70   2.0000      -0.410113       -11.1597
  71   2.0000      -0.399010       -10.8576
  72   2.0000      -0.392705       -10.6861
  73   2.0000      -0.386888       -10.5278
  74   2.0000      -0.379782       -10.3344
  75   2.0000      -0.369657       -10.0589
  76   2.0000      -0.366360        -9.9692
  77   2.0000      -0.358550        -9.7566
  78   2.0000      -0.354718        -9.6524
  79   2.0000      -0.349843        -9.5197
  80   2.0000      -0.345005        -9.3881
  81   2.0000      -0.343913        -9.3583
  82   2.0000      -0.337372        -9.1804
  83   2.0000      -0.336588        -9.1590
  84   2.0000      -0.331340        -9.0162
  85   2.0000      -0.313376        -8.5274
  86   2.0000      -0.310341        -8.4448
  87   2.0000      -0.299617        -8.1530
  88   2.0000      -0.294290        -8.0080
  89   2.0000      -0.293384        -7.9834
  90   2.0000      -0.282859        -7.6970
  91   2.0000      -0.274147        -7.4599
  92   2.0000      -0.270634        -7.3643
  93   2.0000      -0.262425        -7.1410
  94   2.0000      -0.254712        -6.9311
  95   2.0000      -0.236123        -6.4252
  96   2.0000      -0.218984        -5.9589
  97   2.0000      -0.210671        -5.7326
  98   2.0000      -0.200521        -5.4565
  99   2.0000      -0.195693        -5.3251
 100   2.0000      -0.186580        -5.0771
 101   0.0000      -0.038511        -1.0479
 102   0.0000      -0.031652        -0.8613
 103   0.0000      -0.009985        -0.2717
 104   0.0000       0.009544         0.2597
 105   0.0000       0.016313         0.4439

MULLIKEN ATOMIC CHARGES
-----------------------
   0 C :   -0.304277
   1 C :   -0.005274
   2 O :   -0.359035
   3 P :    0.615669
   4 S :   -0.316044
   5 O :   -0.371348
   6 C :   -0.006164
   7 C :   -0.294450
   8 S :   -0.110067
   9 C :   -0.336182
  10 S :   -0.127267
  11 P :    0.612532
  12 S :   -0.307855
  13 O :   -0.359754
  14 C :    0.007166
  15 C :   -0.338000
  16 O :   -0.389907
  17 C :   -0.038021
  18 C :   -0.272992
  19 H :    0.125544
  20 H :    0.113422
  21 H :    0.111157
  22 H :    0.102111
  23 H :    0.124808
  24 H :    0.095888
  25 H :    0.105492
  26 H :    0.129202
  27 H :    0.106441
  28 H :    0.113170
  29 H :    0.215445
  30 H :    0.179053
  31 H :    0.112947
  32 H :    0.112170
  33 H :    0.119432
  34 H :    0.132207
  35 H :    0.131580
  36 H :    0.128778
  37 H :    0.105948
  38 H :    0.115540
  39 H :    0.111566
  40 H :    0.109370
Sum of atomic charges:   -0.0000000

LOEWDIN ATOMIC CHARGES
----------------------
   0 C :   -0.366786
   1 C :   -0.117061
   2 O :   -0.233880
   3 P :    0.571613
   4 S :   -0.303866
   5 O :   -0.246307
   6 C :   -0.117210
   7 C :   -0.364686
   8 S :    0.077146
   9 C :   -0.480037
  10 S :    0.069285
  11 P :    0.564389
  12 S :   -0.293161
  13 O :   -0.234541
  14 C :   -0.107349
  15 C :   -0.373511
  16 O :   -0.252693
  17 C :   -0.126725
  18 C :   -0.350978
  19 H :    0.121946
  20 H :    0.124844
  21 H :    0.130370
  22 H :    0.117339
  23 H :    0.111304
  24 H :    0.104157
  25 H :    0.117988
  26 H :    0.123936
  27 H :    0.128141
  28 H :    0.124824
  29 H :    0.126738
  30 H :    0.135439
  31 H :    0.123902
  32 H :    0.115897
  33 H :    0.134781
  34 H :    0.119178
  35 H :    0.129416
  36 H :    0.110668
  37 H :    0.105092
  38 H :    0.126518
  39 H :    0.130801
  40 H :    0.123076

  Mayer bond orders larger than 0.100000
B(  0-C ,  1-C ) :   1.1627 B(  0-C , 19-H ) :   0.9325 B(  0-C , 20-H ) :   0.9449
B(  0-C , 21-H ) :   0.9385 B(  1-C ,  2-O ) :   0.8975 B(  1-C , 22-H ) :   0.9348
B(  1-C , 23-H ) :   0.9151 B(  2-O ,  3-P ) :   1.1290 B(  3-P ,  4-S ) :   1.6025
B(  3-P ,  5-O ) :   1.1008 B(  3-P ,  8-S ) :   0.9631 B(  4-S ,  8-S ) :   0.1178
B(  5-O ,  6-C ) :   0.9096 B(  6-C ,  7-C ) :   1.1664 B(  6-C , 24-H ) :   0.9130
B(  6-C , 25-H ) :   0.9366 B(  7-C , 26-H ) :   0.9304 B(  7-C , 27-H ) :   0.9397
B(  7-C , 28-H ) :   0.9463 B(  8-S ,  9-C ) :   0.9804 B(  9-C , 10-S ) :   1.0165
B(  9-C , 29-H ) :   0.8444 B(  9-C , 30-H ) :   0.9089 B( 10-S , 11-P ) :   0.9266
B( 10-S , 12-S ) :   0.1105 B( 11-P , 12-S ) :   1.6686 B( 11-P , 13-O ) :   1.1501
B( 11-P , 16-O ) :   1.0672 B( 13-O , 14-C ) :   0.8961 B( 14-C , 15-C ) :   1.1708
B( 14-C , 31-H ) :   0.9338 B( 14-C , 32-H ) :   0.9271 B( 15-C , 33-H ) :   0.9349
B( 15-C , 34-H ) :   0.9309 B( 15-C , 35-H ) :   0.9411 B( 16-O , 17-C ) :   0.8995
B( 17-C , 18-C ) :   1.1550 B( 17-C , 36-H ) :   0.9038 B( 17-C , 37-H ) :   0.9238
B( 18-C , 38-H ) :   0.9504 B( 18-C , 39-H ) :   0.9425 B( 18-C , 40-H ) :   0.9507

Dispersion correction           -0.065780491
FINAL SINGLE POINT ENERGY     -2929.519616439234

DIPOLE MOMENT
-------------

Method             : SCF
Type of density    : Electron Density
Multiplicity       :   1
Irrep              :   0
Energy             : -2929.6391906214680603 Eh
Relativity type    :
Basis              : AO
                                X                 Y                 Z
Electronic contribution:     -2.266843980      11.090289041       6.869627956
Nuclear contribution   :      1.501701773     -12.363110302      -6.766362062
                        -----------------------------------------
Total Dipole Moment    :     -0.765142207      -1.272821262       0.103265894
                        -----------------------------------------
Magnitude (a.u.)       :      1.488684119
Magnitude (Debye)      :      3.783934316

Rotational constants in cm-1:             0.013886             0.004761             0.004472
Rotational constants in MHz :           416.304783           142.721999           134.060031

                             ****ORCA TERMINATED NORMALLY****
TOTAL RUN TIME: 0 days 0 hours 0 minutes 20 seconds 694 msec
