                         Program Version 6.0.1  -  RELEASE   -
|  1> ! pbe def2-sv(p) def2/J RI DEFGRID1 loosescf d4 GCP(DFT/SV(P)) printgap
|  2> %output
|  3>     printlevel normal
|  4> end
|  5> * xyz 0 1
|  6> C 3.0259387497 -3.61149852 0.9574934027
|  7> C 3.0681220864 -2.0955686999 1.0237335598
|  8> O 2.6544167434 -1.5653874045 -0.2512100771
|  9> C 1.7414963623 -0.6359741468 -0.3037204852
| 10> O 1.2353474278 -0.0853788638 0.6628719189
| 11> C 1.3858898577 -0.2489478923 -1.7219372752
| 12> C 0.4607863725 0.9593362718 -1.6837003158
| 13> H 0.4201604086 1.4363033307 -2.6675466271
| 14> C 0.9988643178 1.983929399 -0.6906580157
| 15> O 2.176969476 2.2667076785 -0.653476203
| 16> O 0.0640688302 2.5458743586 0.0400241032
| 17> C 0.46549357 3.581652496 0.9600335721
| 18> C 0.5643596461 4.9244793824 0.2549298564
| 19> S -1.2879590206 0.5505778174 -1.3719568571
| 20> P -1.4378336967 -0.8159065653 0.2518283003
| 21> S -0.5417859177 -2.5564789582 0.1641808738
| 22> O -1.2957182744 -0.0646689794 1.6350791098
| 23> C -2.1371104184 1.0513008789 1.9832406097
| 24> O -3.0326111192 -0.985834182 0.2058480184
| 25> C -3.6797640054 -1.7462729396 -0.8189472946
| 26> H 2.0068358814 -3.9450396127 0.7745660955
| 27> H 3.6619378836 -3.9645385122 0.1518627193
| 28> H 3.3723990867 -4.0207291872 1.9004025416
| 29> H 4.0834000971 -1.7302201718 1.1970464598
| 30> H 2.3992709492 -1.7062264626 1.7969041906
| 31> H 0.9228676376 -1.0999590515 -2.2244027201
| 32> H 2.311214893 -0.0004765674 -2.2441871814
| 33> H -0.3128928537 3.5880862495 1.722728165
| 34> H 1.4248699643 3.2954963969 1.4000656771
| 35> H -0.3776871941 5.1613130064 -0.2318188706
| 36> H 0.7948342768 5.6929415121 0.9852505071
| 37> H 1.355002256 4.8983107153 -0.4913421163
| 38> H -1.712029255 1.4468812241 2.9021607312
| 39> H -3.1564527396 0.704626276 2.1432723533
| 40> H -2.11479536 1.7978908732 1.1895919693
| 41> H -4.6823751152 -1.9440933057 -0.4484169923
| 42> H -3.1442063635 -2.6825203191 -0.9850618995
| 43> H -3.7157958677 -1.1674270617 -1.7407587685
| 44> *
| 45>
| 46>                          ****END OF INPUT****

CARTESIAN COORDINATES (ANGSTROEM)
---------------------------------
  C      3.025939   -3.611499    0.957493
  C      3.068122   -2.095569    1.023734
  O      2.654417   -1.565387   -0.251210
  C      1.741496   -0.635974   -0.303720
  O      1.235347   -0.085379    0.662872
  C      1.385890   -0.248948   -1.721937
  C      0.460786    0.959336   -1.683700
  H      0.420160    1.436303   -2.667547
  C      0.998864    1.983929   -0.690658
  O      2.176969    2.266708   -0.653476
  O      0.064069    2.545874    0.040024
  C      0.465494    3.581652    0.960034
  C      0.564360    4.924479    0.254930
  S     -1.287959    0.550578   -1.371957
  P     -1.437834   -0.815907    0.251828
  S     -0.541786   -2.556479    0.164181
  O     -1.295718   -0.064669    1.635079
  C     -2.137110    1.051301    1.983241
  O     -3.032611   -0.985834    0.205848
  C     -3.679764   -1.746273   -0.818947
  H      2.006836   -3.945040    0.774566
  H      3.661938   -3.964539    0.151863
  H      3.372399   -4.020729    1.900403
  H      4.083400   -1.730220    1.197046
  H      2.399271   -1.706226    1.796904
  H      0.922868   -1.099959   -2.224403
  H      2.311215   -0.000477   -2.244187
  H     -0.312893    3.588086    1.722728
  H      1.424870    3.295496    1.400066
  H     -0.377687    5.161313   -0.231819
  H      0.794834    5.692942    0.985251
  H      1.355002    4.898311   -0.491342
  H     -1.712029    1.446881    2.902161
  H     -3.156453    0.704626    2.143272
  H     -2.114795    1.797891    1.189592
  H     -4.682375   -1.944093   -0.448417
  H     -3.144206   -2.682520   -0.985062
  H     -3.715796   -1.167427   -1.740759

 Total Charge           Charge          ....    0
 Multiplicity           Mult            ....    1
 Number of Electrons    NEL             ....  174
 Basis Dimension        Dim             ....  316

ORBITAL ENERGIES
----------------

  NO   OCC          E(Eh)            E(eV)
   0   2.0000     -88.035056     -2395.5557
   1   2.0000     -87.976203     -2393.9542
   2   2.0000     -76.422824     -2079.5708
   3   2.0000     -18.805466      -511.7227
   4   2.0000     -18.801074      -511.6032
   5   2.0000     -18.787640      -511.2377
   6   2.0000     -18.785412      -511.1770
   7   2.0000     -18.737823      -509.8821
   8   2.0000     -18.733502      -509.7645
   9   2.0000     -10.014413      -272.5060
  10   2.0000     -10.011727      -272.4330
  11   2.0000      -9.949311      -270.7345
  12   2.0000      -9.949169      -270.7306
  13   2.0000      -9.942142      -270.5394
  14   2.0000      -9.940142      -270.4850
  15   2.0000      -9.940078      -270.4833
  16   2.0000      -9.909091      -269.6401
  17   2.0000      -9.888097      -269.0688
  18   2.0000      -9.877971      -268.7933
  19   2.0000      -7.679763      -208.9770
  20   2.0000      -7.621470      -207.3907
  21   2.0000      -6.419274      -174.6773
  22   2.0000      -5.707902      -155.3199
  23   2.0000      -5.704041      -155.2148
  24   2.0000      -5.696710      -155.0154
  25   2.0000      -5.650607      -153.7608
  26   2.0000      -5.641802      -153.5212
  27   2.0000      -5.641566      -153.5148
  28   2.0000      -4.642357      -126.3250
  29   2.0000      -4.641244      -126.2947
  30   2.0000      -4.639344      -126.2430
  31   2.0000      -1.014340       -27.6016
  32   2.0000      -1.008768       -27.4500
  33   2.0000      -0.981442       -26.7064
  34   2.0000      -0.936157       -25.4741
  35   2.0000      -0.919487       -25.0205
  36   2.0000      -0.911590       -24.8056
  37   2.0000      -0.761171       -20.7125
  38   2.0000      -0.710339       -19.3293
  39   2.0000      -0.701394       -19.0859
  40   2.0000      -0.690232       -18.7822
  41   2.0000      -0.654763       -17.8170
  42   2.0000      -0.632988       -17.2245
  43   2.0000      -0.622473       -16.9383
  44   2.0000      -0.610276       -16.6064
  45   2.0000      -0.592818       -16.1314
  46   2.0000      -0.561844       -15.2886
  47   2.0000      -0.512863       -13.9557
  48   2.0000      -0.502398       -13.6709
  49   2.0000      -0.499798       -13.6002
  50   2.0000      -0.480608       -13.0780
  51   2.0000      -0.471276       -12.8241
  52   2.0000      -0.448282       -12.1984
  53   2.0000      -0.443591       -12.0707
  54   2.0000      -0.436065       -11.8659
  55   2.0000      -0.429666       -11.6918
  56   2.0000      -0.427393       -11.6300
  57   2.0000      -0.414886       -11.2896
  58   2.0000      -0.410040       -11.1577
  59   2.0000      -0.408379       -11.1126
  60   2.0000      -0.401233       -10.9181
  61   2.0000      -0.395293       -10.7565
  62   2.0000      -0.389344       -10.5946
  63   2.0000      -0.386265       -10.5108
  64   2.0000      -0.376286       -10.2393
  65   2.0000      -0.360164        -9.8006
  66   2.0000      -0.355353        -9.6696
  67   2.0000      -0.348301        -9.4777
  68   2.0000      -0.342387        -9.3168
  69   2.0000      -0.335750        -9.1362
  70   2.0000      -0.331899        -9.0314
  71   2.0000      -0.325020        -8.8442
  72   2.0000      -0.315267        -8.5789
  73   2.0000      -0.314378        -8.5546
  74   2.0000      -0.298732        -8.1289
  75   2.0000      -0.296313        -8.0631
  76   2.0000      -0.292057        -7.9473
  77   2.0000      -0.288019        -7.8374
  78   2.0000      -0.263859        -7.1800
  79   2.0000      -0.260106        -7.0778
  80   2.0000      -0.257153        -6.9975
  81   2.0000      -0.249731        -6.7955
  82   2.0000      -0.242368        -6.5952
  83   2.0000      -0.227321        -6.1857
  84   2.0000      -0.211971        -5.7680
  85   2.0000      -0.193386        -5.2623
  86   2.0000      -0.189301        -5.1512
  87   0.0000      -0.038892        -1.0583
  88   0.0000      -0.022485        -0.6119
  89   0.0000      -0.015231        -0.4145
  90   0.0000      -0.005196        -0.1414
  91   0.0000       0.029198         0.7945

MULLIKEN ATOMIC CHARGES
-----------------------
   0 C :   -0.291357
   1 C :   -0.020497
   2 O :   -0.212112
   3 C :    0.130631
   4 O :   -0.217868
   5 C :   -0.081524
   6 C :   -0.287787
   7 H :    0.145416
   8 C :    0.207658
   9 O :   -0.211592
  10 O :   -0.214599
  11 C :   -0.010194
  12 C :   -0.304733
  13 S :   -0.102647
  14 P :    0.631264
  15 S :   -0.338641
  16 O :   -0.352534
  17 C :   -0.115980
  18 O :   -0.398164
  19 C :   -0.102509
  20 H :    0.131060
  21 H :    0.109347
  22 H :    0.108248
  23 H :    0.104266
  24 H :    0.122862
  25 H :    0.137674
  26 H :    0.128545
  27 H :    0.096821
  28 H :    0.116336
  29 H :    0.112417
  30 H :    0.113200
  31 H :    0.128180
  32 H :    0.127377
  33 H :    0.121752
  34 H :    0.132790
  35 H :    0.121858
  36 H :    0.118461
  37 H :    0.116578
Sum of atomic charges:    0.0000000

LOEWDIN ATOMIC CHARGES
----------------------
   0 C :   -0.353246
   1 C :   -0.106923
   2 O :   -0.036444
   3 C :    0.027770
   4 O :   -0.170213
   5 C :   -0.252841
   6 C :   -0.262934
   7 H :    0.151846
   8 C :    0.016921
   9 O :   -0.173694
  10 O :   -0.049286
  11 C :   -0.105895
  12 C :   -0.356693
  13 S :    0.094455
  14 P :    0.579604
  15 S :   -0.311328
  16 O :   -0.228995
  17 C :   -0.211459
  18 O :   -0.262765
  19 C :   -0.218294
  20 H :    0.126790
  21 H :    0.123470
  22 H :    0.128810
  23 H :    0.116944
  24 H :    0.124261
  25 H :    0.146926
  26 H :    0.151494
  27 H :    0.113325
  28 H :    0.124379
  29 H :    0.124224
  30 H :    0.130863
  31 H :    0.130731
  32 H :    0.122173
  33 H :    0.114863
  34 H :    0.111576
  35 H :    0.120800
  36 H :    0.109912
  37 H :    0.108873

  Mayer bond orders larger than 0.100000
B(  0-C ,  1-C ) :   1.1710 B(  0-C , 20-H ) :   0.9416 B(  0-C , 21-H ) :   0.9487
B(  0-C , 22-H ) :   0.9438 B(  1-C ,  2-O ) :   0.8957 B(  1-C , 23-H ) :   0.9353
B(  1-C , 24-H ) :   0.9084 B(  2-O ,  3-C ) :   1.2830 B(  3-C ,  4-O ) :   1.9096
B(  3-C ,  5-C ) :   1.0036 B(  5-C ,  6-C ) :   1.0410 B(  5-C , 25-H ) :   0.8861
B(  5-C , 26-H ) :   0.8758 B(  6-C ,  7-H ) :   0.8674 B(  6-C ,  8-C ) :   0.8691
B(  6-C , 13-S ) :   1.0280 B(  8-C ,  9-O ) :   2.0345 B(  8-C , 10-O ) :   1.2677
B( 10-O , 11-C ) :   0.9126 B( 11-C , 12-C ) :   1.1751 B( 11-C , 27-H ) :   0.9323
B( 11-C , 28-H ) :   0.9160 B( 12-C , 29-H ) :   0.9483 B( 12-C , 30-H ) :   0.9443
B( 12-C , 31-H ) :   0.9445 B( 13-S , 14-P ) :   0.9809 B( 13-S , 15-S ) :   0.1146
B( 14-P , 15-S ) :   1.6029 B( 14-P , 16-O ) :   1.1303 B( 14-P , 18-O ) :   1.0393
B( 16-O , 17-C ) :   0.9220 B( 17-C , 32-H ) :   0.9560 B( 17-C , 33-H ) :   0.9449
B( 17-C , 34-H ) :   0.9286 B( 18-O , 19-C ) :   0.9348 B( 19-C , 35-H ) :   0.9585
B( 19-C , 36-H ) :   0.9304 B( 19-C , 37-H ) :   0.9493

Dispersion correction           -0.054912883
FINAL SINGLE POINT ENERGY     -1979.011085999824

DIPOLE MOMENT
-------------

Method             : SCF
Type of density    : Electron Density
Multiplicity       :   1
Irrep              :   0
Energy             : -1979.1406712660846097 Eh
Relativity type    :
Basis              : AO
                                X                 Y                 Z
Electronic contribution:     -5.194745101      -5.419700133      -4.710556432
Nuclear contribution   :      4.682275096       6.222802737       4.647344789
                        -----------------------------------------
Total Dipole Moment    :     -0.512470005       0.803102605      -0.063211643
                        -----------------------------------------
Magnitude (a.u.)       :      0.954774848
Magnitude (Debye)      :      2.426844800

Rotational constants in cm-1:             0.011252             0.009511             0.006494
Rotational constants in MHz :           337.330888           285.133207           194.676845

                             ****ORCA TERMINATED NORMALLY****
TOTAL RUN TIME: 0 days 0 hours 0 minutes 53 seconds 915 msec
