                         Program Version 6.0.0  -   RELEASE  -
|  1> ! r2scan-3c def2/J RI DEFGRID2 scfconv6 printgap
|  2> %output
|  3>     printlevel normal
|  4> end
|  5> * xyz 0 1
|  6> C -0.6841304653 -1.1991409441 0.3353761501
|  7> C 0.6855397229 -1.1984919157 -0.3353420125
|  8> C 1.4840065375 0.0201697026 0.1213028867
|  9> C 0.6583124039 1.2686556314 0.0549814117
| 10> C -0.6597568964 1.2679081866 -0.0550084662
| 11> C -1.4840607896 0.0185084261 -0.1213492534
| 12> H -0.5519878188 -1.1604039559 1.4186907774
| 13> H -1.2268675528 -2.1146132488 0.0931671991
| 14> H 1.2292872157 -2.1132966191 -0.0928570459
| 15> H 0.5533447834 -1.1601479621 -1.4186800185
| 16> H 1.8239764815 -0.1230564921 1.1526486356
| 17> H 2.3772415478 0.1405274479 -0.4966295274
| 18> H 1.2029455315 2.2016491785 0.1128495167
| 19> H -1.2054545258 2.20026889 -0.1125825278
| 20> H -2.3775129651 0.1378199329 0.4963564009
| 21> H -1.8239063594 -0.1251571254 -1.1524953013
| 22> *
| 23>
| 24>                          ****END OF INPUT****

CARTESIAN COORDINATES (ANGSTROEM)
---------------------------------
  C     -0.684130   -1.199141    0.335376
  C      0.685540   -1.198492   -0.335342
  C      1.484007    0.020170    0.121303
  C      0.658312    1.268656    0.054981
  C     -0.659757    1.267908   -0.055008
  C     -1.484061    0.018508   -0.121349
  H     -0.551988   -1.160404    1.418691
  H     -1.226868   -2.114613    0.093167
  H      1.229287   -2.113297   -0.092857
  H      0.553345   -1.160148   -1.418680
  H      1.823976   -0.123056    1.152649
  H      2.377242    0.140527   -0.496630
  H      1.202946    2.201649    0.112850
  H     -1.205455    2.200269   -0.112583
  H     -2.377513    0.137820    0.496356
  H     -1.823906   -0.125157   -1.152495

 Total Charge           Charge          ....    0
 Multiplicity           Mult            ....    1
 Number of Electrons    NEL             ....   46
 Basis Dimension        Dim             ....  164

ORBITAL ENERGIES
----------------

  NO   OCC          E(Eh)            E(eV)
   0   2.0000     -10.026015      -272.8217
   1   2.0000     -10.025990      -272.8211
   2   2.0000     -10.022625      -272.7295
   3   2.0000     -10.022486      -272.7257
   4   2.0000     -10.020178      -272.6629
   5   2.0000     -10.019376      -272.6411
   6   2.0000      -0.799659       -21.7598
   7   2.0000      -0.706942       -19.2369
   8   2.0000      -0.705467       -19.1967
   9   2.0000      -0.583119       -15.8675
  10   2.0000      -0.563800       -15.3418
  11   2.0000      -0.478470       -13.0198
  12   2.0000      -0.460636       -12.5345
  13   2.0000      -0.412402       -11.2220
  14   2.0000      -0.395480       -10.7616
  15   2.0000      -0.375453       -10.2166
  16   2.0000      -0.355231        -9.6663
  17   2.0000      -0.349194        -9.5021
  18   2.0000      -0.345621        -9.4048
  19   2.0000      -0.297805        -8.1037
  20   2.0000      -0.282833        -7.6963
  21   2.0000      -0.269755        -7.3404
  22   2.0000      -0.217178        -5.9097
  23   0.0000       0.000502         0.0137
  24   0.0000       0.089001         2.4218
  25   0.0000       0.123333         3.3561
  26   0.0000       0.126094         3.4312
  27   0.0000       0.130251         3.5443

MULLIKEN ATOMIC CHARGES
-----------------------
   0 C :   -0.294984
   1 C :   -0.294967
   2 C :   -0.271355
   3 C :   -0.180177
   4 C :   -0.180130
   5 C :   -0.271367
   6 H :    0.149662
   7 H :    0.150842
   8 H :    0.150847
   9 H :    0.149657
  10 H :    0.149026
  11 H :    0.146464
  12 H :    0.150494
  13 H :    0.150492
  14 H :    0.146459
  15 H :    0.149037
Sum of atomic charges:   -0.0000000

LOEWDIN ATOMIC CHARGES
----------------------
   0 C :   -0.298744
   1 C :   -0.298751
   2 C :   -0.296427
   3 C :   -0.200832
   4 C :   -0.200816
   5 C :   -0.296418
   6 H :    0.157756
   7 H :    0.154214
   8 H :    0.154224
   9 H :    0.157758
  10 H :    0.162958
  11 H :    0.159855
  12 H :    0.161227
  13 H :    0.161220
  14 H :    0.159844
  15 H :    0.162933

  Mayer bond orders larger than 0.100000
B(  0-C ,  1-C ) :   0.8635 B(  0-C ,  5-C ) :   0.9236 B(  0-C ,  6-H ) :   0.9947
B(  0-C ,  7-H ) :   0.9687 B(  1-C ,  2-C ) :   0.9236 B(  1-C ,  8-H ) :   0.9687
B(  1-C ,  9-H ) :   0.9947 B(  2-C ,  3-C ) :   0.9407 B(  2-C , 10-H ) :   0.9621
B(  2-C , 11-H ) :   0.9674 B(  3-C ,  4-C ) :   1.9318 B(  3-C , 12-H ) :   0.9324
B(  4-C ,  5-C ) :   0.9407 B(  4-C , 13-H ) :   0.9324 B(  5-C , 14-H ) :   0.9674
B(  5-C , 15-H ) :   0.9621

Dispersion correction           -0.004270512
FINAL SINGLE POINT ENERGY      -234.565855012936

DIPOLE MOMENT
-------------

Method             : SCF
Type of density    : Electron Density
Multiplicity       :   1
Irrep              :   0
Energy             :  -234.5672836930773997 Eh
Relativity type    :
Basis              : AO
                                X                 Y                 Z
Electronic contribution:     -0.001006749       1.848716208      -0.000397009
Nuclear contribution   :      0.001000409      -1.985556942       0.000439167
                        -----------------------------------------
Total Dipole Moment    :     -0.000006340      -0.136840734       0.000042157
                        -----------------------------------------
Magnitude (a.u.)       :      0.136840741
Magnitude (Debye)      :      0.347821521

Rotational constants in cm-1:             0.160342             0.153686             0.086887
Rotational constants in MHz :          4806.932255          4607.387562          2604.815426

                             ****ORCA TERMINATED NORMALLY****
TOTAL RUN TIME: 0 days 0 hours 0 minutes 26 seconds 419 msec
