                         Program Version 6.0.0  -   RELEASE  -
|  1> ! r2scan-3c def2/J RI DEFGRID2 scfconv6 printgap
|  2> %output
|  3>     printlevel normal
|  4> end
|  5> %cpcm
|  6>     smd true
|  7>     smdsolvent "water"
|  8> end
|  9> * xyz 0 1
| 10> C -0.6841304653 -1.1991409441 0.3353761501
| 11> C 0.6855397229 -1.1984919157 -0.3353420125
| 12> C 1.4840065375 0.0201697026 0.1213028867
| 13> C 0.6583124039 1.2686556314 0.0549814117
| 14> C -0.6597568964 1.2679081866 -0.0550084662
| 15> C -1.4840607896 0.0185084261 -0.1213492534
| 16> H -0.5519878188 -1.1604039559 1.4186907774
| 17> H -1.2268675528 -2.1146132488 0.0931671991
| 18> H 1.2292872157 -2.1132966191 -0.0928570459
| 19> H 0.5533447834 -1.1601479621 -1.4186800185
| 20> H 1.8239764815 -0.1230564921 1.1526486356
| 21> H 2.3772415478 0.1405274479 -0.4966295274
| 22> H 1.2029455315 2.2016491785 0.1128495167
| 23> H -1.2054545258 2.20026889 -0.1125825278
| 24> H -2.3775129651 0.1378199329 0.4963564009
| 25> H -1.8239063594 -0.1251571254 -1.1524953013
| 26> *
| 27>
| 28>                          ****END OF INPUT****

CARTESIAN COORDINATES (ANGSTROEM)
---------------------------------
  C     -0.684130   -1.199141    0.335376
  C      0.685540   -1.198492   -0.335342
  C      1.484007    0.020170    0.121303
  C      0.658312    1.268656    0.054981
  C     -0.659757    1.267908   -0.055008
  C     -1.484061    0.018508   -0.121349
  H     -0.551988   -1.160404    1.418691
  H     -1.226868   -2.114613    0.093167
  H      1.229287   -2.113297   -0.092857
  H      0.553345   -1.160148   -1.418680
  H      1.823976   -0.123056    1.152649
  H      2.377242    0.140527   -0.496630
  H      1.202946    2.201649    0.112850
  H     -1.205455    2.200269   -0.112583
  H     -2.377513    0.137820    0.496356
  H     -1.823906   -0.125157   -1.152495

 Total Charge           Charge          ....    0
 Multiplicity           Mult            ....    1
 Number of Electrons    NEL             ....   46
 Basis Dimension        Dim             ....  164

ORBITAL ENERGIES
----------------

  NO   OCC          E(Eh)            E(eV)
   0   2.0000     -10.019924      -272.6560
   1   2.0000     -10.019898      -272.6553
   2   2.0000     -10.018678      -272.6221
   3   2.0000     -10.017878      -272.6003
   4   2.0000     -10.015706      -272.5412
   5   2.0000     -10.015568      -272.5374
   6   2.0000      -0.795586       -21.6490
   7   2.0000      -0.702039       -19.1035
   8   2.0000      -0.701613       -19.0919
   9   2.0000      -0.578272       -15.7356
  10   2.0000      -0.558458       -15.1964
  11   2.0000      -0.473351       -12.8805
  12   2.0000      -0.456332       -12.4174
  13   2.0000      -0.406513       -11.0618
  14   2.0000      -0.389229       -10.5915
  15   2.0000      -0.371353       -10.1050
  16   2.0000      -0.350288        -9.5318
  17   2.0000      -0.343746        -9.3538
  18   2.0000      -0.340112        -9.2549
  19   2.0000      -0.290961        -7.9174
  20   2.0000      -0.276614        -7.5270
  21   2.0000      -0.264341        -7.1931
  22   2.0000      -0.217833        -5.9275
  23   0.0000       0.000595         0.0162
  24   0.0000       0.094245         2.5645
  25   0.0000       0.129403         3.5212
  26   0.0000       0.132528         3.6063
  27   0.0000       0.137477         3.7409

MULLIKEN ATOMIC CHARGES
-----------------------
   0 C :   -0.309409
   1 C :   -0.309387
   2 C :   -0.280621
   3 C :   -0.229595
   4 C :   -0.229570
   5 C :   -0.280613
   6 H :    0.158938
   7 H :    0.160926
   8 H :    0.160934
   9 H :    0.158938
  10 H :    0.164054
  11 H :    0.162228
  12 H :    0.173447
  13 H :    0.173445
  14 H :    0.162227
  15 H :    0.164060
Sum of atomic charges:    0.0000000

LOEWDIN ATOMIC CHARGES
----------------------
   0 C :   -0.301814
   1 C :   -0.301821
   2 C :   -0.300002
   3 C :   -0.214847
   4 C :   -0.214833
   5 C :   -0.299987
   6 H :    0.159485
   7 H :    0.157533
   8 H :    0.157545
   9 H :    0.159490
  10 H :    0.167856
  11 H :    0.164640
  12 H :    0.167150
  13 H :    0.167143
  14 H :    0.164632
  15 H :    0.167829

  Mayer bond orders larger than 0.100000
B(  0-C ,  1-C ) :   0.8500 B(  0-C ,  5-C ) :   0.9119 B(  0-C ,  6-H ) :   0.9960
B(  0-C ,  7-H ) :   0.9654 B(  1-C ,  2-C ) :   0.9119 B(  1-C ,  8-H ) :   0.9654
B(  1-C ,  9-H ) :   0.9960 B(  2-C ,  3-C ) :   0.9190 B(  2-C , 10-H ) :   0.9597
B(  2-C , 11-H ) :   0.9668 B(  3-C ,  4-C ) :   1.9044 B(  3-C , 12-H ) :   0.9382
B(  4-C ,  5-C ) :   0.9190 B(  4-C , 13-H ) :   0.9382 B(  5-C , 14-H ) :   0.9668
B(  5-C , 15-H ) :   0.9597

Dispersion correction           -0.004270512
FINAL SINGLE POINT ENERGY      -234.565708126695

DIPOLE MOMENT
-------------

Method             : SCF
Type of density    : Electron Density
Multiplicity       :   1
Irrep              :   0
Energy             :  -234.5671368068367428 Eh
Relativity type    :
Basis              : AO
                                X                 Y                 Z
Electronic contribution:     -0.001002671       1.782065233      -0.000368875
Nuclear contribution   :      0.001000409      -1.985556942       0.000439167
                        -----------------------------------------
Total Dipole Moment    :     -0.000002262      -0.203491709       0.000070291
                        -----------------------------------------
Magnitude (a.u.)       :      0.203491721
Magnitude (Debye)      :      0.517234849

Rotational constants in cm-1:             0.160342             0.153686             0.086887
Rotational constants in MHz :          4806.932255          4607.387562          2604.815426

                             ****ORCA TERMINATED NORMALLY****
TOTAL RUN TIME: 0 days 0 hours 0 minutes 38 seconds 383 msec
