                         Program Version 6.0.1  -  RELEASE   -
|  1> ! pbe def2-sv(p) def2/J RI DEFGRID1 loosescf d4 GCP(DFT/SV(P)) printgap
|  2> %output
|  3>     printlevel normal
|  4> end
|  5> * xyz 0 1
|  6> C 3.8617451267 -3.5659782722 0.2317864691
|  7> C 4.0072022059 -2.8603962217 -1.1068021784
|  8> O 2.7246668939 -2.4105605523 -1.5911451011
|  9> C 2.2793333799 -1.2387043672 -1.1969490856
| 10> O 2.8879825118 -0.4725387529 -0.4767533211
| 11> C 0.895956281 -0.9518685992 -1.7379155635
| 12> C 0.5032447121 0.4820019095 -1.404591933
| 13> H 0.9728343259 1.2105573252 -2.0658366855
| 14> C 0.8404266235 0.8149401175 0.033759489
| 15> O 0.4681411323 0.1100190671 0.954858212
| 16> O 1.4507035469 1.9593072683 0.1581374557
| 17> C 1.7822852703 2.4074272007 1.4896040349
| 18> C 2.1896078379 3.8642246904 1.4047834661
| 19> S -1.2974376481 0.7278616268 -1.5755925286
| 20> P -2.1110379199 0.1083942894 0.2830824315
| 21> S -2.0480523222 1.2552865002 1.8812210888
| 22> O -3.6311201682 -0.0775184888 -0.1923746455
| 23> C -4.5204243312 1.0292054444 -0.3641626637
| 24> O -1.7282668453 -1.4312245982 0.3902072116
| 25> C -1.5497327554 -2.0812000797 1.6571406728
| 26> H 3.1695301984 -4.3986695527 0.1437269514
| 27> H 4.8304581736 -3.9370831765 0.5494858557
| 28> H 3.4868344731 -2.8720923755 0.9815738963
| 29> H 4.3648261426 -3.5404246413 -1.8796667523
| 30> H 4.6699007746 -1.9949653425 -1.0197002736
| 31> H 0.2084033899 -1.6530072542 -1.2562696941
| 32> H 0.8624519307 -1.1325703013 -2.811455575
| 33> H 0.906640161 2.2605999828 2.1307495887
| 34> H 2.596399647 1.7744104992 1.8551247085
| 35> H 2.4635822386 4.2144883902 2.394170615
| 36> H 3.0370557281 3.9725525726 0.7348790108
| 37> H 1.3628943103 4.4606566567 1.0304918838
| 38> H -4.4029642177 1.7351040311 0.4606302809
| 39> H -5.5216027271 0.6056509159 -0.3617830299
| 40> H -4.314550644 1.5252246399 -1.3121425587
| 41> H -2.4580713472 -2.0093624766 2.2535770719
| 42> H -0.7177320748 -1.6186297053 2.1892609535
| 43> H -1.3271274584 -3.117731681 1.4174373162
| 44> *
| 45>
| 46>                          ****END OF INPUT****

CARTESIAN COORDINATES (ANGSTROEM)
---------------------------------
  C      3.861745   -3.565978    0.231786
  C      4.007202   -2.860396   -1.106802
  O      2.724667   -2.410561   -1.591145
  C      2.279333   -1.238704   -1.196949
  O      2.887983   -0.472539   -0.476753
  C      0.895956   -0.951869   -1.737916
  C      0.503245    0.482002   -1.404592
  H      0.972834    1.210557   -2.065837
  C      0.840427    0.814940    0.033759
  O      0.468141    0.110019    0.954858
  O      1.450704    1.959307    0.158137
  C      1.782285    2.407427    1.489604
  C      2.189608    3.864225    1.404783
  S     -1.297438    0.727862   -1.575593
  P     -2.111038    0.108394    0.283082
  S     -2.048052    1.255287    1.881221
  O     -3.631120   -0.077518   -0.192375
  C     -4.520424    1.029205   -0.364163
  O     -1.728267   -1.431225    0.390207
  C     -1.549733   -2.081200    1.657141
  H      3.169530   -4.398670    0.143727
  H      4.830458   -3.937083    0.549486
  H      3.486834   -2.872092    0.981574
  H      4.364826   -3.540425   -1.879667
  H      4.669901   -1.994965   -1.019700
  H      0.208403   -1.653007   -1.256270
  H      0.862452   -1.132570   -2.811456
  H      0.906640    2.260600    2.130750
  H      2.596400    1.774410    1.855125
  H      2.463582    4.214488    2.394171
  H      3.037056    3.972553    0.734879
  H      1.362894    4.460657    1.030492
  H     -4.402964    1.735104    0.460630
  H     -5.521603    0.605651   -0.361783
  H     -4.314551    1.525225   -1.312143
  H     -2.458071   -2.009362    2.253577
  H     -0.717732   -1.618630    2.189261
  H     -1.327127   -3.117732    1.417437

 Total Charge           Charge          ....    0
 Multiplicity           Mult            ....    1
 Number of Electrons    NEL             ....  174
 Basis Dimension        Dim             ....  316

ORBITAL ENERGIES
----------------

  NO   OCC          E(Eh)            E(eV)
   0   2.0000     -88.036434     -2395.5932
   1   2.0000     -87.969981     -2393.7849
   2   2.0000     -76.418151     -2079.4436
   3   2.0000     -18.813195      -511.9331
   4   2.0000     -18.801239      -511.6077
   5   2.0000     -18.783764      -511.1322
   6   2.0000     -18.778238      -510.9818
   7   2.0000     -18.752057      -510.2694
   8   2.0000     -18.732900      -509.7481
   9   2.0000     -10.021317      -272.6939
  10   2.0000     -10.012375      -272.4506
  11   2.0000      -9.956557      -270.9317
  12   2.0000      -9.945601      -270.6336
  13   2.0000      -9.938169      -270.4313
  14   2.0000      -9.934632      -270.3351
  15   2.0000      -9.934064      -270.3196
  16   2.0000      -9.913305      -269.7547
  17   2.0000      -9.893686      -269.2209
  18   2.0000      -9.881587      -268.8917
  19   2.0000      -7.681617      -209.0274
  20   2.0000      -7.615153      -207.2188
  21   2.0000      -6.414526      -174.5481
  22   2.0000      -5.709730      -155.3696
  23   2.0000      -5.706057      -155.2697
  24   2.0000      -5.698367      -155.0605
  25   2.0000      -5.644248      -153.5878
  26   2.0000      -5.635820      -153.3584
  27   2.0000      -5.635069      -153.3380
  28   2.0000      -4.637057      -126.1807
  29   2.0000      -4.636521      -126.1662
  30   2.0000      -4.635037      -126.1258
  31   2.0000      -1.022506       -27.8238
  32   2.0000      -1.010427       -27.4951
  33   2.0000      -0.973886       -26.5008
  34   2.0000      -0.932057       -25.3626
  35   2.0000      -0.929221       -25.2854
  36   2.0000      -0.913770       -24.8649
  37   2.0000      -0.762926       -20.7603
  38   2.0000      -0.718844       -19.5607
  39   2.0000      -0.701869       -19.0988
  40   2.0000      -0.689637       -18.7660
  41   2.0000      -0.656433       -17.8625
  42   2.0000      -0.622557       -16.9406
  43   2.0000      -0.618283       -16.8243
  44   2.0000      -0.611313       -16.6347
  45   2.0000      -0.597751       -16.2656
  46   2.0000      -0.553716       -15.0674
  47   2.0000      -0.508262       -13.8305
  48   2.0000      -0.506772       -13.7900
  49   2.0000      -0.498128       -13.5548
  50   2.0000      -0.480999       -13.0887
  51   2.0000      -0.465594       -12.6695
  52   2.0000      -0.461124       -12.5478
  53   2.0000      -0.442931       -12.0528
  54   2.0000      -0.437200       -11.8968
  55   2.0000      -0.436259       -11.8712
  56   2.0000      -0.425961       -11.5910
  57   2.0000      -0.416276       -11.3274
  58   2.0000      -0.407900       -11.0995
  59   2.0000      -0.406698       -11.0668
  60   2.0000      -0.401923       -10.9369
  61   2.0000      -0.398378       -10.8404
  62   2.0000      -0.388325       -10.5669
  63   2.0000      -0.383180       -10.4269
  64   2.0000      -0.373190       -10.1550
  65   2.0000      -0.363418        -9.8891
  66   2.0000      -0.360750        -9.8165
  67   2.0000      -0.352386        -9.5889
  68   2.0000      -0.346300        -9.4233
  69   2.0000      -0.342941        -9.3319
  70   2.0000      -0.338601        -9.2138
  71   2.0000      -0.327858        -8.9215
  72   2.0000      -0.315741        -8.5918
  73   2.0000      -0.306171        -8.3313
  74   2.0000      -0.302047        -8.2191
  75   2.0000      -0.295941        -8.0530
  76   2.0000      -0.288489        -7.8502
  77   2.0000      -0.281365        -7.6563
  78   2.0000      -0.272123        -7.4048
  79   2.0000      -0.266661        -7.2562
  80   2.0000      -0.256059        -6.9677
  81   2.0000      -0.251187        -6.8352
  82   2.0000      -0.238154        -6.4805
  83   2.0000      -0.226381        -6.1601
  84   2.0000      -0.219952        -5.9852
  85   2.0000      -0.187212        -5.0943
  86   2.0000      -0.180790        -4.9196
  87   0.0000      -0.044317        -1.2059
  88   0.0000      -0.033796        -0.9196
  89   0.0000      -0.016779        -0.4566
  90   0.0000       0.005567         0.1515
  91   0.0000       0.036486         0.9928

MULLIKEN ATOMIC CHARGES
-----------------------
   0 C :   -0.307024
   1 C :   -0.014066
   2 O :   -0.224672
   3 C :    0.130199
   4 O :   -0.207458
   5 C :   -0.068494
   6 C :   -0.259335
   7 H :    0.130816
   8 C :    0.176308
   9 O :   -0.219383
  10 O :   -0.206801
  11 C :   -0.035222
  12 C :   -0.275575
  13 S :   -0.093124
  14 P :    0.607938
  15 S :   -0.332526
  16 O :   -0.376459
  17 C :   -0.103187
  18 O :   -0.371976
  19 C :   -0.098512
  20 H :    0.116546
  21 H :    0.116119
  22 H :    0.132289
  23 H :    0.106802
  24 H :    0.111649
  25 H :    0.145310
  26 H :    0.123237
  27 H :    0.127823
  28 H :    0.104689
  29 H :    0.109801
  30 H :    0.112833
  31 H :    0.118439
  32 H :    0.115413
  33 H :    0.121185
  34 H :    0.112067
  35 H :    0.117627
  36 H :    0.141577
  37 H :    0.115148
Sum of atomic charges:    0.0000000

LOEWDIN ATOMIC CHARGES
----------------------
   0 C :   -0.355671
   1 C :   -0.109103
   2 O :   -0.054236
   3 C :    0.043337
   4 O :   -0.154891
   5 C :   -0.257039
   6 C :   -0.256273
   7 H :    0.141424
   8 C :    0.003883
   9 O :   -0.176113
  10 O :   -0.035261
  11 C :   -0.106293
  12 C :   -0.350498
  13 S :    0.105399
  14 P :    0.579136
  15 S :   -0.323293
  16 O :   -0.261375
  17 C :   -0.219790
  18 O :   -0.245981
  19 C :   -0.209926
  20 H :    0.126110
  21 H :    0.132280
  22 H :    0.132964
  23 H :    0.119756
  24 H :    0.121039
  25 H :    0.153764
  26 H :    0.145239
  27 H :    0.121164
  28 H :    0.118268
  29 H :    0.130384
  30 H :    0.125201
  31 H :    0.128310
  32 H :    0.107141
  33 H :    0.120406
  34 H :    0.108707
  35 H :    0.113277
  36 H :    0.120912
  37 H :    0.117642

  Mayer bond orders larger than 0.100000
B(  0-C ,  1-C ) :   1.1749 B(  0-C , 20-H ) :   0.9487 B(  0-C , 21-H ) :   0.9436
B(  0-C , 22-H ) :   0.9454 B(  1-C ,  2-O ) :   0.9083 B(  1-C , 23-H ) :   0.9369
B(  1-C , 24-H ) :   0.9146 B(  2-O ,  3-C ) :   1.2528 B(  3-C ,  4-O ) :   1.9768
B(  3-C ,  5-C ) :   1.0107 B(  5-C ,  6-C ) :   1.0041 B(  5-C , 25-H ) :   0.8668
B(  5-C , 26-H ) :   0.8986 B(  6-C ,  7-H ) :   0.8857 B(  6-C ,  8-C ) :   0.9161
B(  6-C , 13-S ) :   1.0120 B(  8-C ,  9-O ) :   1.9028 B(  8-C , 10-O ) :   1.2911
B( 10-O , 11-C ) :   0.8958 B( 11-C , 12-C ) :   1.1576 B( 11-C , 27-H ) :   0.9176
B( 11-C , 28-H ) :   0.9307 B( 12-C , 29-H ) :   0.9439 B( 12-C , 30-H ) :   0.9492
B( 12-C , 31-H ) :   0.9506 B( 13-S , 14-P ) :   0.9560 B( 13-S , 15-S ) :   0.1165
B( 14-P , 15-S ) :   1.5947 B( 14-P , 16-O ) :   1.0816 B( 14-P , 18-O ) :   1.1049
B( 16-O , 17-C ) :   0.9382 B( 17-C , 32-H ) :   0.9262 B( 17-C , 33-H ) :   0.9595
B( 17-C , 34-H ) :   0.9511 B( 18-O , 19-C ) :   0.9129 B( 19-C , 35-H ) :   0.9497
B( 19-C , 36-H ) :   0.9382 B( 19-C , 37-H ) :   0.9580

Dispersion correction           -0.051161134
FINAL SINGLE POINT ENERGY     -1979.011649752515

DIPOLE MOMENT
-------------

Method             : SCF
Type of density    : Electron Density
Multiplicity       :   1
Irrep              :   0
Energy             : -1979.1435688222281897 Eh
Relativity type    :
Basis              : AO
                                X                 Y                 Z
Electronic contribution:    -14.314519496       3.640388604      -5.411120099
Nuclear contribution   :     15.327671614      -4.424774537       4.825264920
                        -----------------------------------------
Total Dipole Moment    :      1.013152118      -0.784385933      -0.585855179
                        -----------------------------------------
Magnitude (a.u.)       :      1.408887787
Magnitude (Debye)      :      3.581108158

Rotational constants in cm-1:             0.012981             0.006796             0.005620
Rotational constants in MHz :           389.161942           203.730135           168.470963

                             ****ORCA TERMINATED NORMALLY****
TOTAL RUN TIME: 0 days 0 hours 0 minutes 40 seconds 472 msec
