                         Program Version 6.0.0  -   RELEASE  -
|  1> ! pbe def2-sv(p) def2/J RI DEFGRID1 loosescf d4 GCP(DFT/SV(P)) printgap
|  2> %output
|  3>     printlevel normal
|  4> end
|  5> * xyz 0 1
|  6> C 4.8319290144 -0.7994827112 -1.3929622283
|  7> C 4.3286795708 0.622298885 -1.254976872
|  8> O 3.2608666475 0.7196899964 -0.2957585723
|  9> P 1.8281329191 0.097170642 -0.5773895472
| 10> S 1.2232417636 0.3324427511 -2.4279472311
| 11> O 0.9248925813 0.8230758467 0.5071937238
| 12> C 1.4283146185 1.5290360571 1.6695599028
| 13> C 1.9087817548 0.584303704 2.7505087609
| 14> S 1.9857232607 -1.9016607221 0.1332112892
| 15> C 0.2567490784 -2.1655535508 0.6421073604
| 16> S -0.9728598379 -1.6120204494 -0.5753618614
| 17> P -1.8537393399 0.1468067235 0.2730208779
| 18> S -1.6803537508 1.880760747 -0.6425879301
| 19> O -1.4012735221 0.0303290887 1.7881688154
| 20> C -2.2774638966 0.3289538858 2.9024736966
| 21> C -2.6293187969 1.7997085198 2.9708243505
| 22> O -3.386714363 -0.2902423733 0.3813137877
| 23> C -4.3165111369 -0.060426564 -0.6845384884
| 24> C -4.0265569526 -0.9409327247 -1.8829839715
| 25> H 5.1093518886 -1.2017768519 -0.4222423813
| 26> H 4.051239181 -1.4268387281 -1.8224549696
| 27> H 5.6947922737 -0.8127274798 -2.0508457366
| 28> H 3.9654203468 0.9985601052 -2.2167665643
| 29> H 5.0963864369 1.2886013013 -0.8593383614
| 30> H 2.2268295377 2.1970890465 1.3442055896
| 31> H 0.5672614545 2.1177733914 1.9916014984
| 32> H 2.7405268496 -0.0140755882 2.3851626733
| 33> H 2.239759354 1.1691883391 3.6031211759
| 34> H 1.1044721179 -0.0759219512 3.0643892588
| 35> H 0.0708132703 -1.6649819526 1.5874654823
| 36> H 0.1403765777 -3.2429146298 0.7323802203
| 37> H -3.175765925 -0.2832763288 2.8102724109
| 38> H -1.6985912772 0.0151907479 3.7729889288
| 39> H -3.1453482244 2.1020916815 2.0604109417
| 40> H -3.2779037946 1.9753778095 3.8233148189
| 41> H -1.7323490541 2.4056836998 3.0716656155
| 42> H -5.2885343196 -0.2848273464 -0.2435978523
| 43> H -4.2667446218 0.9971458088 -0.9661027399
| 44> H -3.0517099448 -0.6834595583 -2.3015261764
| 45> H -4.01267673 -1.9883269536 -1.5931122064
| 46> H -4.7850847212 -0.7829276221 -2.6426843181
| 47> *
| 48>
| 49>                          ****END OF INPUT****

CARTESIAN COORDINATES (ANGSTROEM)
---------------------------------
  C      4.831929   -0.799483   -1.392962
  C      4.328680    0.622299   -1.254977
  O      3.260867    0.719690   -0.295759
  P      1.828133    0.097171   -0.577390
  S      1.223242    0.332443   -2.427947
  O      0.924893    0.823076    0.507194
  C      1.428315    1.529036    1.669560
  C      1.908782    0.584304    2.750509
  S      1.985723   -1.901661    0.133211
  C      0.256749   -2.165554    0.642107
  S     -0.972860   -1.612020   -0.575362
  P     -1.853739    0.146807    0.273021
  S     -1.680354    1.880761   -0.642588
  O     -1.401274    0.030329    1.788169
  C     -2.277464    0.328954    2.902474
  C     -2.629319    1.799709    2.970824
  O     -3.386714   -0.290242    0.381314
  C     -4.316511   -0.060427   -0.684538
  C     -4.026557   -0.940933   -1.882984
  H      5.109352   -1.201777   -0.422242
  H      4.051239   -1.426839   -1.822455
  H      5.694792   -0.812727   -2.050846
  H      3.965420    0.998560   -2.216767
  H      5.096386    1.288601   -0.859338
  H      2.226830    2.197089    1.344206
  H      0.567261    2.117773    1.991601
  H      2.740527   -0.014076    2.385163
  H      2.239759    1.169188    3.603121
  H      1.104472   -0.075922    3.064389
  H      0.070813   -1.664982    1.587465
  H      0.140377   -3.242915    0.732380
  H     -3.175766   -0.283276    2.810272
  H     -1.698591    0.015191    3.772989
  H     -3.145348    2.102092    2.060411
  H     -3.277904    1.975378    3.823315
  H     -1.732349    2.405684    3.071666
  H     -5.288534   -0.284827   -0.243598
  H     -4.266745    0.997146   -0.966103
  H     -3.051710   -0.683460   -2.301526
  H     -4.012677   -1.988327   -1.593112
  H     -4.785085   -0.782928   -2.642684

 Total Charge           Charge          ....    0
 Multiplicity           Mult            ....    1
 Number of Electrons    NEL             ....  202
 Basis Dimension        Dim             ....  334

ORBITAL ENERGIES
----------------

  NO   OCC          E(Eh)            E(eV)
   0   2.0000     -88.034459     -2395.5394
   1   2.0000     -88.031340     -2395.4545
   2   2.0000     -87.976520     -2393.9628
   3   2.0000     -87.972492     -2393.8532
   4   2.0000     -76.424291     -2079.6107
   5   2.0000     -76.420780     -2079.5152
   6   2.0000     -18.797336      -511.5015
   7   2.0000     -18.793257      -511.3905
   8   2.0000     -18.789269      -511.2820
   9   2.0000     -18.787482      -511.2334
  10   2.0000      -9.961453      -271.0649
  11   2.0000      -9.954517      -270.8762
  12   2.0000      -9.952389      -270.8183
  13   2.0000      -9.950583      -270.7691
  14   2.0000      -9.946185      -270.6495
  15   2.0000      -9.889672      -269.1117
  16   2.0000      -9.887610      -269.0556
  17   2.0000      -9.884695      -268.9762
  18   2.0000      -9.880621      -268.8654
  19   2.0000      -7.679097      -208.9589
  20   2.0000      -7.677018      -208.9023
  21   2.0000      -7.621334      -207.3870
  22   2.0000      -7.617450      -207.2814
  23   2.0000      -6.420945      -174.7228
  24   2.0000      -6.417781      -174.6367
  25   2.0000      -5.707494      -155.3088
  26   2.0000      -5.704881      -155.2377
  27   2.0000      -5.703550      -155.2015
  28   2.0000      -5.701594      -155.1483
  29   2.0000      -5.695602      -154.9852
  30   2.0000      -5.693829      -154.9370
  31   2.0000      -5.650522      -153.7585
  32   2.0000      -5.646614      -153.6522
  33   2.0000      -5.642183      -153.5316
  34   2.0000      -5.641079      -153.5016
  35   2.0000      -5.638228      -153.4240
  36   2.0000      -5.637290      -153.3985
  37   2.0000      -4.644185      -126.3747
  38   2.0000      -4.642814      -126.3374
  39   2.0000      -4.641205      -126.2936
  40   2.0000      -4.640781      -126.2821
  41   2.0000      -4.639454      -126.2460
  42   2.0000      -4.637574      -126.1948
  43   2.0000      -0.989253       -26.9190
  44   2.0000      -0.985536       -26.8178
  45   2.0000      -0.944333       -25.6966
  46   2.0000      -0.941193       -25.6112
  47   2.0000      -0.755220       -20.5506
  48   2.0000      -0.716824       -19.5058
  49   2.0000      -0.707290       -19.2463
  50   2.0000      -0.689756       -18.7692
  51   2.0000      -0.687648       -18.7118
  52   2.0000      -0.670017       -18.2321
  53   2.0000      -0.648515       -17.6470
  54   2.0000      -0.629386       -17.1265
  55   2.0000      -0.592446       -16.1213
  56   2.0000      -0.586384       -15.9563
  57   2.0000      -0.579648       -15.7730
  58   2.0000      -0.577897       -15.7254
  59   2.0000      -0.556986       -15.1564
  60   2.0000      -0.497712       -13.5434
  61   2.0000      -0.494781       -13.4637
  62   2.0000      -0.471939       -12.8421
  63   2.0000      -0.469987       -12.7890
  64   2.0000      -0.460319       -12.5259
  65   2.0000      -0.449722       -12.2376
  66   2.0000      -0.437977       -11.9180
  67   2.0000      -0.427999       -11.6464
  68   2.0000      -0.424931       -11.5630
  69   2.0000      -0.419847       -11.4246
  70   2.0000      -0.412057       -11.2127
  71   2.0000      -0.409134       -11.1331
  72   2.0000      -0.393879       -10.7180
  73   2.0000      -0.384043       -10.4503
  74   2.0000      -0.375856       -10.2276
  75   2.0000      -0.366081        -9.9616
  76   2.0000      -0.364580        -9.9207
  77   2.0000      -0.357897        -9.7389
  78   2.0000      -0.356887        -9.7114
  79   2.0000      -0.352425        -9.5900
  80   2.0000      -0.349937        -9.5223
  81   2.0000      -0.341956        -9.3051
  82   2.0000      -0.341323        -9.2879
  83   2.0000      -0.334680        -9.1071
  84   2.0000      -0.327088        -8.9005
  85   2.0000      -0.319270        -8.6878
  86   2.0000      -0.310626        -8.4526
  87   2.0000      -0.303418        -8.2564
  88   2.0000      -0.296265        -8.0618
  89   2.0000      -0.291031        -7.9193
  90   2.0000      -0.285586        -7.7712
  91   2.0000      -0.273306        -7.4370
  92   2.0000      -0.269151        -7.3240
  93   2.0000      -0.255870        -6.9626
  94   2.0000      -0.253637        -6.9018
  95   2.0000      -0.230869        -6.2823
  96   2.0000      -0.220099        -5.9892
  97   2.0000      -0.194552        -5.2940
  98   2.0000      -0.187397        -5.0993
  99   2.0000      -0.182267        -4.9597
 100   2.0000      -0.174953        -4.7607
 101   0.0000      -0.050644        -1.3781
 102   0.0000      -0.036164        -0.9841
 103   0.0000      -0.009869        -0.2686
 104   0.0000      -0.005439        -0.1480
 105   0.0000       0.013229         0.3600

MULLIKEN ATOMIC CHARGES
-----------------------
   0 C :   -0.325739
   1 C :    0.000372
   2 O :   -0.383847
   3 P :    0.607899
   4 S :   -0.277223
   5 O :   -0.378364
   6 C :    0.010344
   7 C :   -0.330856
   8 S :   -0.119768
   9 C :   -0.338075
  10 S :   -0.105391
  11 P :    0.649915
  12 S :   -0.293706
  13 O :   -0.397512
  14 C :   -0.004388
  15 C :   -0.317382
  16 O :   -0.385767
  17 C :   -0.003812
  18 C :   -0.321443
  19 H :    0.117553
  20 H :    0.133708
  21 H :    0.115966
  22 H :    0.114428
  23 H :    0.102030
  24 H :    0.111009
  25 H :    0.112183
  26 H :    0.125592
  27 H :    0.107917
  28 H :    0.126161
  29 H :    0.205946
  30 H :    0.178667
  31 H :    0.115985
  32 H :    0.103346
  33 H :    0.132638
  34 H :    0.110407
  35 H :    0.126731
  36 H :    0.098042
  37 H :    0.108784
  38 H :    0.135621
  39 H :    0.118373
  40 H :    0.113657
Sum of atomic charges:   -0.0000000

LOEWDIN ATOMIC CHARGES
----------------------
   0 C :   -0.371419
   1 C :   -0.120219
   2 O :   -0.245636
   3 P :    0.565653
   4 S :   -0.293049
   5 O :   -0.242801
   6 C :   -0.109676
   7 C :   -0.366558
   8 S :    0.051539
   9 C :   -0.474109
  10 S :    0.090886
  11 P :    0.580602
  12 S :   -0.291521
  13 O :   -0.245782
  14 C :   -0.110461
  15 C :   -0.364301
  16 O :   -0.252328
  17 C :   -0.125994
  18 C :   -0.369086
  19 H :    0.123602
  20 H :    0.122947
  21 H :    0.133015
  22 H :    0.112023
  23 H :    0.117167
  24 H :    0.116378
  25 H :    0.116329
  26 H :    0.121600
  27 H :    0.129388
  28 H :    0.122074
  29 H :    0.128065
  30 H :    0.138033
  31 H :    0.116095
  32 H :    0.115605
  33 H :    0.126193
  34 H :    0.130073
  35 H :    0.125363
  36 H :    0.115106
  37 H :    0.106558
  38 H :    0.122887
  39 H :    0.124116
  40 H :    0.131645

  Mayer bond orders larger than 0.100000
B(  0-C ,  1-C ) :   1.1648 B(  0-C , 19-H ) :   0.9444 B(  0-C , 20-H ) :   0.9297
B(  0-C , 21-H ) :   0.9381 B(  1-C ,  2-O ) :   0.9056 B(  1-C , 22-H ) :   0.9107
B(  1-C , 23-H ) :   0.9327 B(  2-O ,  3-P ) :   1.0653 B(  3-P ,  4-S ) :   1.6845
B(  3-P ,  5-O ) :   1.0852 B(  3-P ,  8-S ) :   0.9432 B(  4-S ,  8-S ) :   0.1143
B(  5-O ,  6-C ) :   0.8856 B(  6-C ,  7-C ) :   1.1742 B(  6-C , 24-H ) :   0.9231
B(  6-C , 25-H ) :   0.9195 B(  7-C , 26-H ) :   0.9357 B(  7-C , 27-H ) :   0.9369
B(  7-C , 28-H ) :   0.9358 B(  8-S ,  9-C ) :   0.9823 B(  9-C , 10-S ) :   1.0223
B(  9-C , 29-H ) :   0.8759 B(  9-C , 30-H ) :   0.9134 B( 10-S , 11-P ) :   0.9396
B( 10-S , 12-S ) :   0.1096 B( 11-P , 12-S ) :   1.6498 B( 11-P , 13-O ) :   1.0731
B( 11-P , 16-O ) :   1.0460 B( 13-O , 14-C ) :   0.9014 B( 14-C , 15-C ) :   1.1720
B( 14-C , 31-H ) :   0.9234 B( 14-C , 32-H ) :   0.9309 B( 15-C , 33-H ) :   0.9308
B( 15-C , 34-H ) :   0.9356 B( 15-C , 35-H ) :   0.9420 B( 16-O , 17-C ) :   0.9168
B( 17-C , 18-C ) :   1.1663 B( 17-C , 36-H ) :   0.9308 B( 17-C , 37-H ) :   0.9070
B( 18-C , 38-H ) :   0.9304 B( 18-C , 39-H ) :   0.9436 B( 18-C , 40-H ) :   0.9385

Dispersion correction           -0.070521714
FINAL SINGLE POINT ENERGY     -2929.495665913130

DIPOLE MOMENT
-------------

Method             : SCF
Type of density    : Electron Density
Multiplicity       :   1
Irrep              :   0
Energy             : -2929.6148704144848125 Eh
Relativity type    :
Basis              : AO
                                X                 Y                 Z
Electronic contribution:      1.325921111      -2.860501440     -12.675785058
Nuclear contribution   :     -1.341347889       2.469890211      14.601850610
                        -----------------------------------------
Total Dipole Moment    :     -0.015426777      -0.390611229       1.926065552
                        -----------------------------------------
Magnitude (a.u.)       :      1.965335500
Magnitude (Debye)      :      4.995485844

Rotational constants in cm-1:             0.012824             0.005893             0.005288
Rotational constants in MHz :           384.460982           176.665331           158.533322

                             ****ORCA TERMINATED NORMALLY****
TOTAL RUN TIME: 0 days 0 hours 0 minutes 24 seconds 157 msec
