                         Program Version 6.0.0  -   RELEASE  -
|  1> ! pbe def2-sv(p) def2/J RI DEFGRID1 loosescf d4 GCP(DFT/SV(P)) printgap
|  2> %output
|  3>     printlevel normal
|  4> end
|  5> * xyz 0 1
|  6> C 3.4307849987 1.5247974719 -1.588368672
|  7> C 3.2378241026 1.8514321098 -0.1215163675
|  8> O 2.1148340988 1.1447196147 0.4612433385
|  9> P 2.0345937434 -0.3957018911 0.7916702066
| 10> S 0.5197784347 -0.6840147714 2.0017556861
| 11> O 3.5005417997 -0.6816174574 1.3278327039
| 12> C 4.1090115747 -1.9826731258 1.4324625244
| 13> C 3.2871234712 -2.9469239814 2.2613802145
| 14> S 1.9547957383 -1.5379554764 -1.012806546
| 15> C 0.1964035209 -1.3602165761 -1.3315444286
| 16> S -0.2502221464 0.3886906541 -1.6402791648
| 17> P -2.1533687654 0.446957661 -0.7419233622
| 18> S -2.7256274777 -1.1168840708 0.3022794076
| 19> O -3.0333754164 0.7133398777 -2.0311192478
| 20> C -4.4474018258 0.4375895406 -2.0664023316
| 21> C -5.2240760711 1.3931829822 -1.1857350239
| 22> O -2.2061304761 1.8846983375 -0.0611246705
| 23> C -1.450134647 2.2954367528 1.0890447337
| 24> C -2.1210855914 1.8739662638 2.3811559988
| 25> H 4.1554248555 2.2149054618 -2.009035452
| 26> H 3.7965119795 0.508678381 -1.7139167835
| 27> H 2.4879571653 1.6263857784 -2.1219764264
| 28> H 2.9669975083 2.8989622977 0.0196952665
| 29> H 4.1311768892 1.6164464907 0.4592669188
| 30> H 4.2579456364 -2.3718300401 0.4217913913
| 31> H 5.0735589485 -1.7769219937 1.9000121087
| 32> H 3.0882600739 -2.5290988958 3.2456094637
| 33> H 2.3330229981 -3.143004053 1.7738270423
| 34> H 3.8268399969 -3.8821164469 2.3695571164
| 35> H -0.3792232511 -1.7149064815 -0.4708434203
| 36> H -0.016599227 -1.9492154604 -2.2200385408
| 37> H -4.7086940217 0.5481585366 -3.1194317684
| 38> H -4.6062322131 -0.5974254605 -1.7467577103
| 39> H -4.9966373354 2.421319006 -1.4545475363
| 40> H -6.2877792283 1.2119578555 -1.303643441
| 41> H -4.9496054601 1.2337283437 -0.1434150363
| 42> H -0.4374294968 1.8838442861 1.028151236
| 43> H -1.406304651 3.3826897421 1.0001763964
| 44> H -3.1456109703 2.2348457526 2.4093402057
| 45> H -2.12347152 0.7889145696 2.469308115
| 46> H -1.5683852162 2.2844494041 3.2200914778
| 47> *
| 48>
| 49>                          ****END OF INPUT****

CARTESIAN COORDINATES (ANGSTROEM)
---------------------------------
  C      3.430785    1.524797   -1.588369
  C      3.237824    1.851432   -0.121516
  O      2.114834    1.144720    0.461243
  P      2.034594   -0.395702    0.791670
  S      0.519778   -0.684015    2.001756
  O      3.500542   -0.681617    1.327833
  C      4.109012   -1.982673    1.432463
  C      3.287123   -2.946924    2.261380
  S      1.954796   -1.537955   -1.012807
  C      0.196404   -1.360217   -1.331544
  S     -0.250222    0.388691   -1.640279
  P     -2.153369    0.446958   -0.741923
  S     -2.725627   -1.116884    0.302279
  O     -3.033375    0.713340   -2.031119
  C     -4.447402    0.437590   -2.066402
  C     -5.224076    1.393183   -1.185735
  O     -2.206130    1.884698   -0.061125
  C     -1.450135    2.295437    1.089045
  C     -2.121086    1.873966    2.381156
  H      4.155425    2.214905   -2.009035
  H      3.796512    0.508678   -1.713917
  H      2.487957    1.626386   -2.121976
  H      2.966998    2.898962    0.019695
  H      4.131177    1.616446    0.459267
  H      4.257946   -2.371830    0.421791
  H      5.073559   -1.776922    1.900012
  H      3.088260   -2.529099    3.245609
  H      2.333023   -3.143004    1.773827
  H      3.826840   -3.882116    2.369557
  H     -0.379223   -1.714906   -0.470843
  H     -0.016599   -1.949215   -2.220039
  H     -4.708694    0.548159   -3.119432
  H     -4.606232   -0.597425   -1.746758
  H     -4.996637    2.421319   -1.454548
  H     -6.287779    1.211958   -1.303643
  H     -4.949605    1.233728   -0.143415
  H     -0.437429    1.883844    1.028151
  H     -1.406305    3.382690    1.000176
  H     -3.145611    2.234846    2.409340
  H     -2.123472    0.788915    2.469308
  H     -1.568385    2.284449    3.220091

 Total Charge           Charge          ....    0
 Multiplicity           Mult            ....    1
 Number of Electrons    NEL             ....  202
 Basis Dimension        Dim             ....  334

ORBITAL ENERGIES
----------------

  NO   OCC          E(Eh)            E(eV)
   0   2.0000     -88.048652     -2395.9256
   1   2.0000     -88.037733     -2395.6285
   2   2.0000     -87.982166     -2394.1165
   3   2.0000     -87.980063     -2394.0592
   4   2.0000     -76.428943     -2079.7373
   5   2.0000     -76.419813     -2079.4888
   6   2.0000     -18.800604      -511.5904
   7   2.0000     -18.792436      -511.3682
   8   2.0000     -18.784133      -511.1422
   9   2.0000     -18.779968      -511.0289
  10   2.0000      -9.963906      -271.1317
  11   2.0000      -9.957507      -270.9575
  12   2.0000      -9.953162      -270.8393
  13   2.0000      -9.944335      -270.5991
  14   2.0000      -9.938624      -270.4437
  15   2.0000      -9.887741      -269.0591
  16   2.0000      -9.885611      -269.0012
  17   2.0000      -9.877380      -268.7772
  18   2.0000      -9.866952      -268.4934
  19   2.0000      -7.693385      -209.3476
  20   2.0000      -7.682800      -209.0596
  21   2.0000      -7.626997      -207.5411
  22   2.0000      -7.624980      -207.4862
  23   2.0000      -6.425703      -174.8523
  24   2.0000      -6.417393      -174.6262
  25   2.0000      -5.721205      -155.6819
  26   2.0000      -5.717754      -155.5880
  27   2.0000      -5.710708      -155.3963
  28   2.0000      -5.710632      -155.3942
  29   2.0000      -5.707421      -155.3068
  30   2.0000      -5.699578      -155.0934
  31   2.0000      -5.655794      -153.9020
  32   2.0000      -5.654053      -153.8546
  33   2.0000      -5.647831      -153.6853
  34   2.0000      -5.647060      -153.6643
  35   2.0000      -5.645477      -153.6212
  36   2.0000      -5.645086      -153.6106
  37   2.0000      -4.648730      -126.4984
  38   2.0000      -4.647676      -126.4697
  39   2.0000      -4.645634      -126.4141
  40   2.0000      -4.639708      -126.2529
  41   2.0000      -4.639162      -126.2380
  42   2.0000      -4.638116      -126.2095
  43   2.0000      -0.992434       -27.0055
  44   2.0000      -0.977899       -26.6100
  45   2.0000      -0.947712       -25.7885
  46   2.0000      -0.935749       -25.4630
  47   2.0000      -0.763036       -20.7633
  48   2.0000      -0.721084       -19.6217
  49   2.0000      -0.708023       -19.2663
  50   2.0000      -0.694168       -18.8893
  51   2.0000      -0.676162       -18.3993
  52   2.0000      -0.672551       -18.3010
  53   2.0000      -0.650100       -17.6901
  54   2.0000      -0.632831       -17.2202
  55   2.0000      -0.593617       -16.1531
  56   2.0000      -0.589570       -16.0430
  57   2.0000      -0.583787       -15.8857
  58   2.0000      -0.563326       -15.3289
  59   2.0000      -0.558825       -15.2064
  60   2.0000      -0.503080       -13.6895
  61   2.0000      -0.489218       -13.3123
  62   2.0000      -0.474331       -12.9072
  63   2.0000      -0.463950       -12.6247
  64   2.0000      -0.454224       -12.3601
  65   2.0000      -0.443530       -12.0691
  66   2.0000      -0.439681       -11.9643
  67   2.0000      -0.433590       -11.7986
  68   2.0000      -0.427717       -11.6388
  69   2.0000      -0.414151       -11.2696
  70   2.0000      -0.412060       -11.2127
  71   2.0000      -0.400350       -10.8941
  72   2.0000      -0.394489       -10.7346
  73   2.0000      -0.386693       -10.5224
  74   2.0000      -0.383586       -10.4379
  75   2.0000      -0.364873        -9.9287
  76   2.0000      -0.357844        -9.7374
  77   2.0000      -0.356496        -9.7007
  78   2.0000      -0.352049        -9.5797
  79   2.0000      -0.346460        -9.4277
  80   2.0000      -0.344397        -9.3715
  81   2.0000      -0.343036        -9.3345
  82   2.0000      -0.336100        -9.1458
  83   2.0000      -0.332538        -9.0488
  84   2.0000      -0.324172        -8.8212
  85   2.0000      -0.322623        -8.7790
  86   2.0000      -0.308468        -8.3938
  87   2.0000      -0.301081        -8.1928
  88   2.0000      -0.292966        -7.9720
  89   2.0000      -0.285801        -7.7770
  90   2.0000      -0.280948        -7.6450
  91   2.0000      -0.276804        -7.5322
  92   2.0000      -0.267337        -7.2746
  93   2.0000      -0.262829        -7.1520
  94   2.0000      -0.255077        -6.9410
  95   2.0000      -0.234645        -6.3850
  96   2.0000      -0.218552        -5.9471
  97   2.0000      -0.209918        -5.7122
  98   2.0000      -0.197433        -5.3724
  99   2.0000      -0.193267        -5.2590
 100   2.0000      -0.186157        -5.0656
 101   0.0000      -0.044936        -1.2228
 102   0.0000      -0.033166        -0.9025
 103   0.0000      -0.011814        -0.3215
 104   0.0000       0.012919         0.3516
 105   0.0000       0.016148         0.4394

MULLIKEN ATOMIC CHARGES
-----------------------
   0 C :   -0.320249
   1 C :    0.000033
   2 O :   -0.348485
   3 P :    0.609996
   4 S :   -0.299708
   5 O :   -0.381127
   6 C :   -0.014651
   7 C :   -0.309355
   8 S :   -0.128990
   9 C :   -0.346167
  10 S :   -0.107348
  11 P :    0.630339
  12 S :   -0.319444
  13 O :   -0.369003
  14 C :   -0.004237
  15 C :   -0.307048
  16 O :   -0.374284
  17 C :   -0.026887
  18 C :   -0.301855
  19 H :    0.111843
  20 H :    0.121154
  21 H :    0.132760
  22 H :    0.108759
  23 H :    0.109304
  24 H :    0.115224
  25 H :    0.110221
  26 H :    0.128172
  27 H :    0.131008
  28 H :    0.112462
  29 H :    0.217158
  30 H :    0.182193
  31 H :    0.102063
  32 H :    0.108799
  33 H :    0.115382
  34 H :    0.108580
  35 H :    0.126307
  36 H :    0.128801
  37 H :    0.095918
  38 H :    0.106763
  39 H :    0.140488
  40 H :    0.105110
Sum of atomic charges:    0.0000000

LOEWDIN ATOMIC CHARGES
----------------------
   0 C :   -0.370791
   1 C :   -0.109769
   2 O :   -0.232672
   3 P :    0.565488
   4 S :   -0.290655
   5 O :   -0.244913
   6 C :   -0.114711
   7 C :   -0.368543
   8 S :    0.072589
   9 C :   -0.477661
  10 S :    0.079017
  11 P :    0.568789
  12 S :   -0.297472
  13 O :   -0.247054
  14 C :   -0.118442
  15 C :   -0.365060
  16 O :   -0.241310
  17 C :   -0.121722
  18 C :   -0.364712
  19 H :    0.130223
  20 H :    0.115985
  21 H :    0.125739
  22 H :    0.121755
  23 H :    0.113151
  24 H :    0.108108
  25 H :    0.121641
  26 H :    0.131617
  27 H :    0.123451
  28 H :    0.130798
  29 H :    0.124256
  30 H :    0.135173
  31 H :    0.117255
  32 H :    0.108336
  33 H :    0.125848
  34 H :    0.128607
  35 H :    0.123295
  36 H :    0.107404
  37 H :    0.114076
  38 H :    0.120638
  39 H :    0.123609
  40 H :    0.128640

  Mayer bond orders larger than 0.100000
B(  0-C ,  1-C ) :   1.1679 B(  0-C , 19-H ) :   0.9362 B(  0-C , 20-H ) :   0.9392
B(  0-C , 21-H ) :   0.9396 B(  1-C ,  2-O ) :   0.9004 B(  1-C , 22-H ) :   0.9348
B(  1-C , 23-H ) :   0.9264 B(  2-O ,  3-P ) :   1.1204 B(  3-P ,  4-S ) :   1.6559
B(  3-P ,  5-O ) :   1.0832 B(  3-P ,  8-S ) :   0.9224 B(  4-S ,  8-S ) :   0.1091
B(  5-O ,  6-C ) :   0.9105 B(  6-C ,  7-C ) :   1.1668 B(  6-C , 24-H ) :   0.9258
B(  6-C , 25-H ) :   0.9331 B(  7-C , 26-H ) :   0.9432 B(  7-C , 27-H ) :   0.9313
B(  7-C , 28-H ) :   0.9349 B(  8-S ,  9-C ) :   1.0125 B(  9-C , 10-S ) :   0.9948
B(  9-C , 29-H ) :   0.8420 B(  9-C , 30-H ) :   0.9088 B( 10-S , 11-P ) :   0.9593
B( 10-S , 12-S ) :   0.1188 B( 11-P , 12-S ) :   1.6100 B( 11-P , 13-O ) :   1.1267
B( 11-P , 16-O ) :   1.1167 B( 13-O , 14-C ) :   0.9141 B( 14-C , 15-C ) :   1.1632
B( 14-C , 31-H ) :   0.9348 B( 14-C , 32-H ) :   0.9143 B( 15-C , 33-H ) :   0.9464
B( 15-C , 34-H ) :   0.9386 B( 15-C , 35-H ) :   0.9354 B( 16-O , 17-C ) :   0.9021
B( 17-C , 18-C ) :   1.1703 B( 17-C , 36-H ) :   0.9017 B( 17-C , 37-H ) :   0.9355
B( 18-C , 38-H ) :   0.9461 B( 18-C , 39-H ) :   0.9306 B( 18-C , 40-H ) :   0.9393

Dispersion correction           -0.066905976
FINAL SINGLE POINT ENERGY     -2929.516518970809

DIPOLE MOMENT
-------------

Method             : SCF
Type of density    : Electron Density
Multiplicity       :   1
Irrep              :   0
Energy             : -2929.6347726719641287 Eh
Relativity type    :
Basis              : AO
                                X                 Y                 Z
Electronic contribution:     -0.207739635      -6.135073663      -4.303201653
Nuclear contribution   :      1.525696383       6.549661200       3.726255427
                        -----------------------------------------
Total Dipole Moment    :      1.317956748       0.414587537      -0.576946226
                        -----------------------------------------
Magnitude (a.u.)       :      1.497250735
Magnitude (Debye)      :      3.805708924

Rotational constants in cm-1:             0.013719             0.004848             0.004710
Rotational constants in MHz :           411.294675           145.340808           141.214898

                             ****ORCA TERMINATED NORMALLY****
TOTAL RUN TIME: 0 days 0 hours 0 minutes 21 seconds 267 msec
