                         Program Version 6.0.0  -   RELEASE  -
|  1> ! r2scan-3c def2/J RI DEFGRID2 scfconv6 printgap
|  2> %output
|  3>     printlevel normal
|  4> end
|  5> * xyz 0 1
|  6> C 2.085879358 -2.1000441489 2.8048247528
|  7> C 0.9159821468 -1.8345567151 1.8813746256
|  8> O 0.9971376852 -0.5132271149 1.3120279993
|  9> P 2.0248895732 -0.1454921424 0.1697018188
| 10> S 2.7501387194 -1.6482955155 -0.8654399498
| 11> O 3.0463779553 0.7464058814 0.9948917146
| 12> C 4.1555471253 1.4379001271 0.3868519871
| 13> C 5.3986893198 0.5693132609 0.3670392284
| 14> S 0.9652744452 1.3074823781 -0.956538367
| 15> C 0.1883560928 0.1462202735 -2.1105895483
| 16> S -0.8901428385 -1.0567595283 -1.2952939854
| 17> P -2.2847017883 0.3428650673 -0.514876588
| 18> S -2.708111474 1.8617524893 -1.6646396739
| 19> O -1.6451784686 0.6833786042 0.9098965912
| 20> C -1.5066236651 2.020893237 1.4197260768
| 21> C -2.7847761322 2.4689166929 2.0986686114
| 22> O -3.567051174 -0.5224108233 -0.1862152541
| 23> C -3.6156126373 -1.5727442107 0.8121658649
| 24> C -3.3591687946 -2.931712008 0.1929777887
| 25> H 1.9685766923 -3.0744328131 3.2682498386
| 26> H 3.0119890206 -2.0880941222 2.2311084082
| 27> H 2.1400322492 -1.3340491375 3.5736697623
| 28> H -0.0352996251 -1.8357283794 2.4152030773
| 29> H 0.8860182363 -2.5672920704 1.0681957376
| 30> H 3.8759114549 1.7499155992 -0.6237414208
| 31> H 4.2985861337 2.3214277407 1.0118605319
| 32> H 6.2255730768 1.1387447943 -0.0449032729
| 33> H 5.6485524321 0.2514996492 1.375430844
| 34> H 5.2349409873 -0.3126646692 -0.2481350092
| 35> H 0.9575000218 -0.4298339282 -2.6245755334
| 36> H -0.3957983331 0.7469171709 -2.8071678365
| 37> H -0.6680633135 1.9607363884 2.1159451961
| 38> H -1.250808344 2.6928967426 0.5943820954
| 39> H -3.0482983999 1.7867523723 2.902394726
| 40> H -2.6456404214 3.4663475746 2.5031087793
| 41> H -3.5957805326 2.4910844282 1.3716318562
| 42> H -2.8902112475 -1.3475046322 1.5968166927
| 43> H -4.6286132671 -1.5071364407 1.2129019844
| 44> H -2.3448560346 -2.9930773551 -0.1966475836
| 45> H -3.4960393268 -3.6974382208 0.9501611695
| 46> H -4.054862945 -3.1057252965 -0.6231656925
| 47> *
| 48>
| 49>                          ****END OF INPUT****

CARTESIAN COORDINATES (ANGSTROEM)
---------------------------------
  C      2.085879   -2.100044    2.804825
  C      0.915982   -1.834557    1.881375
  O      0.997138   -0.513227    1.312028
  P      2.024890   -0.145492    0.169702
  S      2.750139   -1.648296   -0.865440
  O      3.046378    0.746406    0.994892
  C      4.155547    1.437900    0.386852
  C      5.398689    0.569313    0.367039
  S      0.965274    1.307482   -0.956538
  C      0.188356    0.146220   -2.110590
  S     -0.890143   -1.056760   -1.295294
  P     -2.284702    0.342865   -0.514877
  S     -2.708111    1.861752   -1.664640
  O     -1.645178    0.683379    0.909897
  C     -1.506624    2.020893    1.419726
  C     -2.784776    2.468917    2.098669
  O     -3.567051   -0.522411   -0.186215
  C     -3.615613   -1.572744    0.812166
  C     -3.359169   -2.931712    0.192978
  H      1.968577   -3.074433    3.268250
  H      3.011989   -2.088094    2.231108
  H      2.140032   -1.334049    3.573670
  H     -0.035300   -1.835728    2.415203
  H      0.886018   -2.567292    1.068196
  H      3.875911    1.749916   -0.623741
  H      4.298586    2.321428    1.011861
  H      6.225573    1.138745   -0.044903
  H      5.648552    0.251500    1.375431
  H      5.234941   -0.312665   -0.248135
  H      0.957500   -0.429834   -2.624576
  H     -0.395798    0.746917   -2.807168
  H     -0.668063    1.960736    2.115945
  H     -1.250808    2.692897    0.594382
  H     -3.048298    1.786752    2.902395
  H     -2.645640    3.466348    2.503109
  H     -3.595781    2.491084    1.371632
  H     -2.890211   -1.347505    1.596817
  H     -4.628613   -1.507136    1.212902
  H     -2.344856   -2.993077   -0.196648
  H     -3.496039   -3.697438    0.950161
  H     -4.054863   -3.105725   -0.623166

 Total Charge           Charge          ....    0
 Multiplicity           Mult            ....    1
 Number of Electrons    NEL             ....  202
 Basis Dimension        Dim             ....  539

ORBITAL ENERGIES
----------------

  NO   OCC          E(Eh)            E(eV)
   0   2.0000     -88.575676     -2410.2667
   1   2.0000     -88.572789     -2410.1881
   2   2.0000     -88.523351     -2408.8429
   3   2.0000     -88.518742     -2408.7174
   4   2.0000     -76.916260     -2092.9978
   5   2.0000     -76.913250     -2092.9159
   6   2.0000     -18.995514      -516.8942
   7   2.0000     -18.992816      -516.8208
   8   2.0000     -18.990038      -516.7452
   9   2.0000     -18.985274      -516.6156
  10   2.0000     -10.106834      -275.0209
  11   2.0000     -10.104590      -274.9599
  12   2.0000     -10.103727      -274.9364
  13   2.0000     -10.099125      -274.8112
  14   2.0000     -10.092332      -274.6263
  15   2.0000     -10.036462      -273.1060
  16   2.0000     -10.030001      -272.9302
  17   2.0000     -10.028149      -272.8798
  18   2.0000     -10.026416      -272.8327
  19   2.0000      -7.869975      -214.1529
  20   2.0000      -7.867215      -214.0778
  21   2.0000      -7.818213      -212.7444
  22   2.0000      -7.813627      -212.6196
  23   2.0000      -6.594667      -179.4500
  24   2.0000      -6.591400      -179.3611
  25   2.0000      -5.816836      -158.2842
  26   2.0000      -5.814096      -158.2096
  27   2.0000      -5.813819      -158.2021
  28   2.0000      -5.811116      -158.1285
  29   2.0000      -5.807132      -158.0201
  30   2.0000      -5.804259      -157.9419
  31   2.0000      -5.765812      -156.8957
  32   2.0000      -5.761402      -156.7757
  33   2.0000      -5.758441      -156.6951
  34   2.0000      -5.758307      -156.6915
  35   2.0000      -5.753821      -156.5694
  36   2.0000      -5.753561      -156.5623
  37   2.0000      -4.740049      -128.9833
  38   2.0000      -4.739648      -128.9724
  39   2.0000      -4.738476      -128.9405
  40   2.0000      -4.737279      -128.9079
  41   2.0000      -4.735947      -128.8717
  42   2.0000      -4.735209      -128.8516
  43   2.0000      -1.052705       -28.6456
  44   2.0000      -1.046796       -28.4848
  45   2.0000      -1.012980       -27.5646
  46   2.0000      -1.006698       -27.3936
  47   2.0000      -0.802349       -21.8330
  48   2.0000      -0.760163       -20.6851
  49   2.0000      -0.751802       -20.4576
  50   2.0000      -0.733861       -19.9694
  51   2.0000      -0.732198       -19.9241
  52   2.0000      -0.710276       -19.3276
  53   2.0000      -0.687808       -18.7162
  54   2.0000      -0.670141       -18.2355
  55   2.0000      -0.631054       -17.1719
  56   2.0000      -0.621794       -16.9199
  57   2.0000      -0.611993       -16.6532
  58   2.0000      -0.604823       -16.4581
  59   2.0000      -0.593662       -16.1544
  60   2.0000      -0.529963       -14.4210
  61   2.0000      -0.521290       -14.1850
  62   2.0000      -0.497412       -13.5353
  63   2.0000      -0.496822       -13.5192
  64   2.0000      -0.471883       -12.8406
  65   2.0000      -0.466130       -12.6840
  66   2.0000      -0.460697       -12.5362
  67   2.0000      -0.455608       -12.3977
  68   2.0000      -0.444680       -12.1004
  69   2.0000      -0.429114       -11.6768
  70   2.0000      -0.424961       -11.5638
  71   2.0000      -0.413996       -11.2654
  72   2.0000      -0.410805       -11.1786
  73   2.0000      -0.406843       -11.0708
  74   2.0000      -0.394377       -10.7315
  75   2.0000      -0.390707       -10.6317
  76   2.0000      -0.385750       -10.4968
  77   2.0000      -0.375199       -10.2097
  78   2.0000      -0.373644       -10.1674
  79   2.0000      -0.368987       -10.0407
  80   2.0000      -0.364888        -9.9291
  81   2.0000      -0.363275        -9.8852
  82   2.0000      -0.358791        -9.7632
  83   2.0000      -0.352411        -9.5896
  84   2.0000      -0.347947        -9.4681
  85   2.0000      -0.337526        -9.1846
  86   2.0000      -0.326076        -8.8730
  87   2.0000      -0.315921        -8.5966
  88   2.0000      -0.313588        -8.5332
  89   2.0000      -0.304176        -8.2771
  90   2.0000      -0.296675        -8.0729
  91   2.0000      -0.293592        -7.9890
  92   2.0000      -0.285496        -7.7687
  93   2.0000      -0.282642        -7.6911
  94   2.0000      -0.270387        -7.3576
  95   2.0000      -0.245306        -6.6751
  96   2.0000      -0.229799        -6.2531
  97   2.0000      -0.227214        -6.1828
  98   2.0000      -0.221370        -6.0238
  99   2.0000      -0.214164        -5.8277
 100   2.0000      -0.210721        -5.7340
 101   0.0000      -0.047899        -1.3034
 102   0.0000      -0.024213        -0.6589
 103   0.0000      -0.002847        -0.0775
 104   0.0000       0.004472         0.1217
 105   0.0000       0.007709         0.2098

MULLIKEN ATOMIC CHARGES
-----------------------
   0 C :   -0.447938
   1 C :   -0.157153
   2 O :   -0.248017
   3 P :    0.691502
   4 S :   -0.479978
   5 O :   -0.303971
   6 C :   -0.137371
   7 C :   -0.452320
   8 S :   -0.152715
   9 C :   -0.226220
  10 S :   -0.158462
  11 P :    0.692314
  12 S :   -0.452944
  13 O :   -0.268771
  14 C :   -0.155349
  15 C :   -0.454475
  16 O :   -0.286039
  17 C :   -0.172425
  18 C :   -0.419013
  19 H :    0.146500
  20 H :    0.169347
  21 H :    0.154519
  22 H :    0.149111
  23 H :    0.177926
  24 H :    0.154685
  25 H :    0.150683
  26 H :    0.145868
  27 H :    0.151984
  28 H :    0.181437
  29 H :    0.211018
  30 H :    0.211740
  31 H :    0.161025
  32 H :    0.177948
  33 H :    0.145770
  34 H :    0.146445
  35 H :    0.172174
  36 H :    0.162164
  37 H :    0.154215
  38 H :    0.153265
  39 H :    0.147817
  40 H :    0.163706
Sum of atomic charges:    0.0000000

LOEWDIN ATOMIC CHARGES
----------------------
   0 C :   -0.398640
   1 C :    0.013332
   2 O :   -0.664313
   3 P :    0.382299
   4 S :   -0.128454
   5 O :   -0.657664
   6 C :    0.022603
   7 C :   -0.401804
   8 S :    0.165673
   9 C :   -0.420428
  10 S :    0.152015
  11 P :    0.384805
  12 S :   -0.098943
  13 O :   -0.691952
  14 C :    0.005904
  15 C :   -0.398513
  16 O :   -0.650843
  17 C :    0.025082
  18 C :   -0.397867
  19 H :    0.159359
  20 H :    0.165888
  21 H :    0.159459
  22 H :    0.178035
  23 H :    0.182015
  24 H :    0.175792
  25 H :    0.179331
  26 H :    0.158275
  27 H :    0.158397
  28 H :    0.169153
  29 H :    0.190341
  30 H :    0.191095
  31 H :    0.180761
  32 H :    0.182768
  33 H :    0.154823
  34 H :    0.159682
  35 H :    0.165943
  36 H :    0.177975
  37 H :    0.181745
  38 H :    0.162867
  39 H :    0.159493
  40 H :    0.164512

  Mayer bond orders larger than 0.100000
B(  0-C ,  1-C ) :   0.9304 B(  0-C , 19-H ) :   0.9640 B(  0-C , 20-H ) :   0.9596
B(  0-C , 21-H ) :   0.9738 B(  1-C ,  2-O ) :   0.7795 B(  1-C , 22-H ) :   0.9620
B(  1-C , 23-H ) :   0.9600 B(  2-O ,  3-P ) :   1.1525 B(  3-P ,  4-S ) :   1.7425
B(  3-P ,  5-O ) :   1.0772 B(  3-P ,  8-S ) :   1.0768 B(  5-O ,  6-C ) :   0.7838
B(  6-C ,  7-C ) :   0.9548 B(  6-C , 24-H ) :   0.9626 B(  6-C , 25-H ) :   0.9629
B(  7-C , 26-H ) :   0.9646 B(  7-C , 27-H ) :   0.9744 B(  7-C , 28-H ) :   0.9560
B(  8-S ,  9-C ) :   0.8864 B(  9-C , 10-S ) :   0.8961 B(  9-C , 29-H ) :   0.9117
B(  9-C , 30-H ) :   0.9102 B( 10-S , 11-P ) :   1.0217 B( 11-P , 12-S ) :   1.8355
B( 11-P , 13-O ) :   1.0385 B( 11-P , 16-O ) :   1.1383 B( 13-O , 14-C ) :   0.7634
B( 14-C , 15-C ) :   0.9295 B( 14-C , 31-H ) :   0.9644 B( 14-C , 32-H ) :   0.9543
B( 15-C , 33-H ) :   0.9770 B( 15-C , 34-H ) :   0.9647 B( 15-C , 35-H ) :   0.9641
B( 16-O , 17-C ) :   0.7630 B( 17-C , 18-C ) :   0.9569 B( 17-C , 36-H ) :   0.9700
B( 17-C , 37-H ) :   0.9612 B( 18-C , 38-H ) :   0.9510 B( 18-C , 39-H ) :   0.9660
B( 18-C , 40-H ) :   0.9704

Dispersion correction           -0.022040350
FINAL SINGLE POINT ENERGY     -2932.460707263971

DIPOLE MOMENT
-------------

Method             : SCF
Type of density    : Electron Density
Multiplicity       :   1
Irrep              :   0
Energy             : -2932.4852165938705184 Eh
Relativity type    :
Basis              : AO
                                X                 Y                 Z
Electronic contribution:     -4.659704483       5.229715247     -18.487676609
Nuclear contribution   :      5.083752687      -5.519012053      20.214649558
                        -----------------------------------------
Total Dipole Moment    :      0.424048204      -0.289296806       1.726972949
                        -----------------------------------------
Magnitude (a.u.)       :      1.801650657
Magnitude (Debye)      :      4.579432036

Rotational constants in cm-1:             0.012017             0.005407             0.005023
Rotational constants in MHz :           360.270159           162.083109           150.597830

                             ****ORCA TERMINATED NORMALLY****
TOTAL RUN TIME: 0 days 0 hours 1 minutes 22 seconds 713 msec
