                         Program Version 6.0.0  -   RELEASE  -
|  1> ! r2scan-3c def2/J RI DEFGRID2 scfconv6 printgap
|  2> %output
|  3>     printlevel normal
|  4> end
|  5> %cpcm
|  6>     smd true
|  7>     smdsolvent "water"
|  8> end
|  9> * xyz 0 1
| 10> C 2.085879358 -2.1000441489 2.8048247528
| 11> C 0.9159821468 -1.8345567151 1.8813746256
| 12> O 0.9971376852 -0.5132271149 1.3120279993
| 13> P 2.0248895732 -0.1454921424 0.1697018188
| 14> S 2.7501387194 -1.6482955155 -0.8654399498
| 15> O 3.0463779553 0.7464058814 0.9948917146
| 16> C 4.1555471253 1.4379001271 0.3868519871
| 17> C 5.3986893198 0.5693132609 0.3670392284
| 18> S 0.9652744452 1.3074823781 -0.956538367
| 19> C 0.1883560928 0.1462202735 -2.1105895483
| 20> S -0.8901428385 -1.0567595283 -1.2952939854
| 21> P -2.2847017883 0.3428650673 -0.514876588
| 22> S -2.708111474 1.8617524893 -1.6646396739
| 23> O -1.6451784686 0.6833786042 0.9098965912
| 24> C -1.5066236651 2.020893237 1.4197260768
| 25> C -2.7847761322 2.4689166929 2.0986686114
| 26> O -3.567051174 -0.5224108233 -0.1862152541
| 27> C -3.6156126373 -1.5727442107 0.8121658649
| 28> C -3.3591687946 -2.931712008 0.1929777887
| 29> H 1.9685766923 -3.0744328131 3.2682498386
| 30> H 3.0119890206 -2.0880941222 2.2311084082
| 31> H 2.1400322492 -1.3340491375 3.5736697623
| 32> H -0.0352996251 -1.8357283794 2.4152030773
| 33> H 0.8860182363 -2.5672920704 1.0681957376
| 34> H 3.8759114549 1.7499155992 -0.6237414208
| 35> H 4.2985861337 2.3214277407 1.0118605319
| 36> H 6.2255730768 1.1387447943 -0.0449032729
| 37> H 5.6485524321 0.2514996492 1.375430844
| 38> H 5.2349409873 -0.3126646692 -0.2481350092
| 39> H 0.9575000218 -0.4298339282 -2.6245755334
| 40> H -0.3957983331 0.7469171709 -2.8071678365
| 41> H -0.6680633135 1.9607363884 2.1159451961
| 42> H -1.250808344 2.6928967426 0.5943820954
| 43> H -3.0482983999 1.7867523723 2.902394726
| 44> H -2.6456404214 3.4663475746 2.5031087793
| 45> H -3.5957805326 2.4910844282 1.3716318562
| 46> H -2.8902112475 -1.3475046322 1.5968166927
| 47> H -4.6286132671 -1.5071364407 1.2129019844
| 48> H -2.3448560346 -2.9930773551 -0.1966475836
| 49> H -3.4960393268 -3.6974382208 0.9501611695
| 50> H -4.054862945 -3.1057252965 -0.6231656925
| 51> *
| 52>
| 53>                          ****END OF INPUT****

CARTESIAN COORDINATES (ANGSTROEM)
---------------------------------
  C      2.085879   -2.100044    2.804825
  C      0.915982   -1.834557    1.881375
  O      0.997138   -0.513227    1.312028
  P      2.024890   -0.145492    0.169702
  S      2.750139   -1.648296   -0.865440
  O      3.046378    0.746406    0.994892
  C      4.155547    1.437900    0.386852
  C      5.398689    0.569313    0.367039
  S      0.965274    1.307482   -0.956538
  C      0.188356    0.146220   -2.110590
  S     -0.890143   -1.056760   -1.295294
  P     -2.284702    0.342865   -0.514877
  S     -2.708111    1.861752   -1.664640
  O     -1.645178    0.683379    0.909897
  C     -1.506624    2.020893    1.419726
  C     -2.784776    2.468917    2.098669
  O     -3.567051   -0.522411   -0.186215
  C     -3.615613   -1.572744    0.812166
  C     -3.359169   -2.931712    0.192978
  H      1.968577   -3.074433    3.268250
  H      3.011989   -2.088094    2.231108
  H      2.140032   -1.334049    3.573670
  H     -0.035300   -1.835728    2.415203
  H      0.886018   -2.567292    1.068196
  H      3.875911    1.749916   -0.623741
  H      4.298586    2.321428    1.011861
  H      6.225573    1.138745   -0.044903
  H      5.648552    0.251500    1.375431
  H      5.234941   -0.312665   -0.248135
  H      0.957500   -0.429834   -2.624576
  H     -0.395798    0.746917   -2.807168
  H     -0.668063    1.960736    2.115945
  H     -1.250808    2.692897    0.594382
  H     -3.048298    1.786752    2.902395
  H     -2.645640    3.466348    2.503109
  H     -3.595781    2.491084    1.371632
  H     -2.890211   -1.347505    1.596817
  H     -4.628613   -1.507136    1.212902
  H     -2.344856   -2.993077   -0.196648
  H     -3.496039   -3.697438    0.950161
  H     -4.054863   -3.105725   -0.623166

 Total Charge           Charge          ....    0
 Multiplicity           Mult            ....    1
 Number of Electrons    NEL             ....  202
 Basis Dimension        Dim             ....  539

ORBITAL ENERGIES
----------------

  NO   OCC          E(Eh)            E(eV)
   0   2.0000     -88.578343     -2410.3392
   1   2.0000     -88.577365     -2410.3127
   2   2.0000     -88.529669     -2409.0148
   3   2.0000     -88.528388     -2408.9799
   4   2.0000     -76.920161     -2093.1040
   5   2.0000     -76.919596     -2093.0886
   6   2.0000     -18.996143      -516.9113
   7   2.0000     -18.995549      -516.8952
   8   2.0000     -18.991905      -516.7960
   9   2.0000     -18.988564      -516.7051
  10   2.0000     -10.104144      -274.9477
  11   2.0000     -10.092835      -274.6400
  12   2.0000     -10.091885      -274.6141
  13   2.0000     -10.088956      -274.5345
  14   2.0000     -10.086845      -274.4770
  15   2.0000     -10.021096      -272.6879
  16   2.0000     -10.018098      -272.6063
  17   2.0000     -10.016944      -272.5749
  18   2.0000     -10.016754      -272.5697
  19   2.0000      -7.872685      -214.2266
  20   2.0000      -7.871771      -214.2018
  21   2.0000      -7.824918      -212.9268
  22   2.0000      -7.823506      -212.8884
  23   2.0000      -6.598336      -179.5498
  24   2.0000      -6.598046      -179.5420
  25   2.0000      -5.819532      -158.3575
  26   2.0000      -5.818623      -158.3328
  27   2.0000      -5.816529      -158.2758
  28   2.0000      -5.815645      -158.2518
  29   2.0000      -5.809851      -158.0941
  30   2.0000      -5.808880      -158.0677
  31   2.0000      -5.772583      -157.0800
  32   2.0000      -5.771059      -157.0385
  33   2.0000      -5.765087      -156.8760
  34   2.0000      -5.764915      -156.8713
  35   2.0000      -5.763733      -156.8391
  36   2.0000      -5.763600      -156.8355
  37   2.0000      -4.744163      -129.0952
  38   2.0000      -4.743389      -129.0742
  39   2.0000      -4.743028      -129.0643
  40   2.0000      -4.742859      -129.0598
  41   2.0000      -4.742264      -129.0436
  42   2.0000      -4.741918      -129.0341
  43   2.0000      -1.053654       -28.6714
  44   2.0000      -1.049285       -28.5525
  45   2.0000      -1.013236       -27.5716
  46   2.0000      -1.008836       -27.4518
  47   2.0000      -0.804465       -21.8906
  48   2.0000      -0.756218       -20.5777
  49   2.0000      -0.744365       -20.2552
  50   2.0000      -0.725889       -19.7524
  51   2.0000      -0.722332       -19.6557
  52   2.0000      -0.709087       -19.2952
  53   2.0000      -0.690462       -18.7884
  54   2.0000      -0.675703       -18.3868
  55   2.0000      -0.628261       -17.0958
  56   2.0000      -0.619102       -16.8466
  57   2.0000      -0.604403       -16.4466
  58   2.0000      -0.597326       -16.2541
  59   2.0000      -0.590962       -16.0809
  60   2.0000      -0.525872       -14.3097
  61   2.0000      -0.516227       -14.0473
  62   2.0000      -0.493302       -13.4234
  63   2.0000      -0.492695       -13.4069
  64   2.0000      -0.471350       -12.8261
  65   2.0000      -0.461134       -12.5481
  66   2.0000      -0.455151       -12.3853
  67   2.0000      -0.450125       -12.2485
  68   2.0000      -0.439461       -11.9583
  69   2.0000      -0.426614       -11.6088
  70   2.0000      -0.419965       -11.4278
  71   2.0000      -0.411590       -11.1999
  72   2.0000      -0.406316       -11.0564
  73   2.0000      -0.400957       -10.9106
  74   2.0000      -0.394007       -10.7215
  75   2.0000      -0.386935       -10.5290
  76   2.0000      -0.381853       -10.3907
  77   2.0000      -0.370756       -10.0888
  78   2.0000      -0.363933        -9.9031
  79   2.0000      -0.360135        -9.7998
  80   2.0000      -0.358257        -9.7487
  81   2.0000      -0.353614        -9.6223
  82   2.0000      -0.351397        -9.5620
  83   2.0000      -0.345817        -9.4102
  84   2.0000      -0.343961        -9.3596
  85   2.0000      -0.335203        -9.1213
  86   2.0000      -0.321890        -8.7591
  87   2.0000      -0.308687        -8.3998
  88   2.0000      -0.306662        -8.3447
  89   2.0000      -0.300224        -8.1695
  90   2.0000      -0.295426        -8.0390
  91   2.0000      -0.291732        -7.9384
  92   2.0000      -0.284772        -7.7490
  93   2.0000      -0.282655        -7.6914
  94   2.0000      -0.271593        -7.3904
  95   2.0000      -0.248714        -6.7679
  96   2.0000      -0.237242        -6.4557
  97   2.0000      -0.236048        -6.4232
  98   2.0000      -0.228320        -6.2129
  99   2.0000      -0.221762        -6.0344
 100   2.0000      -0.218652        -5.9498
 101   0.0000      -0.052232        -1.4213
 102   0.0000      -0.030153        -0.8205
 103   0.0000      -0.006160        -0.1676
 104   0.0000       0.000109         0.0030
 105   0.0000       0.008252         0.2245

MULLIKEN ATOMIC CHARGES
-----------------------
   0 C :   -0.489509
   1 C :   -0.144558
   2 O :   -0.281205
   3 P :    0.720757
   4 S :   -0.519445
   5 O :   -0.333028
   6 C :   -0.129216
   7 C :   -0.491047
   8 S :   -0.160344
   9 C :   -0.238209
  10 S :   -0.169894
  11 P :    0.702750
  12 S :   -0.507585
  13 O :   -0.286738
  14 C :   -0.137255
  15 C :   -0.491444
  16 O :   -0.321908
  17 C :   -0.160156
  18 C :   -0.458646
  19 H :    0.172110
  20 H :    0.166137
  21 H :    0.169329
  22 H :    0.179680
  23 H :    0.177995
  24 H :    0.164229
  25 H :    0.177121
  26 H :    0.169989
  27 H :    0.167695
  28 H :    0.170956
  29 H :    0.233084
  30 H :    0.230831
  31 H :    0.179438
  32 H :    0.176082
  33 H :    0.166220
  34 H :    0.169537
  35 H :    0.165754
  36 H :    0.181695
  37 H :    0.177827
  38 H :    0.153017
  39 H :    0.174635
  40 H :    0.173323
Sum of atomic charges:    0.0000000

LOEWDIN ATOMIC CHARGES
----------------------
   0 C :   -0.402197
   1 C :    0.019108
   2 O :   -0.680049
   3 P :    0.386503
   4 S :   -0.153115
   5 O :   -0.670280
   6 C :    0.028542
   7 C :   -0.405950
   8 S :    0.162529
   9 C :   -0.416022
  10 S :    0.148066
  11 P :    0.385600
  12 S :   -0.139691
  13 O :   -0.697916
  14 C :    0.010713
  15 C :   -0.401064
  16 O :   -0.671716
  17 C :    0.033771
  18 C :   -0.399761
  19 H :    0.168824
  20 H :    0.162299
  21 H :    0.163556
  22 H :    0.190328
  23 H :    0.182708
  24 H :    0.179969
  25 H :    0.190730
  26 H :    0.167378
  27 H :    0.162464
  28 H :    0.162936
  29 H :    0.197087
  30 H :    0.196368
  31 H :    0.188496
  32 H :    0.181961
  33 H :    0.162133
  34 H :    0.167754
  35 H :    0.161988
  36 H :    0.186864
  37 H :    0.192160
  38 H :    0.160841
  39 H :    0.170760
  40 H :    0.165322

  Mayer bond orders larger than 0.100000
B(  0-C ,  1-C ) :   0.9203 B(  0-C , 19-H ) :   0.9582 B(  0-C , 20-H ) :   0.9601
B(  0-C , 21-H ) :   0.9719 B(  1-C ,  2-O ) :   0.7677 B(  1-C , 22-H ) :   0.9510
B(  1-C , 23-H ) :   0.9554 B(  2-O ,  3-P ) :   1.1560 B(  3-P ,  4-S ) :   1.7130
B(  3-P ,  5-O ) :   1.0824 B(  3-P ,  8-S ) :   1.0870 B(  5-O ,  6-C ) :   0.7730
B(  6-C ,  7-C ) :   0.9435 B(  6-C , 24-H ) :   0.9559 B(  6-C , 25-H ) :   0.9531
B(  7-C , 26-H ) :   0.9594 B(  7-C , 27-H ) :   0.9720 B(  7-C , 28-H ) :   0.9605
B(  8-S ,  9-C ) :   0.8797 B(  9-C , 10-S ) :   0.8826 B(  9-C , 29-H ) :   0.9056
B(  9-C , 30-H ) :   0.9055 B( 10-S , 11-P ) :   1.0378 B( 11-P , 12-S ) :   1.8114
B( 11-P , 13-O ) :   1.0469 B( 11-P , 16-O ) :   1.1454 B( 13-O , 14-C ) :   0.7500
B( 14-C , 15-C ) :   0.9286 B( 14-C , 31-H ) :   0.9539 B( 14-C , 32-H ) :   0.9515
B( 15-C , 33-H ) :   0.9717 B( 15-C , 34-H ) :   0.9600 B( 15-C , 35-H ) :   0.9658
B( 16-O , 17-C ) :   0.7533 B( 17-C , 18-C ) :   0.9459 B( 17-C , 36-H ) :   0.9579
B( 17-C , 37-H ) :   0.9515 B( 18-C , 38-H ) :   0.9506 B( 18-C , 39-H ) :   0.9585
B( 18-C , 40-H ) :   0.9710

Dispersion correction           -0.022040350
FINAL SINGLE POINT ENERGY     -2932.470093335716

DIPOLE MOMENT
-------------

Method             : SCF
Type of density    : Electron Density
Multiplicity       :   1
Irrep              :   0
Energy             : -2932.4946026656157301 Eh
Relativity type    :
Basis              : AO
                                X                 Y                 Z
Electronic contribution:     -4.468671435       5.131106322     -17.866790265
Nuclear contribution   :      5.083752687      -5.519012053      20.214649558
                        -----------------------------------------
Total Dipole Moment    :      0.615081252      -0.387905732       2.347859293
                        -----------------------------------------
Magnitude (a.u.)       :      2.457893217
Magnitude (Debye)      :      6.247468062

Rotational constants in cm-1:             0.012017             0.005407             0.005023
Rotational constants in MHz :           360.270159           162.083109           150.597830

                             ****ORCA TERMINATED NORMALLY****
TOTAL RUN TIME: 0 days 0 hours 1 minutes 58 seconds 954 msec
