                         Program Version 6.0.0  -   RELEASE  -
|  1> ! r2scan-3c def2/J RI DEFGRID2 scfconv6 printgap
|  2> %output
|  3>     printlevel normal
|  4> end
|  5> * xyz 0 1
|  6> C 2.5197779968 0.9051117533 -2.5328453084
|  7> C 1.9321818389 -0.4397761893 -2.1543712596
|  8> O 2.5921640445 -1.0043414521 -1.0099696025
|  9> P 2.2752778348 -0.6645902817 0.5110358067
| 10> S 2.5497030726 1.1719276775 1.1544048263
| 11> O 3.1831422949 -1.7395869492 1.235724661
| 12> C 4.5176945721 -1.4370096548 1.6886618635
| 13> C 5.4665061863 -1.2308088029 0.5271452143
| 14> S 0.385665117 -1.5461326728 0.8324086874
| 15> C -0.3530760692 -0.3117966174 1.9627053614
| 16> S -2.1141535186 -0.1085793464 1.6476256506
| 17> P -1.9741610945 0.6099154517 -0.3592930041
| 18> S -0.5298654792 1.8793439204 -0.7130146366
| 19> O -3.4445934925 1.1493984487 -0.6150074948
| 20> C -3.919492759 2.3520192259 0.0262463386
| 21> C -5.1807542526 2.7914537087 -0.6889771719
| 22> O -1.8898580219 -0.6495256623 -1.297758557
| 23> C -2.8501202812 -1.7375635046 -1.2690264578
| 24> C -3.8940870604 -1.5542830676 -2.3506115936
| 25> H 2.0560740701 1.2508011953 -3.4511011872
| 26> H 2.3230521428 1.6371879787 -1.7515592122
| 27> H 3.5932805797 0.8200954115 -2.6775563044
| 28> H 2.0926152055 -1.1792889853 -2.9413465879
| 29> H 0.8597424083 -0.3506605264 -1.9523386804
| 30> H 4.4755629996 -0.540887819 2.3161585987
| 31> H 4.7915122661 -2.3034986974 2.2915689
| 32> H 5.1670832211 -0.3470602076 -0.0355263189
| 33> H 6.4744448386 -1.0865706388 0.9032606406
| 34> H 5.4433336695 -2.0922585072 -0.1349646765
| 35> H 0.1649231813 0.6415834155 1.8196003484
| 36> H -0.2630133026 -0.6610996601 2.988154717
| 37> H -4.1128530807 2.1234163839 1.0775976776
| 38> H -3.1351787736 3.113425878 -0.0369747147
| 39> H -5.5581290546 3.6944009745 -0.2205256343
| 40> H -4.9660676524 2.993626827 -1.7345759685
| 41> H -5.9347699775 2.0123973115 -0.6261819597
| 42> H -2.2489140585 -2.6334383485 -1.4342300057
| 43> H -3.3073819056 -1.7794383341 -0.2768088955
| 44> H -3.415145802 -1.4776896255 -3.3227891046
| 45> H -4.5622163502 -2.4097474625 -2.3458780218
| 46> H -4.467146424 -0.6489741658 -2.169802494
| 47> *
| 48>
| 49>                          ****END OF INPUT****

CARTESIAN COORDINATES (ANGSTROEM)
---------------------------------
  C      2.519778    0.905112   -2.532845
  C      1.932182   -0.439776   -2.154371
  O      2.592164   -1.004341   -1.009970
  P      2.275278   -0.664590    0.511036
  S      2.549703    1.171928    1.154405
  O      3.183142   -1.739587    1.235725
  C      4.517695   -1.437010    1.688662
  C      5.466506   -1.230809    0.527145
  S      0.385665   -1.546133    0.832409
  C     -0.353076   -0.311797    1.962705
  S     -2.114154   -0.108579    1.647626
  P     -1.974161    0.609915   -0.359293
  S     -0.529865    1.879344   -0.713015
  O     -3.444593    1.149398   -0.615007
  C     -3.919493    2.352019    0.026246
  C     -5.180754    2.791454   -0.688977
  O     -1.889858   -0.649526   -1.297759
  C     -2.850120   -1.737564   -1.269026
  C     -3.894087   -1.554283   -2.350612
  H      2.056074    1.250801   -3.451101
  H      2.323052    1.637188   -1.751559
  H      3.593281    0.820095   -2.677556
  H      2.092615   -1.179289   -2.941347
  H      0.859742   -0.350661   -1.952339
  H      4.475563   -0.540888    2.316159
  H      4.791512   -2.303499    2.291569
  H      5.167083   -0.347060   -0.035526
  H      6.474445   -1.086571    0.903261
  H      5.443334   -2.092259   -0.134965
  H      0.164923    0.641583    1.819600
  H     -0.263013   -0.661100    2.988155
  H     -4.112853    2.123416    1.077598
  H     -3.135179    3.113426   -0.036975
  H     -5.558129    3.694401   -0.220526
  H     -4.966068    2.993627   -1.734576
  H     -5.934770    2.012397   -0.626182
  H     -2.248914   -2.633438   -1.434230
  H     -3.307382   -1.779438   -0.276809
  H     -3.415146   -1.477690   -3.322789
  H     -4.562216   -2.409747   -2.345878
  H     -4.467146   -0.648974   -2.169802

 Total Charge           Charge          ....    0
 Multiplicity           Mult            ....    1
 Number of Electrons    NEL             ....  202
 Basis Dimension        Dim             ....  539

ORBITAL ENERGIES
----------------

  NO   OCC          E(Eh)            E(eV)
   0   2.0000     -88.578460     -2410.3424
   1   2.0000     -88.570187     -2410.1173
   2   2.0000     -88.516577     -2408.6585
   3   2.0000     -88.514626     -2408.6054
   4   2.0000     -76.914409     -2092.9475
   5   2.0000     -76.907851     -2092.7690
   6   2.0000     -18.996951      -516.9333
   7   2.0000     -18.994470      -516.8658
   8   2.0000     -18.984506      -516.5947
   9   2.0000     -18.979612      -516.4615
  10   2.0000     -10.104524      -274.9581
  11   2.0000     -10.102905      -274.9140
  12   2.0000     -10.102870      -274.9131
  13   2.0000     -10.089972      -274.5621
  14   2.0000     -10.086721      -274.4736
  15   2.0000     -10.037208      -273.1263
  16   2.0000     -10.033973      -273.0383
  17   2.0000     -10.022066      -272.7143
  18   2.0000     -10.013322      -272.4763
  19   2.0000      -7.872754      -214.2285
  20   2.0000      -7.864580      -214.0061
  21   2.0000      -7.811316      -212.5567
  22   2.0000      -7.809361      -212.5035
  23   2.0000      -6.592943      -179.4031
  24   2.0000      -6.586085      -179.2165
  25   2.0000      -5.819605      -158.3595
  26   2.0000      -5.816392      -158.2721
  27   2.0000      -5.811406      -158.1364
  28   2.0000      -5.810122      -158.1015
  29   2.0000      -5.808579      -158.0595
  30   2.0000      -5.801573      -157.8688
  31   2.0000      -5.759097      -156.7130
  32   2.0000      -5.756983      -156.6555
  33   2.0000      -5.751427      -156.5043
  34   2.0000      -5.751352      -156.5022
  35   2.0000      -5.749829      -156.4608
  36   2.0000      -5.749207      -156.4439
  37   2.0000      -4.738742      -128.9477
  38   2.0000      -4.738042      -128.9287
  39   2.0000      -4.736206      -128.8787
  40   2.0000      -4.731422      -128.7485
  41   2.0000      -4.731103      -128.7399
  42   2.0000      -4.729919      -128.7076
  43   2.0000      -1.055064       -28.7097
  44   2.0000      -1.041611       -28.3437
  45   2.0000      -1.014693       -27.6112
  46   2.0000      -1.001659       -27.2565
  47   2.0000      -0.798413       -21.7259
  48   2.0000      -0.760075       -20.6827
  49   2.0000      -0.746094       -20.3022
  50   2.0000      -0.740229       -20.1427
  51   2.0000      -0.721336       -19.6285
  52   2.0000      -0.706274       -19.2187
  53   2.0000      -0.683873       -18.6091
  54   2.0000      -0.663774       -18.0622
  55   2.0000      -0.624166       -16.9844
  56   2.0000      -0.621181       -16.9032
  57   2.0000      -0.606788       -16.5115
  58   2.0000      -0.596628       -16.2351
  59   2.0000      -0.592378       -16.1194
  60   2.0000      -0.535920       -14.5831
  61   2.0000      -0.514115       -13.9898
  62   2.0000      -0.504107       -13.7175
  63   2.0000      -0.484068       -13.1722
  64   2.0000      -0.467818       -12.7300
  65   2.0000      -0.462423       -12.5832
  66   2.0000      -0.460187       -12.5223
  67   2.0000      -0.449997       -12.2451
  68   2.0000      -0.447132       -12.1671
  69   2.0000      -0.427826       -11.6417
  70   2.0000      -0.418813       -11.3965
  71   2.0000      -0.414154       -11.2697
  72   2.0000      -0.408904       -11.1268
  73   2.0000      -0.401400       -10.9227
  74   2.0000      -0.399476       -10.8703
  75   2.0000      -0.384248       -10.4559
  76   2.0000      -0.380816       -10.3625
  77   2.0000      -0.374333       -10.1861
  78   2.0000      -0.371079       -10.0976
  79   2.0000      -0.364311        -9.9134
  80   2.0000      -0.362877        -9.8744
  81   2.0000      -0.356921        -9.7123
  82   2.0000      -0.348847        -9.4926
  83   2.0000      -0.347397        -9.4532
  84   2.0000      -0.339347        -9.2341
  85   2.0000      -0.332909        -9.0589
  86   2.0000      -0.320182        -8.7126
  87   2.0000      -0.318641        -8.6707
  88   2.0000      -0.310113        -8.4386
  89   2.0000      -0.301247        -8.1974
  90   2.0000      -0.294149        -8.0042
  91   2.0000      -0.292411        -7.9569
  92   2.0000      -0.282071        -7.6755
  93   2.0000      -0.277653        -7.5553
  94   2.0000      -0.270036        -7.3480
  95   2.0000      -0.248433        -6.7602
  96   2.0000      -0.232821        -6.3354
  97   2.0000      -0.222749        -6.0613
  98   2.0000      -0.214666        -5.8413
  99   2.0000      -0.207720        -5.6524
 100   2.0000      -0.200214        -5.4481
 101   0.0000      -0.043892        -1.1944
 102   0.0000      -0.032836        -0.8935
 103   0.0000      -0.005618        -0.1529
 104   0.0000       0.014408         0.3921
 105   0.0000       0.019893         0.5413

MULLIKEN ATOMIC CHARGES
-----------------------
   0 C :   -0.430829
   1 C :   -0.168506
   2 O :   -0.268128
   3 P :    0.670940
   4 S :   -0.464276
   5 O :   -0.285895
   6 C :   -0.155511
   7 C :   -0.442221
   8 S :   -0.140048
   9 C :   -0.217506
  10 S :   -0.186470
  11 P :    0.671041
  12 S :   -0.417742
  13 O :   -0.288924
  14 C :   -0.155247
  15 C :   -0.441773
  16 O :   -0.277024
  17 C :   -0.110137
  18 C :   -0.458039
  19 H :    0.144798
  20 H :    0.179409
  21 H :    0.144611
  22 H :    0.144108
  23 H :    0.178487
  24 H :    0.171598
  25 H :    0.146727
  26 H :    0.168199
  27 H :    0.145574
  28 H :    0.154774
  29 H :    0.223069
  30 H :    0.189969
  31 H :    0.150990
  32 H :    0.172702
  33 H :    0.148701
  34 H :    0.160233
  35 H :    0.150633
  36 H :    0.159997
  37 H :    0.162192
  38 H :    0.156222
  39 H :    0.147102
  40 H :    0.166200
Sum of atomic charges:   -0.0000000

LOEWDIN ATOMIC CHARGES
----------------------
   0 C :   -0.408554
   1 C :    0.019845
   2 O :   -0.659416
   3 P :    0.380951
   4 S :   -0.122988
   5 O :   -0.668953
   6 C :    0.019037
   7 C :   -0.400955
   8 S :    0.171105
   9 C :   -0.411380
  10 S :    0.120208
  11 P :    0.371439
  12 S :   -0.081579
  13 O :   -0.676181
  14 C :    0.019985
  15 C :   -0.385874
  16 O :   -0.664970
  17 C :    0.020310
  18 C :   -0.392620
  19 H :    0.160239
  20 H :    0.169907
  21 H :    0.155682
  22 H :    0.176398
  23 H :    0.186365
  24 H :    0.179301
  25 H :    0.178494
  26 H :    0.165582
  27 H :    0.158287
  28 H :    0.160344
  29 H :    0.200489
  30 H :    0.178118
  31 H :    0.172211
  32 H :    0.182123
  33 H :    0.161149
  34 H :    0.162337
  35 H :    0.158230
  36 H :    0.181924
  37 H :    0.176815
  38 H :    0.161156
  39 H :    0.159009
  40 H :    0.166430

  Mayer bond orders larger than 0.100000
B(  0-C ,  1-C ) :   0.9392 B(  0-C , 19-H ) :   0.9630 B(  0-C , 20-H ) :   0.9541
B(  0-C , 21-H ) :   0.9745 B(  1-C ,  2-O ) :   0.7876 B(  1-C , 22-H ) :   0.9687
B(  1-C , 23-H ) :   0.9521 B(  2-O ,  3-P ) :   1.0939 B(  3-P ,  4-S ) :   1.7338
B(  3-P ,  5-O ) :   1.1762 B(  3-P ,  8-S ) :   1.0902 B(  5-O ,  6-C ) :   0.8124
B(  6-C ,  7-C ) :   0.9268 B(  6-C , 24-H ) :   0.9651 B(  6-C , 25-H ) :   0.9611
B(  7-C , 26-H ) :   0.9596 B(  7-C , 27-H ) :   0.9631 B(  7-C , 28-H ) :   0.9709
B(  8-S ,  9-C ) :   0.9020 B(  9-C , 10-S ) :   0.9283 B(  9-C , 29-H ) :   0.9020
B(  9-C , 30-H ) :   0.9154 B( 10-S , 11-P ) :   0.9773 B( 11-P , 12-S ) :   1.8462
B( 11-P , 13-O ) :   1.0527 B( 11-P , 16-O ) :   1.1437 B( 13-O , 14-C ) :   0.7892
B( 14-C , 15-C ) :   0.9561 B( 14-C , 31-H ) :   0.9414 B( 14-C , 32-H ) :   0.9496
B( 15-C , 33-H ) :   0.9631 B( 15-C , 34-H ) :   0.9711 B( 15-C , 35-H ) :   0.9720
B( 16-O , 17-C ) :   0.7433 B( 17-C , 18-C ) :   0.9417 B( 17-C , 36-H ) :   0.9600
B( 17-C , 37-H ) :   0.9664 B( 18-C , 38-H ) :   0.9713 B( 18-C , 39-H ) :   0.9657
B( 18-C , 40-H ) :   0.9664

Dispersion correction           -0.021360751
FINAL SINGLE POINT ENERGY     -2932.460128175328

DIPOLE MOMENT
-------------

Method             : SCF
Type of density    : Electron Density
Multiplicity       :   1
Irrep              :   0
Energy             : -2932.4851872798139993 Eh
Relativity type    :
Basis              : AO
                                X                 Y                 Z
Electronic contribution:      3.364918307      -1.479464336      12.835462360
Nuclear contribution   :     -4.520114068       0.703514572     -13.112929582
                        -----------------------------------------
Total Dipole Moment    :     -1.155195761      -0.775949764      -0.277467222
                        -----------------------------------------
Magnitude (a.u.)       :      1.419000825
Magnitude (Debye)      :      3.606813460

Rotational constants in cm-1:             0.014389             0.004432             0.004418
Rotational constants in MHz :           431.384954           132.870915           132.441538

                             ****ORCA TERMINATED NORMALLY****
TOTAL RUN TIME: 0 days 0 hours 1 minutes 17 seconds 616 msec
