                         Program Version 6.0.0  -   RELEASE  -
|  1> ! r2scan-3c def2/J RI DEFGRID2 scfconv6 printgap
|  2> %output
|  3>     printlevel normal
|  4> end
|  5> %cpcm
|  6>     smd true
|  7>     smdsolvent "water"
|  8> end
|  9> * xyz 0 1
| 10> C 2.5197779968 0.9051117533 -2.5328453084
| 11> C 1.9321818389 -0.4397761893 -2.1543712596
| 12> O 2.5921640445 -1.0043414521 -1.0099696025
| 13> P 2.2752778348 -0.6645902817 0.5110358067
| 14> S 2.5497030726 1.1719276775 1.1544048263
| 15> O 3.1831422949 -1.7395869492 1.235724661
| 16> C 4.5176945721 -1.4370096548 1.6886618635
| 17> C 5.4665061863 -1.2308088029 0.5271452143
| 18> S 0.385665117 -1.5461326728 0.8324086874
| 19> C -0.3530760692 -0.3117966174 1.9627053614
| 20> S -2.1141535186 -0.1085793464 1.6476256506
| 21> P -1.9741610945 0.6099154517 -0.3592930041
| 22> S -0.5298654792 1.8793439204 -0.7130146366
| 23> O -3.4445934925 1.1493984487 -0.6150074948
| 24> C -3.919492759 2.3520192259 0.0262463386
| 25> C -5.1807542526 2.7914537087 -0.6889771719
| 26> O -1.8898580219 -0.6495256623 -1.297758557
| 27> C -2.8501202812 -1.7375635046 -1.2690264578
| 28> C -3.8940870604 -1.5542830676 -2.3506115936
| 29> H 2.0560740701 1.2508011953 -3.4511011872
| 30> H 2.3230521428 1.6371879787 -1.7515592122
| 31> H 3.5932805797 0.8200954115 -2.6775563044
| 32> H 2.0926152055 -1.1792889853 -2.9413465879
| 33> H 0.8597424083 -0.3506605264 -1.9523386804
| 34> H 4.4755629996 -0.540887819 2.3161585987
| 35> H 4.7915122661 -2.3034986974 2.2915689
| 36> H 5.1670832211 -0.3470602076 -0.0355263189
| 37> H 6.4744448386 -1.0865706388 0.9032606406
| 38> H 5.4433336695 -2.0922585072 -0.1349646765
| 39> H 0.1649231813 0.6415834155 1.8196003484
| 40> H -0.2630133026 -0.6610996601 2.988154717
| 41> H -4.1128530807 2.1234163839 1.0775976776
| 42> H -3.1351787736 3.113425878 -0.0369747147
| 43> H -5.5581290546 3.6944009745 -0.2205256343
| 44> H -4.9660676524 2.993626827 -1.7345759685
| 45> H -5.9347699775 2.0123973115 -0.6261819597
| 46> H -2.2489140585 -2.6334383485 -1.4342300057
| 47> H -3.3073819056 -1.7794383341 -0.2768088955
| 48> H -3.415145802 -1.4776896255 -3.3227891046
| 49> H -4.5622163502 -2.4097474625 -2.3458780218
| 50> H -4.467146424 -0.6489741658 -2.169802494
| 51> *
| 52>
| 53>                          ****END OF INPUT****

CARTESIAN COORDINATES (ANGSTROEM)
---------------------------------
  C      2.519778    0.905112   -2.532845
  C      1.932182   -0.439776   -2.154371
  O      2.592164   -1.004341   -1.009970
  P      2.275278   -0.664590    0.511036
  S      2.549703    1.171928    1.154405
  O      3.183142   -1.739587    1.235725
  C      4.517695   -1.437010    1.688662
  C      5.466506   -1.230809    0.527145
  S      0.385665   -1.546133    0.832409
  C     -0.353076   -0.311797    1.962705
  S     -2.114154   -0.108579    1.647626
  P     -1.974161    0.609915   -0.359293
  S     -0.529865    1.879344   -0.713015
  O     -3.444593    1.149398   -0.615007
  C     -3.919493    2.352019    0.026246
  C     -5.180754    2.791454   -0.688977
  O     -1.889858   -0.649526   -1.297759
  C     -2.850120   -1.737564   -1.269026
  C     -3.894087   -1.554283   -2.350612
  H      2.056074    1.250801   -3.451101
  H      2.323052    1.637188   -1.751559
  H      3.593281    0.820095   -2.677556
  H      2.092615   -1.179289   -2.941347
  H      0.859742   -0.350661   -1.952339
  H      4.475563   -0.540888    2.316159
  H      4.791512   -2.303499    2.291569
  H      5.167083   -0.347060   -0.035526
  H      6.474445   -1.086571    0.903261
  H      5.443334   -2.092259   -0.134965
  H      0.164923    0.641583    1.819600
  H     -0.263013   -0.661100    2.988155
  H     -4.112853    2.123416    1.077598
  H     -3.135179    3.113426   -0.036975
  H     -5.558129    3.694401   -0.220526
  H     -4.966068    2.993627   -1.734576
  H     -5.934770    2.012397   -0.626182
  H     -2.248914   -2.633438   -1.434230
  H     -3.307382   -1.779438   -0.276809
  H     -3.415146   -1.477690   -3.322789
  H     -4.562216   -2.409747   -2.345878
  H     -4.467146   -0.648974   -2.169802

 Total Charge           Charge          ....    0
 Multiplicity           Mult            ....    1
 Number of Electrons    NEL             ....  202
 Basis Dimension        Dim             ....  539

ORBITAL ENERGIES
----------------

  NO   OCC          E(Eh)            E(eV)
   0   2.0000     -88.581115     -2410.4147
   1   2.0000     -88.577727     -2410.3225
   2   2.0000     -88.526880     -2408.9389
   3   2.0000     -88.525339     -2408.8969
   4   2.0000     -76.918711     -2093.0645
   5   2.0000     -76.918454     -2093.0576
   6   2.0000     -18.996000      -516.9074
   7   2.0000     -18.995703      -516.8994
   8   2.0000     -18.994278      -516.8606
   9   2.0000     -18.989507      -516.7308
  10   2.0000     -10.103790      -274.9381
  11   2.0000     -10.092412      -274.6285
  12   2.0000     -10.091371      -274.6002
  13   2.0000     -10.087932      -274.5066
  14   2.0000     -10.087518      -274.4953
  15   2.0000     -10.020082      -272.6603
  16   2.0000     -10.018715      -272.6231
  17   2.0000     -10.017839      -272.5993
  18   2.0000     -10.014769      -272.5157
  19   2.0000      -7.875342      -214.2989
  20   2.0000      -7.872109      -214.2110
  21   2.0000      -7.821895      -212.8446
  22   2.0000      -7.820425      -212.8046
  23   2.0000      -6.597286      -179.5213
  24   2.0000      -6.596778      -179.5075
  25   2.0000      -5.822210      -158.4304
  26   2.0000      -5.819007      -158.3432
  27   2.0000      -5.818908      -158.3405
  28   2.0000      -5.816088      -158.2638
  29   2.0000      -5.812676      -158.1710
  30   2.0000      -5.809163      -158.0754
  31   2.0000      -5.769462      -156.9951
  32   2.0000      -5.768086      -156.9576
  33   2.0000      -5.762338      -156.8012
  34   2.0000      -5.761769      -156.7857
  35   2.0000      -5.760575      -156.7532
  36   2.0000      -5.760475      -156.7505
  37   2.0000      -4.743015      -129.0640
  38   2.0000      -4.742361      -129.0462
  39   2.0000      -4.742099      -129.0391
  40   2.0000      -4.741774      -129.0302
  41   2.0000      -4.740688      -129.0007
  42   2.0000      -4.740664      -129.0000
  43   2.0000      -1.054963       -28.7070
  44   2.0000      -1.051214       -28.6050
  45   2.0000      -1.013927       -27.5903
  46   2.0000      -1.010692       -27.5023
  47   2.0000      -0.801627       -21.8134
  48   2.0000      -0.756720       -20.5914
  49   2.0000      -0.745272       -20.2799
  50   2.0000      -0.727754       -19.8032
  51   2.0000      -0.721875       -19.6432
  52   2.0000      -0.708676       -19.2841
  53   2.0000      -0.688449       -18.7336
  54   2.0000      -0.671777       -18.2800
  55   2.0000      -0.627884       -17.0856
  56   2.0000      -0.615952       -16.7609
  57   2.0000      -0.600305       -16.3351
  58   2.0000      -0.595730       -16.2106
  59   2.0000      -0.592196       -16.1145
  60   2.0000      -0.531693       -14.4681
  61   2.0000      -0.516926       -14.0663
  62   2.0000      -0.498291       -13.5592
  63   2.0000      -0.488452       -13.2914
  64   2.0000      -0.466113       -12.6836
  65   2.0000      -0.460602       -12.5336
  66   2.0000      -0.458619       -12.4796
  67   2.0000      -0.451455       -12.2847
  68   2.0000      -0.443366       -12.0646
  69   2.0000      -0.427931       -11.6446
  70   2.0000      -0.419547       -11.4165
  71   2.0000      -0.417132       -11.3507
  72   2.0000      -0.403437       -10.9781
  73   2.0000      -0.402212       -10.9447
  74   2.0000      -0.391573       -10.6553
  75   2.0000      -0.387000       -10.5308
  76   2.0000      -0.380829       -10.3629
  77   2.0000      -0.367216        -9.9925
  78   2.0000      -0.362377        -9.8608
  79   2.0000      -0.359131        -9.7725
  80   2.0000      -0.353150        -9.6097
  81   2.0000      -0.351251        -9.5580
  82   2.0000      -0.349239        -9.5033
  83   2.0000      -0.346890        -9.4394
  84   2.0000      -0.343038        -9.3345
  85   2.0000      -0.326425        -8.8825
  86   2.0000      -0.323264        -8.7965
  87   2.0000      -0.314571        -8.5599
  88   2.0000      -0.304912        -8.2971
  89   2.0000      -0.302423        -8.2294
  90   2.0000      -0.298288        -8.1168
  91   2.0000      -0.291132        -7.9221
  92   2.0000      -0.287391        -7.8203
  93   2.0000      -0.279331        -7.6010
  94   2.0000      -0.275510        -7.4970
  95   2.0000      -0.252807        -6.8792
  96   2.0000      -0.242347        -6.5946
  97   2.0000      -0.232883        -6.3371
  98   2.0000      -0.224126        -6.0988
  99   2.0000      -0.218298        -5.9402
 100   2.0000      -0.211422        -5.7531
 101   0.0000      -0.048731        -1.3260
 102   0.0000      -0.041266        -1.1229
 103   0.0000      -0.010584        -0.2880
 104   0.0000       0.011811         0.3214
 105   0.0000       0.014205         0.3865

MULLIKEN ATOMIC CHARGES
-----------------------
   0 C :   -0.482348
   1 C :   -0.149080
   2 O :   -0.293431
   3 P :    0.699127
   4 S :   -0.508098
   5 O :   -0.322206
   6 C :   -0.147265
   7 C :   -0.483245
   8 S :   -0.152601
   9 C :   -0.219824
  10 S :   -0.182491
  11 P :    0.686580
  12 S :   -0.472510
  13 O :   -0.307157
  14 C :   -0.144916
  15 C :   -0.481661
  16 O :   -0.305929
  17 C :   -0.094461
  18 C :   -0.500447
  19 H :    0.168872
  20 H :    0.170465
  21 H :    0.164605
  22 H :    0.174107
  23 H :    0.170090
  24 H :    0.175251
  25 H :    0.173616
  26 H :    0.166713
  27 H :    0.172094
  28 H :    0.169051
  29 H :    0.217866
  30 H :    0.231077
  31 H :    0.169292
  32 H :    0.173230
  33 H :    0.169827
  34 H :    0.167063
  35 H :    0.166322
  36 H :    0.180028
  37 H :    0.174068
  38 H :    0.167542
  39 H :    0.171325
  40 H :    0.169462
Sum of atomic charges:   -0.0000000

LOEWDIN ATOMIC CHARGES
----------------------
   0 C :   -0.414560
   1 C :    0.024261
   2 O :   -0.671327
   3 P :    0.383686
   4 S :   -0.152101
   5 O :   -0.687375
   6 C :    0.023593
   7 C :   -0.404185
   8 S :    0.167306
   9 C :   -0.406807
  10 S :    0.130640
  11 P :    0.373814
  12 S :   -0.122572
  13 O :   -0.682269
  14 C :    0.024386
  15 C :   -0.388902
  16 O :   -0.680906
  17 C :    0.027730
  18 C :   -0.395250
  19 H :    0.167819
  20 H :    0.163553
  21 H :    0.161489
  22 H :    0.188847
  23 H :    0.184013
  24 H :    0.180967
  25 H :    0.189707
  26 H :    0.162376
  27 H :    0.168403
  28 H :    0.163649
  29 H :    0.198036
  30 H :    0.193530
  31 H :    0.179737
  32 H :    0.181774
  33 H :    0.169242
  34 H :    0.163519
  35 H :    0.163262
  36 H :    0.190354
  37 H :    0.182424
  38 H :    0.163526
  39 H :    0.168941
  40 H :    0.165671

  Mayer bond orders larger than 0.100000
B(  0-C ,  1-C ) :   0.9232 B(  0-C , 19-H ) :   0.9600 B(  0-C , 20-H ) :   0.9590
B(  0-C , 21-H ) :   0.9710 B(  1-C ,  2-O ) :   0.7802 B(  1-C , 22-H ) :   0.9587
B(  1-C , 23-H ) :   0.9510 B(  2-O ,  3-P ) :   1.0937 B(  3-P ,  4-S ) :   1.7033
B(  3-P ,  5-O ) :   1.1727 B(  3-P ,  8-S ) :   1.1070 B(  5-O ,  6-C ) :   0.8021
B(  6-C ,  7-C ) :   0.9132 B(  6-C , 24-H ) :   0.9602 B(  6-C , 25-H ) :   0.9516
B(  7-C , 26-H ) :   0.9594 B(  7-C , 27-H ) :   0.9566 B(  7-C , 28-H ) :   0.9701
B(  8-S ,  9-C ) :   0.8921 B(  9-C , 10-S ) :   0.9232 B(  9-C , 29-H ) :   0.9055
B(  9-C , 30-H ) :   0.9013 B( 10-S , 11-P ) :   0.9926 B( 11-P , 12-S ) :   1.8165
B( 11-P , 13-O ) :   1.0635 B( 11-P , 16-O ) :   1.1496 B( 13-O , 14-C ) :   0.7806
B( 14-C , 15-C ) :   0.9553 B( 14-C , 31-H ) :   0.9326 B( 14-C , 32-H ) :   0.9471
B( 15-C , 33-H ) :   0.9577 B( 15-C , 34-H ) :   0.9690 B( 15-C , 35-H ) :   0.9684
B( 16-O , 17-C ) :   0.7331 B( 17-C , 18-C ) :   0.9339 B( 17-C , 36-H ) :   0.9503
B( 17-C , 37-H ) :   0.9575 B( 18-C , 38-H ) :   0.9699 B( 18-C , 39-H ) :   0.9591
B( 18-C , 40-H ) :   0.9662

Dispersion correction           -0.021360751
FINAL SINGLE POINT ENERGY     -2932.468309961167

DIPOLE MOMENT
-------------

Method             : SCF
Type of density    : Electron Density
Multiplicity       :   1
Irrep              :   0
Energy             : -2932.4933690656521321 Eh
Relativity type    :
Basis              : AO
                                X                 Y                 Z
Electronic contribution:      2.966953542      -1.910274874      12.971750054
Nuclear contribution   :     -4.520114068       0.703514572     -13.112929582
                        -----------------------------------------
Total Dipole Moment    :     -1.553160526      -1.206760302      -0.141179528
                        -----------------------------------------
Magnitude (a.u.)       :      1.971930451
Magnitude (Debye)      :      5.012248878

Rotational constants in cm-1:             0.014389             0.004432             0.004418
Rotational constants in MHz :           431.384954           132.870915           132.441538

                             ****ORCA TERMINATED NORMALLY****
TOTAL RUN TIME: 0 days 0 hours 1 minutes 47 seconds 306 msec
