                         Program Version 6.0.0  -   RELEASE  -
|  1> ! pbe def2-sv(p) def2/J RI DEFGRID1 loosescf d4 GCP(DFT/SV(P)) printgap
|  2> %output
|  3>     printlevel normal
|  4> end
|  5> * xyz 0 1
|  6> C 5.6323040977 -0.3701242699 -0.9212752263
|  7> C 4.468602852 -1.2267609429 -1.3734035122
|  8> O 3.3741330066 -1.1854726213 -0.43475777
|  9> P 2.4888906849 0.1120345429 -0.2184874016
| 10> S 2.134137159 1.1467834243 -1.8531043818
| 11> O 3.274374626 0.883997647 0.925267586
| 12> C 3.0290513475 2.266118503 1.2365232188
| 13> C 1.666649192 2.4698531647 1.8658245265
| 14> S 0.8713351414 -0.8048884054 0.7593105394
| 15> C 0.0064356794 -1.3140787673 -0.7723904137
| 16> S -1.67215068 -1.8513612311 -0.4329645313
| 17> P -2.5679797997 0.04735766 0.0117624227
| 18> S -1.487987503 1.6242776571 -0.4038544603
| 19> O -3.094757144 -0.1370183822 1.5035152859
| 20> C -2.2543570978 -0.3645319003 2.6492713444
| 21> C -1.7728160215 0.9426503711 3.2459134862
| 22> O -3.9245778968 0.0959423602 -0.7781851187
| 23> C -4.9756757684 -0.9017770851 -0.6787491198
| 24> C -4.9547529663 -1.8168469289 -1.8867316155
| 25> H 5.920934314 -0.6346586174 0.0924959611
| 26> H 6.4734025712 -0.5233676293 -1.5901215033
| 27> H 5.3490329714 0.6812543655 -0.9440510827
| 28> H 4.7350796811 -2.2836300784 -1.415599065
| 29> H 4.0993841851 -0.892996082 -2.3486542534
| 30> H 3.8349591959 2.5261100237 1.9242151011
| 31> H 3.1175804444 2.8519434819 0.3157905111
| 32> H 0.8837962226 2.2716409255 1.1325323378
| 33> H 1.5394861391 1.7985651136 2.7116459154
| 34> H 1.5720197715 3.4975116258 2.2015272077
| 35> H 0.5217523531 -2.1655245601 -1.2111138766
| 36> H -0.0094256934 -0.4591997321 -1.45317351
| 37> H -2.8950448925 -0.907353533 3.3469079307
| 38> H -1.4076400541 -0.9953559481 2.3594319633
| 39> H -1.1669719203 1.4833208933 2.5228777852
| 40> H -2.6200003796 1.5641194323 3.5221041077
| 41> H -1.1741249839 0.7347885826 4.1264885716
| 42> H -4.8523951651 -1.4607181419 0.2496619168
| 43> H -5.8971557688 -0.3187662849 -0.6393794071
| 44> H -5.0022338578 -1.22835016 -2.7988216654
| 45> H -4.0464427517 -2.4140676668 -1.8988045764
| 46> H -5.8142740933 -2.4781538072 -1.843047341
| 47> *
| 48>
| 49>                          ****END OF INPUT****

CARTESIAN COORDINATES (ANGSTROEM)
---------------------------------
  C      5.632304   -0.370124   -0.921275
  C      4.468603   -1.226761   -1.373404
  O      3.374133   -1.185473   -0.434758
  P      2.488891    0.112035   -0.218487
  S      2.134137    1.146783   -1.853104
  O      3.274375    0.883998    0.925268
  C      3.029051    2.266119    1.236523
  C      1.666649    2.469853    1.865825
  S      0.871335   -0.804888    0.759311
  C      0.006436   -1.314079   -0.772390
  S     -1.672151   -1.851361   -0.432965
  P     -2.567980    0.047358    0.011762
  S     -1.487988    1.624278   -0.403854
  O     -3.094757   -0.137018    1.503515
  C     -2.254357   -0.364532    2.649271
  C     -1.772816    0.942650    3.245913
  O     -3.924578    0.095942   -0.778185
  C     -4.975676   -0.901777   -0.678749
  C     -4.954753   -1.816847   -1.886732
  H      5.920934   -0.634659    0.092496
  H      6.473403   -0.523368   -1.590122
  H      5.349033    0.681254   -0.944051
  H      4.735080   -2.283630   -1.415599
  H      4.099384   -0.892996   -2.348654
  H      3.834959    2.526110    1.924215
  H      3.117580    2.851943    0.315791
  H      0.883796    2.271641    1.132532
  H      1.539486    1.798565    2.711646
  H      1.572020    3.497512    2.201527
  H      0.521752   -2.165525   -1.211114
  H     -0.009426   -0.459200   -1.453174
  H     -2.895045   -0.907354    3.346908
  H     -1.407640   -0.995356    2.359432
  H     -1.166972    1.483321    2.522878
  H     -2.620000    1.564119    3.522104
  H     -1.174125    0.734789    4.126489
  H     -4.852395   -1.460718    0.249662
  H     -5.897156   -0.318766   -0.639379
  H     -5.002234   -1.228350   -2.798822
  H     -4.046443   -2.414068   -1.898805
  H     -5.814274   -2.478154   -1.843047

 Total Charge           Charge          ....    0
 Multiplicity           Mult            ....    1
 Number of Electrons    NEL             ....  202
 Basis Dimension        Dim             ....  334

ORBITAL ENERGIES
----------------

  NO   OCC          E(Eh)            E(eV)
   0   2.0000     -88.047973     -2395.9071
   1   2.0000     -88.039092     -2395.6655
   2   2.0000     -87.985182     -2394.1985
   3   2.0000     -87.982775     -2394.1330
   4   2.0000     -76.426042     -2079.6583
   5   2.0000     -76.423922     -2079.6006
   6   2.0000     -18.793005      -511.3837
   7   2.0000     -18.792667      -511.3745
   8   2.0000     -18.791868      -511.3527
   9   2.0000     -18.786968      -511.2194
  10   2.0000      -9.959030      -270.9990
  11   2.0000      -9.953658      -270.8528
  12   2.0000      -9.952976      -270.8342
  13   2.0000      -9.950462      -270.7658
  14   2.0000      -9.949325      -270.7349
  15   2.0000      -9.888495      -269.0796
  16   2.0000      -9.882971      -268.9293
  17   2.0000      -9.879510      -268.8351
  18   2.0000      -9.878634      -268.8113
  19   2.0000      -7.692747      -209.3303
  20   2.0000      -7.684200      -209.0977
  21   2.0000      -7.630004      -207.6230
  22   2.0000      -7.627605      -207.5577
  23   2.0000      -6.423406      -174.7898
  24   2.0000      -6.421566      -174.7397
  25   2.0000      -5.720594      -155.6653
  26   2.0000      -5.717142      -155.5713
  27   2.0000      -5.712090      -155.4339
  28   2.0000      -5.709931      -155.3751
  29   2.0000      -5.709088      -155.3522
  30   2.0000      -5.700783      -155.1262
  31   2.0000      -5.658816      -153.9842
  32   2.0000      -5.656790      -153.9291
  33   2.0000      -5.650665      -153.7624
  34   2.0000      -5.650280      -153.7519
  35   2.0000      -5.647906      -153.6873
  36   2.0000      -5.647800      -153.6845
  37   2.0000      -4.646120      -126.4274
  38   2.0000      -4.645306      -126.4052
  39   2.0000      -4.644081      -126.3719
  40   2.0000      -4.643630      -126.3596
  41   2.0000      -4.643243      -126.3491
  42   2.0000      -4.642124      -126.3186
  43   2.0000      -0.988662       -26.9029
  44   2.0000      -0.985235       -26.8096
  45   2.0000      -0.944873       -25.7113
  46   2.0000      -0.944056       -25.6891
  47   2.0000      -0.763184       -20.7673
  48   2.0000      -0.722219       -19.6526
  49   2.0000      -0.710732       -19.3400
  50   2.0000      -0.689691       -18.7674
  51   2.0000      -0.685198       -18.6452
  52   2.0000      -0.674126       -18.3439
  53   2.0000      -0.649902       -17.6847
  54   2.0000      -0.635049       -17.2806
  55   2.0000      -0.599086       -16.3020
  56   2.0000      -0.585002       -15.9187
  57   2.0000      -0.577498       -15.7145
  58   2.0000      -0.570813       -15.5326
  59   2.0000      -0.561907       -15.2903
  60   2.0000      -0.504952       -13.7404
  61   2.0000      -0.491954       -13.3868
  62   2.0000      -0.477282       -12.9875
  63   2.0000      -0.471552       -12.8316
  64   2.0000      -0.451012       -12.2727
  65   2.0000      -0.446823       -12.1587
  66   2.0000      -0.442418       -12.0388
  67   2.0000      -0.437032       -11.8922
  68   2.0000      -0.430502       -11.7145
  69   2.0000      -0.416574       -11.3356
  70   2.0000      -0.406425       -11.0594
  71   2.0000      -0.398177       -10.8350
  72   2.0000      -0.392057       -10.6684
  73   2.0000      -0.389979       -10.6119
  74   2.0000      -0.381811       -10.3896
  75   2.0000      -0.380155       -10.3445
  76   2.0000      -0.361067        -9.8251
  77   2.0000      -0.355532        -9.6745
  78   2.0000      -0.353451        -9.6179
  79   2.0000      -0.350660        -9.5419
  80   2.0000      -0.347284        -9.4501
  81   2.0000      -0.345074        -9.3899
  82   2.0000      -0.341511        -9.2930
  83   2.0000      -0.333313        -9.0699
  84   2.0000      -0.332061        -9.0358
  85   2.0000      -0.315690        -8.5904
  86   2.0000      -0.311268        -8.4700
  87   2.0000      -0.299447        -8.1484
  88   2.0000      -0.293190        -7.9781
  89   2.0000      -0.292527        -7.9601
  90   2.0000      -0.280763        -7.6400
  91   2.0000      -0.277624        -7.5545
  92   2.0000      -0.272072        -7.4034
  93   2.0000      -0.264712        -7.2032
  94   2.0000      -0.260087        -7.0773
  95   2.0000      -0.235434        -6.4065
  96   2.0000      -0.221184        -6.0187
  97   2.0000      -0.207834        -5.6554
  98   2.0000      -0.202601        -5.5130
  99   2.0000      -0.194565        -5.2944
 100   2.0000      -0.192401        -5.2355
 101   0.0000      -0.048300        -1.3143
 102   0.0000      -0.032986        -0.8976
 103   0.0000      -0.010499        -0.2857
 104   0.0000       0.007907         0.2152
 105   0.0000       0.016160         0.4397

MULLIKEN ATOMIC CHARGES
-----------------------
   0 C :   -0.306502
   1 C :   -0.004247
   2 O :   -0.371121
   3 P :    0.616172
   4 S :   -0.322300
   5 O :   -0.371139
   6 C :    0.008608
   7 C :   -0.364997
   8 S :   -0.102039
   9 C :   -0.336634
  10 S :   -0.126998
  11 P :    0.597345
  12 S :   -0.280440
  13 O :   -0.377588
  14 C :   -0.015880
  15 C :   -0.310829
  16 O :   -0.353461
  17 C :   -0.018891
  18 C :   -0.293027
  19 H :    0.117539
  20 H :    0.111397
  21 H :    0.122140
  22 H :    0.103536
  23 H :    0.108931
  24 H :    0.103061
  25 H :    0.111002
  26 H :    0.172347
  27 H :    0.114847
  28 H :    0.113307
  29 H :    0.180546
  30 H :    0.209691
  31 H :    0.102754
  32 H :    0.112242
  33 H :    0.149269
  34 H :    0.112918
  35 H :    0.106593
  36 H :    0.107022
  37 H :    0.113870
  38 H :    0.124535
  39 H :    0.125656
  40 H :    0.110763
Sum of atomic charges:    0.0000000

LOEWDIN ATOMIC CHARGES
----------------------
   0 C :   -0.364068
   1 C :   -0.119145
   2 O :   -0.246915
   3 P :    0.573117
   4 S :   -0.310181
   5 O :   -0.241473
   6 C :   -0.117793
   7 C :   -0.375896
   8 S :    0.079030
   9 C :   -0.477899
  10 S :    0.069779
  11 P :    0.560489
  12 S :   -0.275967
  13 O :   -0.247149
  14 C :   -0.117550
  15 C :   -0.364567
  16 O :   -0.233805
  17 C :   -0.112222
  18 C :   -0.360874
  19 H :    0.126795
  20 H :    0.129905
  21 H :    0.123082
  22 H :    0.117959
  23 H :    0.109339
  24 H :    0.117705
  25 H :    0.111467
  26 H :    0.124032
  27 H :    0.121807
  28 H :    0.131770
  29 H :    0.133755
  30 H :    0.124034
  31 H :    0.116981
  32 H :    0.096862
  33 H :    0.128196
  34 H :    0.126332
  35 H :    0.127960
  36 H :    0.109871
  37 H :    0.123682
  38 H :    0.131458
  39 H :    0.119894
  40 H :    0.130201

  Mayer bond orders larger than 0.100000
B(  0-C ,  1-C ) :   1.1647 B(  0-C , 19-H ) :   0.9464 B(  0-C , 20-H ) :   0.9390
B(  0-C , 21-H ) :   0.9384 B(  1-C ,  2-O ) :   0.9115 B(  1-C , 22-H ) :   0.9350
B(  1-C , 23-H ) :   0.9146 B(  2-O ,  3-P ) :   1.1161 B(  3-P ,  4-S ) :   1.6041
B(  3-P ,  5-O ) :   1.1132 B(  3-P ,  8-S ) :   0.9667 B(  4-S ,  8-S ) :   0.1147
B(  5-O ,  6-C ) :   0.9044 B(  6-C ,  7-C ) :   1.1632 B(  6-C , 24-H ) :   0.9325
B(  6-C , 25-H ) :   0.9154 B(  7-C , 26-H ) :   0.9157 B(  7-C , 27-H ) :   0.9425
B(  7-C , 28-H ) :   0.9369 B(  8-S ,  9-C ) :   0.9759 B(  9-C , 10-S ) :   1.0254
B(  9-C , 29-H ) :   0.9037 B(  9-C , 30-H ) :   0.8558 B( 10-S , 11-P ) :   0.9126
B( 10-S , 12-S ) :   0.1169 B( 11-P , 12-S ) :   1.6774 B( 11-P , 13-O ) :   1.0840
B( 11-P , 16-O ) :   1.1481 B( 13-O , 14-C ) :   0.9102 B( 14-C , 15-C ) :   1.1671
B( 14-C , 31-H ) :   0.9351 B( 14-C , 32-H ) :   0.9050 B( 15-C , 33-H ) :   0.9267
B( 15-C , 34-H ) :   0.9447 B( 15-C , 35-H ) :   0.9384 B( 16-O , 17-C ) :   0.8919
B( 17-C , 18-C ) :   1.1647 B( 17-C , 36-H ) :   0.9197 B( 17-C , 37-H ) :   0.9352
B( 18-C , 38-H ) :   0.9462 B( 18-C , 39-H ) :   0.9376 B( 18-C , 40-H ) :   0.9392

Dispersion correction           -0.064768433
FINAL SINGLE POINT ENERGY     -2929.517342626955

DIPOLE MOMENT
-------------

Method             : SCF
Type of density    : Electron Density
Multiplicity       :   1
Irrep              :   0
Energy             : -2929.6369699306610528 Eh
Relativity type    :
Basis              : AO
                                X                 Y                 Z
Electronic contribution:     -3.092578478      -1.440514556      -7.240125562
Nuclear contribution   :      3.035886577       0.456287925       8.104451830
                        -----------------------------------------
Total Dipole Moment    :     -0.056691901      -0.984226631       0.864326268
                        -----------------------------------------
Magnitude (a.u.)       :      1.311097224
Magnitude (Debye)      :      3.332544302

Rotational constants in cm-1:             0.013758             0.004534             0.004092
Rotational constants in MHz :           412.450645           135.914404           122.674014

                             ****ORCA TERMINATED NORMALLY****
TOTAL RUN TIME: 0 days 0 hours 0 minutes 20 seconds 750 msec
