                         Program Version 6.0.0  -   RELEASE  -
|  1> ! pbe def2-sv(p) def2/J RI DEFGRID1 loosescf d4 GCP(DFT/SV(P)) printgap
|  2> %output
|  3>     printlevel normal
|  4> end
|  5> * xyz 0 1
|  6> C 3.7129907859 -2.2605074959 1.6067020976
|  7> C 2.3310511514 -2.2138009205 0.9878801962
|  8> O 1.8902643883 -0.8540016397 0.8011645027
|  9> P 2.4695186671 0.0684815476 -0.371407775
| 10> S 3.1445982837 -0.8895619046 -1.9339312942
| 11> O 3.5833594167 0.9895786646 0.2752828386
| 12> C 3.4154997195 1.6960853139 1.5293337195
| 13> C 3.0073734887 3.1359274154 1.2916789893
| 14> S 0.8018031974 1.3321830628 -0.6881662337
| 15> C -0.1318219875 0.1515374383 -1.696676714
| 16> S -1.0055773468 -1.0796118297 -0.7143657318
| 17> P -2.5177741436 0.2523710255 0.0088680984
| 18> S -3.0861599695 1.5896151926 -1.3075626888
| 19> O -1.9878344379 0.999882917 1.2902658677
| 20> C -1.8870401852 0.4634225946 2.6322098975
| 21> C -0.9522174723 -0.7243451604 2.7218359788
| 22> O -3.6081172909 -0.7213344094 0.6271275145
| 23> C -4.1711759093 -1.868307154 -0.0366092403
| 24> C -4.8019202522 -1.524345356 -1.3692668092
| 25> H 3.7230926344 -1.7367076256 2.5589259172
| 26> H 4.0026588263 -3.2947929794 1.7623368428
| 27> H 4.4310297577 -1.7903108517 0.9348444504
| 28> H 1.5742397613 -2.6540895224 1.6381154842
| 29> H 2.3244719433 -2.7177677973 0.0168083715
| 30> H 2.6773733717 1.1699212233 2.1389143987
| 31> H 4.3975003989 1.6385475611 2.0021215869
| 32> H 3.7220455018 3.6214145935 0.6328649609
| 33> H 2.0217407453 3.1859704824 0.8324439937
| 34> H 2.9829918455 3.6598758003 2.2421026808
| 35> H 0.5564902718 -0.3808323739 -2.3546107218
| 36> H -0.8592889692 0.7335029024 -2.2651246059
| 37> H -1.514451917 1.3125154201 3.2075517486
| 38> H -2.8912713713 0.1979662644 2.9676132459
| 39> H -0.8281196687 -0.9980726787 3.7650871225
| 40> H -1.3619246938 -1.5732731617 2.1778105146
| 41> H 0.0176342563 -0.4741264999 2.298935329
| 42> H -3.3794517656 -2.6114944245 -0.1653745462
| 43> H -4.9146425311 -2.2346049974 0.6736309726
| 44> H -5.536638518 -0.731709865 -1.248760129
| 45> H -4.0409569191 -1.1815186386 -2.0688312342
| 46> H -5.2862159771 -2.405543525 -1.7775301846
| 47> *
| 48>
| 49>                          ****END OF INPUT****

CARTESIAN COORDINATES (ANGSTROEM)
---------------------------------
  C      3.712991   -2.260507    1.606702
  C      2.331051   -2.213801    0.987880
  O      1.890264   -0.854002    0.801165
  P      2.469519    0.068482   -0.371408
  S      3.144598   -0.889562   -1.933931
  O      3.583359    0.989579    0.275283
  C      3.415500    1.696085    1.529334
  C      3.007373    3.135927    1.291679
  S      0.801803    1.332183   -0.688166
  C     -0.131822    0.151537   -1.696677
  S     -1.005577   -1.079612   -0.714366
  P     -2.517774    0.252371    0.008868
  S     -3.086160    1.589615   -1.307563
  O     -1.987834    0.999883    1.290266
  C     -1.887040    0.463423    2.632210
  C     -0.952217   -0.724345    2.721836
  O     -3.608117   -0.721334    0.627128
  C     -4.171176   -1.868307   -0.036609
  C     -4.801920   -1.524345   -1.369267
  H      3.723093   -1.736708    2.558926
  H      4.002659   -3.294793    1.762337
  H      4.431030   -1.790311    0.934844
  H      1.574240   -2.654090    1.638115
  H      2.324472   -2.717768    0.016808
  H      2.677373    1.169921    2.138914
  H      4.397500    1.638548    2.002122
  H      3.722046    3.621415    0.632865
  H      2.021741    3.185970    0.832444
  H      2.982992    3.659876    2.242103
  H      0.556490   -0.380832   -2.354611
  H     -0.859289    0.733503   -2.265125
  H     -1.514452    1.312515    3.207552
  H     -2.891271    0.197966    2.967613
  H     -0.828120   -0.998073    3.765087
  H     -1.361925   -1.573273    2.177811
  H      0.017634   -0.474126    2.298935
  H     -3.379452   -2.611494   -0.165375
  H     -4.914643   -2.234605    0.673631
  H     -5.536639   -0.731710   -1.248760
  H     -4.040957   -1.181519   -2.068831
  H     -5.286216   -2.405544   -1.777530

 Total Charge           Charge          ....    0
 Multiplicity           Mult            ....    1
 Number of Electrons    NEL             ....  202
 Basis Dimension        Dim             ....  334

ORBITAL ENERGIES
----------------

  NO   OCC          E(Eh)            E(eV)
   0   2.0000     -88.041928     -2395.7426
   1   2.0000     -88.040821     -2395.7125
   2   2.0000     -87.987773     -2394.2690
   3   2.0000     -87.981294     -2394.0927
   4   2.0000     -76.427809     -2079.7064
   5   2.0000     -76.427473     -2079.6973
   6   2.0000     -18.800166      -511.5785
   7   2.0000     -18.799018      -511.5473
   8   2.0000     -18.795429      -511.4496
   9   2.0000     -18.789089      -511.2771
  10   2.0000      -9.963690      -271.1258
  11   2.0000      -9.963035      -271.1080
  12   2.0000      -9.957161      -270.9481
  13   2.0000      -9.954310      -270.8705
  14   2.0000      -9.949406      -270.7371
  15   2.0000      -9.892510      -269.1889
  16   2.0000      -9.889741      -269.1135
  17   2.0000      -9.887894      -269.0633
  18   2.0000      -9.884961      -268.9835
  19   2.0000      -7.686734      -209.1667
  20   2.0000      -7.685927      -209.1447
  21   2.0000      -7.633035      -207.7055
  22   2.0000      -7.626586      -207.5300
  23   2.0000      -6.425522      -174.8473
  24   2.0000      -6.424770      -174.8269
  25   2.0000      -5.714384      -155.4963
  26   2.0000      -5.713717      -155.4781
  27   2.0000      -5.711341      -155.4135
  28   2.0000      -5.710655      -155.3948
  29   2.0000      -5.703888      -155.2107
  30   2.0000      -5.702762      -155.1800
  31   2.0000      -5.662064      -154.0726
  32   2.0000      -5.655699      -153.8994
  33   2.0000      -5.653653      -153.8437
  34   2.0000      -5.653021      -153.8265
  35   2.0000      -5.647169      -153.6673
  36   2.0000      -5.646547      -153.6504
  37   2.0000      -4.648564      -126.4939
  38   2.0000      -4.647902      -126.4758
  39   2.0000      -4.646836      -126.4468
  40   2.0000      -4.646574      -126.4397
  41   2.0000      -4.645927      -126.4221
  42   2.0000      -4.644750      -126.3901
  43   2.0000      -0.991242       -26.9731
  44   2.0000      -0.989894       -26.9364
  45   2.0000      -0.949321       -25.8323
  46   2.0000      -0.946037       -25.7430
  47   2.0000      -0.764437       -20.8014
  48   2.0000      -0.724757       -19.7216
  49   2.0000      -0.713979       -19.4284
  50   2.0000      -0.696453       -18.9515
  51   2.0000      -0.694061       -18.8864
  52   2.0000      -0.678278       -18.4569
  53   2.0000      -0.651945       -17.7403
  54   2.0000      -0.637226       -17.3398
  55   2.0000      -0.596796       -16.2396
  56   2.0000      -0.591530       -16.0963
  57   2.0000      -0.584585       -15.9074
  58   2.0000      -0.583409       -15.8754
  59   2.0000      -0.559449       -15.2234
  60   2.0000      -0.505605       -13.7582
  61   2.0000      -0.499044       -13.5797
  62   2.0000      -0.483991       -13.1701
  63   2.0000      -0.473136       -12.8747
  64   2.0000      -0.462219       -12.5776
  65   2.0000      -0.451400       -12.2832
  66   2.0000      -0.444628       -12.0989
  67   2.0000      -0.435741       -11.8571
  68   2.0000      -0.435489       -11.8503
  69   2.0000      -0.418021       -11.3749
  70   2.0000      -0.412797       -11.2328
  71   2.0000      -0.408143       -11.1061
  72   2.0000      -0.403375       -10.9764
  73   2.0000      -0.388297       -10.5661
  74   2.0000      -0.376719       -10.2510
  75   2.0000      -0.376546       -10.2463
  76   2.0000      -0.362375        -9.8607
  77   2.0000      -0.360944        -9.8218
  78   2.0000      -0.356605        -9.7037
  79   2.0000      -0.355384        -9.6705
  80   2.0000      -0.352045        -9.5796
  81   2.0000      -0.349404        -9.5078
  82   2.0000      -0.346221        -9.4212
  83   2.0000      -0.343409        -9.3446
  84   2.0000      -0.337228        -9.1764
  85   2.0000      -0.328686        -8.9440
  86   2.0000      -0.318748        -8.6736
  87   2.0000      -0.306064        -8.3284
  88   2.0000      -0.300113        -8.1665
  89   2.0000      -0.293233        -7.9793
  90   2.0000      -0.284812        -7.7501
  91   2.0000      -0.280119        -7.6224
  92   2.0000      -0.274786        -7.4773
  93   2.0000      -0.273345        -7.4381
  94   2.0000      -0.256137        -6.9699
  95   2.0000      -0.232845        -6.3360
  96   2.0000      -0.219307        -5.9676
  97   2.0000      -0.210814        -5.7365
  98   2.0000      -0.201344        -5.4788
  99   2.0000      -0.199526        -5.4294
 100   2.0000      -0.194580        -5.2948
 101   0.0000      -0.044731        -1.2172
 102   0.0000      -0.024731        -0.6730
 103   0.0000      -0.007822        -0.2128
 104   0.0000       0.000079         0.0021
 105   0.0000       0.010689         0.2909

MULLIKEN ATOMIC CHARGES
-----------------------
   0 C :   -0.312589
   1 C :   -0.005204
   2 O :   -0.382204
   3 P :    0.618581
   4 S :   -0.310857
   5 O :   -0.365932
   6 C :   -0.034250
   7 C :   -0.301033
   8 S :   -0.082739
   9 C :   -0.363068
  10 S :   -0.110504
  11 P :    0.610912
  12 S :   -0.312333
  13 O :   -0.353049
  14 C :    0.014538
  15 C :   -0.361175
  16 O :   -0.385221
  17 C :   -0.012200
  18 C :   -0.307793
  19 H :    0.109915
  20 H :    0.114891
  21 H :    0.129889
  22 H :    0.105110
  23 H :    0.113482
  24 H :    0.113607
  25 H :    0.112593
  26 H :    0.126540
  27 H :    0.140614
  28 H :    0.112879
  29 H :    0.187585
  30 H :    0.199916
  31 H :    0.105923
  32 H :    0.108304
  33 H :    0.107994
  34 H :    0.116446
  35 H :    0.161052
  36 H :    0.113380
  37 H :    0.108613
  38 H :    0.127364
  39 H :    0.128121
  40 H :    0.111904
Sum of atomic charges:   -0.0000000

LOEWDIN ATOMIC CHARGES
----------------------
   0 C :   -0.364490
   1 C :   -0.121546
   2 O :   -0.248688
   3 P :    0.572444
   4 S :   -0.306825
   5 O :   -0.240999
   6 C :   -0.117145
   7 C :   -0.360661
   8 S :    0.091542
   9 C :   -0.490296
  10 S :    0.067521
  11 P :    0.571164
  12 S :   -0.306749
  13 O :   -0.234378
  14 C :   -0.106214
  15 C :   -0.378078
  16 O :   -0.245105
  17 C :   -0.114482
  18 C :   -0.368501
  19 H :    0.121650
  20 H :    0.132091
  21 H :    0.126317
  22 H :    0.116040
  23 H :    0.110094
  24 H :    0.109484
  25 H :    0.122088
  26 H :    0.132231
  27 H :    0.122127
  28 H :    0.131932
  29 H :    0.127679
  30 H :    0.129066
  31 H :    0.121007
  32 H :    0.113928
  33 H :    0.128279
  34 H :    0.115656
  35 H :    0.128754
  36 H :    0.107787
  37 H :    0.120772
  38 H :    0.131101
  39 H :    0.122839
  40 H :    0.130565

  Mayer bond orders larger than 0.100000
B(  0-C ,  1-C ) :   1.1623 B(  0-C , 19-H ) :   0.9475 B(  0-C , 20-H ) :   0.9402
B(  0-C , 21-H ) :   0.9359 B(  1-C ,  2-O ) :   0.8992 B(  1-C , 22-H ) :   0.9312
B(  1-C , 23-H ) :   0.9110 B(  2-O ,  3-P ) :   1.0584 B(  3-P ,  4-S ) :   1.6298
B(  3-P ,  5-O ) :   1.1278 B(  3-P ,  8-S ) :   0.9727 B(  4-S ,  8-S ) :   0.1026
B(  5-O ,  6-C ) :   0.8983 B(  6-C ,  7-C ) :   1.1691 B(  6-C , 24-H ) :   0.9150
B(  6-C , 25-H ) :   0.9333 B(  7-C , 26-H ) :   0.9457 B(  7-C , 27-H ) :   0.9328
B(  7-C , 28-H ) :   0.9381 B(  8-S ,  9-C ) :   1.0036 B(  9-C , 10-S ) :   1.0107
B(  9-C , 29-H ) :   0.8647 B(  9-C , 30-H ) :   0.8619 B( 10-S , 11-P ) :   0.9314
B( 10-S , 12-S ) :   0.1135 B( 11-P , 12-S ) :   1.6424 B( 11-P , 13-O ) :   1.1402
B( 11-P , 16-O ) :   1.0800 B( 13-O , 14-C ) :   0.9010 B( 14-C , 15-C ) :   1.1687
B( 14-C , 31-H ) :   0.9347 B( 14-C , 32-H ) :   0.9294 B( 15-C , 33-H ) :   0.9347
B( 15-C , 34-H ) :   0.9403 B( 15-C , 35-H ) :   0.9182 B( 16-O , 17-C ) :   0.9088
B( 17-C , 18-C ) :   1.1686 B( 17-C , 36-H ) :   0.9252 B( 17-C , 37-H ) :   0.9333
B( 18-C , 38-H ) :   0.9434 B( 18-C , 39-H ) :   0.9316 B( 18-C , 40-H ) :   0.9348

Dispersion correction           -0.065618590
FINAL SINGLE POINT ENERGY     -2929.514636658760

DIPOLE MOMENT
-------------

Method             : SCF
Type of density    : Electron Density
Multiplicity       :   1
Irrep              :   0
Energy             : -2929.6354248323855245 Eh
Relativity type    :
Basis              : AO
                                X                 Y                 Z
Electronic contribution:     -1.823572647       7.937035637     -17.026240061
Nuclear contribution   :      1.751396207      -9.000410435      19.237876964
                        -----------------------------------------
Total Dipole Moment    :     -0.072176440      -1.063374798       2.211636903
                        -----------------------------------------
Magnitude (a.u.)       :      2.455058694
Magnitude (Debye)      :      6.240263279

Rotational constants in cm-1:             0.012387             0.004791             0.004725
Rotational constants in MHz :           371.362802           143.621215           141.651108

                             ****ORCA TERMINATED NORMALLY****
TOTAL RUN TIME: 0 days 0 hours 0 minutes 21 seconds 477 msec
