                         Program Version 6.0.1  -  RELEASE   -
|  1> ! r2scan-3c def2/J RI DEFGRID2 scfconv6 printgap
|  2> %output
|  3>     printlevel normal
|  4> end
|  5> * xyz 0 1
|  6> C 5.5552347952 -3.1985651424 -1.9761208652
|  7> C 4.8349518365 -2.2066753235 -1.0848858828
|  8> O 3.4212566447 -2.3114313255 -1.3555387123
|  9> C 2.6134765098 -1.4686945221 -0.7557290256
| 10> O 2.9791927964 -0.5953494476 0.0063561453
| 11> C 1.1641120141 -1.7246637423 -1.1038367471
| 12> C 0.3207895239 -0.5274507119 -0.6879893716
| 13> H 0.4771172328 0.3404001593 -1.3332795744
| 14> C 0.61994868 -0.1410227315 0.7507227949
| 15> O 0.5577217185 -0.9267825907 1.6729388958
| 16> O 0.8618435292 1.1440129372 0.8590518472
| 17> C 1.1971819233 1.6787358593 2.1540960276
| 18> C 0.6408305309 3.0853259465 2.2625276379
| 19> S -1.4449944958 -0.9888037195 -0.7522618148
| 20> P -2.2150838014 0.8469513558 -0.0064144515
| 21> S -1.5563841454 2.4764449001 -0.8555977336
| 22> O -3.7884906637 0.6059579417 -0.1267685085
| 23> C -4.435839987 0.5954078926 -1.406550041
| 24> O -2.0299529247 0.8495010443 1.5660232815
| 25> C -2.5131348404 -0.2076464068 2.4220394045
| 26> H 5.2056701531 -4.2053624863 -1.7694765463
| 27> H 5.3652232277 -2.9682319753 -3.0199263212
| 28> H 6.621567283 -3.142410205 -1.7849420025
| 29> H 5.1472092431 -1.1761815535 -1.280284472
| 30> H 4.9962727952 -2.4188650335 -0.0235482192
| 31> H 0.8459425584 -2.606840339 -0.5406817415
| 32> H 1.0599302832 -1.9398724124 -2.1661501158
| 33> H 0.7842580026 1.0141515218 2.9190078341
| 34> H 2.2890623094 1.6697660065 2.2193204057
| 35> H 1.0345262899 3.7027157598 1.4602648033
| 36> H -0.4434219698 3.0662008012 2.1801952947
| 37> H 0.9226164025 3.5092931104 3.220293369
| 38> H -5.4998637679 0.6645350613 -1.1953412293
| 39> H -4.2038569804 -0.3319351078 -1.9290271877
| 40> H -4.106893161 1.4505056413 -1.9985972644
| 41> H -2.7019866934 0.262032827 3.3839377353
| 42> H -1.7372843212 -0.9687711332 2.514614126
| 43> H -3.4267092644 -0.6379352449 2.0185280083
| 44> *
| 45>
| 46>                          ****END OF INPUT****

CARTESIAN COORDINATES (ANGSTROEM)
---------------------------------
  C      5.555235   -3.198565   -1.976121
  C      4.834952   -2.206675   -1.084886
  O      3.421257   -2.311431   -1.355539
  C      2.613477   -1.468695   -0.755729
  O      2.979193   -0.595349    0.006356
  C      1.164112   -1.724664   -1.103837
  C      0.320790   -0.527451   -0.687989
  H      0.477117    0.340400   -1.333280
  C      0.619949   -0.141023    0.750723
  O      0.557722   -0.926783    1.672939
  O      0.861844    1.144013    0.859052
  C      1.197182    1.678736    2.154096
  C      0.640831    3.085326    2.262528
  S     -1.444994   -0.988804   -0.752262
  P     -2.215084    0.846951   -0.006414
  S     -1.556384    2.476445   -0.855598
  O     -3.788491    0.605958   -0.126769
  C     -4.435840    0.595408   -1.406550
  O     -2.029953    0.849501    1.566023
  C     -2.513135   -0.207646    2.422039
  H      5.205670   -4.205362   -1.769477
  H      5.365223   -2.968232   -3.019926
  H      6.621567   -3.142410   -1.784942
  H      5.147209   -1.176182   -1.280284
  H      4.996273   -2.418865   -0.023548
  H      0.845943   -2.606840   -0.540682
  H      1.059930   -1.939872   -2.166150
  H      0.784258    1.014152    2.919008
  H      2.289062    1.669766    2.219320
  H      1.034526    3.702716    1.460265
  H     -0.443422    3.066201    2.180195
  H      0.922616    3.509293    3.220293
  H     -5.499864    0.664535   -1.195341
  H     -4.203857   -0.331935   -1.929027
  H     -4.106893    1.450506   -1.998597
  H     -2.701987    0.262033    3.383938
  H     -1.737284   -0.968771    2.514614
  H     -3.426709   -0.637935    2.018528

 Total Charge           Charge          ....    0
 Multiplicity           Mult            ....    1
 Number of Electrons    NEL             ....  174
 Basis Dimension        Dim             ....  510

ORBITAL ENERGIES
----------------

  NO   OCC          E(Eh)            E(eV)
   0   2.0000     -88.576135     -2410.2792
   1   2.0000     -88.514515     -2408.6024
   2   2.0000     -76.913029     -2092.9099
   3   2.0000     -19.011613      -517.3323
   4   2.0000     -18.994582      -516.8689
   5   2.0000     -18.993602      -516.8422
   6   2.0000     -18.986583      -516.6512
   7   2.0000     -18.943472      -515.4781
   8   2.0000     -18.921061      -514.8682
   9   2.0000     -10.168878      -276.7092
  10   2.0000     -10.152181      -276.2549
  11   2.0000     -10.102159      -274.8937
  12   2.0000     -10.094631      -274.6889
  13   2.0000     -10.090965      -274.5891
  14   2.0000     -10.088449      -274.5206
  15   2.0000     -10.077658      -274.2270
  16   2.0000     -10.066644      -273.9273
  17   2.0000     -10.039304      -273.1833
  18   2.0000     -10.013168      -272.4722
  19   2.0000      -7.870249      -214.1604
  20   2.0000      -7.809254      -212.5006
  21   2.0000      -6.591282      -179.3579
  22   2.0000      -5.816928      -158.2867
  23   2.0000      -5.814365      -158.2169
  24   2.0000      -5.807368      -158.0265
  25   2.0000      -5.757116      -156.6591
  26   2.0000      -5.749342      -156.4475
  27   2.0000      -5.749246      -156.4449
  28   2.0000      -4.737180      -128.9052
  29   2.0000      -4.736375      -128.8833
  30   2.0000      -4.734515      -128.8327
  31   2.0000      -1.089306       -29.6415
  32   2.0000      -1.066525       -29.0216
  33   2.0000      -1.050573       -28.5875
  34   2.0000      -1.009576       -27.4720
  35   2.0000      -0.991713       -26.9859
  36   2.0000      -0.971583       -26.4381
  37   2.0000      -0.809863       -22.0375
  38   2.0000      -0.763624       -20.7793
  39   2.0000      -0.735943       -20.0260
  40   2.0000      -0.732168       -19.9233
  41   2.0000      -0.700312       -19.0565
  42   2.0000      -0.677166       -18.4266
  43   2.0000      -0.655390       -17.8341
  44   2.0000      -0.643299       -17.5051
  45   2.0000      -0.623285       -16.9604
  46   2.0000      -0.581671       -15.8281
  47   2.0000      -0.545882       -14.8542
  48   2.0000      -0.540350       -14.7037
  49   2.0000      -0.518401       -14.1064
  50   2.0000      -0.495807       -13.4916
  51   2.0000      -0.494356       -13.4521
  52   2.0000      -0.485984       -13.2243
  53   2.0000      -0.468681       -12.7535
  54   2.0000      -0.459460       -12.5025
  55   2.0000      -0.456350       -12.4179
  56   2.0000      -0.448027       -12.1914
  57   2.0000      -0.441798       -12.0219
  58   2.0000      -0.434612       -11.8264
  59   2.0000      -0.427786       -11.6406
  60   2.0000      -0.420197       -11.4341
  61   2.0000      -0.413609       -11.2549
  62   2.0000      -0.411086       -11.1862
  63   2.0000      -0.401265       -10.9190
  64   2.0000      -0.382546       -10.4096
  65   2.0000      -0.379701       -10.3322
  66   2.0000      -0.368139       -10.0176
  67   2.0000      -0.363886        -9.9018
  68   2.0000      -0.359769        -9.7898
  69   2.0000      -0.354802        -9.6547
  70   2.0000      -0.352446        -9.5905
  71   2.0000      -0.334210        -9.0943
  72   2.0000      -0.332507        -9.0480
  73   2.0000      -0.327038        -8.8992
  74   2.0000      -0.324098        -8.8192
  75   2.0000      -0.320488        -8.7209
  76   2.0000      -0.313478        -8.5302
  77   2.0000      -0.301178        -8.1955
  78   2.0000      -0.286521        -7.7966
  79   2.0000      -0.285711        -7.7746
  80   2.0000      -0.277347        -7.5470
  81   2.0000      -0.261363        -7.1121
  82   2.0000      -0.250217        -6.8087
  83   2.0000      -0.246498        -6.7076
  84   2.0000      -0.230444        -6.2707
  85   2.0000      -0.211538        -5.7563
  86   2.0000      -0.208555        -5.6751
  87   0.0000      -0.043483        -1.1832
  88   0.0000      -0.026528        -0.7219
  89   0.0000      -0.020783        -0.5655
  90   0.0000       0.005990         0.1630
  91   0.0000       0.023064         0.6276

MULLIKEN ATOMIC CHARGES
-----------------------
   0 C :   -0.440406
   1 C :   -0.154091
   2 O :   -0.146777
   3 C :    0.357901
   4 O :   -0.397098
   5 C :   -0.369560
   6 C :   -0.057995
   7 H :    0.253504
   8 C :    0.235439
   9 O :   -0.400812
  10 O :   -0.091765
  11 C :   -0.174351
  12 C :   -0.454157
  13 S :   -0.190746
  14 P :    0.734108
  15 S :   -0.421266
  16 O :   -0.353334
  17 C :   -0.292386
  18 O :   -0.298970
  19 C :   -0.286659
  20 H :    0.154352
  21 H :    0.153738
  22 H :    0.150641
  23 H :    0.162184
  24 H :    0.158341
  25 H :    0.200007
  26 H :    0.180865
  27 H :    0.171877
  28 H :    0.157079
  29 H :    0.152549
  30 H :    0.174768
  31 H :    0.139536
  32 H :    0.153141
  33 H :    0.154489
  34 H :    0.178912
  35 H :    0.152137
  36 H :    0.195612
  37 H :    0.159192
Sum of atomic charges:    0.0000000

LOEWDIN ATOMIC CHARGES
----------------------
   0 C :   -0.384054
   1 C :    0.038234
   2 O :   -0.578504
   3 C :    0.376322
   4 O :   -0.411906
   5 C :   -0.208695
   6 C :   -0.190647
   7 H :    0.204984
   8 C :    0.327125
   9 O :   -0.449733
  10 O :   -0.577120
  11 C :    0.033956
  12 C :   -0.391093
  13 S :    0.190253
  14 P :    0.377748
  15 S :   -0.073992
  16 O :   -0.683887
  17 C :   -0.055855
  18 O :   -0.653846
  19 C :   -0.048090
  20 H :    0.160730
  21 H :    0.160285
  22 H :    0.161222
  23 H :    0.182327
  24 H :    0.180339
  25 H :    0.202770
  26 H :    0.188617
  27 H :    0.190781
  28 H :    0.180596
  29 H :    0.161177
  30 H :    0.167884
  31 H :    0.155155
  32 H :    0.177822
  33 H :    0.167815
  34 H :    0.178708
  35 H :    0.178399
  36 H :    0.190252
  37 H :    0.173922

  Mayer bond orders larger than 0.100000
B(  0-C ,  1-C ) :   0.9454 B(  0-C , 20-H ) :   0.9706 B(  0-C , 21-H ) :   0.9727
B(  0-C , 22-H ) :   0.9675 B(  1-C ,  2-O ) :   0.7789 B(  1-C , 23-H ) :   0.9538
B(  1-C , 24-H ) :   0.9473 B(  2-O ,  3-C ) :   1.1829 B(  3-C ,  4-O ) :   1.7464
B(  3-C ,  5-C ) :   1.0109 B(  5-C ,  6-C ) :   0.9298 B(  5-C , 25-H ) :   0.9387
B(  5-C , 26-H ) :   0.9411 B(  6-C ,  7-H ) :   0.9842 B(  6-C ,  8-C ) :   0.7938
B(  6-C ,  9-O ) :  -0.1024 B(  6-C , 13-S ) :   0.8472 B(  8-C ,  9-O ) :   1.8708
B(  8-C , 10-O ) :   1.1612 B( 10-O , 11-C ) :   0.7842 B( 11-C , 12-C ) :   0.9422
B( 11-C , 27-H ) :   0.9867 B( 11-C , 28-H ) :   0.9472 B( 12-C , 29-H ) :   0.9657
B( 12-C , 30-H ) :   0.9691 B( 12-C , 31-H ) :   0.9681 B( 13-S , 14-P ) :   0.9926
B( 14-P , 15-S ) :   1.8729 B( 14-P , 16-O ) :   1.0440 B( 14-P , 18-O ) :   1.1043
B( 16-O , 17-C ) :   0.8292 B( 17-C , 32-H ) :   0.9665 B( 17-C , 33-H ) :   0.9576
B( 17-C , 34-H ) :   0.9585 B( 18-O , 19-C ) :   0.7975 B( 19-C , 35-H ) :   0.9665
B( 19-C , 36-H ) :   0.9468 B( 19-C , 37-H ) :   0.9634

Dispersion correction           -0.017347097
FINAL SINGLE POINT ENERGY     -1981.455555737922

DIPOLE MOMENT
-------------

Method             : SCF
Type of density    : Electron Density
Multiplicity       :   1
Irrep              :   0
Energy             : -1981.4751408734800862 Eh
Relativity type    :
Basis              : AO
                                X                 Y                 Z
Electronic contribution:    -13.685115421       4.084473774      -3.133056148
Nuclear contribution   :     13.944242976      -5.243269700       2.788265120
                        -----------------------------------------
Total Dipole Moment    :      0.259127556      -1.158795925      -0.344791029
                        -----------------------------------------
Magnitude (a.u.)       :      1.236461055
Magnitude (Debye)      :      3.142834236

Rotational constants in cm-1:             0.016553             0.005577             0.004933
Rotational constants in MHz :           496.257911           167.182331           147.883256

                             ****ORCA TERMINATED NORMALLY****
TOTAL RUN TIME: 0 days 0 hours 1 minutes 17 seconds 492 msec
