                         Program Version 6.0.1  -  RELEASE   -
|  1> ! r2scan-3c def2/J RI DEFGRID2 scfconv6 printgap
|  2> %output
|  3>     printlevel normal
|  4> end
|  5> %cpcm
|  6>     smd true
|  7>     smdsolvent "water"
|  8> end
|  9> * xyz 0 1
| 10> C 5.5552347952 -3.1985651424 -1.9761208652
| 11> C 4.8349518365 -2.2066753235 -1.0848858828
| 12> O 3.4212566447 -2.3114313255 -1.3555387123
| 13> C 2.6134765098 -1.4686945221 -0.7557290256
| 14> O 2.9791927964 -0.5953494476 0.0063561453
| 15> C 1.1641120141 -1.7246637423 -1.1038367471
| 16> C 0.3207895239 -0.5274507119 -0.6879893716
| 17> H 0.4771172328 0.3404001593 -1.3332795744
| 18> C 0.61994868 -0.1410227315 0.7507227949
| 19> O 0.5577217185 -0.9267825907 1.6729388958
| 20> O 0.8618435292 1.1440129372 0.8590518472
| 21> C 1.1971819233 1.6787358593 2.1540960276
| 22> C 0.6408305309 3.0853259465 2.2625276379
| 23> S -1.4449944958 -0.9888037195 -0.7522618148
| 24> P -2.2150838014 0.8469513558 -0.0064144515
| 25> S -1.5563841454 2.4764449001 -0.8555977336
| 26> O -3.7884906637 0.6059579417 -0.1267685085
| 27> C -4.435839987 0.5954078926 -1.406550041
| 28> O -2.0299529247 0.8495010443 1.5660232815
| 29> C -2.5131348404 -0.2076464068 2.4220394045
| 30> H 5.2056701531 -4.2053624863 -1.7694765463
| 31> H 5.3652232277 -2.9682319753 -3.0199263212
| 32> H 6.621567283 -3.142410205 -1.7849420025
| 33> H 5.1472092431 -1.1761815535 -1.280284472
| 34> H 4.9962727952 -2.4188650335 -0.0235482192
| 35> H 0.8459425584 -2.606840339 -0.5406817415
| 36> H 1.0599302832 -1.9398724124 -2.1661501158
| 37> H 0.7842580026 1.0141515218 2.9190078341
| 38> H 2.2890623094 1.6697660065 2.2193204057
| 39> H 1.0345262899 3.7027157598 1.4602648033
| 40> H -0.4434219698 3.0662008012 2.1801952947
| 41> H 0.9226164025 3.5092931104 3.220293369
| 42> H -5.4998637679 0.6645350613 -1.1953412293
| 43> H -4.2038569804 -0.3319351078 -1.9290271877
| 44> H -4.106893161 1.4505056413 -1.9985972644
| 45> H -2.7019866934 0.262032827 3.3839377353
| 46> H -1.7372843212 -0.9687711332 2.514614126
| 47> H -3.4267092644 -0.6379352449 2.0185280083
| 48> *
| 49>
| 50>                          ****END OF INPUT****

CARTESIAN COORDINATES (ANGSTROEM)
---------------------------------
  C      5.555235   -3.198565   -1.976121
  C      4.834952   -2.206675   -1.084886
  O      3.421257   -2.311431   -1.355539
  C      2.613477   -1.468695   -0.755729
  O      2.979193   -0.595349    0.006356
  C      1.164112   -1.724664   -1.103837
  C      0.320790   -0.527451   -0.687989
  H      0.477117    0.340400   -1.333280
  C      0.619949   -0.141023    0.750723
  O      0.557722   -0.926783    1.672939
  O      0.861844    1.144013    0.859052
  C      1.197182    1.678736    2.154096
  C      0.640831    3.085326    2.262528
  S     -1.444994   -0.988804   -0.752262
  P     -2.215084    0.846951   -0.006414
  S     -1.556384    2.476445   -0.855598
  O     -3.788491    0.605958   -0.126769
  C     -4.435840    0.595408   -1.406550
  O     -2.029953    0.849501    1.566023
  C     -2.513135   -0.207646    2.422039
  H      5.205670   -4.205362   -1.769477
  H      5.365223   -2.968232   -3.019926
  H      6.621567   -3.142410   -1.784942
  H      5.147209   -1.176182   -1.280284
  H      4.996273   -2.418865   -0.023548
  H      0.845943   -2.606840   -0.540682
  H      1.059930   -1.939872   -2.166150
  H      0.784258    1.014152    2.919008
  H      2.289062    1.669766    2.219320
  H      1.034526    3.702716    1.460265
  H     -0.443422    3.066201    2.180195
  H      0.922616    3.509293    3.220293
  H     -5.499864    0.664535   -1.195341
  H     -4.203857   -0.331935   -1.929027
  H     -4.106893    1.450506   -1.998597
  H     -2.701987    0.262033    3.383938
  H     -1.737284   -0.968771    2.514614
  H     -3.426709   -0.637935    2.018528

 Total Charge           Charge          ....    0
 Multiplicity           Mult            ....    1
 Number of Electrons    NEL             ....  174
 Basis Dimension        Dim             ....  510

ORBITAL ENERGIES
----------------

  NO   OCC          E(Eh)            E(eV)
   0   2.0000     -88.583939     -2410.4915
   1   2.0000     -88.528390     -2408.9800
   2   2.0000     -76.922528     -2093.1684
   3   2.0000     -19.011123      -517.3190
   4   2.0000     -19.004558      -517.1403
   5   2.0000     -19.000984      -517.0431
   6   2.0000     -18.998405      -516.9729
   7   2.0000     -18.953512      -515.7513
   8   2.0000     -18.944308      -515.5008
   9   2.0000     -10.175147      -276.8798
  10   2.0000     -10.171466      -276.7797
  11   2.0000     -10.096256      -274.7331
  12   2.0000     -10.088123      -274.5118
  13   2.0000     -10.084371      -274.4097
  14   2.0000     -10.084150      -274.4037
  15   2.0000     -10.083871      -274.3961
  16   2.0000     -10.061839      -273.7966
  17   2.0000     -10.020169      -272.6627
  18   2.0000     -10.017310      -272.5849
  19   2.0000      -7.877964      -214.3703
  20   2.0000      -7.823481      -212.8877
  21   2.0000      -6.600859      -179.6185
  22   2.0000      -5.824646      -158.4967
  23   2.0000      -5.822093      -158.4272
  24   2.0000      -5.815077      -158.2363
  25   2.0000      -5.771227      -157.0431
  26   2.0000      -5.763655      -156.8370
  27   2.0000      -5.763433      -156.8310
  28   2.0000      -4.746703      -129.1644
  29   2.0000      -4.745912      -129.1428
  30   2.0000      -4.744222      -129.0968
  31   2.0000      -1.091415       -29.6989
  32   2.0000      -1.084560       -29.5124
  33   2.0000      -1.056043       -28.7364
  34   2.0000      -1.014247       -27.5991
  35   2.0000      -0.999917       -27.2091
  36   2.0000      -0.993409       -27.0320
  37   2.0000      -0.814514       -22.1641
  38   2.0000      -0.756483       -20.5849
  39   2.0000      -0.742546       -20.2057
  40   2.0000      -0.733481       -19.9590
  41   2.0000      -0.699704       -19.0399
  42   2.0000      -0.673304       -18.3215
  43   2.0000      -0.660660       -17.9775
  44   2.0000      -0.649342       -17.6695
  45   2.0000      -0.618684       -16.8353
  46   2.0000      -0.583002       -15.8643
  47   2.0000      -0.544055       -14.8045
  48   2.0000      -0.539342       -14.6762
  49   2.0000      -0.527349       -14.3499
  50   2.0000      -0.500775       -13.6268
  51   2.0000      -0.495805       -13.4915
  52   2.0000      -0.487776       -13.2730
  53   2.0000      -0.470301       -12.7975
  54   2.0000      -0.466002       -12.6806
  55   2.0000      -0.463459       -12.6114
  56   2.0000      -0.449189       -12.2231
  57   2.0000      -0.447392       -12.1741
  58   2.0000      -0.444509       -12.0957
  59   2.0000      -0.429968       -11.7000
  60   2.0000      -0.421947       -11.4818
  61   2.0000      -0.412270       -11.2184
  62   2.0000      -0.410459       -11.1692
  63   2.0000      -0.403349       -10.9757
  64   2.0000      -0.383549       -10.4369
  65   2.0000      -0.371202       -10.1009
  66   2.0000      -0.371058       -10.0970
  67   2.0000      -0.363775        -9.8988
  68   2.0000      -0.360093        -9.7986
  69   2.0000      -0.354907        -9.6575
  70   2.0000      -0.353629        -9.6227
  71   2.0000      -0.336422        -9.1545
  72   2.0000      -0.331556        -9.0221
  73   2.0000      -0.327849        -8.9212
  74   2.0000      -0.325603        -8.8601
  75   2.0000      -0.321965        -8.7611
  76   2.0000      -0.317322        -8.6348
  77   2.0000      -0.312262        -8.4971
  78   2.0000      -0.291435        -7.9304
  79   2.0000      -0.285356        -7.7649
  80   2.0000      -0.281816        -7.6686
  81   2.0000      -0.277111        -7.5406
  82   2.0000      -0.264059        -7.1854
  83   2.0000      -0.260652        -7.0927
  84   2.0000      -0.246560        -6.7092
  85   2.0000      -0.226739        -6.1699
  86   2.0000      -0.222726        -6.0607
  87   0.0000      -0.051982        -1.4145
  88   0.0000      -0.036310        -0.9880
  89   0.0000      -0.029674        -0.8075
  90   0.0000      -0.001965        -0.0535
  91   0.0000       0.017260         0.4697

MULLIKEN ATOMIC CHARGES
-----------------------
   0 C :   -0.489824
   1 C :   -0.155746
   2 O :   -0.153642
   3 C :    0.398390
   4 O :   -0.471534
   5 C :   -0.377368
   6 C :   -0.058692
   7 H :    0.272155
   8 C :    0.231740
   9 O :   -0.460491
  10 O :   -0.122469
  11 C :   -0.162007
  12 C :   -0.495394
  13 S :   -0.185677
  14 P :    0.758785
  15 S :   -0.475630
  16 O :   -0.375128
  17 C :   -0.305010
  18 O :   -0.327093
  19 C :   -0.297056
  20 H :    0.165991
  21 H :    0.166491
  22 H :    0.171548
  23 H :    0.175833
  24 H :    0.176208
  25 H :    0.228449
  26 H :    0.213988
  27 H :    0.182394
  28 H :    0.177918
  29 H :    0.163779
  30 H :    0.169978
  31 H :    0.168154
  32 H :    0.181850
  33 H :    0.176244
  34 H :    0.179779
  35 H :    0.182747
  36 H :    0.188087
  37 H :    0.182252
Sum of atomic charges:   -0.0000000

LOEWDIN ATOMIC CHARGES
----------------------
   0 C :   -0.387469
   1 C :    0.041743
   2 O :   -0.575020
   3 C :    0.388322
   4 O :   -0.462077
   5 C :   -0.200589
   6 C :   -0.187361
   7 H :    0.210136
   8 C :    0.327253
   9 O :   -0.492140
  10 O :   -0.591961
  11 C :    0.036951
  12 C :   -0.392905
  13 S :    0.201359
  14 P :    0.380036
  15 S :   -0.115289
  16 O :   -0.690963
  17 C :   -0.050080
  18 O :   -0.669320
  19 C :   -0.041103
  20 H :    0.163549
  21 H :    0.163411
  22 H :    0.169490
  23 H :    0.187405
  24 H :    0.186344
  25 H :    0.211114
  26 H :    0.204949
  27 H :    0.194598
  28 H :    0.188799
  29 H :    0.162505
  30 H :    0.163944
  31 H :    0.166757
  32 H :    0.190221
  33 H :    0.176745
  34 H :    0.179055
  35 H :    0.191097
  36 H :    0.187517
  37 H :    0.182978

  Mayer bond orders larger than 0.100000
B(  0-C ,  1-C ) :   0.9417 B(  0-C , 20-H ) :   0.9688 B(  0-C , 21-H ) :   0.9713
B(  0-C , 22-H ) :   0.9614 B(  1-C ,  2-O ) :   0.7670 B(  1-C , 23-H ) :   0.9472
B(  1-C , 24-H ) :   0.9398 B(  2-O ,  3-C ) :   1.2057 B(  3-C ,  4-O ) :   1.6956
B(  3-C ,  5-C ) :   1.0093 B(  5-C ,  6-C ) :   0.9257 B(  5-C , 25-H ) :   0.9432
B(  5-C , 26-H ) :   0.9156 B(  6-C ,  7-H ) :   0.9666 B(  6-C ,  8-C ) :   0.8098
B(  6-C , 13-S ) :   0.8372 B(  8-C ,  9-O ) :   1.8047 B(  8-C , 10-O ) :   1.1560
B( 10-O , 11-C ) :   0.7723 B( 11-C , 12-C ) :   0.9379 B( 11-C , 27-H ) :   0.9750
B( 11-C , 28-H ) :   0.9346 B( 12-C , 29-H ) :   0.9663 B( 12-C , 30-H ) :   0.9700
B( 12-C , 31-H ) :   0.9611 B( 13-S , 14-P ) :   1.0033 B( 14-P , 15-S ) :   1.8369
B( 14-P , 16-O ) :   1.0566 B( 14-P , 18-O ) :   1.1070 B( 16-O , 17-C ) :   0.8191
B( 17-C , 32-H ) :   0.9561 B( 17-C , 33-H ) :   0.9499 B( 17-C , 34-H ) :   0.9545
B( 18-O , 19-C ) :   0.7877 B( 19-C , 35-H ) :   0.9550 B( 19-C , 36-H ) :   0.9455
B( 19-C , 37-H ) :   0.9546

Dispersion correction           -0.017347097
FINAL SINGLE POINT ENERGY     -1981.470784320297

DIPOLE MOMENT
-------------

Method             : SCF
Type of density    : Electron Density
Multiplicity       :   1
Irrep              :   0
Energy             : -1981.4903694558552161 Eh
Relativity type    :
Basis              : AO
                                X                 Y                 Z
Electronic contribution:    -13.828819771       3.615550774      -3.410347714
Nuclear contribution   :     13.944242976      -5.243269700       2.788265120
                        -----------------------------------------
Total Dipole Moment    :      0.115423205      -1.627718925      -0.622082594
                        -----------------------------------------
Magnitude (a.u.)       :      1.746361409
Magnitude (Debye)      :      4.438897936

Rotational constants in cm-1:             0.016553             0.005577             0.004933
Rotational constants in MHz :           496.257911           167.182331           147.883256

                             ****ORCA TERMINATED NORMALLY****
TOTAL RUN TIME: 0 days 0 hours 1 minutes 46 seconds 682 msec
