                         Program Version 6.0.0  -   RELEASE  -
|  1> ! r2scan-3c def2/J RI DEFGRID2 scfconv6 printgap
|  2> %output
|  3>     printlevel normal
|  4> end
|  5> * xyz 0 1
|  6> C 4.6586548103 -1.3489783604 -0.7583926839
|  7> C 4.6352871181 0.0623794448 -0.2076923981
|  8> O 3.4490298244 0.3311192617 0.5576273163
|  9> P 2.0024103439 0.4086282207 -0.1006252434
| 10> S 1.9667169567 1.2369082679 -1.8814729476
| 11> O 1.1898465064 1.112108311 1.0651844351
| 12> C 1.0883584734 2.5463838569 1.1777846684
| 13> C 2.4346051601 3.2092234416 1.3741960231
| 14> S 1.2921853581 -1.5707359929 0.0748318568
| 15> C 0.2589044348 -1.6834873917 -1.423238984
| 16> S -1.4485219309 -2.1718641021 -1.064863319
| 17> P -2.0691155857 -0.4538605701 -0.0381689687
| 18> S -1.5194489279 1.2871713615 -0.7720313659
| 19> O -1.5979434182 -0.7837742919 1.4322118081
| 20> C -1.7832729784 0.1499770127 2.521611505
| 21> C -0.7405608964 -0.1519079667 3.5775056344
| 22> O -3.6445222168 -0.6219297057 0.0818868113
| 23> C -4.5446088777 -0.2653250362 -0.9872190911
| 24> C -5.8944398625 0.055469562 -0.3775822713
| 25> H 4.4820319871 -2.0686071367 0.0369004071
| 26> H 3.8845916608 -1.464170574 -1.5158704336
| 27> H 5.6257801265 -1.540300387 -1.2121103188
| 28> H 4.6918183293 0.7911295112 -1.0227586924
| 29> H 5.4469860247 0.2320120481 0.5009699164
| 30> H 0.5903801547 2.9255365425 0.2788770671
| 31> H 0.4382303344 2.6929260139 2.041953402
| 32> H 3.0409338185 3.0933815352 0.4765556444
| 33> H 2.2855163625 4.2678031304 1.5630244081
| 34> H 2.9562804604 2.7584623241 2.2145339436
| 35> H 0.6598095996 -2.469781671 -2.0576860639
| 36> H 0.2745277374 -0.7175432669 -1.9361348348
| 37> H -1.681048318 1.1674253637 2.1282521813
| 38> H -2.7971253058 0.0124101105 2.9040427552
| 39> H 0.256363825 -0.0113592267 3.1673261547
| 40> H -0.8823309587 0.5153759237 4.4215719288
| 41> H -0.839285409 -1.1816305637 3.9082962414
| 42> H -4.1301645857 0.5971032787 -1.5204092301
| 43> H -4.6059604866 -1.1156379818 -1.6705294585
| 44> H -6.5969379556 0.2848030207 -1.1720206984
| 45> H -6.2560695131 -0.7979059191 0.1886350183
| 46> H -5.8129303273 0.9116927779 0.2862207738
| 47> *
| 48>
| 49>                          ****END OF INPUT****

CARTESIAN COORDINATES (ANGSTROEM)
---------------------------------
  C      4.658655   -1.348978   -0.758393
  C      4.635287    0.062379   -0.207692
  O      3.449030    0.331119    0.557627
  P      2.002410    0.408628   -0.100625
  S      1.966717    1.236908   -1.881473
  O      1.189847    1.112108    1.065184
  C      1.088358    2.546384    1.177785
  C      2.434605    3.209223    1.374196
  S      1.292185   -1.570736    0.074832
  C      0.258904   -1.683487   -1.423239
  S     -1.448522   -2.171864   -1.064863
  P     -2.069116   -0.453861   -0.038169
  S     -1.519449    1.287171   -0.772031
  O     -1.597943   -0.783774    1.432212
  C     -1.783273    0.149977    2.521612
  C     -0.740561   -0.151908    3.577506
  O     -3.644522   -0.621930    0.081887
  C     -4.544609   -0.265325   -0.987219
  C     -5.894440    0.055470   -0.377582
  H      4.482032   -2.068607    0.036900
  H      3.884592   -1.464171   -1.515870
  H      5.625780   -1.540300   -1.212110
  H      4.691818    0.791130   -1.022759
  H      5.446986    0.232012    0.500970
  H      0.590380    2.925537    0.278877
  H      0.438230    2.692926    2.041953
  H      3.040934    3.093382    0.476556
  H      2.285516    4.267803    1.563024
  H      2.956280    2.758462    2.214534
  H      0.659810   -2.469782   -2.057686
  H      0.274528   -0.717543   -1.936135
  H     -1.681048    1.167425    2.128252
  H     -2.797125    0.012410    2.904043
  H      0.256364   -0.011359    3.167326
  H     -0.882331    0.515376    4.421572
  H     -0.839285   -1.181631    3.908296
  H     -4.130165    0.597103   -1.520409
  H     -4.605960   -1.115638   -1.670529
  H     -6.596938    0.284803   -1.172021
  H     -6.256070   -0.797906    0.188635
  H     -5.812930    0.911693    0.286221

 Total Charge           Charge          ....    0
 Multiplicity           Mult            ....    1
 Number of Electrons    NEL             ....  202
 Basis Dimension        Dim             ....  539

ORBITAL ENERGIES
----------------

  NO   OCC          E(Eh)            E(eV)
   0   2.0000     -88.576786     -2410.2969
   1   2.0000     -88.571791     -2410.1610
   2   2.0000     -88.517290     -2408.6779
   3   2.0000     -88.512560     -2408.5492
   4   2.0000     -76.910608     -2092.8440
   5   2.0000     -76.909827     -2092.8228
   6   2.0000     -18.989787      -516.7384
   7   2.0000     -18.987709      -516.6818
   8   2.0000     -18.984953      -516.6068
   9   2.0000     -18.984654      -516.5987
  10   2.0000     -10.105549      -274.9860
  11   2.0000     -10.096139      -274.7299
  12   2.0000     -10.095496      -274.7124
  13   2.0000     -10.094940      -274.6973
  14   2.0000     -10.092456      -274.6297
  15   2.0000     -10.031777      -272.9785
  16   2.0000     -10.025979      -272.8208
  17   2.0000     -10.025418      -272.8055
  18   2.0000     -10.025005      -272.7943
  19   2.0000      -7.871328      -214.1897
  20   2.0000      -7.866303      -214.0530
  21   2.0000      -7.811965      -212.5744
  22   2.0000      -7.807387      -212.4498
  23   2.0000      -6.589008      -179.2960
  24   2.0000      -6.588399      -179.2795
  25   2.0000      -5.818359      -158.3256
  26   2.0000      -5.814960      -158.2331
  27   2.0000      -5.813168      -158.1843
  28   2.0000      -5.810274      -158.1056
  29   2.0000      -5.808461      -158.0563
  30   2.0000      -5.803253      -157.9145
  31   2.0000      -5.759631      -156.7275
  32   2.0000      -5.755017      -156.6020
  33   2.0000      -5.752467      -156.5326
  34   2.0000      -5.751745      -156.5129
  35   2.0000      -5.747717      -156.4033
  36   2.0000      -5.747350      -156.3933
  37   2.0000      -4.734307      -128.8270
  38   2.0000      -4.733981      -128.8182
  39   2.0000      -4.733803      -128.8133
  40   2.0000      -4.733374      -128.8017
  41   2.0000      -4.733058      -128.7931
  42   2.0000      -4.731978      -128.7637
  43   2.0000      -1.046630       -28.4803
  44   2.0000      -1.045600       -28.4522
  45   2.0000      -1.006594       -27.3908
  46   2.0000      -1.005608       -27.3640
  47   2.0000      -0.799404       -21.7529
  48   2.0000      -0.757476       -20.6120
  49   2.0000      -0.746771       -20.3207
  50   2.0000      -0.730987       -19.8912
  51   2.0000      -0.728269       -19.8172
  52   2.0000      -0.709654       -19.3107
  53   2.0000      -0.681785       -18.5523
  54   2.0000      -0.661895       -18.0111
  55   2.0000      -0.632023       -17.1982
  56   2.0000      -0.617544       -16.8042
  57   2.0000      -0.602601       -16.3976
  58   2.0000      -0.601528       -16.3684
  59   2.0000      -0.587093       -15.9756
  60   2.0000      -0.531173       -14.4540
  61   2.0000      -0.513474       -13.9723
  62   2.0000      -0.497997       -13.5512
  63   2.0000      -0.487154       -13.2561
  64   2.0000      -0.467324       -12.7165
  65   2.0000      -0.461503       -12.5581
  66   2.0000      -0.455458       -12.3936
  67   2.0000      -0.451141       -12.2762
  68   2.0000      -0.448777       -12.2118
  69   2.0000      -0.433393       -11.7932
  70   2.0000      -0.421974       -11.4825
  71   2.0000      -0.410686       -11.1753
  72   2.0000      -0.402960       -10.9651
  73   2.0000      -0.402273       -10.9464
  74   2.0000      -0.395470       -10.7613
  75   2.0000      -0.392250       -10.6737
  76   2.0000      -0.382861       -10.4182
  77   2.0000      -0.370035       -10.0692
  78   2.0000      -0.367447        -9.9988
  79   2.0000      -0.363621        -9.8946
  80   2.0000      -0.359681        -9.7874
  81   2.0000      -0.354624        -9.6498
  82   2.0000      -0.353071        -9.6076
  83   2.0000      -0.347764        -9.4631
  84   2.0000      -0.344954        -9.3867
  85   2.0000      -0.324787        -8.8379
  86   2.0000      -0.322722        -8.7817
  87   2.0000      -0.313558        -8.5323
  88   2.0000      -0.306665        -8.3448
  89   2.0000      -0.303599        -8.2614
  90   2.0000      -0.297866        -8.1053
  91   2.0000      -0.285116        -7.7584
  92   2.0000      -0.281515        -7.6604
  93   2.0000      -0.276440        -7.5223
  94   2.0000      -0.273307        -7.4371
  95   2.0000      -0.247411        -6.7324
  96   2.0000      -0.230555        -6.2737
  97   2.0000      -0.227516        -6.1910
  98   2.0000      -0.215452        -5.8627
  99   2.0000      -0.206372        -5.6157
 100   2.0000      -0.199337        -5.4242
 101   0.0000      -0.042357        -1.1526
 102   0.0000      -0.032611        -0.8874
 103   0.0000      -0.006569        -0.1787
 104   0.0000       0.016138         0.4391
 105   0.0000       0.022203         0.6042

MULLIKEN ATOMIC CHARGES
-----------------------
   0 C :   -0.442861
   1 C :   -0.155342
   2 O :   -0.296894
   3 P :    0.648472
   4 S :   -0.463719
   5 O :   -0.265472
   6 C :   -0.157182
   7 C :   -0.458899
   8 S :   -0.112190
   9 C :   -0.230585
  10 S :   -0.124116
  11 P :    0.720707
  12 S :   -0.459970
  13 O :   -0.282070
  14 C :   -0.117042
  15 C :   -0.479080
  16 O :   -0.300852
  17 C :   -0.151831
  18 C :   -0.446559
  19 H :    0.155896
  20 H :    0.171127
  21 H :    0.146607
  22 H :    0.171659
  23 H :    0.146994
  24 H :    0.185557
  25 H :    0.146775
  26 H :    0.171549
  27 H :    0.147063
  28 H :    0.156839
  29 H :    0.190385
  30 H :    0.218346
  31 H :    0.162196
  32 H :    0.150787
  33 H :    0.179206
  34 H :    0.143244
  35 H :    0.152929
  36 H :    0.173065
  37 H :    0.148166
  38 H :    0.146892
  39 H :    0.153667
  40 H :    0.156535
Sum of atomic charges:    0.0000000

LOEWDIN ATOMIC CHARGES
----------------------
   0 C :   -0.407692
   1 C :    0.017995
   2 O :   -0.670350
   3 P :    0.376996
   4 S :   -0.125445
   5 O :   -0.683915
   6 C :    0.009725
   7 C :   -0.401025
   8 S :    0.181223
   9 C :   -0.412053
  10 S :    0.166550
  11 P :    0.366684
  12 S :   -0.103119
  13 O :   -0.663765
  14 C :    0.024583
  15 C :   -0.390913
  16 O :   -0.664880
  17 C :    0.020040
  18 C :   -0.387040
  19 H :    0.160914
  20 H :    0.163474
  21 H :    0.158030
  22 H :    0.179311
  23 H :    0.178794
  24 H :    0.185220
  25 H :    0.178988
  26 H :    0.166038
  27 H :    0.159154
  28 H :    0.161125
  29 H :    0.179242
  30 H :    0.201638
  31 H :    0.179469
  32 H :    0.172069
  33 H :    0.171944
  34 H :    0.157890
  35 H :    0.160680
  36 H :    0.181968
  37 H :    0.170810
  38 H :    0.159952
  39 H :    0.159467
  40 H :    0.160223

  Mayer bond orders larger than 0.100000
B(  0-C ,  1-C ) :   0.9218 B(  0-C , 19-H ) :   0.9671 B(  0-C , 20-H ) :   0.9662
B(  0-C , 21-H ) :   0.9597 B(  1-C ,  2-O ) :   0.8220 B(  1-C , 22-H ) :   0.9673
B(  1-C , 23-H ) :   0.9588 B(  2-O ,  3-P ) :   1.0552 B(  3-P ,  4-S ) :   1.7414
B(  3-P ,  5-O ) :   1.1528 B(  3-P ,  8-S ) :   1.1337 B(  5-O ,  6-C ) :   0.7953
B(  6-C ,  7-C ) :   0.9062 B(  6-C , 24-H ) :   0.9603 B(  6-C , 25-H ) :   0.9594
B(  7-C , 26-H ) :   0.9627 B(  7-C , 27-H ) :   0.9593 B(  7-C , 28-H ) :   0.9726
B(  8-S ,  9-C ) :   0.8941 B(  9-C , 10-S ) :   0.9257 B(  9-C , 29-H ) :   0.9125
B(  9-C , 30-H ) :   0.9029 B( 10-S , 11-P ) :   1.0901 B( 11-P , 12-S ) :   1.7433
B( 11-P , 13-O ) :   1.2037 B( 11-P , 16-O ) :   1.0702 B( 13-O , 14-C ) :   0.7374
B( 14-C , 15-C ) :   0.9389 B( 14-C , 31-H ) :   0.9592 B( 14-C , 32-H ) :   0.9435
B( 15-C , 33-H ) :   0.9673 B( 15-C , 34-H ) :   0.9684 B( 15-C , 35-H ) :   0.9686
B( 16-O , 17-C ) :   0.7804 B( 17-C , 18-C ) :   0.9567 B( 17-C , 36-H ) :   0.9497
B( 17-C , 37-H ) :   0.9475 B( 18-C , 38-H ) :   0.9646 B( 18-C , 39-H ) :   0.9720
B( 18-C , 40-H ) :   0.9719

Dispersion correction           -0.022083982
FINAL SINGLE POINT ENERGY     -2932.460996653037

DIPOLE MOMENT
-------------

Method             : SCF
Type of density    : Electron Density
Multiplicity       :   1
Irrep              :   0
Energy             : -2932.4855036267676951 Eh
Relativity type    :
Basis              : AO
                                X                 Y                 Z
Electronic contribution:     -1.094189568      -8.537686310     -10.691228196
Nuclear contribution   :      1.009868614       8.410141120      11.543047537
                        -----------------------------------------
Total Dipole Moment    :     -0.084320953      -0.127545190       0.851819341
                        -----------------------------------------
Magnitude (a.u.)       :      0.865432833
Magnitude (Debye)      :      2.199755444

Rotational constants in cm-1:             0.012884             0.005226             0.004825
Rotational constants in MHz :           386.262154           156.673325           144.642368

                             ****ORCA TERMINATED NORMALLY****
TOTAL RUN TIME: 0 days 0 hours 1 minutes 20 seconds 807 msec
