                         Program Version 6.0.0  -   RELEASE  -
|  1> ! r2scan-3c def2/J RI DEFGRID2 scfconv6 printgap
|  2> %output
|  3>     printlevel normal
|  4> end
|  5> %cpcm
|  6>     smd true
|  7>     smdsolvent "water"
|  8> end
|  9> * xyz 0 1
| 10> C 4.6586548103 -1.3489783604 -0.7583926839
| 11> C 4.6352871181 0.0623794448 -0.2076923981
| 12> O 3.4490298244 0.3311192617 0.5576273163
| 13> P 2.0024103439 0.4086282207 -0.1006252434
| 14> S 1.9667169567 1.2369082679 -1.8814729476
| 15> O 1.1898465064 1.112108311 1.0651844351
| 16> C 1.0883584734 2.5463838569 1.1777846684
| 17> C 2.4346051601 3.2092234416 1.3741960231
| 18> S 1.2921853581 -1.5707359929 0.0748318568
| 19> C 0.2589044348 -1.6834873917 -1.423238984
| 20> S -1.4485219309 -2.1718641021 -1.064863319
| 21> P -2.0691155857 -0.4538605701 -0.0381689687
| 22> S -1.5194489279 1.2871713615 -0.7720313659
| 23> O -1.5979434182 -0.7837742919 1.4322118081
| 24> C -1.7832729784 0.1499770127 2.521611505
| 25> C -0.7405608964 -0.1519079667 3.5775056344
| 26> O -3.6445222168 -0.6219297057 0.0818868113
| 27> C -4.5446088777 -0.2653250362 -0.9872190911
| 28> C -5.8944398625 0.055469562 -0.3775822713
| 29> H 4.4820319871 -2.0686071367 0.0369004071
| 30> H 3.8845916608 -1.464170574 -1.5158704336
| 31> H 5.6257801265 -1.540300387 -1.2121103188
| 32> H 4.6918183293 0.7911295112 -1.0227586924
| 33> H 5.4469860247 0.2320120481 0.5009699164
| 34> H 0.5903801547 2.9255365425 0.2788770671
| 35> H 0.4382303344 2.6929260139 2.041953402
| 36> H 3.0409338185 3.0933815352 0.4765556444
| 37> H 2.2855163625 4.2678031304 1.5630244081
| 38> H 2.9562804604 2.7584623241 2.2145339436
| 39> H 0.6598095996 -2.469781671 -2.0576860639
| 40> H 0.2745277374 -0.7175432669 -1.9361348348
| 41> H -1.681048318 1.1674253637 2.1282521813
| 42> H -2.7971253058 0.0124101105 2.9040427552
| 43> H 0.256363825 -0.0113592267 3.1673261547
| 44> H -0.8823309587 0.5153759237 4.4215719288
| 45> H -0.839285409 -1.1816305637 3.9082962414
| 46> H -4.1301645857 0.5971032787 -1.5204092301
| 47> H -4.6059604866 -1.1156379818 -1.6705294585
| 48> H -6.5969379556 0.2848030207 -1.1720206984
| 49> H -6.2560695131 -0.7979059191 0.1886350183
| 50> H -5.8129303273 0.9116927779 0.2862207738
| 51> *
| 52>
| 53>                          ****END OF INPUT****

CARTESIAN COORDINATES (ANGSTROEM)
---------------------------------
  C      4.658655   -1.348978   -0.758393
  C      4.635287    0.062379   -0.207692
  O      3.449030    0.331119    0.557627
  P      2.002410    0.408628   -0.100625
  S      1.966717    1.236908   -1.881473
  O      1.189847    1.112108    1.065184
  C      1.088358    2.546384    1.177785
  C      2.434605    3.209223    1.374196
  S      1.292185   -1.570736    0.074832
  C      0.258904   -1.683487   -1.423239
  S     -1.448522   -2.171864   -1.064863
  P     -2.069116   -0.453861   -0.038169
  S     -1.519449    1.287171   -0.772031
  O     -1.597943   -0.783774    1.432212
  C     -1.783273    0.149977    2.521612
  C     -0.740561   -0.151908    3.577506
  O     -3.644522   -0.621930    0.081887
  C     -4.544609   -0.265325   -0.987219
  C     -5.894440    0.055470   -0.377582
  H      4.482032   -2.068607    0.036900
  H      3.884592   -1.464171   -1.515870
  H      5.625780   -1.540300   -1.212110
  H      4.691818    0.791130   -1.022759
  H      5.446986    0.232012    0.500970
  H      0.590380    2.925537    0.278877
  H      0.438230    2.692926    2.041953
  H      3.040934    3.093382    0.476556
  H      2.285516    4.267803    1.563024
  H      2.956280    2.758462    2.214534
  H      0.659810   -2.469782   -2.057686
  H      0.274528   -0.717543   -1.936135
  H     -1.681048    1.167425    2.128252
  H     -2.797125    0.012410    2.904043
  H      0.256364   -0.011359    3.167326
  H     -0.882331    0.515376    4.421572
  H     -0.839285   -1.181631    3.908296
  H     -4.130165    0.597103   -1.520409
  H     -4.605960   -1.115638   -1.670529
  H     -6.596938    0.284803   -1.172021
  H     -6.256070   -0.797906    0.188635
  H     -5.812930    0.911693    0.286221

 Total Charge           Charge          ....    0
 Multiplicity           Mult            ....    1
 Number of Electrons    NEL             ....  202
 Basis Dimension        Dim             ....  539

ORBITAL ENERGIES
----------------

  NO   OCC          E(Eh)            E(eV)
   0   2.0000     -88.582982     -2410.4655
   1   2.0000     -88.577222     -2410.3088
   2   2.0000     -88.526094     -2408.9175
   3   2.0000     -88.521626     -2408.7959
   4   2.0000     -76.917254     -2093.0249
   5   2.0000     -76.916955     -2093.0168
   6   2.0000     -18.993802      -516.8476
   7   2.0000     -18.991733      -516.7913
   8   2.0000     -18.991466      -516.7841
   9   2.0000     -18.989023      -516.7176
  10   2.0000     -10.106229      -275.0045
  11   2.0000     -10.089202      -274.5411
  12   2.0000     -10.088782      -274.5297
  13   2.0000     -10.087869      -274.5049
  14   2.0000     -10.087025      -274.4819
  15   2.0000     -10.019140      -272.6346
  16   2.0000     -10.017960      -272.6026
  17   2.0000     -10.017586      -272.5924
  18   2.0000     -10.017159      -272.5808
  19   2.0000      -7.877492      -214.3574
  20   2.0000      -7.871752      -214.2013
  21   2.0000      -7.821099      -212.8229
  22   2.0000      -7.816707      -212.7034
  23   2.0000      -6.595698      -179.4781
  24   2.0000      -6.595590      -179.4751
  25   2.0000      -5.824480      -158.4922
  26   2.0000      -5.821084      -158.3998
  27   2.0000      -5.818608      -158.3324
  28   2.0000      -5.815738      -158.2543
  29   2.0000      -5.814723      -158.2267
  30   2.0000      -5.808708      -158.0630
  31   2.0000      -5.768699      -156.9743
  32   2.0000      -5.764287      -156.8542
  33   2.0000      -5.761589      -156.7808
  34   2.0000      -5.760894      -156.7619
  35   2.0000      -5.757060      -156.6576
  36   2.0000      -5.756649      -156.6464
  37   2.0000      -4.741121      -129.0125
  38   2.0000      -4.740952      -129.0078
  39   2.0000      -4.740572      -128.9975
  40   2.0000      -4.740490      -128.9953
  41   2.0000      -4.739829      -128.9773
  42   2.0000      -4.739233      -128.9611
  43   2.0000      -1.051627       -28.6162
  44   2.0000      -1.049524       -28.5590
  45   2.0000      -1.010981       -27.5102
  46   2.0000      -1.008916       -27.4540
  47   2.0000      -0.803064       -21.8525
  48   2.0000      -0.756796       -20.5935
  49   2.0000      -0.743245       -20.2247
  50   2.0000      -0.724082       -19.7033
  51   2.0000      -0.722202       -19.6521
  52   2.0000      -0.710396       -19.3308
  53   2.0000      -0.687041       -18.6953
  54   2.0000      -0.669570       -18.2199
  55   2.0000      -0.632714       -17.2170
  56   2.0000      -0.615460       -16.7475
  57   2.0000      -0.597956       -16.2712
  58   2.0000      -0.596922       -16.2431
  59   2.0000      -0.586344       -15.9552
  60   2.0000      -0.529987       -14.4217
  61   2.0000      -0.512003       -13.9323
  62   2.0000      -0.497728       -13.5439
  63   2.0000      -0.486118       -13.2279
  64   2.0000      -0.468517       -12.7490
  65   2.0000      -0.461481       -12.5575
  66   2.0000      -0.453328       -12.3357
  67   2.0000      -0.450166       -12.2496
  68   2.0000      -0.445171       -12.1137
  69   2.0000      -0.431767       -11.7490
  70   2.0000      -0.420590       -11.4448
  71   2.0000      -0.409512       -11.1434
  72   2.0000      -0.403930       -10.9915
  73   2.0000      -0.400704       -10.9037
  74   2.0000      -0.396346       -10.7851
  75   2.0000      -0.388688       -10.5768
  76   2.0000      -0.382047       -10.3960
  77   2.0000      -0.364010        -9.9052
  78   2.0000      -0.360733        -9.8161
  79   2.0000      -0.356265        -9.6945
  80   2.0000      -0.353564        -9.6210
  81   2.0000      -0.349603        -9.5132
  82   2.0000      -0.348268        -9.4769
  83   2.0000      -0.344680        -9.3792
  84   2.0000      -0.343631        -9.3507
  85   2.0000      -0.323401        -8.8002
  86   2.0000      -0.322161        -8.7665
  87   2.0000      -0.311567        -8.4782
  88   2.0000      -0.308019        -8.3816
  89   2.0000      -0.302349        -8.2273
  90   2.0000      -0.299260        -8.1433
  91   2.0000      -0.285943        -7.7809
  92   2.0000      -0.282839        -7.6964
  93   2.0000      -0.278557        -7.5799
  94   2.0000      -0.275369        -7.4932
  95   2.0000      -0.254099        -6.9144
  96   2.0000      -0.238362        -6.4862
  97   2.0000      -0.236327        -6.4308
  98   2.0000      -0.224170        -6.1000
  99   2.0000      -0.215091        -5.8529
 100   2.0000      -0.209112        -5.6902
 101   0.0000      -0.048005        -1.3063
 102   0.0000      -0.039804        -1.0831
 103   0.0000      -0.011687        -0.3180
 104   0.0000       0.010523         0.2864
 105   0.0000       0.017246         0.4693

MULLIKEN ATOMIC CHARGES
-----------------------
   0 C :   -0.476820
   1 C :   -0.157087
   2 O :   -0.324336
   3 P :    0.696632
   4 S :   -0.517926
   5 O :   -0.288950
   6 C :   -0.156479
   7 C :   -0.499718
   8 S :   -0.127519
   9 C :   -0.226981
  10 S :   -0.136991
  11 P :    0.735749
  12 S :   -0.505342
  13 O :   -0.316178
  14 C :   -0.111109
  15 C :   -0.512583
  16 O :   -0.324284
  17 C :   -0.146231
  18 C :   -0.485109
  19 H :    0.165957
  20 H :    0.171200
  21 H :    0.171235
  22 H :    0.176777
  23 H :    0.173668
  24 H :    0.181276
  25 H :    0.180637
  26 H :    0.171129
  27 H :    0.171937
  28 H :    0.169988
  29 H :    0.233788
  30 H :    0.213776
  31 H :    0.173411
  32 H :    0.173422
  33 H :    0.171800
  34 H :    0.170928
  35 H :    0.166391
  36 H :    0.171433
  37 H :    0.171183
  38 H :    0.169468
  39 H :    0.165635
  40 H :    0.166223
Sum of atomic charges:   -0.0000000

LOEWDIN ATOMIC CHARGES
----------------------
   0 C :   -0.410399
   1 C :    0.023189
   2 O :   -0.681577
   3 P :    0.383213
   4 S :   -0.158005
   5 O :   -0.694136
   6 C :    0.013288
   7 C :   -0.403845
   8 S :    0.175310
   9 C :   -0.404965
  10 S :    0.162246
  11 P :    0.367398
  12 S :   -0.130390
  13 O :   -0.683896
  14 C :    0.029401
  15 C :   -0.393537
  16 O :   -0.677081
  17 C :    0.024100
  18 C :   -0.390589
  19 H :    0.163222
  20 H :    0.161001
  21 H :    0.167010
  22 H :    0.180980
  23 H :    0.189998
  24 H :    0.183248
  25 H :    0.191434
  26 H :    0.163363
  27 H :    0.168390
  28 H :    0.164429
  29 H :    0.196395
  30 H :    0.199643
  31 H :    0.183894
  32 H :    0.181823
  33 H :    0.167440
  34 H :    0.169455
  35 H :    0.163137
  36 H :    0.181528
  37 H :    0.179839
  38 H :    0.168760
  39 H :    0.163009
  40 H :    0.162277

  Mayer bond orders larger than 0.100000
B(  0-C ,  1-C ) :   0.9100 B(  0-C , 19-H ) :   0.9651 B(  0-C , 20-H ) :   0.9659
B(  0-C , 21-H ) :   0.9546 B(  1-C ,  2-O ) :   0.8094 B(  1-C , 22-H ) :   0.9657
B(  1-C , 23-H ) :   0.9491 B(  2-O ,  3-P ) :   1.0651 B(  3-P ,  4-S ) :   1.6891
B(  3-P ,  5-O ) :   1.1600 B(  3-P ,  8-S ) :   1.1443 B(  5-O ,  6-C ) :   0.7805
B(  6-C ,  7-C ) :   0.8960 B(  6-C , 24-H ) :   0.9590 B(  6-C , 25-H ) :   0.9488
B(  7-C , 26-H ) :   0.9626 B(  7-C , 27-H ) :   0.9533 B(  7-C , 28-H ) :   0.9709
B(  8-S ,  9-C ) :   0.8870 B(  9-C , 10-S ) :   0.9169 B(  9-C , 29-H ) :   0.8966
B(  9-C , 30-H ) :   0.9071 B( 10-S , 11-P ) :   1.1080 B( 11-P , 12-S ) :   1.7124
B( 11-P , 13-O ) :   1.2023 B( 11-P , 16-O ) :   1.0765 B( 13-O , 14-C ) :   0.7299
B( 14-C , 15-C ) :   0.9308 B( 14-C , 31-H ) :   0.9523 B( 14-C , 32-H ) :   0.9336
B( 15-C , 33-H ) :   0.9674 B( 15-C , 34-H ) :   0.9611 B( 15-C , 35-H ) :   0.9683
B( 16-O , 17-C ) :   0.7718 B( 17-C , 18-C ) :   0.9535 B( 17-C , 36-H ) :   0.9472
B( 17-C , 37-H ) :   0.9386 B( 18-C , 38-H ) :   0.9588 B( 18-C , 39-H ) :   0.9692
B( 18-C , 40-H ) :   0.9689

Dispersion correction           -0.022083982
FINAL SINGLE POINT ENERGY     -2932.469415827306

DIPOLE MOMENT
-------------

Method             : SCF
Type of density    : Electron Density
Multiplicity       :   1
Irrep              :   0
Energy             : -2932.4939228010371153 Eh
Relativity type    :
Basis              : AO
                                X                 Y                 Z
Electronic contribution:     -1.069977799      -8.580402928     -10.469287732
Nuclear contribution   :      1.009868614       8.410141120      11.543047537
                        -----------------------------------------
Total Dipole Moment    :     -0.060109185      -0.170261808       1.073759805
                        -----------------------------------------
Magnitude (a.u.)       :      1.088835302
Magnitude (Debye)      :      2.767599393

Rotational constants in cm-1:             0.012884             0.005226             0.004825
Rotational constants in MHz :           386.262154           156.673325           144.642368

                             ****ORCA TERMINATED NORMALLY****
TOTAL RUN TIME: 0 days 0 hours 1 minutes 51 seconds 156 msec
