                         Program Version 6.0.0  -   RELEASE  -
|  1> ! pbe def2-sv(p) def2/J RI DEFGRID1 loosescf d4 GCP(DFT/SV(P)) printgap
|  2> %output
|  3>     printlevel normal
|  4> end
|  5> * xyz 0 1
|  6> C 5.5532014149 -0.9700563244 -0.6373690796
|  7> C 4.2277027463 -0.3444342155 -1.0214771242
|  8> O 3.2518770717 -0.7326402138 -0.0364618483
|  9> P 1.8170327418 -0.0426272498 0.0236395623
| 10> S 1.8917105091 1.9200585989 0.0527936122
| 11> O 1.1990679184 -0.7908765988 1.2701436222
| 12> C 1.2669359413 -0.2565279256 2.6041420717
| 13> C 2.6812253519 -0.2727106805 3.1448986805
| 14> S 0.8481497835 -0.9386703641 -1.6211123583
| 15> C -0.175444085 0.4451208435 -2.205232783
| 16> S -1.9716208809 0.2005757198 -2.0318363109
| 17> P -2.1667909985 0.0571201391 0.0756855956
| 18> S -3.979508641 0.3381070662 0.7600240749
| 19> O -1.0613262424 1.0235503842 0.689932667
| 20> C -1.429557107 2.3447651024 1.1323295563
| 21> C -1.6766350959 3.2858813271 -0.029185717
| 22> O -1.4467307004 -1.3022141714 0.4691937307
| 23> C -1.7820924687 -2.5821944469 -0.0986014058
| 24> C -3.0725607887 -3.1412223284 0.4662131695
| 25> H 6.2984512159 -0.7094671549 -1.3816200377
| 26> H 5.8735441914 -0.6047246664 0.3341282743
| 27> H 5.4519730634 -2.0503655672 -0.5909742104
| 28> H 3.8896764827 -0.6976963372 -1.9999200192
| 29> H 4.2890635572 0.7490339388 -1.0388134707
| 30> H 0.8662994707 0.7617503787 2.5915838195
| 31> H 0.6002619695 -0.9016267611 3.1784106264
| 32> H 3.0959393596 -1.2750834176 3.0796934145
| 33> H 3.3061345166 0.4052875169 2.5645579835
| 34> H 2.6747670453 0.0517998011 4.1808502934
| 35> H -0.0177853545 0.5428250298 -3.276390575
| 36> H 0.1352441206 1.3495438668 -1.6776806834
| 37> H -2.3227190026 2.2609532423 1.7592115237
| 38> H -0.5805559198 2.6763769604 1.732374565
| 39> H -1.9515752508 4.2613404794 0.3588665054
| 40> H -0.7779583322 3.3876360178 -0.6332148693
| 41> H -2.4912215237 2.9091933491 -0.6472640365
| 42> H -1.8424954522 -2.4862265843 -1.1881031664
| 43> H -0.9268344004 -3.2098604408 0.1611830348
| 44> H -3.0229882408 -3.1799066419 1.5512709329
| 45> H -3.9154511548 -2.5149820781 0.1808173419
| 46> H -3.2267249006 -4.1423293238 0.0765494837
| 47> *
| 48>
| 49>                          ****END OF INPUT****

CARTESIAN COORDINATES (ANGSTROEM)
---------------------------------
  C      5.553201   -0.970056   -0.637369
  C      4.227703   -0.344434   -1.021477
  O      3.251877   -0.732640   -0.036462
  P      1.817033   -0.042627    0.023640
  S      1.891711    1.920059    0.052794
  O      1.199068   -0.790877    1.270144
  C      1.266936   -0.256528    2.604142
  C      2.681225   -0.272711    3.144899
  S      0.848150   -0.938670   -1.621112
  C     -0.175444    0.445121   -2.205233
  S     -1.971621    0.200576   -2.031836
  P     -2.166791    0.057120    0.075686
  S     -3.979509    0.338107    0.760024
  O     -1.061326    1.023550    0.689933
  C     -1.429557    2.344765    1.132330
  C     -1.676635    3.285881   -0.029186
  O     -1.446731   -1.302214    0.469194
  C     -1.782092   -2.582194   -0.098601
  C     -3.072561   -3.141222    0.466213
  H      6.298451   -0.709467   -1.381620
  H      5.873544   -0.604725    0.334128
  H      5.451973   -2.050366   -0.590974
  H      3.889676   -0.697696   -1.999920
  H      4.289064    0.749034   -1.038813
  H      0.866299    0.761750    2.591584
  H      0.600262   -0.901627    3.178411
  H      3.095939   -1.275083    3.079693
  H      3.306135    0.405288    2.564558
  H      2.674767    0.051800    4.180850
  H     -0.017785    0.542825   -3.276391
  H      0.135244    1.349544   -1.677681
  H     -2.322719    2.260953    1.759212
  H     -0.580556    2.676377    1.732375
  H     -1.951575    4.261340    0.358867
  H     -0.777958    3.387636   -0.633215
  H     -2.491222    2.909193   -0.647264
  H     -1.842495   -2.486227   -1.188103
  H     -0.926834   -3.209860    0.161183
  H     -3.022988   -3.179907    1.551271
  H     -3.915451   -2.514982    0.180817
  H     -3.226725   -4.142329    0.076549

 Total Charge           Charge          ....    0
 Multiplicity           Mult            ....    1
 Number of Electrons    NEL             ....  202
 Basis Dimension        Dim             ....  334

ORBITAL ENERGIES
----------------

  NO   OCC          E(Eh)            E(eV)
   0   2.0000     -88.049974     -2395.9616
   1   2.0000     -88.045756     -2395.8468
   2   2.0000     -87.994043     -2394.4397
   3   2.0000     -87.984010     -2394.1666
   4   2.0000     -76.430541     -2079.7807
   5   2.0000     -76.424150     -2079.6069
   6   2.0000     -18.796484      -511.4783
   7   2.0000     -18.790859      -511.3253
   8   2.0000     -18.790772      -511.3229
   9   2.0000     -18.785200      -511.1713
  10   2.0000      -9.960751      -271.0458
  11   2.0000      -9.954125      -270.8655
  12   2.0000      -9.952162      -270.8121
  13   2.0000      -9.948082      -270.7011
  14   2.0000      -9.944599      -270.6063
  15   2.0000      -9.891039      -269.1489
  16   2.0000      -9.884801      -268.9791
  17   2.0000      -9.877117      -268.7700
  18   2.0000      -9.876545      -268.7544
  19   2.0000      -7.694915      -209.3893
  20   2.0000      -7.690679      -209.2740
  21   2.0000      -7.638814      -207.8627
  22   2.0000      -7.629235      -207.6020
  23   2.0000      -6.428122      -174.9181
  24   2.0000      -6.421612      -174.7410
  25   2.0000      -5.722762      -155.7243
  26   2.0000      -5.719467      -155.6346
  27   2.0000      -5.718842      -155.6176
  28   2.0000      -5.714723      -155.5055
  29   2.0000      -5.711819      -155.4265
  30   2.0000      -5.707871      -155.3191
  31   2.0000      -5.667574      -154.2225
  32   2.0000      -5.659749      -154.0096
  33   2.0000      -5.658784      -153.9834
  34   2.0000      -5.658225      -153.9681
  35   2.0000      -5.649894      -153.7414
  36   2.0000      -5.649269      -153.7244
  37   2.0000      -4.650308      -126.5413
  38   2.0000      -4.649801      -126.5275
  39   2.0000      -4.648998      -126.5057
  40   2.0000      -4.644078      -126.3718
  41   2.0000      -4.643859      -126.3658
  42   2.0000      -4.641727      -126.3078
  43   2.0000      -0.990349       -26.9488
  44   2.0000      -0.984130       -26.7795
  45   2.0000      -0.947339       -25.7784
  46   2.0000      -0.941209       -25.6116
  47   2.0000      -0.764606       -20.8060
  48   2.0000      -0.722813       -19.6687
  49   2.0000      -0.708407       -19.2767
  50   2.0000      -0.690406       -18.7869
  51   2.0000      -0.679276       -18.4841
  52   2.0000      -0.677406       -18.4331
  53   2.0000      -0.654552       -17.8113
  54   2.0000      -0.640766       -17.4361
  55   2.0000      -0.602277       -16.3888
  56   2.0000      -0.591013       -16.0823
  57   2.0000      -0.572581       -15.5807
  58   2.0000      -0.565669       -15.3926
  59   2.0000      -0.561382       -15.2760
  60   2.0000      -0.507570       -13.8117
  61   2.0000      -0.492025       -13.3887
  62   2.0000      -0.479915       -13.0591
  63   2.0000      -0.465265       -12.6605
  64   2.0000      -0.456120       -12.4117
  65   2.0000      -0.449315       -12.2265
  66   2.0000      -0.439948       -11.9716
  67   2.0000      -0.434454       -11.8221
  68   2.0000      -0.424983       -11.5644
  69   2.0000      -0.416983       -11.3467
  70   2.0000      -0.410177       -11.1615
  71   2.0000      -0.401828       -10.9343
  72   2.0000      -0.394701       -10.7404
  73   2.0000      -0.388727       -10.5778
  74   2.0000      -0.385709       -10.4957
  75   2.0000      -0.377095       -10.2613
  76   2.0000      -0.361295        -9.8313
  77   2.0000      -0.358547        -9.7566
  78   2.0000      -0.352840        -9.6013
  79   2.0000      -0.349483        -9.5099
  80   2.0000      -0.346041        -9.4162
  81   2.0000      -0.344013        -9.3611
  82   2.0000      -0.338637        -9.2148
  83   2.0000      -0.333973        -9.0879
  84   2.0000      -0.330816        -9.0020
  85   2.0000      -0.318550        -8.6682
  86   2.0000      -0.316783        -8.6201
  87   2.0000      -0.304151        -8.2764
  88   2.0000      -0.296002        -8.0546
  89   2.0000      -0.290752        -7.9118
  90   2.0000      -0.285376        -7.7655
  91   2.0000      -0.271297        -7.3824
  92   2.0000      -0.267133        -7.2691
  93   2.0000      -0.264197        -7.1892
  94   2.0000      -0.256396        -6.9769
  95   2.0000      -0.238026        -6.4770
  96   2.0000      -0.226648        -6.1674
  97   2.0000      -0.212801        -5.7906
  98   2.0000      -0.210969        -5.7408
  99   2.0000      -0.202087        -5.4991
 100   2.0000      -0.196843        -5.3564
 101   0.0000      -0.042356        -1.1526
 102   0.0000      -0.028273        -0.7693
 103   0.0000      -0.022365        -0.6086
 104   0.0000      -0.001698        -0.0462
 105   0.0000       0.015808         0.4302

MULLIKEN ATOMIC CHARGES
-----------------------
   0 C :   -0.279796
   1 C :   -0.011817
   2 O :   -0.376289
   3 P :    0.634433
   4 S :   -0.339978
   5 O :   -0.351298
   6 C :   -0.009292
   7 C :   -0.305836
   8 S :   -0.094135
   9 C :   -0.360192
  10 S :   -0.096528
  11 P :    0.593649
  12 S :   -0.316286
  13 O :   -0.370014
  14 C :   -0.010413
  15 C :   -0.323612
  16 O :   -0.348792
  17 C :   -0.013063
  18 C :   -0.291059
  19 H :    0.112408
  20 H :    0.118905
  21 H :    0.117203
  22 H :    0.098523
  23 H :    0.104264
  24 H :    0.119261
  25 H :    0.108422
  26 H :    0.116804
  27 H :    0.121621
  28 H :    0.111631
  29 H :    0.182732
  30 H :    0.214400
  31 H :    0.115440
  32 H :    0.112327
  33 H :    0.109932
  34 H :    0.130247
  35 H :    0.124411
  36 H :    0.101401
  37 H :    0.103632
  38 H :    0.115004
  39 H :    0.126379
  40 H :    0.105373
Sum of atomic charges:    0.0000000

LOEWDIN ATOMIC CHARGES
----------------------
   0 C :   -0.350048
   1 C :   -0.124317
   2 O :   -0.248994
   3 P :    0.580027
   4 S :   -0.307441
   5 O :   -0.224110
   6 C :   -0.113491
   7 C :   -0.365165
   8 S :    0.096851
   9 C :   -0.479703
  10 S :    0.078432
  11 P :    0.562241
  12 S :   -0.312575
  13 O :   -0.236451
  14 C :   -0.128352
  15 C :   -0.369068
  16 O :   -0.230165
  17 C :   -0.123847
  18 C :   -0.365880
  19 H :    0.131090
  20 H :    0.127706
  21 H :    0.127291
  22 H :    0.106061
  23 H :    0.107152
  24 H :    0.112274
  25 H :    0.121210
  26 H :    0.126422
  27 H :    0.121522
  28 H :    0.130239
  29 H :    0.139716
  30 H :    0.123781
  31 H :    0.108819
  32 H :    0.113182
  33 H :    0.131272
  34 H :    0.122124
  35 H :    0.120467
  36 H :    0.098401
  37 H :    0.117017
  38 H :    0.126795
  39 H :    0.121968
  40 H :    0.127549

  Mayer bond orders larger than 0.100000
B(  0-C ,  1-C ) :   1.1600 B(  0-C , 19-H ) :   0.9421 B(  0-C , 20-H ) :   0.9519
B(  0-C , 21-H ) :   0.9504 B(  1-C ,  2-O ) :   0.9082 B(  1-C , 22-H ) :   0.9238
B(  1-C , 23-H ) :   0.9117 B(  2-O ,  3-P ) :   1.0970 B(  3-P ,  4-S ) :   1.5781
B(  3-P ,  5-O ) :   1.1566 B(  3-P ,  8-S ) :   0.9667 B(  4-S ,  8-S ) :   0.1157
B(  5-O ,  6-C ) :   0.9014 B(  6-C ,  7-C ) :   1.1615 B(  6-C , 24-H ) :   0.9164
B(  6-C , 25-H ) :   0.9341 B(  7-C , 26-H ) :   0.9453 B(  7-C , 27-H ) :   0.9363
B(  7-C , 28-H ) :   0.9390 B(  8-S ,  9-C ) :   1.0086 B(  9-C , 10-S ) :   0.9814
B(  9-C , 29-H ) :   0.9101 B(  9-C , 30-H ) :   0.8481 B( 10-S , 11-P ) :   0.9617
B( 11-P , 12-S ) :   1.6543 B( 11-P , 13-O ) :   1.0860 B( 11-P , 16-O ) :   1.1179
B( 13-O , 14-C ) :   0.8978 B( 14-C , 15-C ) :   1.1707 B( 14-C , 31-H ) :   0.9107
B( 14-C , 32-H ) :   0.9150 B( 15-C , 33-H ) :   0.9381 B( 15-C , 34-H ) :   0.9342
B( 15-C , 35-H ) :   0.9345 B( 16-O , 17-C ) :   0.9113 B( 17-C , 18-C ) :   1.1616
B( 17-C , 36-H ) :   0.9116 B( 17-C , 37-H ) :   0.9335 B( 18-C , 38-H ) :   0.9469
B( 18-C , 39-H ) :   0.9340 B( 18-C , 40-H ) :   0.9382

Dispersion correction           -0.068894289
FINAL SINGLE POINT ENERGY     -2929.522347667234

DIPOLE MOMENT
-------------

Method             : SCF
Type of density    : Electron Density
Multiplicity       :   1
Irrep              :   0
Energy             : -2929.6417687887633292 Eh
Relativity type    :
Basis              : AO
                                X                 Y                 Z
Electronic contribution:    -13.406140527       1.887595625      -8.881738009
Nuclear contribution   :     14.886821812      -2.350760777       8.768459423
                        -----------------------------------------
Total Dipole Moment    :      1.480681285      -0.463165152      -0.113278586
                        -----------------------------------------
Magnitude (a.u.)       :      1.555561334
Magnitude (Debye)      :      3.953922687

Rotational constants in cm-1:             0.012163             0.005567             0.005381
Rotational constants in MHz :           364.627439           166.897219           161.327579

                             ****ORCA TERMINATED NORMALLY****
TOTAL RUN TIME: 0 days 0 hours 0 minutes 22 seconds 453 msec
