                         Program Version 6.0.0  -   RELEASE  -
|  1> ! pbe def2-sv(p) def2/J RI DEFGRID1 loosescf d4 GCP(DFT/SV(P)) printgap
|  2> %output
|  3>     printlevel normal
|  4> end
|  5> * xyz 0 1
|  6> C 5.7486435477 -0.2129022757 0.2401532175
|  7> C 4.4150745289 -0.6863627526 -0.3020096442
|  8> O 3.377104759 0.0900196191 0.327481215
|  9> P 1.9168940601 0.1861545767 -0.2962607871
| 10> S 1.8899448536 0.5885512725 -2.2194356808
| 11> O 1.2337418613 1.2112113745 0.6955547574
| 12> C 1.2609164582 2.6346317019 0.4763437936
| 13> C 2.661398113 3.1975216161 0.5817962471
| 14> S 1.0904651634 -1.6486020852 0.2988445723
| 15> C -0.2062784314 -1.8913244583 -0.9641514275
| 16> S -1.8674339714 -1.9753249611 -0.2629213326
| 17> P -2.1145025622 0.088099764 0.1824654768
| 18> S -1.4878284741 1.3330128318 -1.1913649136
| 19> O -1.4295618151 0.3471627329 1.5792037169
| 20> C -1.8493978915 -0.2905356355 2.817471713
| 21> C -0.8466012392 -1.342569272 3.2455518586
| 22> O -3.656695163 0.2008556026 0.5527456092
| 23> C -4.6831828008 0.4301379108 -0.4298073049
| 24> C -4.8470357653 -0.7377621308 -1.3803364866
| 25> H 5.9074467604 0.8318070072 -0.0119055402
| 26> H 5.7674619268 -0.321599042 1.3205329291
| 27> H 6.5417110428 -0.8107438192 -0.1965758318
| 28> H 4.2406841121 -1.7400102949 -0.0679799954
| 29> H 4.3467825569 -0.5442453218 -1.3860510437
| 30> H 0.8272570996 2.8418008545 -0.5081076247
| 31> H 0.5993469959 3.0262656387 1.2508051635
| 32> H 3.2735454358 2.8150215969 -0.2341849177
| 33> H 2.6180284755 4.2800512084 0.5133122468
| 34> H 3.1114970031 2.9079390026 1.5277146612
| 35> H -0.0298185069 -2.8519619755 -1.4406045822
| 36> H -0.1449900929 -1.0743705342 -1.6884807068
| 37> H -1.8967751253 0.5270853157 3.5385368386
| 38> H -2.8442340443 -0.7166179589 2.678550265
| 39> H 0.1521155318 -0.9143954636 3.2787430303
| 40> H -1.1153893486 -1.7017613803 4.2338759068
| 41> H -0.8403390357 -2.1803112373 2.5524417895
| 42> H -5.5800736647 0.5906926849 0.1702220386
| 43> H -4.4346751291 1.3428511211 -0.9799674735
| 44> H -3.9735473701 -0.8211809115 -2.0248457517
| 45> H -4.9646101202 -1.6652549932 -0.825782325
| 46> H -5.7234440291 -0.572661412 -1.9988043798
| 47> *
| 48>
| 49>                          ****END OF INPUT****

CARTESIAN COORDINATES (ANGSTROEM)
---------------------------------
  C      5.748644   -0.212902    0.240153
  C      4.415075   -0.686363   -0.302010
  O      3.377105    0.090020    0.327481
  P      1.916894    0.186155   -0.296261
  S      1.889945    0.588551   -2.219436
  O      1.233742    1.211211    0.695555
  C      1.260916    2.634632    0.476344
  C      2.661398    3.197522    0.581796
  S      1.090465   -1.648602    0.298845
  C     -0.206278   -1.891324   -0.964151
  S     -1.867434   -1.975325   -0.262921
  P     -2.114503    0.088100    0.182465
  S     -1.487828    1.333013   -1.191365
  O     -1.429562    0.347163    1.579204
  C     -1.849398   -0.290536    2.817472
  C     -0.846601   -1.342569    3.245552
  O     -3.656695    0.200856    0.552746
  C     -4.683183    0.430138   -0.429807
  C     -4.847036   -0.737762   -1.380336
  H      5.907447    0.831807   -0.011906
  H      5.767462   -0.321599    1.320533
  H      6.541711   -0.810744   -0.196576
  H      4.240684   -1.740010   -0.067980
  H      4.346783   -0.544245   -1.386051
  H      0.827257    2.841801   -0.508108
  H      0.599347    3.026266    1.250805
  H      3.273545    2.815022   -0.234185
  H      2.618028    4.280051    0.513312
  H      3.111497    2.907939    1.527715
  H     -0.029819   -2.851962   -1.440605
  H     -0.144990   -1.074371   -1.688481
  H     -1.896775    0.527085    3.538537
  H     -2.844234   -0.716618    2.678550
  H      0.152116   -0.914395    3.278743
  H     -1.115389   -1.701761    4.233876
  H     -0.840339   -2.180311    2.552442
  H     -5.580074    0.590693    0.170222
  H     -4.434675    1.342851   -0.979967
  H     -3.973547   -0.821181   -2.024846
  H     -4.964610   -1.665255   -0.825782
  H     -5.723444   -0.572661   -1.998804

 Total Charge           Charge          ....    0
 Multiplicity           Mult            ....    1
 Number of Electrons    NEL             ....  202
 Basis Dimension        Dim             ....  334

ORBITAL ENERGIES
----------------

  NO   OCC          E(Eh)            E(eV)
   0   2.0000     -88.043886     -2395.7959
   1   2.0000     -88.038895     -2395.6601
   2   2.0000     -87.982662     -2394.1299
   3   2.0000     -87.978907     -2394.0278
   4   2.0000     -76.424584     -2079.6186
   5   2.0000     -76.418986     -2079.4663
   6   2.0000     -18.794957      -511.4368
   7   2.0000     -18.787301      -511.2284
   8   2.0000     -18.787270      -511.2276
   9   2.0000     -18.779687      -511.0213
  10   2.0000      -9.954283      -270.8698
  11   2.0000      -9.954039      -270.8632
  12   2.0000      -9.953488      -270.8482
  13   2.0000      -9.947187      -270.6767
  14   2.0000      -9.938349      -270.4362
  15   2.0000      -9.885260      -268.9916
  16   2.0000      -9.884848      -268.9804
  17   2.0000      -9.879962      -268.8474
  18   2.0000      -9.875273      -268.7199
  19   2.0000      -7.688946      -209.2268
  20   2.0000      -7.684212      -209.0981
  21   2.0000      -7.627551      -207.5562
  22   2.0000      -7.623822      -207.4547
  23   2.0000      -6.422089      -174.7539
  24   2.0000      -6.416624      -174.6052
  25   2.0000      -5.716719      -155.5598
  26   2.0000      -5.713376      -155.4689
  27   2.0000      -5.712077      -155.4335
  28   2.0000      -5.708631      -155.3397
  29   2.0000      -5.706087      -155.2705
  30   2.0000      -5.701178      -155.1369
  31   2.0000      -5.656569      -153.9231
  32   2.0000      -5.652694      -153.8176
  33   2.0000      -5.648011      -153.6902
  34   2.0000      -5.647745      -153.6830
  35   2.0000      -5.644624      -153.5980
  36   2.0000      -5.643866      -153.5774
  37   2.0000      -4.644993      -126.3967
  38   2.0000      -4.643761      -126.3632
  39   2.0000      -4.642330      -126.3242
  40   2.0000      -4.638926      -126.2316
  41   2.0000      -4.638314      -126.2149
  42   2.0000      -4.637372      -126.1893
  43   2.0000      -0.987105       -26.8605
  44   2.0000      -0.979591       -26.6560
  45   2.0000      -0.942551       -25.6481
  46   2.0000      -0.937179       -25.5019
  47   2.0000      -0.761106       -20.7107
  48   2.0000      -0.718820       -19.5601
  49   2.0000      -0.707279       -19.2460
  50   2.0000      -0.688723       -18.7411
  51   2.0000      -0.682491       -18.5715
  52   2.0000      -0.672044       -18.2873
  53   2.0000      -0.647569       -17.6213
  54   2.0000      -0.630207       -17.1488
  55   2.0000      -0.597748       -16.2655
  56   2.0000      -0.588189       -16.0054
  57   2.0000      -0.573703       -15.6112
  58   2.0000      -0.561703       -15.2847
  59   2.0000      -0.556453       -15.1419
  60   2.0000      -0.501552       -13.6479
  61   2.0000      -0.496765       -13.5176
  62   2.0000      -0.472150       -12.8479
  63   2.0000      -0.467083       -12.7100
  64   2.0000      -0.449716       -12.2374
  65   2.0000      -0.445063       -12.1108
  66   2.0000      -0.441196       -12.0056
  67   2.0000      -0.431569       -11.7436
  68   2.0000      -0.425905       -11.5895
  69   2.0000      -0.416910       -11.3447
  70   2.0000      -0.409991       -11.1564
  71   2.0000      -0.393361       -10.7039
  72   2.0000      -0.387768       -10.5517
  73   2.0000      -0.378602       -10.3023
  74   2.0000      -0.375263       -10.2114
  75   2.0000      -0.370026       -10.0689
  76   2.0000      -0.366621        -9.9763
  77   2.0000      -0.354117        -9.6360
  78   2.0000      -0.353662        -9.6236
  79   2.0000      -0.350143        -9.5279
  80   2.0000      -0.342456        -9.3187
  81   2.0000      -0.340583        -9.2677
  82   2.0000      -0.336794        -9.1646
  83   2.0000      -0.335751        -9.1362
  84   2.0000      -0.330246        -8.9864
  85   2.0000      -0.314893        -8.5687
  86   2.0000      -0.307140        -8.3577
  87   2.0000      -0.300172        -8.1681
  88   2.0000      -0.294888        -8.0243
  89   2.0000      -0.293262        -7.9801
  90   2.0000      -0.275191        -7.4883
  91   2.0000      -0.268851        -7.3158
  92   2.0000      -0.262244        -7.1360
  93   2.0000      -0.260936        -7.1004
  94   2.0000      -0.256156        -6.9704
  95   2.0000      -0.233545        -6.3551
  96   2.0000      -0.219934        -5.9847
  97   2.0000      -0.214400        -5.8341
  98   2.0000      -0.201913        -5.4943
  99   2.0000      -0.191941        -5.2230
 100   2.0000      -0.184041        -5.0080
 101   0.0000      -0.038331        -1.0430
 102   0.0000      -0.028549        -0.7769
 103   0.0000      -0.009072        -0.2469
 104   0.0000       0.012408         0.3377
 105   0.0000       0.019316         0.5256

MULLIKEN ATOMIC CHARGES
-----------------------
   0 C :   -0.281555
   1 C :   -0.009224
   2 O :   -0.380012
   3 P :    0.611909
   4 S :   -0.321747
   5 O :   -0.351977
   6 C :   -0.001910
   7 C :   -0.304107
   8 S :   -0.101155
   9 C :   -0.354066
  10 S :   -0.108936
  11 P :    0.603220
  12 S :   -0.296850
  13 O :   -0.347866
  14 C :   -0.018513
  15 C :   -0.282060
  16 O :   -0.383797
  17 C :    0.001091
  18 C :   -0.319561
  19 H :    0.120039
  20 H :    0.115105
  21 H :    0.110518
  22 H :    0.098375
  23 H :    0.103304
  24 H :    0.122990
  25 H :    0.100620
  26 H :    0.121007
  27 H :    0.108674
  28 H :    0.112036
  29 H :    0.182607
  30 H :    0.209580
  31 H :    0.108220
  32 H :    0.106427
  33 H :    0.123019
  34 H :    0.104233
  35 H :    0.120941
  36 H :    0.104264
  37 H :    0.112502
  38 H :    0.131446
  39 H :    0.116599
  40 H :    0.114606
Sum of atomic charges:    0.0000000

LOEWDIN ATOMIC CHARGES
----------------------
   0 C :   -0.350498
   1 C :   -0.123374
   2 O :   -0.249397
   3 P :    0.566677
   4 S :   -0.317061
   5 O :   -0.229519
   6 C :   -0.118244
   7 C :   -0.366581
   8 S :    0.084304
   9 C :   -0.478613
  10 S :    0.074388
  11 P :    0.565566
  12 S :   -0.285675
  13 O :   -0.233089
  14 C :   -0.110052
  15 C :   -0.363186
  16 O :   -0.249596
  17 C :   -0.116073
  18 C :   -0.371447
  19 H :    0.127799
  20 H :    0.126177
  21 H :    0.130078
  22 H :    0.107646
  23 H :    0.106443
  24 H :    0.109428
  25 H :    0.117822
  26 H :    0.120543
  27 H :    0.128950
  28 H :    0.123696
  29 H :    0.137770
  30 H :    0.126967
  31 H :    0.120884
  32 H :    0.109472
  33 H :    0.127311
  34 H :    0.126528
  35 H :    0.114961
  36 H :    0.118323
  37 H :    0.112940
  38 H :    0.123011
  39 H :    0.122763
  40 H :    0.131961

  Mayer bond orders larger than 0.100000
B(  0-C ,  1-C ) :   1.1598 B(  0-C , 19-H ) :   0.9516 B(  0-C , 20-H ) :   0.9504
B(  0-C , 21-H ) :   0.9423 B(  1-C ,  2-O ) :   0.9082 B(  1-C , 22-H ) :   0.9281
B(  1-C , 23-H ) :   0.9064 B(  2-O ,  3-P ) :   1.0905 B(  3-P ,  4-S ) :   1.6057
B(  3-P ,  5-O ) :   1.1514 B(  3-P ,  8-S ) :   0.9706 B(  4-S ,  8-S ) :   0.1150
B(  5-O ,  6-C ) :   0.9007 B(  6-C ,  7-C ) :   1.1592 B(  6-C , 24-H ) :   0.9125
B(  6-C , 25-H ) :   0.9357 B(  7-C , 26-H ) :   0.9353 B(  7-C , 27-H ) :   0.9389
B(  7-C , 28-H ) :   0.9448 B(  8-S ,  9-C ) :   0.9929 B(  9-C , 10-S ) :   1.0081
B(  9-C , 29-H ) :   0.9113 B(  9-C , 30-H ) :   0.8484 B( 10-S , 11-P ) :   0.9370
B( 10-S , 12-S ) :   0.1054 B( 11-P , 12-S ) :   1.6412 B( 11-P , 13-O ) :   1.1461
B( 11-P , 16-O ) :   1.0829 B( 13-O , 14-C ) :   0.8922 B( 14-C , 15-C ) :   1.1682
B( 14-C , 31-H ) :   0.9352 B( 14-C , 32-H ) :   0.9186 B( 15-C , 33-H ) :   0.9429
B( 15-C , 34-H ) :   0.9370 B( 15-C , 35-H ) :   0.9335 B( 16-O , 17-C ) :   0.9057
B( 17-C , 18-C ) :   1.1668 B( 17-C , 36-H ) :   0.9345 B( 17-C , 37-H ) :   0.9170
B( 18-C , 38-H ) :   0.9347 B( 18-C , 39-H ) :   0.9437 B( 18-C , 40-H ) :   0.9370

Dispersion correction           -0.067406364
FINAL SINGLE POINT ENERGY     -2929.520511402535

DIPOLE MOMENT
-------------

Method             : SCF
Type of density    : Electron Density
Multiplicity       :   1
Irrep              :   0
Energy             : -2929.6386466761741758 Eh
Relativity type    :
Basis              : AO
                                X                 Y                 Z
Electronic contribution:     -6.026102158      -3.387613591      -8.238717464
Nuclear contribution   :      5.657402778       2.879176100       9.347717866
                        -----------------------------------------
Total Dipole Moment    :     -0.368699379      -0.508437491       1.109000401
                        -----------------------------------------
Magnitude (a.u.)       :      1.274491979
Magnitude (Debye)      :      3.239501163

Rotational constants in cm-1:             0.013348             0.005124             0.004958
Rotational constants in MHz :           400.166442           153.605228           148.640956

                             ****ORCA TERMINATED NORMALLY****
TOTAL RUN TIME: 0 days 0 hours 0 minutes 21 seconds 715 msec
