                         Program Version 6.0.0  -   RELEASE  -
|  1> ! pbe def2-sv(p) def2/J RI DEFGRID1 loosescf d4 GCP(DFT/SV(P)) printgap
|  2> %output
|  3>     printlevel normal
|  4> end
|  5> * xyz 0 1
|  6> C 4.1417230038 -2.2765596092 -0.5780588025
|  7> C 4.6495122454 -0.8577714742 -0.4254483415
|  8> O 3.6663269822 0.0226827203 0.1518410659
|  9> P 2.3140709572 0.3963171222 -0.5948700995
| 10> S 2.4517241732 0.6849160365 -2.5215684688
| 11> O 1.8460895768 1.6976575482 0.1641063105
| 12> C 1.8667246506 1.8365381004 1.6051753273
| 13> C 3.1236934093 2.5488246197 2.0570954837
| 14> S 0.9667227071 -1.1416612623 0.0174143229
| 15> C -0.1823097091 -0.9890322995 -1.3712774279
| 16> S -1.1988603712 0.5173299641 -1.3257340084
| 17> P -2.2571582558 0.1392022419 0.4928225588
| 18> S -1.3847577272 0.703338894 2.1479033059
| 19> O -2.6265551188 -1.4072287842 0.3817833333
| 20> C -2.225728101 -2.3893863119 1.3597935386
| 21> C -3.2642150922 -2.4961709501 2.4578900329
| 22> O -3.614362273 0.9230258087 0.2946577016
| 23> C -4.7799563872 0.4546424121 -0.4279911838
| 24> C -4.4993076081 0.144531674 -1.8824206697
| 25> H 3.7322992886 -2.636545076 0.3625535714
| 26> H 3.3644308967 -2.3148452284 -1.3394704685
| 27> H 4.9631195314 -2.9170341194 -0.8828595974
| 28> H 4.946312951 -0.4488457211 -1.3959324953
| 29> H 5.4858387153 -0.8030407041 0.2729119583
| 30> H 0.9709973673 2.4149300269 1.8409314854
| 31> H 1.778329527 0.8475085811 2.0631106847
| 32> H 3.2079373179 3.5070279303 1.5515539537
| 33> H 3.0677446525 2.7113556084 3.1288025956
| 34> H 4.0012302912 1.950253703 1.8281238503
| 35> H -0.820637121 -1.8678547442 -1.3554050575
| 36> H 0.3854816404 -0.9261799325 -2.3007897771
| 37> H -2.1366749412 -3.3198075403 0.7970824144
| 38> H -1.2521738346 -2.1110346578 1.773327808
| 39> H -3.3405670189 -1.5471959358 2.9861563346
| 40> H -4.2347663737 -2.7495110258 2.0399858285
| 41> H -2.9636986126 -3.2668906876 3.1601765163
| 42> H -5.1651792011 -0.4264336437 0.0892185561
| 43> H -5.4823402348 1.2829347094 -0.3223403182
| 44> H -3.8384858246 -0.7152611369 -1.9660646979
| 45> H -5.4373203351 -0.0802188126 -2.3808759415
| 46> H -4.0303738804 0.9957928541 -2.3703050477
| 47> *
| 48>
| 49>                          ****END OF INPUT****

CARTESIAN COORDINATES (ANGSTROEM)
---------------------------------
  C      4.141723   -2.276560   -0.578059
  C      4.649512   -0.857771   -0.425448
  O      3.666327    0.022683    0.151841
  P      2.314071    0.396317   -0.594870
  S      2.451724    0.684916   -2.521568
  O      1.846090    1.697658    0.164106
  C      1.866725    1.836538    1.605175
  C      3.123693    2.548825    2.057095
  S      0.966723   -1.141661    0.017414
  C     -0.182310   -0.989032   -1.371277
  S     -1.198860    0.517330   -1.325734
  P     -2.257158    0.139202    0.492823
  S     -1.384758    0.703339    2.147903
  O     -2.626555   -1.407229    0.381783
  C     -2.225728   -2.389386    1.359794
  C     -3.264215   -2.496171    2.457890
  O     -3.614362    0.923026    0.294658
  C     -4.779956    0.454642   -0.427991
  C     -4.499308    0.144532   -1.882421
  H      3.732299   -2.636545    0.362554
  H      3.364431   -2.314845   -1.339470
  H      4.963120   -2.917034   -0.882860
  H      4.946313   -0.448846   -1.395932
  H      5.485839   -0.803041    0.272912
  H      0.970997    2.414930    1.840931
  H      1.778330    0.847509    2.063111
  H      3.207937    3.507028    1.551554
  H      3.067745    2.711356    3.128803
  H      4.001230    1.950254    1.828124
  H     -0.820637   -1.867855   -1.355405
  H      0.385482   -0.926180   -2.300790
  H     -2.136675   -3.319808    0.797082
  H     -1.252174   -2.111035    1.773328
  H     -3.340567   -1.547196    2.986156
  H     -4.234766   -2.749511    2.039986
  H     -2.963699   -3.266891    3.160177
  H     -5.165179   -0.426434    0.089219
  H     -5.482340    1.282935   -0.322340
  H     -3.838486   -0.715261   -1.966065
  H     -5.437320   -0.080219   -2.380876
  H     -4.030374    0.995793   -2.370305

 Total Charge           Charge          ....    0
 Multiplicity           Mult            ....    1
 Number of Electrons    NEL             ....  202
 Basis Dimension        Dim             ....  334

ORBITAL ENERGIES
----------------

  NO   OCC          E(Eh)            E(eV)
   0   2.0000     -88.040384     -2395.7006
   1   2.0000     -88.035944     -2395.5798
   2   2.0000     -87.985552     -2394.2086
   3   2.0000     -87.981487     -2394.0980
   4   2.0000     -76.427188     -2079.6895
   5   2.0000     -76.424478     -2079.6158
   6   2.0000     -18.801161      -511.6056
   7   2.0000     -18.795013      -511.4383
   8   2.0000     -18.792007      -511.3565
   9   2.0000     -18.782906      -511.1089
  10   2.0000      -9.959644      -271.0157
  11   2.0000      -9.958942      -270.9966
  12   2.0000      -9.954854      -270.8854
  13   2.0000      -9.954716      -270.8816
  14   2.0000      -9.941687      -270.5270
  15   2.0000      -9.888132      -269.0698
  16   2.0000      -9.888042      -269.0673
  17   2.0000      -9.885429      -268.9962
  18   2.0000      -9.876711      -268.7590
  19   2.0000      -7.685128      -209.1230
  20   2.0000      -7.680849      -209.0065
  21   2.0000      -7.630851      -207.6460
  22   2.0000      -7.626769      -207.5349
  23   2.0000      -6.424460      -174.8185
  24   2.0000      -6.422013      -174.7519
  25   2.0000      -5.712869      -155.4551
  26   2.0000      -5.709739      -155.3699
  27   2.0000      -5.708880      -155.3465
  28   2.0000      -5.705465      -155.2536
  29   2.0000      -5.702151      -155.1634
  30   2.0000      -5.697577      -155.0390
  31   2.0000      -5.659813      -154.0113
  32   2.0000      -5.655687      -153.8991
  33   2.0000      -5.651344      -153.7809
  34   2.0000      -5.651043      -153.7727
  35   2.0000      -5.647422      -153.6742
  36   2.0000      -5.646803      -153.6573
  37   2.0000      -4.647851      -126.4744
  38   2.0000      -4.645856      -126.4202
  39   2.0000      -4.644922      -126.3947
  40   2.0000      -4.644564      -126.3850
  41   2.0000      -4.643592      -126.3585
  42   2.0000      -4.642362      -126.3251
  43   2.0000      -0.989669       -26.9303
  44   2.0000      -0.985609       -26.8198
  45   2.0000      -0.948464       -25.8090
  46   2.0000      -0.940823       -25.6011
  47   2.0000      -0.760664       -20.6987
  48   2.0000      -0.721211       -19.6252
  49   2.0000      -0.708191       -19.2708
  50   2.0000      -0.696132       -18.9427
  51   2.0000      -0.687618       -18.7110
  52   2.0000      -0.671347       -18.2683
  53   2.0000      -0.650526       -17.7017
  54   2.0000      -0.636632       -17.3236
  55   2.0000      -0.597346       -16.2546
  56   2.0000      -0.591239       -16.0884
  57   2.0000      -0.581867       -15.8334
  58   2.0000      -0.567317       -15.4375
  59   2.0000      -0.560341       -15.2477
  60   2.0000      -0.504798       -13.7362
  61   2.0000      -0.494428       -13.4541
  62   2.0000      -0.480198       -13.0669
  63   2.0000      -0.471312       -12.8250
  64   2.0000      -0.456954       -12.4344
  65   2.0000      -0.449659       -12.2359
  66   2.0000      -0.444904       -12.1065
  67   2.0000      -0.435395       -11.8477
  68   2.0000      -0.420054       -11.4303
  69   2.0000      -0.417843       -11.3701
  70   2.0000      -0.413581       -11.2541
  71   2.0000      -0.397498       -10.8165
  72   2.0000      -0.388265       -10.5652
  73   2.0000      -0.385889       -10.5006
  74   2.0000      -0.379214       -10.3189
  75   2.0000      -0.373938       -10.1754
  76   2.0000      -0.366528        -9.9737
  77   2.0000      -0.358994        -9.7687
  78   2.0000      -0.355122        -9.6634
  79   2.0000      -0.352365        -9.5883
  80   2.0000      -0.348881        -9.4935
  81   2.0000      -0.346665        -9.4332
  82   2.0000      -0.341788        -9.3005
  83   2.0000      -0.340389        -9.2624
  84   2.0000      -0.331129        -9.0105
  85   2.0000      -0.322190        -8.7672
  86   2.0000      -0.310206        -8.4411
  87   2.0000      -0.303915        -8.2700
  88   2.0000      -0.296089        -8.0570
  89   2.0000      -0.295071        -8.0293
  90   2.0000      -0.287953        -7.8356
  91   2.0000      -0.273987        -7.4556
  92   2.0000      -0.266258        -7.2453
  93   2.0000      -0.261994        -7.1292
  94   2.0000      -0.257426        -7.0049
  95   2.0000      -0.236123        -6.4252
  96   2.0000      -0.215153        -5.8546
  97   2.0000      -0.207663        -5.6508
  98   2.0000      -0.205576        -5.5940
  99   2.0000      -0.195593        -5.3224
 100   2.0000      -0.188969        -5.1421
 101   0.0000      -0.046058        -1.2533
 102   0.0000      -0.019645        -0.5346
 103   0.0000      -0.012034        -0.3275
 104   0.0000      -0.001427        -0.0388
 105   0.0000       0.014345         0.3904

MULLIKEN ATOMIC CHARGES
-----------------------
   0 C :   -0.313790
   1 C :   -0.000226
   2 O :   -0.383134
   3 P :    0.617869
   4 S :   -0.316462
   5 O :   -0.347968
   6 C :   -0.019158
   7 C :   -0.281829
   8 S :   -0.104418
   9 C :   -0.369705
  10 S :   -0.072812
  11 P :    0.621147
  12 S :   -0.307510
  13 O :   -0.398325
  14 C :   -0.026415
  15 C :   -0.292023
  16 O :   -0.366422
  17 C :    0.001796
  18 C :   -0.320793
  19 H :    0.116950
  20 H :    0.124648
  21 H :    0.113217
  22 H :    0.113829
  23 H :    0.105426
  24 H :    0.123798
  25 H :    0.103369
  26 H :    0.117043
  27 H :    0.107949
  28 H :    0.114444
  29 H :    0.184005
  30 H :    0.193314
  31 H :    0.103123
  32 H :    0.123586
  33 H :    0.126025
  34 H :    0.111471
  35 H :    0.112004
  36 H :    0.105365
  37 H :    0.112564
  38 H :    0.125864
  39 H :    0.112787
  40 H :    0.129399
Sum of atomic charges:   -0.0000000

LOEWDIN ATOMIC CHARGES
----------------------
   0 C :   -0.371096
   1 C :   -0.115630
   2 O :   -0.246175
   3 P :    0.577388
   4 S :   -0.307399
   5 O :   -0.228976
   6 C :   -0.117079
   7 C :   -0.359783
   8 S :    0.073388
   9 C :   -0.486030
  10 S :    0.087525
  11 P :    0.570862
  12 S :   -0.301725
  13 O :   -0.253383
  14 C :   -0.123325
  15 C :   -0.361633
  16 O :   -0.242961
  17 C :   -0.107402
  18 C :   -0.371811
  19 H :    0.123022
  20 H :    0.120215
  21 H :    0.131093
  22 H :    0.113572
  23 H :    0.118654
  24 H :    0.119604
  25 H :    0.103978
  26 H :    0.127623
  27 H :    0.128899
  28 H :    0.122473
  29 H :    0.129009
  30 H :    0.128313
  31 H :    0.115205
  32 H :    0.108679
  33 H :    0.126301
  34 H :    0.122207
  35 H :    0.131590
  36 H :    0.112385
  37 H :    0.123560
  38 H :    0.120373
  39 H :    0.130847
  40 H :    0.127643

  Mayer bond orders larger than 0.100000
B(  0-C ,  1-C ) :   1.1675 B(  0-C , 19-H ) :   0.9432 B(  0-C , 20-H ) :   0.9350
B(  0-C , 21-H ) :   0.9366 B(  1-C ,  2-O ) :   0.9059 B(  1-C , 22-H ) :   0.9188
B(  1-C , 23-H ) :   0.9340 B(  2-O ,  3-P ) :   1.0801 B(  3-P ,  4-S ) :   1.6273
B(  3-P ,  5-O ) :   1.1597 B(  3-P ,  8-S ) :   0.9389 B(  4-S ,  8-S ) :   0.1081
B(  5-O ,  6-C ) :   0.8853 B(  6-C ,  7-C ) :   1.1554 B(  6-C , 24-H ) :   0.9257
B(  6-C , 25-H ) :   0.9187 B(  7-C , 26-H ) :   0.9466 B(  7-C , 27-H ) :   0.9410
B(  7-C , 28-H ) :   0.9426 B(  8-S ,  9-C ) :   1.0112 B(  9-C , 10-S ) :   1.0016
B(  9-C , 29-H ) :   0.8992 B(  9-C , 30-H ) :   0.8713 B( 10-S , 11-P ) :   0.9614
B( 10-S , 12-S ) :   0.1020 B( 11-P , 12-S ) :   1.6541 B( 11-P , 13-O ) :   1.0458
B( 11-P , 16-O ) :   1.1381 B( 13-O , 14-C ) :   0.8919 B( 14-C , 15-C ) :   1.1694
B( 14-C , 31-H ) :   0.9313 B( 14-C , 32-H ) :   0.9035 B( 15-C , 33-H ) :   0.9364
B( 15-C , 34-H ) :   0.9464 B( 15-C , 35-H ) :   0.9394 B( 16-O , 17-C ) :   0.8991
B( 17-C , 18-C ) :   1.1704 B( 17-C , 36-H ) :   0.9298 B( 17-C , 37-H ) :   0.9351
B( 18-C , 38-H ) :   0.9387 B( 18-C , 39-H ) :   0.9337 B( 18-C , 40-H ) :   0.9407

Dispersion correction           -0.065883588
FINAL SINGLE POINT ENERGY     -2929.515069493235

DIPOLE MOMENT
-------------

Method             : SCF
Type of density    : Electron Density
Multiplicity       :   1
Irrep              :   0
Energy             : -2929.6344729416750852 Eh
Relativity type    :
Basis              : AO
                                X                 Y                 Z
Electronic contribution:      2.198348378      10.539475046      -6.872767861
Nuclear contribution   :     -2.711276273     -12.135229348       7.265807407
                        -----------------------------------------
Total Dipole Moment    :     -0.512927895      -1.595754301       0.393039546
                        -----------------------------------------
Magnitude (a.u.)       :      1.721629142
Magnitude (Debye)      :      4.376033509

Rotational constants in cm-1:             0.012630             0.004767             0.004613
Rotational constants in MHz :           378.637803           142.916055           138.287448

                             ****ORCA TERMINATED NORMALLY****
TOTAL RUN TIME: 0 days 0 hours 0 minutes 21 seconds 8 msec
