                         Program Version 6.0.0  -   RELEASE  -
|  1> ! pbe def2-sv(p) def2/J RI DEFGRID1 loosescf d4 GCP(DFT/SV(P)) printgap
|  2> %output
|  3>     printlevel normal
|  4> end
|  5> * xyz 0 1
|  6> C 4.3959860466 -1.679046967 -0.9591690373
|  7> C 4.6066710958 -0.2011663838 -0.7017577823
|  8> O 3.554913287 0.3793581658 0.0900969582
|  9> P 2.0541799738 0.5030499524 -0.4303877713
| 10> S 1.8779241747 0.9324354871 -2.3274961881
| 11> O 1.4759407299 1.6086268038 0.5341846659
| 12> C 1.5717133679 1.5338004157 1.977316703
| 13> C 2.7307534866 2.3654284747 2.4857774126
| 14> S 1.1975088931 -1.3369062874 0.2171672067
| 15> C -0.0077489942 -1.6410302377 -1.1159937974
| 16> S -1.6834280538 -1.8928001994 -0.4951093816
| 17> P -2.0354301741 0.0813613544 0.210603334
| 18> S -1.3958381437 1.5399041199 -0.9339683431
| 19> O -1.3954980431 0.1609593923 1.650655607
| 20> C -1.3910556301 -0.8849579659 2.6589438222
| 21> C -2.7723831661 -1.4163212745 2.9703743033
| 22> O -3.5943252468 0.1183174816 0.5113213741
| 23> C -4.5675680956 0.4774878162 -0.4833518852
| 24> C -4.6571514792 -0.5456672709 -1.5973633686
| 25> H 5.2807931741 -2.0852095819 -1.4386491814
| 26> H 4.2151671221 -2.2064496591 -0.0259867939
| 27> H 3.5424818604 -1.8218900328 -1.6201662937
| 28> H 4.6653052244 0.3475145679 -1.6466613474
| 29> H 5.5051241856 -0.0199679592 -0.1100774342
| 30> H 0.6131821329 1.9203122967 2.3310189257
| 31> H 1.6767064434 0.4847883461 2.2703954992
| 32> H 2.6313913849 3.390728381 2.1397630506
| 33> H 2.7265754084 2.3499534471 3.5711724028
| 34> H 3.67187424 1.9616218783 2.1226523776
| 35> H 0.2684518842 -2.5629611604 -1.621159832
| 36> H 0.0175483533 -0.7901957047 -1.8027918244
| 37> H -0.7312495523 -1.6860097039 2.3129123875
| 38> H -0.9466009891 -0.3895809795 3.5234978868
| 39> H -3.440147107 -0.600891783 3.2353142209
| 40> H -3.1801808999 -1.939965107 2.1084868386
| 41> H -2.7010610467 -2.1088383731 3.8034670268
| 42> H -5.5000100061 0.5435956579 0.0789960796
| 43> H -4.304521098 1.4609312666 -0.8858108234
| 44> H -3.7435994469 -0.5315917494 -2.1899787071
| 45> H -4.7959534419 -1.5426994056 -1.18732199
| 46> H -5.4950199005 -0.3002663846 -2.2420514374
| 47> *
| 48>
| 49>                          ****END OF INPUT****

CARTESIAN COORDINATES (ANGSTROEM)
---------------------------------
  C      4.395986   -1.679047   -0.959169
  C      4.606671   -0.201166   -0.701758
  O      3.554913    0.379358    0.090097
  P      2.054180    0.503050   -0.430388
  S      1.877924    0.932435   -2.327496
  O      1.475941    1.608627    0.534185
  C      1.571713    1.533800    1.977317
  C      2.730753    2.365428    2.485777
  S      1.197509   -1.336906    0.217167
  C     -0.007749   -1.641030   -1.115994
  S     -1.683428   -1.892800   -0.495109
  P     -2.035430    0.081361    0.210603
  S     -1.395838    1.539904   -0.933968
  O     -1.395498    0.160959    1.650656
  C     -1.391056   -0.884958    2.658944
  C     -2.772383   -1.416321    2.970374
  O     -3.594325    0.118317    0.511321
  C     -4.567568    0.477488   -0.483352
  C     -4.657151   -0.545667   -1.597363
  H      5.280793   -2.085210   -1.438649
  H      4.215167   -2.206450   -0.025987
  H      3.542482   -1.821890   -1.620166
  H      4.665305    0.347515   -1.646661
  H      5.505124   -0.019968   -0.110077
  H      0.613182    1.920312    2.331019
  H      1.676706    0.484788    2.270395
  H      2.631391    3.390728    2.139763
  H      2.726575    2.349953    3.571172
  H      3.671874    1.961622    2.122652
  H      0.268452   -2.562961   -1.621160
  H      0.017548   -0.790196   -1.802792
  H     -0.731250   -1.686010    2.312912
  H     -0.946601   -0.389581    3.523498
  H     -3.440147   -0.600892    3.235314
  H     -3.180181   -1.939965    2.108487
  H     -2.701061   -2.108838    3.803467
  H     -5.500010    0.543596    0.078996
  H     -4.304521    1.460931   -0.885811
  H     -3.743599   -0.531592   -2.189979
  H     -4.795953   -1.542699   -1.187322
  H     -5.495020   -0.300266   -2.242051

 Total Charge           Charge          ....    0
 Multiplicity           Mult            ....    1
 Number of Electrons    NEL             ....  202
 Basis Dimension        Dim             ....  334

ORBITAL ENERGIES
----------------

  NO   OCC          E(Eh)            E(eV)
   0   2.0000     -88.045509     -2395.8401
   1   2.0000     -88.040732     -2395.7101
   2   2.0000     -87.981343     -2394.0940
   3   2.0000     -87.977029     -2393.9767
   4   2.0000     -76.423362     -2079.5854
   5   2.0000     -76.421783     -2079.5424
   6   2.0000     -18.791576      -511.3448
   7   2.0000     -18.790581      -511.3177
   8   2.0000     -18.789568      -511.2901
   9   2.0000     -18.782217      -511.0901
  10   2.0000      -9.956317      -270.9252
  11   2.0000      -9.954617      -270.8789
  12   2.0000      -9.951506      -270.7942
  13   2.0000      -9.950609      -270.7698
  14   2.0000      -9.949132      -270.7296
  15   2.0000      -9.888678      -269.0846
  16   2.0000      -9.883203      -268.9356
  17   2.0000      -9.882434      -268.9147
  18   2.0000      -9.881198      -268.8811
  19   2.0000      -7.690361      -209.2654
  20   2.0000      -7.685266      -209.1267
  21   2.0000      -7.626542      -207.5288
  22   2.0000      -7.621935      -207.4034
  23   2.0000      -6.420619      -174.7139
  24   2.0000      -6.419172      -174.6746
  25   2.0000      -5.718180      -155.5996
  26   2.0000      -5.714707      -155.5051
  27   2.0000      -5.713113      -155.4617
  28   2.0000      -5.709766      -155.3706
  29   2.0000      -5.707591      -155.3114
  30   2.0000      -5.702310      -155.1677
  31   2.0000      -5.655598      -153.8966
  32   2.0000      -5.650989      -153.7712
  33   2.0000      -5.647092      -153.6652
  34   2.0000      -5.646589      -153.6515
  35   2.0000      -5.642403      -153.5376
  36   2.0000      -5.642132      -153.5302
  37   2.0000      -4.643420      -126.3539
  38   2.0000      -4.642494      -126.3287
  39   2.0000      -4.641952      -126.3139
  40   2.0000      -4.640810      -126.2829
  41   2.0000      -4.640767      -126.2817
  42   2.0000      -4.639603      -126.2500
  43   2.0000      -0.985655       -26.8210
  44   2.0000      -0.982629       -26.7387
  45   2.0000      -0.944521       -25.7017
  46   2.0000      -0.938421       -25.5357
  47   2.0000      -0.761705       -20.7270
  48   2.0000      -0.717650       -19.5283
  49   2.0000      -0.709124       -19.2963
  50   2.0000      -0.690485       -18.7890
  51   2.0000      -0.686583       -18.6829
  52   2.0000      -0.676880       -18.4188
  53   2.0000      -0.648270       -17.6403
  54   2.0000      -0.631901       -17.1949
  55   2.0000      -0.597423       -16.2567
  56   2.0000      -0.589585       -16.0434
  57   2.0000      -0.577196       -15.7063
  58   2.0000      -0.569542       -15.4980
  59   2.0000      -0.561273       -15.2730
  60   2.0000      -0.498566       -13.5667
  61   2.0000      -0.490525       -13.3479
  62   2.0000      -0.471268       -12.8239
  63   2.0000      -0.469521       -12.7763
  64   2.0000      -0.448971       -12.2171
  65   2.0000      -0.446849       -12.1594
  66   2.0000      -0.442220       -12.0334
  67   2.0000      -0.439088       -11.9482
  68   2.0000      -0.429778       -11.6948
  69   2.0000      -0.422560       -11.4984
  70   2.0000      -0.412261       -11.2182
  71   2.0000      -0.399635       -10.8746
  72   2.0000      -0.389773       -10.6063
  73   2.0000      -0.383371       -10.4321
  74   2.0000      -0.379110       -10.3161
  75   2.0000      -0.365656        -9.9500
  76   2.0000      -0.363543        -9.8925
  77   2.0000      -0.360156        -9.8004
  78   2.0000      -0.353487        -9.6189
  79   2.0000      -0.351231        -9.5575
  80   2.0000      -0.348777        -9.4907
  81   2.0000      -0.346381        -9.4255
  82   2.0000      -0.340359        -9.2616
  83   2.0000      -0.336774        -9.1641
  84   2.0000      -0.333972        -9.0878
  85   2.0000      -0.314681        -8.5629
  86   2.0000      -0.310722        -8.4552
  87   2.0000      -0.294429        -8.0118
  88   2.0000      -0.292307        -7.9541
  89   2.0000      -0.289936        -7.8896
  90   2.0000      -0.287308        -7.8180
  91   2.0000      -0.274085        -7.4582
  92   2.0000      -0.265282        -7.2187
  93   2.0000      -0.260454        -7.0873
  94   2.0000      -0.256613        -6.9828
  95   2.0000      -0.236067        -6.4237
  96   2.0000      -0.217944        -5.9305
  97   2.0000      -0.212155        -5.7730
  98   2.0000      -0.199465        -5.4277
  99   2.0000      -0.190005        -5.1703
 100   2.0000      -0.183151        -4.9838
 101   0.0000      -0.041556        -1.1308
 102   0.0000      -0.032146        -0.8747
 103   0.0000      -0.010385        -0.2826
 104   0.0000       0.008505         0.2314
 105   0.0000       0.018736         0.5098

MULLIKEN ATOMIC CHARGES
-----------------------
   0 C :   -0.310516
   1 C :    0.001615
   2 O :   -0.385712
   3 P :    0.608197
   4 S :   -0.289116
   5 O :   -0.340660
   6 C :   -0.023025
   7 C :   -0.281749
   8 S :   -0.128608
   9 C :   -0.338464
  10 S :   -0.115566
  11 P :    0.585095
  12 S :   -0.280233
  13 O :   -0.357740
  14 C :   -0.009222
  15 C :   -0.298899
  16 O :   -0.374824
  17 C :   -0.000117
  18 C :   -0.319668
  19 H :    0.111524
  20 H :    0.115407
  21 H :    0.120089
  22 H :    0.111992
  23 H :    0.102078
  24 H :    0.119780
  25 H :    0.098608
  26 H :    0.121345
  27 H :    0.104075
  28 H :    0.118255
  29 H :    0.180417
  30 H :    0.208329
  31 H :    0.113441
  32 H :    0.103612
  33 H :    0.121927
  34 H :    0.119003
  35 H :    0.112166
  36 H :    0.103238
  37 H :    0.113899
  38 H :    0.131399
  39 H :    0.114412
  40 H :    0.114217
Sum of atomic charges:   -0.0000000

LOEWDIN ATOMIC CHARGES
----------------------
   0 C :   -0.370936
   1 C :   -0.117254
   2 O :   -0.251161
   3 P :    0.574415
   4 S :   -0.291338
   5 O :   -0.225323
   6 C :   -0.114367
   7 C :   -0.359198
   8 S :    0.065984
   9 C :   -0.478583
  10 S :    0.073237
  11 P :    0.562636
  12 S :   -0.288705
  13 O :   -0.235299
  14 C :   -0.117368
  15 C :   -0.366082
  16 O :   -0.243151
  17 C :   -0.118241
  18 C :   -0.371441
  19 H :    0.129946
  20 H :    0.122000
  21 H :    0.119241
  22 H :    0.112282
  23 H :    0.116936
  24 H :    0.122227
  25 H :    0.100027
  26 H :    0.129788
  27 H :    0.126957
  28 H :    0.124879
  29 H :    0.135920
  30 H :    0.126214
  31 H :    0.102192
  32 H :    0.118268
  33 H :    0.128657
  34 H :    0.118092
  35 H :    0.131060
  36 H :    0.117853
  37 H :    0.113094
  38 H :    0.122934
  39 H :    0.121888
  40 H :    0.131719

  Mayer bond orders larger than 0.100000
B(  0-C ,  1-C ) :   1.1672 B(  0-C , 19-H ) :   0.9372 B(  0-C , 20-H ) :   0.9426
B(  0-C , 21-H ) :   0.9365 B(  1-C ,  2-O ) :   0.9113 B(  1-C , 22-H ) :   0.9176
B(  1-C , 23-H ) :   0.9341 B(  2-O ,  3-P ) :   1.0695 B(  3-P ,  4-S ) :   1.6340
B(  3-P ,  5-O ) :   1.1459 B(  3-P ,  8-S ) :   0.9398 B(  4-S ,  8-S ) :   0.1118
B(  5-O ,  6-C ) :   0.8977 B(  6-C ,  7-C ) :   1.1578 B(  6-C , 24-H ) :   0.9287
B(  6-C , 25-H ) :   0.9146 B(  7-C , 26-H ) :   0.9466 B(  7-C , 27-H ) :   0.9403
B(  7-C , 28-H ) :   0.9415 B(  8-S ,  9-C ) :   0.9949 B(  9-C , 10-S ) :   1.0040
B(  9-C , 29-H ) :   0.9102 B(  9-C , 30-H ) :   0.8459 B( 10-S , 11-P ) :   0.9295
B( 10-S , 12-S ) :   0.1072 B( 11-P , 12-S ) :   1.6609 B( 11-P , 13-O ) :   1.1276
B( 11-P , 16-O ) :   1.0879 B( 13-O , 14-C ) :   0.8979 B( 14-C , 15-C ) :   1.1734
B( 14-C , 31-H ) :   0.9097 B( 14-C , 32-H ) :   0.9326 B( 15-C , 33-H ) :   0.9426
B( 15-C , 34-H ) :   0.9376 B( 15-C , 35-H ) :   0.9353 B( 16-O , 17-C ) :   0.9057
B( 17-C , 18-C ) :   1.1659 B( 17-C , 36-H ) :   0.9339 B( 17-C , 37-H ) :   0.9144
B( 18-C , 38-H ) :   0.9338 B( 18-C , 39-H ) :   0.9448 B( 18-C , 40-H ) :   0.9376

Dispersion correction           -0.068463481
FINAL SINGLE POINT ENERGY     -2929.514729813363

DIPOLE MOMENT
-------------

Method             : SCF
Type of density    : Electron Density
Multiplicity       :   1
Irrep              :   0
Energy             : -2929.6331454855640004 Eh
Relativity type    :
Basis              : AO
                                X                 Y                 Z
Electronic contribution:     -0.063445431       4.998594313     -10.858381105
Nuclear contribution   :     -0.038308605      -6.214918261      12.280231898
                        -----------------------------------------
Total Dipole Moment    :     -0.101754036      -1.216323949       1.421850793
                        -----------------------------------------
Magnitude (a.u.)       :      1.873888339
Magnitude (Debye)      :      4.763045633

Rotational constants in cm-1:             0.012830             0.005322             0.005033
Rotational constants in MHz :           384.623430           159.552273           150.873648

                             ****ORCA TERMINATED NORMALLY****
TOTAL RUN TIME: 0 days 0 hours 0 minutes 24 seconds 331 msec
