                         Program Version 6.0.0  -   RELEASE  -
|  1> ! r2scan-3c def2/J RI DEFGRID2 scfconv6 printgap
|  2> %output
|  3>     printlevel normal
|  4> end
|  5> * xyz 0 1
|  6> C -2.5880530777 0.5861276355 -5.75094e-05
|  7> C -1.225669301 -0.045097783 0.0002603138
|  8> C -1.1494549726 -1.4350391537 5.68432e-05
|  9> C 0.0705726529 -2.0789400563 -0.0001536326
| 10> C 1.2383003594 -1.337772699 -7.14172e-05
| 11> C 1.1772870747 0.0484867843 6.67327e-05
| 12> C -0.0564225907 0.712298106 0.0001017957
| 13> C -0.0765294312 2.2145340265 -0.0002515376
| 14> O 2.3189734235 0.8013075335 0.0001777829
| 15> H -3.1468032869 0.2562770498 0.8743221386
| 16> H -2.5389170249 1.6684639152 0.0086175134
| 17> H -3.1397742499 0.2702641655 -0.884083633
| 18> H -2.0630720953 -2.0110264082 -4.73449e-05
| 19> H 0.1189757401 -3.15739205 -0.0003862983
| 20> H 2.1981647137 -1.8346935974 -9.26082e-05
| 21> H -0.5877657301 2.5923291697 -0.8840764667
| 22> H -0.5861836687 2.5928566758 0.8842653212
| 23> H 0.9411581519 2.5934642064 -0.0012111175
| 24> H 3.0954742264 0.2233127716 0.000447282
| 25> *
| 26>
| 27>                          ****END OF INPUT****

CARTESIAN COORDINATES (ANGSTROEM)
---------------------------------
  C     -2.588053    0.586128   -0.000058
  C     -1.225669   -0.045098    0.000260
  C     -1.149455   -1.435039    0.000057
  C      0.070573   -2.078940   -0.000154
  C      1.238300   -1.337773   -0.000071
  C      1.177287    0.048487    0.000067
  C     -0.056423    0.712298    0.000102
  C     -0.076529    2.214534   -0.000252
  O      2.318973    0.801308    0.000178
  H     -3.146803    0.256277    0.874322
  H     -2.538917    1.668464    0.008618
  H     -3.139774    0.270264   -0.884084
  H     -2.063072   -2.011026   -0.000047
  H      0.118976   -3.157392   -0.000386
  H      2.198165   -1.834694   -0.000093
  H     -0.587766    2.592329   -0.884076
  H     -0.586184    2.592857    0.884265
  H      0.941158    2.593464   -0.001211
  H      3.095474    0.223313    0.000447

 Total Charge           Charge          ....    0
 Multiplicity           Mult            ....    1
 Number of Electrons    NEL             ....   66
 Basis Dimension        Dim             ....  226

ORBITAL ENERGIES
----------------

  NO   OCC          E(Eh)            E(eV)
   0   2.0000     -18.982092      -516.5290
   1   2.0000     -10.089798      -274.5574
   2   2.0000     -10.037833      -273.1433
   3   2.0000     -10.034260      -273.0461
   4   2.0000     -10.028862      -272.8992
   5   2.0000     -10.026723      -272.8410
   6   2.0000     -10.023962      -272.7659
   7   2.0000     -10.019375      -272.6410
   8   2.0000     -10.018122      -272.6069
   9   2.0000      -1.025131       -27.8952
  10   2.0000      -0.823075       -22.3970
  11   2.0000      -0.745187       -20.2776
  12   2.0000      -0.724010       -19.7013
  13   2.0000      -0.661843       -18.0097
  14   2.0000      -0.640136       -17.4190
  15   2.0000      -0.579895       -15.7798
  16   2.0000      -0.548189       -14.9170
  17   2.0000      -0.492588       -13.4040
  18   2.0000      -0.456815       -12.4306
  19   2.0000      -0.447255       -12.1704
  20   2.0000      -0.405314       -11.0292
  21   2.0000      -0.394820       -10.7436
  22   2.0000      -0.376999       -10.2587
  23   2.0000      -0.371664       -10.1135
  24   2.0000      -0.366017        -9.9598
  25   2.0000      -0.359297        -9.7770
  26   2.0000      -0.354903        -9.6574
  27   2.0000      -0.339381        -9.2350
  28   2.0000      -0.311250        -8.4696
  29   2.0000      -0.299101        -8.1390
  30   2.0000      -0.296368        -8.0646
  31   2.0000      -0.217655        -5.9227
  32   2.0000      -0.197578        -5.3764
  33   0.0000      -0.023550        -0.6408
  34   0.0000      -0.010951        -0.2980
  35   0.0000       0.056600         1.5402
  36   0.0000       0.085668         2.3312
  37   0.0000       0.098417         2.6781

MULLIKEN ATOMIC CHARGES
-----------------------
   0 C :   -0.562834
   1 C :    0.261075
   2 C :   -0.269448
   3 C :   -0.130719
   4 C :   -0.360471
   5 C :    0.419090
   6 C :   -0.028879
   7 C :   -0.643778
   8 O :   -0.418127
   9 H :    0.164554
  10 H :    0.159313
  11 H :    0.165202
  12 H :    0.145114
  13 H :    0.144595
  14 H :    0.132880
  15 H :    0.164504
  16 H :    0.164478
  17 H :    0.185893
  18 H :    0.307557
Sum of atomic charges:   -0.0000000

LOEWDIN ATOMIC CHARGES
----------------------
   0 C :   -0.388647
   1 C :   -0.083821
   2 C :   -0.186065
   3 C :   -0.156894
   4 C :   -0.179461
   5 C :    0.190672
   6 C :   -0.077346
   7 C :   -0.381538
   8 O :   -0.525458
   9 H :    0.166747
  10 H :    0.161290
  11 H :    0.166868
  12 H :    0.167575
  13 H :    0.166887
  14 H :    0.166397
  15 H :    0.163206
  16 H :    0.163183
  17 H :    0.182339
  18 H :    0.284066

  Mayer bond orders larger than 0.100000
B(  0-C ,  1-C ) :   0.7539 B(  0-C ,  9-H ) :   0.9826 B(  0-C , 10-H ) :   0.9828
B(  0-C , 11-H ) :   0.9821 B(  1-C ,  2-C ) :   1.3341 B(  1-C ,  6-C ) :   1.4659
B(  2-C ,  3-C ) :   1.4518 B(  2-C , 12-H ) :   0.9359 B(  3-C ,  4-C ) :   1.3871
B(  3-C , 13-H ) :   0.9402 B(  4-C ,  5-C ) :   1.2864 B(  4-C , 14-H ) :   0.9521
B(  5-C ,  6-C ) :   1.4801 B(  5-C ,  8-O ) :   0.9518 B(  6-C ,  7-C ) :   0.7443
B(  7-C , 15-H ) :   0.9841 B(  7-C , 16-H ) :   0.9844 B(  7-C , 17-H ) :   0.9867
B(  8-O , 18-H ) :   0.8860

Dispersion correction           -0.006316975
FINAL SINGLE POINT ENERGY      -386.002471168914

DIPOLE MOMENT
-------------

Method             : SCF
Type of density    : Electron Density
Multiplicity       :   1
Irrep              :   0
Energy             :  -386.0036928603767024 Eh
Relativity type    :
Basis              : AO
                                X                 Y                 Z
Electronic contribution:      5.466408289      -3.191042480       0.001643826
Nuclear contribution   :     -5.321397015       3.008251144      -0.002103754
                        -----------------------------------------
Total Dipole Moment    :      0.145011274      -0.182791336      -0.000459928
                        -----------------------------------------
Magnitude (a.u.)       :      0.233326281
Magnitude (Debye)      :      0.593068275

Rotational constants in cm-1:             0.076113             0.059006             0.033654
Rotational constants in MHz :          2281.805837          1768.955023          1008.928736

                             ****ORCA TERMINATED NORMALLY****
TOTAL RUN TIME: 0 days 0 hours 0 minutes 24 seconds 281 msec
