                         Program Version 6.0.0  -   RELEASE  -
|  1> ! r2scan-3c def2/J RI DEFGRID2 scfconv6 printgap
|  2> %output
|  3>     printlevel normal
|  4> end
|  5> %cpcm
|  6>     smd true
|  7>     smdsolvent "water"
|  8> end
|  9> * xyz 0 1
| 10> C -2.5880530777 0.5861276355 -5.75094e-05
| 11> C -1.225669301 -0.045097783 0.0002603138
| 12> C -1.1494549726 -1.4350391537 5.68432e-05
| 13> C 0.0705726529 -2.0789400563 -0.0001536326
| 14> C 1.2383003594 -1.337772699 -7.14172e-05
| 15> C 1.1772870747 0.0484867843 6.67327e-05
| 16> C -0.0564225907 0.712298106 0.0001017957
| 17> C -0.0765294312 2.2145340265 -0.0002515376
| 18> O 2.3189734235 0.8013075335 0.0001777829
| 19> H -3.1468032869 0.2562770498 0.8743221386
| 20> H -2.5389170249 1.6684639152 0.0086175134
| 21> H -3.1397742499 0.2702641655 -0.884083633
| 22> H -2.0630720953 -2.0110264082 -4.73449e-05
| 23> H 0.1189757401 -3.15739205 -0.0003862983
| 24> H 2.1981647137 -1.8346935974 -9.26082e-05
| 25> H -0.5877657301 2.5923291697 -0.8840764667
| 26> H -0.5861836687 2.5928566758 0.8842653212
| 27> H 0.9411581519 2.5934642064 -0.0012111175
| 28> H 3.0954742264 0.2233127716 0.000447282
| 29> *
| 30>
| 31>                          ****END OF INPUT****

CARTESIAN COORDINATES (ANGSTROEM)
---------------------------------
  C     -2.588053    0.586128   -0.000058
  C     -1.225669   -0.045098    0.000260
  C     -1.149455   -1.435039    0.000057
  C      0.070573   -2.078940   -0.000154
  C      1.238300   -1.337773   -0.000071
  C      1.177287    0.048487    0.000067
  C     -0.056423    0.712298    0.000102
  C     -0.076529    2.214534   -0.000252
  O      2.318973    0.801308    0.000178
  H     -3.146803    0.256277    0.874322
  H     -2.538917    1.668464    0.008618
  H     -3.139774    0.270264   -0.884084
  H     -2.063072   -2.011026   -0.000047
  H      0.118976   -3.157392   -0.000386
  H      2.198165   -1.834694   -0.000093
  H     -0.587766    2.592329   -0.884076
  H     -0.586184    2.592857    0.884265
  H      0.941158    2.593464   -0.001211
  H      3.095474    0.223313    0.000447

 Total Charge           Charge          ....    0
 Multiplicity           Mult            ....    1
 Number of Electrons    NEL             ....   66
 Basis Dimension        Dim             ....  226

ORBITAL ENERGIES
----------------

  NO   OCC          E(Eh)            E(eV)
   0   2.0000     -18.979370      -516.4549
   1   2.0000     -10.090907      -274.5875
   2   2.0000     -10.038824      -273.1703
   3   2.0000     -10.035979      -273.0929
   4   2.0000     -10.028534      -272.8903
   5   2.0000     -10.024483      -272.7800
   6   2.0000     -10.018464      -272.6163
   7   2.0000     -10.016411      -272.5604
   8   2.0000     -10.016320      -272.5579
   9   2.0000      -1.022518       -27.8241
  10   2.0000      -0.824722       -22.4418
  11   2.0000      -0.744587       -20.2612
  12   2.0000      -0.723125       -19.6772
  13   2.0000      -0.659644       -17.9498
  14   2.0000      -0.637756       -17.3542
  15   2.0000      -0.576818       -15.6960
  16   2.0000      -0.546724       -14.8771
  17   2.0000      -0.489007       -13.3066
  18   2.0000      -0.456189       -12.4135
  19   2.0000      -0.444113       -12.0849
  20   2.0000      -0.404764       -11.0142
  21   2.0000      -0.390715       -10.6319
  22   2.0000      -0.372465       -10.1353
  23   2.0000      -0.368415       -10.0251
  24   2.0000      -0.363923        -9.9028
  25   2.0000      -0.358645        -9.7592
  26   2.0000      -0.353179        -9.6105
  27   2.0000      -0.334935        -9.1141
  28   2.0000      -0.309230        -8.4146
  29   2.0000      -0.302291        -8.2257
  30   2.0000      -0.294451        -8.0124
  31   2.0000      -0.220223        -5.9926
  32   2.0000      -0.201146        -5.4735
  33   0.0000      -0.025423        -0.6918
  34   0.0000      -0.014340        -0.3902
  35   0.0000       0.074084         2.0159
  36   0.0000       0.095692         2.6039
  37   0.0000       0.109170         2.9707

MULLIKEN ATOMIC CHARGES
-----------------------
   0 C :   -0.574055
   1 C :    0.220593
   2 C :   -0.301333
   3 C :   -0.171725
   4 C :   -0.357512
   5 C :    0.349346
   6 C :   -0.035916
   7 C :   -0.651983
   8 O :   -0.457624
   9 H :    0.178876
  10 H :    0.175038
  11 H :    0.179484
  12 H :    0.173297
  13 H :    0.176088
  14 H :    0.179219
  15 H :    0.183596
  16 H :    0.183669
  17 H :    0.185174
  18 H :    0.365769
Sum of atomic charges:   -0.0000000

LOEWDIN ATOMIC CHARGES
----------------------
   0 C :   -0.391813
   1 C :   -0.091790
   2 C :   -0.200988
   3 C :   -0.173497
   4 C :   -0.181548
   5 C :    0.177944
   6 C :   -0.088042
   7 C :   -0.386425
   8 O :   -0.539582
   9 H :    0.172418
  10 H :    0.166489
  11 H :    0.172543
  12 H :    0.177042
  13 H :    0.177143
  14 H :    0.183979
  15 H :    0.170891
  16 H :    0.170900
  17 H :    0.179502
  18 H :    0.304834

  Mayer bond orders larger than 0.100000
B(  0-C ,  1-C ) :   0.7738 B(  0-C ,  9-H ) :   0.9738 B(  0-C , 10-H ) :   0.9806
B(  0-C , 11-H ) :   0.9733 B(  1-C ,  2-C ) :   1.3092 B(  1-C ,  6-C ) :   1.4231
B(  2-C ,  3-C ) :   1.4002 B(  2-C , 12-H ) :   0.9551 B(  3-C ,  4-C ) :   1.3333
B(  3-C , 13-H ) :   0.9599 B(  4-C ,  5-C ) :   1.2932 B(  4-C , 14-H ) :   0.9671
B(  5-C ,  6-C ) :   1.4281 B(  5-C ,  8-O ) :   0.9682 B(  6-C ,  7-C ) :   0.7561
B(  7-C , 15-H ) :   0.9728 B(  7-C , 16-H ) :   0.9730 B(  7-C , 17-H ) :   0.9919
B(  8-O , 18-H ) :   0.8555

Dispersion correction           -0.006316975
FINAL SINGLE POINT ENERGY      -386.010105646258

DIPOLE MOMENT
-------------

Method             : SCF
Type of density    : Electron Density
Multiplicity       :   1
Irrep              :   0
Energy             :  -386.0113273377200471 Eh
Relativity type    :
Basis              : AO
                                X                 Y                 Z
Electronic contribution:      5.512516456      -3.279088655       0.001508363
Nuclear contribution   :     -5.321397015       3.008251144      -0.002103754
                        -----------------------------------------
Total Dipole Moment    :      0.191119440      -0.270837511      -0.000595391
                        -----------------------------------------
Magnitude (a.u.)       :      0.331481451
Magnitude (Debye)      :      0.842558889

Rotational constants in cm-1:             0.076113             0.059006             0.033654
Rotational constants in MHz :          2281.805837          1768.955023          1008.928736

                             ****ORCA TERMINATED NORMALLY****
TOTAL RUN TIME: 0 days 0 hours 0 minutes 27 seconds 526 msec
