                         Program Version 6.0.0  -   RELEASE  -
|  1> ! pbe def2-sv(p) def2/J RI DEFGRID1 loosescf d4 GCP(DFT/SV(P)) printgap
|  2> %output
|  3>     printlevel normal
|  4> end
|  5> * xyz 0 1
|  6> C 4.6020015378 0.0355842043 -1.8926926564
|  7> C 4.4448112577 1.0066129921 -0.7403185775
|  8> O 3.5807011452 0.4986057419 0.2903149827
|  9> P 2.0231244529 0.2766799981 0.0741806334
| 10> S 1.15137806 1.6792638717 -0.9802837067
| 11> O 1.4654704443 0.2306394897 1.5477561341
| 12> C 1.6399888319 -0.8375617977 2.512999959
| 13> C 3.0914664817 -1.1938248488 2.7457888357
| 14> S 1.8748874096 -1.6950648133 -0.7040033768
| 15> C 0.1413788536 -1.6412515383 -1.2014976299
| 16> S -1.0045002135 -1.7047612188 0.2230775804
| 17> P -2.0806164701 0.0808111505 -0.040942148
| 18> S -2.2697839765 0.7783562869 -1.8667699611
| 19> O -1.3696028344 0.998590691 1.0374787322
| 20> C -1.5335221077 2.4283221832 1.0715583059
| 21> C -2.9506569954 2.8345115509 1.4140709688
| 22> O -3.4601217596 -0.2306543595 0.6884434017
| 23> C -4.5989164986 -0.7694014732 -0.0040897723
| 24> C -4.3749193653 -2.1986923184 -0.4543577949
| 25> H 4.8858973776 -0.9471329035 -1.5252701068
| 26> H 3.6643734988 -0.0501595758 -2.4394789967
| 27> H 5.3677725191 0.4039385715 -2.56779795
| 28> H 4.0389562116 1.9598661536 -1.0937091562
| 29> H 5.3907690317 1.175164962 -0.2238076991
| 30> H 1.1720068932 -0.4326992317 3.4116116902
| 31> H 1.0731409723 -1.7068790302 2.1668491566
| 32> H 3.1491189577 -1.9172130385 3.5533323882
| 33> H 3.522232793 -1.6305991357 1.8473045952
| 34> H 3.6598427976 -0.3072297653 3.0142267076
| 35> H -0.0268707091 -2.5276332506 -1.8072262887
| 36> H -0.0587016562 -0.7287766601 -1.770048542
| 37> H -0.8188409007 2.7507795192 1.8307822626
| 38> H -1.232535824 2.8334602248 0.0991802737
| 39> H -3.2697748504 2.3445226609 2.330321281
| 40> H -2.9913504717 3.9116228766 1.5429783782
| 41> H -3.6237156988 2.5494624131 0.6063031685
| 42> H -5.4057122572 -0.6983774911 0.7265777819
| 43> H -4.8148660339 -0.1270696785 -0.8640158503
| 44> H -5.3026279147 -2.5981052723 -0.8513282873
| 45> H -3.6163557499 -2.2272294264 -1.2353856676
| 46> H -4.0438978323 -2.8111656147 0.3805002543
| 47> *
| 48>
| 49>                          ****END OF INPUT****

CARTESIAN COORDINATES (ANGSTROEM)
---------------------------------
  C      4.602002    0.035584   -1.892693
  C      4.444811    1.006613   -0.740319
  O      3.580701    0.498606    0.290315
  P      2.023124    0.276680    0.074181
  S      1.151378    1.679264   -0.980284
  O      1.465470    0.230639    1.547756
  C      1.639989   -0.837562    2.513000
  C      3.091466   -1.193825    2.745789
  S      1.874887   -1.695065   -0.704003
  C      0.141379   -1.641252   -1.201498
  S     -1.004500   -1.704761    0.223078
  P     -2.080616    0.080811   -0.040942
  S     -2.269784    0.778356   -1.866770
  O     -1.369603    0.998591    1.037479
  C     -1.533522    2.428322    1.071558
  C     -2.950657    2.834512    1.414071
  O     -3.460122   -0.230654    0.688443
  C     -4.598916   -0.769401   -0.004090
  C     -4.374919   -2.198692   -0.454358
  H      4.885897   -0.947133   -1.525270
  H      3.664373   -0.050160   -2.439479
  H      5.367773    0.403939   -2.567798
  H      4.038956    1.959866   -1.093709
  H      5.390769    1.175165   -0.223808
  H      1.172007   -0.432699    3.411612
  H      1.073141   -1.706879    2.166849
  H      3.149119   -1.917213    3.553332
  H      3.522233   -1.630599    1.847305
  H      3.659843   -0.307230    3.014227
  H     -0.026871   -2.527633   -1.807226
  H     -0.058702   -0.728777   -1.770049
  H     -0.818841    2.750780    1.830782
  H     -1.232536    2.833460    0.099180
  H     -3.269775    2.344523    2.330321
  H     -2.991350    3.911623    1.542978
  H     -3.623716    2.549462    0.606303
  H     -5.405712   -0.698377    0.726578
  H     -4.814866   -0.127070   -0.864016
  H     -5.302628   -2.598105   -0.851328
  H     -3.616356   -2.227229   -1.235386
  H     -4.043898   -2.811166    0.380500

 Total Charge           Charge          ....    0
 Multiplicity           Mult            ....    1
 Number of Electrons    NEL             ....  202
 Basis Dimension        Dim             ....  334

ORBITAL ENERGIES
----------------

  NO   OCC          E(Eh)            E(eV)
   0   2.0000     -88.046238     -2395.8599
   1   2.0000     -88.041622     -2395.7343
   2   2.0000     -87.982984     -2394.1387
   3   2.0000     -87.979688     -2394.0490
   4   2.0000     -76.424427     -2079.6144
   5   2.0000     -76.420940     -2079.5195
   6   2.0000     -18.793378      -511.3938
   7   2.0000     -18.788475      -511.2604
   8   2.0000     -18.787808      -511.2422
   9   2.0000     -18.778451      -510.9876
  10   2.0000      -9.956007      -270.9167
  11   2.0000      -9.952318      -270.8164
  12   2.0000      -9.951230      -270.7867
  13   2.0000      -9.948802      -270.7207
  14   2.0000      -9.937708      -270.4188
  15   2.0000      -9.885545      -268.9994
  16   2.0000      -9.884110      -268.9603
  17   2.0000      -9.881508      -268.8895
  18   2.0000      -9.875488      -268.7257
  19   2.0000      -7.691142      -209.2866
  20   2.0000      -7.686709      -209.1660
  21   2.0000      -7.627854      -207.5645
  22   2.0000      -7.624591      -207.4757
  23   2.0000      -6.421736      -174.7443
  24   2.0000      -6.418509      -174.6565
  25   2.0000      -5.718970      -155.6211
  26   2.0000      -5.715480      -155.5261
  27   2.0000      -5.714574      -155.5015
  28   2.0000      -5.711232      -155.4105
  29   2.0000      -5.708352      -155.3321
  30   2.0000      -5.703588      -155.2025
  31   2.0000      -5.656702      -153.9267
  32   2.0000      -5.653561      -153.8412
  33   2.0000      -5.648704      -153.7090
  34   2.0000      -5.647894      -153.6870
  35   2.0000      -5.645134      -153.6119
  36   2.0000      -5.644742      -153.6012
  37   2.0000      -4.644499      -126.3832
  38   2.0000      -4.643628      -126.3596
  39   2.0000      -4.641928      -126.3133
  40   2.0000      -4.640768      -126.2817
  41   2.0000      -4.640122      -126.2642
  42   2.0000      -4.639400      -126.2445
  43   2.0000      -0.985273       -26.8106
  44   2.0000      -0.979850       -26.6631
  45   2.0000      -0.943489       -25.6737
  46   2.0000      -0.937126       -25.5005
  47   2.0000      -0.762715       -20.7545
  48   2.0000      -0.718290       -19.5457
  49   2.0000      -0.706459       -19.2237
  50   2.0000      -0.689481       -18.7617
  51   2.0000      -0.682814       -18.5803
  52   2.0000      -0.672882       -18.3101
  53   2.0000      -0.649345       -17.6696
  54   2.0000      -0.632151       -17.2017
  55   2.0000      -0.600733       -16.3468
  56   2.0000      -0.591611       -16.0986
  57   2.0000      -0.575038       -15.6476
  58   2.0000      -0.565890       -15.3986
  59   2.0000      -0.560156       -15.2426
  60   2.0000      -0.492765       -13.4088
  61   2.0000      -0.485346       -13.2069
  62   2.0000      -0.469810       -12.7842
  63   2.0000      -0.465323       -12.6621
  64   2.0000      -0.449512       -12.2318
  65   2.0000      -0.446056       -12.1378
  66   2.0000      -0.440408       -11.9841
  67   2.0000      -0.434487       -11.8230
  68   2.0000      -0.429495       -11.6872
  69   2.0000      -0.414293       -11.2735
  70   2.0000      -0.412497       -11.2246
  71   2.0000      -0.395416       -10.7598
  72   2.0000      -0.386426       -10.5152
  73   2.0000      -0.384491       -10.4625
  74   2.0000      -0.380000       -10.3403
  75   2.0000      -0.377237       -10.2651
  76   2.0000      -0.365119        -9.9354
  77   2.0000      -0.358176        -9.7465
  78   2.0000      -0.351055        -9.5527
  79   2.0000      -0.350119        -9.5272
  80   2.0000      -0.345626        -9.4050
  81   2.0000      -0.342627        -9.3233
  82   2.0000      -0.335979        -9.1425
  83   2.0000      -0.335497        -9.1293
  84   2.0000      -0.331767        -9.0278
  85   2.0000      -0.313534        -8.5317
  86   2.0000      -0.307277        -8.3614
  87   2.0000      -0.292905        -7.9704
  88   2.0000      -0.290632        -7.9085
  89   2.0000      -0.290602        -7.9077
  90   2.0000      -0.273909        -7.4534
  91   2.0000      -0.270552        -7.3621
  92   2.0000      -0.264139        -7.1876
  93   2.0000      -0.260126        -7.0784
  94   2.0000      -0.258056        -7.0221
  95   2.0000      -0.237757        -6.4697
  96   2.0000      -0.219261        -5.9664
  97   2.0000      -0.213638        -5.8134
  98   2.0000      -0.202391        -5.5074
  99   2.0000      -0.193699        -5.2708
 100   2.0000      -0.185571        -5.0496
 101   0.0000      -0.040862        -1.1119
 102   0.0000      -0.030593        -0.8325
 103   0.0000      -0.011022        -0.2999
 104   0.0000       0.012763         0.3473
 105   0.0000       0.024518         0.6672

MULLIKEN ATOMIC CHARGES
-----------------------
   0 C :   -0.320107
   1 C :   -0.000624
   2 O :   -0.374273
   3 P :    0.597785
   4 S :   -0.303485
   5 O :   -0.349174
   6 C :   -0.002747
   7 C :   -0.304753
   8 S :   -0.111816
   9 C :   -0.349842
  10 S :   -0.098574
  11 P :    0.614388
  12 S :   -0.318618
  13 O :   -0.354245
  14 C :   -0.001940
  15 C :   -0.301373
  16 O :   -0.375059
  17 C :   -0.003538
  18 C :   -0.308700
  19 H :    0.115498
  20 H :    0.130859
  21 H :    0.114365
  22 H :    0.113430
  23 H :    0.103951
  24 H :    0.107843
  25 H :    0.114861
  26 H :    0.112015
  27 H :    0.116326
  28 H :    0.120199
  29 H :    0.183175
  30 H :    0.210691
  31 H :    0.101905
  32 H :    0.121718
  33 H :    0.111974
  34 H :    0.108882
  35 H :    0.118723
  36 H :    0.103309
  37 H :    0.109314
  38 H :    0.111007
  39 H :    0.120315
  40 H :    0.116337
Sum of atomic charges:    0.0000000

LOEWDIN ATOMIC CHARGES
----------------------
   0 C :   -0.371482
   1 C :   -0.118258
   2 O :   -0.242469
   3 P :    0.568567
   4 S :   -0.293320
   5 O :   -0.229032
   6 C :   -0.115387
   7 C :   -0.366712
   8 S :    0.075856
   9 C :   -0.477611
  10 S :    0.089683
  11 P :    0.571148
  12 S :   -0.312140
  13 O :   -0.232183
  14 C :   -0.118838
  15 C :   -0.365819
  16 O :   -0.245524
  17 C :   -0.120305
  18 C :   -0.369166
  19 H :    0.122399
  20 H :    0.122673
  21 H :    0.131861
  22 H :    0.112620
  23 H :    0.118240
  24 H :    0.122328
  25 H :    0.102097
  26 H :    0.130666
  27 H :    0.117004
  28 H :    0.127607
  29 H :    0.137294
  30 H :    0.127493
  31 H :    0.118473
  32 H :    0.109204
  33 H :    0.123917
  34 H :    0.128892
  35 H :    0.120636
  36 H :    0.117696
  37 H :    0.109291
  38 H :    0.129787
  39 H :    0.119520
  40 H :    0.123296

  Mayer bond orders larger than 0.100000
B(  0-C ,  1-C ) :   1.1663 B(  0-C , 19-H ) :   0.9448 B(  0-C , 20-H ) :   0.9342
B(  0-C , 21-H ) :   0.9374 B(  1-C ,  2-O ) :   0.9058 B(  1-C , 22-H ) :   0.9146
B(  1-C , 23-H ) :   0.9338 B(  2-O ,  3-P ) :   1.0902 B(  3-P ,  4-S ) :   1.6312
B(  3-P ,  5-O ) :   1.1527 B(  3-P ,  8-S ) :   0.9339 B(  4-S ,  8-S ) :   0.1043
B(  5-O ,  6-C ) :   0.8982 B(  6-C ,  7-C ) :   1.1688 B(  6-C , 24-H ) :   0.9350
B(  6-C , 25-H ) :   0.9090 B(  7-C , 26-H ) :   0.9362 B(  7-C , 27-H ) :   0.9383
B(  7-C , 28-H ) :   0.9433 B(  8-S ,  9-C ) :   1.0064 B(  9-C , 10-S ) :   0.9917
B(  9-C , 29-H ) :   0.9111 B(  9-C , 30-H ) :   0.8480 B( 10-S , 11-P ) :   0.9585
B( 10-S , 12-S ) :   0.1135 B( 11-P , 12-S ) :   1.5964 B( 11-P , 13-O ) :   1.1489
B( 11-P , 16-O ) :   1.0958 B( 13-O , 14-C ) :   0.9042 B( 14-C , 15-C ) :   1.1575
B( 14-C , 31-H ) :   0.9361 B( 14-C , 32-H ) :   0.9138 B( 15-C , 33-H ) :   0.9447
B( 15-C , 34-H ) :   0.9393 B( 15-C , 35-H ) :   0.9380 B( 16-O , 17-C ) :   0.9123
B( 17-C , 18-C ) :   1.1674 B( 17-C , 36-H ) :   0.9340 B( 17-C , 37-H ) :   0.9142
B( 18-C , 38-H ) :   0.9381 B( 18-C , 39-H ) :   0.9370 B( 18-C , 40-H ) :   0.9441

Dispersion correction           -0.068722272
FINAL SINGLE POINT ENERGY     -2929.519744861297

DIPOLE MOMENT
-------------

Method             : SCF
Type of density    : Electron Density
Multiplicity       :   1
Irrep              :   0
Energy             : -2929.6374351297940848 Eh
Relativity type    :
Basis              : AO
                                X                 Y                 Z
Electronic contribution:     -0.343119826       0.260635443      -5.951482579
Nuclear contribution   :      0.736169797      -1.003109297       6.810367385
                        -----------------------------------------
Total Dipole Moment    :      0.393049970      -0.742473854       0.858884806
                        -----------------------------------------
Magnitude (a.u.)       :      1.201431984
Magnitude (Debye)      :      3.053797414

Rotational constants in cm-1:             0.013103             0.005259             0.005054
Rotational constants in MHz :           392.825754           157.657259           151.505368

                             ****ORCA TERMINATED NORMALLY****
TOTAL RUN TIME: 0 days 0 hours 0 minutes 22 seconds 874 msec
