                         Program Version 6.0.1  -  RELEASE   -
|  1> ! pbe def2-sv(p) def2/J RI DEFGRID1 loosescf d4 GCP(DFT/SV(P)) printgap
|  2> %output
|  3>     printlevel normal
|  4> end
|  5> * xyz 0 1
|  6> C 2.9284702544 -1.5966212238 1.4285698878
|  7> C 1.9967147883 -2.1936884988 0.3891362088
|  8> O 1.4374527861 -1.1830843785 -0.4724799622
|  9> C 2.1597020105 -0.8139139616 -1.5184101672
| 10> O 3.2660673651 -1.242793888 -1.7611390273
| 11> C 1.4604853934 0.1694042319 -2.4317389019
| 12> C 0.1899287737 0.8107528983 -1.8903150055
| 13> H -0.1925600492 1.5076259795 -2.6449365152
| 14> C 0.3880518383 1.6079419848 -0.6231091497
| 15> O -0.4926670932 1.7167335375 0.2134789273
| 16> O 1.5478686119 2.1949239377 -0.566180368
| 17> C 1.8446962213 3.0326327485 0.5748714212
| 18> C 2.3453025719 2.2062268382 1.7461569089
| 19> S -1.1804006398 -0.3807477568 -1.6298075683
| 20> P -1.7437714101 -0.30422148 0.4221854753
| 21> S -0.5936878711 -0.4888920515 2.0106742753
| 22> O -2.961930731 0.7133093928 0.5189750967
| 23> C -3.0195938059 1.8380276405 1.3964779468
| 24> O -2.7050434588 -1.5974417497 0.316551616
| 25> C -2.1850032096 -2.924932646 0.319445058
| 26> H 2.3810968301 -0.8967686985 2.0546462176
| 27> H 3.3205923766 -2.394283366 2.0504389522
| 28> H 3.7561153976 -1.0865597514 0.941486485
| 29> H 1.1325232537 -2.6577983599 0.8650814831
| 30> H 2.5259021107 -2.9166862109 -0.2380289229
| 31> H 1.2210386416 -0.3763207441 -3.3475198337
| 32> H 2.182326995 0.9474822386 -2.6885335381
| 33> H 2.6132037338 3.7124994312 0.2076506276
| 34> H 0.9406681703 3.5827765868 0.8478698127
| 35> H 1.57347942 1.5146518218 2.0803382658
| 36> H 3.226265498 1.638856758 1.4587712017
| 37> H 2.5992934094 2.8673386799 2.5678806763
| 38> H -2.305895329 1.7217561889 2.2142368126
| 39> H -4.0360392279 1.8699661492 1.7829838864
| 40> H -2.7906649024 2.742229918 0.8346030829
| 41> H -1.5242797869 -3.0649870297 1.1781226982
| 42> H -1.6412850986 -3.1245693151 -0.6050185404
| 43> H -3.0497685051 -3.5789828266 0.3993262715
| 44> *
| 45>
| 46>                          ****END OF INPUT****

CARTESIAN COORDINATES (ANGSTROEM)
---------------------------------
  C      2.928470   -1.596621    1.428570
  C      1.996715   -2.193688    0.389136
  O      1.437453   -1.183084   -0.472480
  C      2.159702   -0.813914   -1.518410
  O      3.266067   -1.242794   -1.761139
  C      1.460485    0.169404   -2.431739
  C      0.189929    0.810753   -1.890315
  H     -0.192560    1.507626   -2.644937
  C      0.388052    1.607942   -0.623109
  O     -0.492667    1.716734    0.213479
  O      1.547869    2.194924   -0.566180
  C      1.844696    3.032633    0.574871
  C      2.345303    2.206227    1.746157
  S     -1.180401   -0.380748   -1.629808
  P     -1.743771   -0.304221    0.422185
  S     -0.593688   -0.488892    2.010674
  O     -2.961931    0.713309    0.518975
  C     -3.019594    1.838028    1.396478
  O     -2.705043   -1.597442    0.316552
  C     -2.185003   -2.924933    0.319445
  H      2.381097   -0.896769    2.054646
  H      3.320592   -2.394283    2.050439
  H      3.756115   -1.086560    0.941486
  H      1.132523   -2.657798    0.865081
  H      2.525902   -2.916686   -0.238029
  H      1.221039   -0.376321   -3.347520
  H      2.182327    0.947482   -2.688534
  H      2.613204    3.712499    0.207651
  H      0.940668    3.582777    0.847870
  H      1.573479    1.514652    2.080338
  H      3.226265    1.638857    1.458771
  H      2.599293    2.867339    2.567881
  H     -2.305895    1.721756    2.214237
  H     -4.036039    1.869966    1.782984
  H     -2.790665    2.742230    0.834603
  H     -1.524280   -3.064987    1.178123
  H     -1.641285   -3.124569   -0.605019
  H     -3.049769   -3.578983    0.399326

 Total Charge           Charge          ....    0
 Multiplicity           Mult            ....    1
 Number of Electrons    NEL             ....  174
 Basis Dimension        Dim             ....  316

ORBITAL ENERGIES
----------------

  NO   OCC          E(Eh)            E(eV)
   0   2.0000     -88.034980     -2395.5536
   1   2.0000     -87.973172     -2393.8717
   2   2.0000     -76.421135     -2079.5248
   3   2.0000     -18.832964      -512.4710
   4   2.0000     -18.804565      -511.6982
   5   2.0000     -18.775830      -510.9163
   6   2.0000     -18.775453      -510.9061
   7   2.0000     -18.771898      -510.8093
   8   2.0000     -18.734717      -509.7976
   9   2.0000     -10.040295      -273.2103
  10   2.0000     -10.012714      -272.4598
  11   2.0000      -9.965399      -271.1723
  12   2.0000      -9.958808      -270.9929
  13   2.0000      -9.939424      -270.4655
  14   2.0000      -9.932310      -270.2719
  15   2.0000      -9.931342      -270.2455
  16   2.0000      -9.921408      -269.9752
  17   2.0000      -9.890864      -269.1441
  18   2.0000      -9.876818      -268.7619
  19   2.0000      -7.679849      -208.9793
  20   2.0000      -7.618151      -207.3004
  21   2.0000      -6.416131      -174.5918
  22   2.0000      -5.708320      -155.3313
  23   2.0000      -5.704206      -155.2193
  24   2.0000      -5.696396      -155.0068
  25   2.0000      -5.647185      -153.6677
  26   2.0000      -5.638862      -153.4412
  27   2.0000      -5.638012      -153.4181
  28   2.0000      -4.638846      -126.2294
  29   2.0000      -4.638250      -126.2132
  30   2.0000      -4.636689      -126.1707
  31   2.0000      -1.044225       -28.4148
  32   2.0000      -1.009996       -27.4834
  33   2.0000      -0.970127       -26.3985
  34   2.0000      -0.950367       -25.8608
  35   2.0000      -0.924558       -25.1585
  36   2.0000      -0.913861       -24.8674
  37   2.0000      -0.772756       -21.0277
  38   2.0000      -0.718406       -19.5488
  39   2.0000      -0.702992       -19.1294
  40   2.0000      -0.686425       -18.6786
  41   2.0000      -0.655910       -17.8482
  42   2.0000      -0.629620       -17.1328
  43   2.0000      -0.622536       -16.9401
  44   2.0000      -0.610499       -16.6125
  45   2.0000      -0.596080       -16.2202
  46   2.0000      -0.576564       -15.6891
  47   2.0000      -0.517757       -14.0889
  48   2.0000      -0.508317       -13.8320
  49   2.0000      -0.498387       -13.5618
  50   2.0000      -0.490497       -13.3471
  51   2.0000      -0.471380       -12.8269
  52   2.0000      -0.460578       -12.5330
  53   2.0000      -0.452441       -12.3115
  54   2.0000      -0.439372       -11.9559
  55   2.0000      -0.434745       -11.8300
  56   2.0000      -0.426681       -11.6106
  57   2.0000      -0.417420       -11.3586
  58   2.0000      -0.409678       -11.1479
  59   2.0000      -0.406388       -11.0584
  60   2.0000      -0.401373       -10.9219
  61   2.0000      -0.398561       -10.8454
  62   2.0000      -0.386197       -10.5090
  63   2.0000      -0.383297       -10.4301
  64   2.0000      -0.379703       -10.3322
  65   2.0000      -0.377458       -10.2712
  66   2.0000      -0.371353       -10.1050
  67   2.0000      -0.355725        -9.6798
  68   2.0000      -0.351200        -9.5566
  69   2.0000      -0.342425        -9.3179
  70   2.0000      -0.340036        -9.2528
  71   2.0000      -0.329369        -8.9626
  72   2.0000      -0.321768        -8.7557
  73   2.0000      -0.313926        -8.5424
  74   2.0000      -0.301411        -8.2018
  75   2.0000      -0.297529        -8.0962
  76   2.0000      -0.292168        -7.9503
  77   2.0000      -0.287287        -7.8175
  78   2.0000      -0.275078        -7.4852
  79   2.0000      -0.263735        -7.1766
  80   2.0000      -0.259958        -7.0738
  81   2.0000      -0.248516        -6.7625
  82   2.0000      -0.244437        -6.6515
  83   2.0000      -0.223767        -6.0890
  84   2.0000      -0.215819        -5.8727
  85   2.0000      -0.192072        -5.2265
  86   2.0000      -0.184392        -5.0176
  87   0.0000      -0.057760        -1.5717
  88   0.0000      -0.040752        -1.1089
  89   0.0000      -0.024590        -0.6691
  90   0.0000      -0.001339        -0.0364
  91   0.0000       0.029524         0.8034

MULLIKEN ATOMIC CHARGES
-----------------------
   0 C :   -0.323068
   1 C :   -0.006231
   2 O :   -0.228281
   3 C :    0.109258
   4 O :   -0.207140
   5 C :   -0.089854
   6 C :   -0.242203
   7 H :    0.155266
   8 C :    0.216916
   9 O :   -0.211754
  10 O :   -0.216159
  11 C :   -0.012834
  12 C :   -0.338957
  13 S :   -0.109479
  14 P :    0.650800
  15 S :   -0.346649
  16 O :   -0.372147
  17 C :   -0.084633
  18 O :   -0.380664
  19 C :   -0.109844
  20 H :    0.132917
  21 H :    0.107371
  22 H :    0.122093
  23 H :    0.104623
  24 H :    0.103542
  25 H :    0.133903
  26 H :    0.129219
  27 H :    0.110478
  28 H :    0.112417
  29 H :    0.164044
  30 H :    0.123832
  31 H :    0.114935
  32 H :    0.114982
  33 H :    0.119115
  34 H :    0.105753
  35 H :    0.119462
  36 H :    0.108641
  37 H :    0.120331
Sum of atomic charges:    0.0000000

LOEWDIN ATOMIC CHARGES
----------------------
   0 C :   -0.359169
   1 C :   -0.114530
   2 O :   -0.055894
   3 C :    0.030830
   4 O :   -0.166779
   5 C :   -0.252606
   6 C :   -0.265530
   7 H :    0.155513
   8 C :    0.032138
   9 O :   -0.151098
  10 O :   -0.030220
  11 C :   -0.102908
  12 C :   -0.362994
  13 S :    0.100250
  14 P :    0.591867
  15 S :   -0.319536
  16 O :   -0.243864
  17 C :   -0.209847
  18 O :   -0.262318
  19 C :   -0.222663
  20 H :    0.123653
  21 H :    0.130046
  22 H :    0.124998
  23 H :    0.113465
  24 H :    0.116821
  25 H :    0.152312
  26 H :    0.150452
  27 H :    0.121905
  28 H :    0.122120
  29 H :    0.131583
  30 H :    0.127747
  31 H :    0.133598
  32 H :    0.107538
  33 H :    0.117617
  34 H :    0.108417
  35 H :    0.103815
  36 H :    0.103097
  37 H :    0.120175

  Mayer bond orders larger than 0.100000
B(  0-C ,  1-C ) :   1.1838 B(  0-C , 20-H ) :   0.9345 B(  0-C , 21-H ) :   0.9410
B(  0-C , 22-H ) :   0.9413 B(  1-C ,  2-O ) :   0.9022 B(  1-C , 23-H ) :   0.9164
B(  1-C , 24-H ) :   0.9157 B(  2-O ,  3-C ) :   1.2420 B(  3-C ,  4-O ) :   2.0321
B(  3-C ,  5-C ) :   1.0179 B(  5-C ,  6-C ) :   1.0331 B(  5-C , 25-H ) :   0.8867
B(  5-C , 26-H ) :   0.8810 B(  6-C ,  7-H ) :   0.8594 B(  6-C ,  8-C ) :   0.9341
B(  6-C , 13-S ) :   1.0039 B(  8-C ,  9-O ) :   1.8604 B(  8-C , 10-O ) :   1.2973
B(  9-O , 14-P ) :   0.1583 B( 10-O , 11-C ) :   0.8906 B( 11-C , 12-C ) :   1.1789
B( 11-C , 27-H ) :   0.9357 B( 11-C , 28-H ) :   0.9177 B( 12-C , 29-H ) :   0.9165
B( 12-C , 30-H ) :   0.9416 B( 12-C , 31-H ) :   0.9374 B( 13-S , 14-P ) :   0.9476
B( 13-S , 15-S ) :   0.1177 B( 14-P , 15-S ) :   1.5276 B( 14-P , 16-O ) :   1.1234
B( 14-P , 18-O ) :   1.0541 B( 16-O , 17-C ) :   0.9350 B( 17-C , 32-H ) :   0.9312
B( 17-C , 33-H ) :   0.9555 B( 17-C , 34-H ) :   0.9550 B( 18-O , 19-C ) :   0.9517
B( 19-C , 35-H ) :   0.9292 B( 19-C , 36-H ) :   0.9444 B( 19-C , 37-H ) :   0.9574

Dispersion correction           -0.056084732
FINAL SINGLE POINT ENERGY     -1979.008183808379

DIPOLE MOMENT
-------------

Method             : SCF
Type of density    : Electron Density
Multiplicity       :   1
Irrep              :   0
Energy             : -1979.1366976110289215 Eh
Relativity type    :
Basis              : AO
                                X                 Y                 Z
Electronic contribution:    -12.412228172      -1.102246530      -9.122895158
Nuclear contribution   :     12.805059723       2.189970817       8.929442128
                        -----------------------------------------
Total Dipole Moment    :      0.392831551       1.087724287      -0.193453031
                        -----------------------------------------
Magnitude (a.u.)       :      1.172554829
Magnitude (Debye)      :      2.980397520

Rotational constants in cm-1:             0.012631             0.009103             0.007908
Rotational constants in MHz :           378.665943           272.887068           237.071266

                             ****ORCA TERMINATED NORMALLY****
TOTAL RUN TIME: 0 days 0 hours 0 minutes 31 seconds 504 msec
