                         Program Version 6.0.1  -  RELEASE   -
|  1> ! pbe def2-sv(p) def2/J RI DEFGRID1 loosescf d4 GCP(DFT/SV(P)) printgap
|  2> %output
|  3>     printlevel normal
|  4> end
|  5> * xyz 0 1
|  6> C 3.2820297136 -2.2564454167 1.2960066058
|  7> C 2.8336052813 -2.939953262 0.0148056091
|  8> O 2.6501952614 -1.9694374173 -1.0350358055
|  9> C 1.4817755817 -1.4055700335 -1.1880515153
| 10> O 0.4883058269 -1.6918503519 -0.535038254
| 11> C 1.4655408172 -0.3735529196 -2.2890970306
| 12> C 0.6209076255 0.8201210657 -1.8589541856
| 13> H 0.6034356803 1.5826276849 -2.6424400396
| 14> C 1.1605340262 1.4498528452 -0.5844050053
| 15> O 2.2301759351 1.1454101423 -0.1074440258
| 16> O 0.3549159789 2.3764696319 -0.1167132231
| 17> C 0.7700968919 3.1074717 1.0552381725
| 18> C -0.3090443003 4.1225215668 1.3710000407
| 19> S -1.1484628008 0.4049210799 -1.6464193034
| 20> P -1.3146918378 -0.2660846604 0.3550359887
| 21> S -0.0801117379 -0.2063637682 1.8777426236
| 22> O -2.5394307203 0.7757265818 0.6118668122
| 23> C -3.2075103231 0.8269742876 1.8720170499
| 24> O -2.0437905358 -1.686268456 0.3246621671
| 25> C -3.0166118716 -2.0174044042 -0.6796634086
| 26> H 2.5041447678 -1.5859344378 1.6590019559
| 27> H 3.4813300954 -3.0051494819 2.0552716427
| 28> H 4.180190804 -1.6730116467 1.1144308937
| 29> H 1.892064083 -3.4745883528 0.1694081524
| 30> H 3.6011583641 -3.6129155042 -0.3678186296
| 31> H 1.0293509374 -0.8202272467 -3.1840881704
| 32> H 2.4905002056 -0.0635397115 -2.491033519
| 33> H 0.9110147839 2.3903902392 1.8711249367
| 34> H 1.7325034014 3.5784541367 0.835000336
| 35> H -0.4317133445 4.8094217006 0.5391057474
| 36> H -1.2517493537 3.611845385 1.5469264505
| 37> H -0.0292135023 4.6752820166 2.2611584528
| 38> H -3.7358538945 -0.1081067423 2.0632372057
| 39> H -3.9078238315 1.6552338245 1.7989947044
| 40> H -2.4857746654 1.0010270439 2.6726586934
| 41> H -3.6282693364 -1.1479019642 -0.9249049487
| 42> H -3.6245210581 -2.8079851896 -0.2459814947
| 43> H -2.5052859099 -2.3741016203 -1.5727514078
| 44> *
| 45>
| 46>                          ****END OF INPUT****

CARTESIAN COORDINATES (ANGSTROEM)
---------------------------------
  C      3.282030   -2.256445    1.296007
  C      2.833605   -2.939953    0.014806
  O      2.650195   -1.969437   -1.035036
  C      1.481776   -1.405570   -1.188052
  O      0.488306   -1.691850   -0.535038
  C      1.465541   -0.373553   -2.289097
  C      0.620908    0.820121   -1.858954
  H      0.603436    1.582628   -2.642440
  C      1.160534    1.449853   -0.584405
  O      2.230176    1.145410   -0.107444
  O      0.354916    2.376470   -0.116713
  C      0.770097    3.107472    1.055238
  C     -0.309044    4.122522    1.371000
  S     -1.148463    0.404921   -1.646419
  P     -1.314692   -0.266085    0.355036
  S     -0.080112   -0.206364    1.877743
  O     -2.539431    0.775727    0.611867
  C     -3.207510    0.826974    1.872017
  O     -2.043791   -1.686268    0.324662
  C     -3.016612   -2.017404   -0.679663
  H      2.504145   -1.585934    1.659002
  H      3.481330   -3.005149    2.055272
  H      4.180191   -1.673012    1.114431
  H      1.892064   -3.474588    0.169408
  H      3.601158   -3.612916   -0.367819
  H      1.029351   -0.820227   -3.184088
  H      2.490500   -0.063540   -2.491034
  H      0.911015    2.390390    1.871125
  H      1.732503    3.578454    0.835000
  H     -0.431713    4.809422    0.539106
  H     -1.251749    3.611845    1.546926
  H     -0.029214    4.675282    2.261158
  H     -3.735854   -0.108107    2.063237
  H     -3.907824    1.655234    1.798995
  H     -2.485775    1.001027    2.672659
  H     -3.628269   -1.147902   -0.924905
  H     -3.624521   -2.807985   -0.245981
  H     -2.505286   -2.374102   -1.572751

 Total Charge           Charge          ....    0
 Multiplicity           Mult            ....    1
 Number of Electrons    NEL             ....  174
 Basis Dimension        Dim             ....  316

ORBITAL ENERGIES
----------------

  NO   OCC          E(Eh)            E(eV)
   0   2.0000     -88.032792     -2395.4940
   1   2.0000     -87.972228     -2393.8460
   2   2.0000     -76.416379     -2079.3954
   3   2.0000     -18.804813      -511.7050
   4   2.0000     -18.801095      -511.6038
   5   2.0000     -18.778086      -510.9777
   6   2.0000     -18.770133      -510.7613
   7   2.0000     -18.745203      -510.0829
   8   2.0000     -18.742537      -510.0104
   9   2.0000     -10.015304      -272.5303
  10   2.0000     -10.014883      -272.5188
  11   2.0000      -9.951763      -270.8012
  12   2.0000      -9.942433      -270.5473
  13   2.0000      -9.941253      -270.5152
  14   2.0000      -9.938353      -270.4363
  15   2.0000      -9.929886      -270.2059
  16   2.0000      -9.911966      -269.7183
  17   2.0000      -9.880908      -268.8732
  18   2.0000      -9.871769      -268.6245
  19   2.0000      -7.677850      -208.9249
  20   2.0000      -7.617078      -207.2712
  21   2.0000      -6.412050      -174.4807
  22   2.0000      -5.706177      -155.2730
  23   2.0000      -5.702765      -155.1801
  24   2.0000      -5.693887      -154.9385
  25   2.0000      -5.646469      -153.6482
  26   2.0000      -5.637908      -153.4153
  27   2.0000      -5.636440      -153.3753
  28   2.0000      -4.635131      -126.1283
  29   2.0000      -4.634002      -126.0976
  30   2.0000      -4.632371      -126.0532
  31   2.0000      -1.014976       -27.6189
  32   2.0000      -1.010712       -27.5029
  33   2.0000      -0.966890       -26.3104
  34   2.0000      -0.923768       -25.1370
  35   2.0000      -0.920451       -25.0467
  36   2.0000      -0.917926       -24.9780
  37   2.0000      -0.763374       -20.7725
  38   2.0000      -0.711009       -19.3475
  39   2.0000      -0.698296       -19.0016
  40   2.0000      -0.686439       -18.6790
  41   2.0000      -0.653189       -17.7742
  42   2.0000      -0.628843       -17.1117
  43   2.0000      -0.609212       -16.5775
  44   2.0000      -0.605601       -16.4792
  45   2.0000      -0.590077       -16.0568
  46   2.0000      -0.557654       -15.1745
  47   2.0000      -0.507632       -13.8134
  48   2.0000      -0.503197       -13.6927
  49   2.0000      -0.494354       -13.4521
  50   2.0000      -0.484859       -13.1937
  51   2.0000      -0.464998       -12.6533
  52   2.0000      -0.452975       -12.3261
  53   2.0000      -0.445221       -12.1151
  54   2.0000      -0.435670       -11.8552
  55   2.0000      -0.422675       -11.5016
  56   2.0000      -0.419952       -11.4275
  57   2.0000      -0.414088       -11.2679
  58   2.0000      -0.411003       -11.1839
  59   2.0000      -0.401324       -10.9206
  60   2.0000      -0.399056       -10.8589
  61   2.0000      -0.390965       -10.6387
  62   2.0000      -0.382689       -10.4135
  63   2.0000      -0.378549       -10.3008
  64   2.0000      -0.369027       -10.0417
  65   2.0000      -0.361548        -9.8382
  66   2.0000      -0.352051        -9.5798
  67   2.0000      -0.350586        -9.5399
  68   2.0000      -0.340874        -9.2756
  69   2.0000      -0.338243        -9.2041
  70   2.0000      -0.328986        -8.9522
  71   2.0000      -0.319845        -8.7034
  72   2.0000      -0.313315        -8.5257
  73   2.0000      -0.310730        -8.4554
  74   2.0000      -0.303496        -8.2585
  75   2.0000      -0.296704        -8.0737
  76   2.0000      -0.290100        -7.8940
  77   2.0000      -0.270694        -7.3660
  78   2.0000      -0.265700        -7.2301
  79   2.0000      -0.260994        -7.1020
  80   2.0000      -0.254696        -6.9306
  81   2.0000      -0.247980        -6.7479
  82   2.0000      -0.239829        -6.5261
  83   2.0000      -0.224759        -6.1160
  84   2.0000      -0.198711        -5.4072
  85   2.0000      -0.193603        -5.2682
  86   2.0000      -0.180816        -4.9203
  87   0.0000      -0.046374        -1.2619
  88   0.0000      -0.038489        -1.0473
  89   0.0000      -0.027139        -0.7385
  90   0.0000       0.006432         0.1750
  91   0.0000       0.035313         0.9609

MULLIKEN ATOMIC CHARGES
-----------------------
   0 C :   -0.310152
   1 C :   -0.019307
   2 O :   -0.209907
   3 C :    0.133765
   4 O :   -0.216387
   5 C :   -0.020485
   6 C :   -0.297560
   7 H :    0.151288
   8 C :    0.163871
   9 O :   -0.180652
  10 O :   -0.216317
  11 C :   -0.029186
  12 C :   -0.276470
  13 S :   -0.075095
  14 P :    0.624300
  15 S :   -0.312112
  16 O :   -0.398207
  17 C :   -0.104365
  18 O :   -0.373886
  19 C :   -0.110619
  20 H :    0.151907
  21 H :    0.105913
  22 H :    0.113411
  23 H :    0.112534
  24 H :    0.100322
  25 H :    0.118306
  26 H :    0.113792
  27 H :    0.122181
  28 H :    0.097585
  29 H :    0.109258
  30 H :    0.124110
  31 H :    0.107783
  32 H :    0.104176
  33 H :    0.116795
  34 H :    0.115226
  35 H :    0.116064
  36 H :    0.126516
  37 H :    0.121602
Sum of atomic charges:    0.0000000

LOEWDIN ATOMIC CHARGES
----------------------
   0 C :   -0.358309
   1 C :   -0.108273
   2 O :   -0.035730
   3 C :    0.046340
   4 O :   -0.177516
   5 C :   -0.248915
   6 C :   -0.260467
   7 H :    0.151247
   8 C :   -0.002150
   9 O :   -0.146606
  10 O :   -0.051131
  11 C :   -0.111632
  12 C :   -0.350304
  13 S :    0.119634
  14 P :    0.590874
  15 S :   -0.277826
  16 O :   -0.281019
  17 C :   -0.223916
  18 O :   -0.250203
  19 C :   -0.216597
  20 H :    0.131310
  21 H :    0.127924
  22 H :    0.125917
  23 H :    0.121663
  24 H :    0.116353
  25 H :    0.145264
  26 H :    0.143517
  27 H :    0.114313
  28 H :    0.112743
  29 H :    0.123991
  30 H :    0.129753
  31 H :    0.129431
  32 H :    0.105555
  33 H :    0.116433
  34 H :    0.105240
  35 H :    0.106875
  36 H :    0.122613
  37 H :    0.113605

  Mayer bond orders larger than 0.100000
B(  0-C ,  1-C ) :   1.1796 B(  0-C , 20-H ) :   0.9273 B(  0-C , 21-H ) :   0.9420
B(  0-C , 22-H ) :   0.9468 B(  1-C ,  2-O ) :   0.9037 B(  1-C , 23-H ) :   0.9121
B(  1-C , 24-H ) :   0.9369 B(  2-O ,  3-C ) :   1.2831 B(  3-C ,  4-O ) :   1.8892
B(  3-C ,  5-C ) :   1.0130 B(  4-O , 14-P ) :   0.1258 B(  5-C ,  6-C ) :   1.0252
B(  5-C , 25-H ) :   0.8823 B(  5-C , 26-H ) :   0.8853 B(  6-C ,  7-H ) :   0.8737
B(  6-C ,  8-C ) :   0.9067 B(  6-C , 13-S ) :   1.0248 B(  8-C ,  9-O ) :   2.0533
B(  8-C , 10-O ) :   1.2574 B( 10-O , 11-C ) :   0.8957 B( 11-C , 12-C ) :   1.1583
B( 11-C , 27-H ) :   0.9091 B( 11-C , 28-H ) :   0.9305 B( 12-C , 29-H ) :   0.9500
B( 12-C , 30-H ) :   0.9449 B( 12-C , 31-H ) :   0.9433 B( 13-S , 14-P ) :   0.9301
B( 13-S , 15-S ) :   0.1164 B( 14-P , 15-S ) :   1.5700 B( 14-P , 16-O ) :   1.0268
B( 14-P , 18-O ) :   1.0869 B( 16-O , 17-C ) :   0.9465 B( 17-C , 32-H ) :   0.9497
B( 17-C , 33-H ) :   0.9579 B( 17-C , 34-H ) :   0.9328 B( 18-O , 19-C ) :   0.9333
B( 19-C , 35-H ) :   0.9388 B( 19-C , 36-H ) :   0.9572 B( 19-C , 37-H ) :   0.9488

Dispersion correction           -0.056455921
FINAL SINGLE POINT ENERGY     -1979.005050219726

DIPOLE MOMENT
-------------

Method             : SCF
Type of density    : Electron Density
Multiplicity       :   1
Irrep              :   0
Energy             : -1979.1324151320764031 Eh
Relativity type    :
Basis              : AO
                                X                 Y                 Z
Electronic contribution:     -2.361729381      -2.653713311      -7.144722337
Nuclear contribution   :      2.001589678       2.684610510       6.378148294
                        -----------------------------------------
Total Dipole Moment    :     -0.360139703       0.030897200      -0.766574042
                        -----------------------------------------
Magnitude (a.u.)       :      0.847520504
Magnitude (Debye)      :      2.154225922

Rotational constants in cm-1:             0.012360             0.009356             0.007637
Rotational constants in MHz :           370.539596           280.493877           228.952968

                             ****ORCA TERMINATED NORMALLY****
TOTAL RUN TIME: 0 days 0 hours 0 minutes 40 seconds 422 msec
