                         Program Version 6.0.0  -   RELEASE  -
|  1> ! pbe def2-sv(p) def2/J RI DEFGRID1 loosescf d4 GCP(DFT/SV(P)) printgap
|  2> %output
|  3>     printlevel normal
|  4> end
|  5> * xyz 0 1
|  6> C 4.0113960711 -1.0524680069 -2.7526667059
|  7> C 4.3900551515 -0.6047523314 -1.3570064081
|  8> O 3.4311415931 0.3055814141 -0.7837970578
|  9> P 1.8880563882 -0.0027671617 -0.5871334483
| 10> S 0.7059299384 0.1526141191 -2.1422995879
| 11> O 1.4756175496 1.0669989046 0.4916279123
| 12> C 2.2724977696 1.5559976939 1.5981744613
| 13> C 2.5626324654 0.4860933475 2.6303922129
| 14> S 1.8623524097 -1.9358314736 0.2979806448
| 15> C 0.0707691338 -2.1432526175 0.2634130686
| 16> S -0.7900966856 -1.0916893275 1.4843079184
| 17> P -1.9822766546 0.2399543258 0.3420145045
| 18> S -1.4327030661 2.119974912 0.1590299845
| 19> O -3.4107035636 0.1269536902 1.0464769341
| 20> C -3.7950266864 0.9957671057 2.1211717855
| 21> C -3.0124377269 0.6947182863 3.3827400766
| 22> O -2.2115423751 -0.6645317167 -0.9369847052
| 23> C -3.2731410778 -0.4558983662 -1.8945563406
| 24> C -3.0055662915 0.7310633863 -2.7963260313
| 25> H 3.0895410394 -1.6314698034 -2.7244525871
| 26> H 3.854387166 -0.1915415938 -3.3983647384
| 27> H 4.8055580889 -1.6690929264 -3.1607935947
| 28> H 5.3172714795 -0.0289819881 -1.3593411769
| 29> H 4.4852716806 -1.4642973825 -0.6880157694
| 30> H 3.1937509847 1.9767188675 1.1913949312
| 31> H 1.6492000743 2.353731974 2.0073343663
| 32> H 3.2365114313 -0.2660539032 2.2259739996
| 33> H 3.0302637367 0.952295125 3.4919965269
| 34> H 1.6403550146 0.001588934 2.9446425648
| 35> H -0.1262603686 -3.1762106246 0.5364031004
| 36> H -0.3002314947 -1.9089113542 -0.7336077687
| 37> H -3.6307181928 2.0311726555 1.8037144511
| 38> H -4.8617330794 0.8076139914 2.2483092123
| 39> H -1.9543440899 0.8942023093 3.2083114748
| 40> H -3.3639089114 1.3295194809 4.1894252907
| 41> H -3.1275257456 -0.349215233 3.6619295184
| 42> H -3.2838127164 -1.3880086588 -2.4624550146
| 43> H -4.2123992355 -0.3384578077 -1.349306499
| 44> H -2.0197905042 0.6389769649 -3.2488628862
| 45> H -3.759207744 0.7676601139 -3.5762915213
| 46> H -3.0341751885 1.6583606726 -2.2270862317
| 47> *
| 48>
| 49>                          ****END OF INPUT****

CARTESIAN COORDINATES (ANGSTROEM)
---------------------------------
  C      4.011396   -1.052468   -2.752667
  C      4.390055   -0.604752   -1.357006
  O      3.431142    0.305581   -0.783797
  P      1.888056   -0.002767   -0.587133
  S      0.705930    0.152614   -2.142300
  O      1.475618    1.066999    0.491628
  C      2.272498    1.555998    1.598174
  C      2.562632    0.486093    2.630392
  S      1.862352   -1.935831    0.297981
  C      0.070769   -2.143253    0.263413
  S     -0.790097   -1.091689    1.484308
  P     -1.982277    0.239954    0.342015
  S     -1.432703    2.119975    0.159030
  O     -3.410704    0.126954    1.046477
  C     -3.795027    0.995767    2.121172
  C     -3.012438    0.694718    3.382740
  O     -2.211542   -0.664532   -0.936985
  C     -3.273141   -0.455898   -1.894556
  C     -3.005566    0.731063   -2.796326
  H      3.089541   -1.631470   -2.724453
  H      3.854387   -0.191542   -3.398365
  H      4.805558   -1.669093   -3.160794
  H      5.317271   -0.028982   -1.359341
  H      4.485272   -1.464297   -0.688016
  H      3.193751    1.976719    1.191395
  H      1.649200    2.353732    2.007334
  H      3.236511   -0.266054    2.225974
  H      3.030264    0.952295    3.491997
  H      1.640355    0.001589    2.944643
  H     -0.126260   -3.176211    0.536403
  H     -0.300231   -1.908911   -0.733608
  H     -3.630718    2.031173    1.803714
  H     -4.861733    0.807614    2.248309
  H     -1.954344    0.894202    3.208311
  H     -3.363909    1.329519    4.189425
  H     -3.127526   -0.349215    3.661930
  H     -3.283813   -1.388009   -2.462455
  H     -4.212399   -0.338458   -1.349306
  H     -2.019791    0.638977   -3.248863
  H     -3.759208    0.767660   -3.576292
  H     -3.034175    1.658361   -2.227086

 Total Charge           Charge          ....    0
 Multiplicity           Mult            ....    1
 Number of Electrons    NEL             ....  202
 Basis Dimension        Dim             ....  334

ORBITAL ENERGIES
----------------

  NO   OCC          E(Eh)            E(eV)
   0   2.0000     -88.041777     -2395.7385
   1   2.0000     -88.034652     -2395.5447
   2   2.0000     -87.975027     -2393.9222
   3   2.0000     -87.973017     -2393.8675
   4   2.0000     -76.422321     -2079.5571
   5   2.0000     -76.418336     -2079.4486
   6   2.0000     -18.795279      -511.4455
   7   2.0000     -18.783688      -511.1301
   8   2.0000     -18.782274      -511.0917
   9   2.0000     -18.780524      -511.0440
  10   2.0000      -9.960552      -271.0404
  11   2.0000      -9.954675      -270.8805
  12   2.0000      -9.948892      -270.7231
  13   2.0000      -9.947510      -270.6855
  14   2.0000      -9.944751      -270.6104
  15   2.0000      -9.883016      -268.9305
  16   2.0000      -9.882186      -268.9079
  17   2.0000      -9.880173      -268.8532
  18   2.0000      -9.870897      -268.6008
  19   2.0000      -7.686919      -209.1717
  20   2.0000      -7.679787      -208.9776
  21   2.0000      -7.620108      -207.3537
  22   2.0000      -7.617884      -207.2932
  23   2.0000      -6.419282      -174.6775
  24   2.0000      -6.415617      -174.5778
  25   2.0000      -5.714579      -155.5016
  26   2.0000      -5.711415      -155.4155
  27   2.0000      -5.708138      -155.3263
  28   2.0000      -5.704134      -155.2174
  29   2.0000      -5.704109      -155.2167
  30   2.0000      -5.696386      -155.0066
  31   2.0000      -5.649100      -153.7198
  32   2.0000      -5.646864      -153.6590
  33   2.0000      -5.640745      -153.4925
  34   2.0000      -5.640121      -153.4755
  35   2.0000      -5.638707      -153.4370
  36   2.0000      -5.637810      -153.4126
  37   2.0000      -4.642364      -126.3251
  38   2.0000      -4.641239      -126.2945
  39   2.0000      -4.639167      -126.2381
  40   2.0000      -4.638546      -126.2213
  41   2.0000      -4.637449      -126.1914
  42   2.0000      -4.635701      -126.1438
  43   2.0000      -0.985371       -26.8133
  44   2.0000      -0.979849       -26.6630
  45   2.0000      -0.939231       -25.5578
  46   2.0000      -0.936808       -25.4919
  47   2.0000      -0.759385       -20.6639
  48   2.0000      -0.715908       -19.4808
  49   2.0000      -0.705723       -19.2037
  50   2.0000      -0.688613       -18.7381
  51   2.0000      -0.682096       -18.5608
  52   2.0000      -0.669474       -18.2173
  53   2.0000      -0.647150       -17.6098
  54   2.0000      -0.628430       -17.1005
  55   2.0000      -0.589701       -16.0466
  56   2.0000      -0.584561       -15.9067
  57   2.0000      -0.577520       -15.7151
  58   2.0000      -0.570306       -15.5188
  59   2.0000      -0.558981       -15.2106
  60   2.0000      -0.496142       -13.5007
  61   2.0000      -0.491260       -13.3679
  62   2.0000      -0.467288       -12.7156
  63   2.0000      -0.462750       -12.5921
  64   2.0000      -0.453966       -12.3530
  65   2.0000      -0.449348       -12.2274
  66   2.0000      -0.432124       -11.7587
  67   2.0000      -0.429659       -11.6916
  68   2.0000      -0.426369       -11.6021
  69   2.0000      -0.413719       -11.2579
  70   2.0000      -0.409367       -11.1394
  71   2.0000      -0.402686       -10.9577
  72   2.0000      -0.399053       -10.8588
  73   2.0000      -0.383396       -10.4327
  74   2.0000      -0.381405       -10.3786
  75   2.0000      -0.362035        -9.8515
  76   2.0000      -0.353210        -9.6113
  77   2.0000      -0.350521        -9.5382
  78   2.0000      -0.349420        -9.5082
  79   2.0000      -0.345976        -9.4145
  80   2.0000      -0.342218        -9.3122
  81   2.0000      -0.338602        -9.2138
  82   2.0000      -0.336528        -9.1574
  83   2.0000      -0.332625        -9.0512
  84   2.0000      -0.325936        -8.8692
  85   2.0000      -0.320558        -8.7228
  86   2.0000      -0.304885        -8.2963
  87   2.0000      -0.297158        -8.0861
  88   2.0000      -0.290321        -7.9000
  89   2.0000      -0.286346        -7.7919
  90   2.0000      -0.282612        -7.6903
  91   2.0000      -0.273663        -7.4467
  92   2.0000      -0.267618        -7.2823
  93   2.0000      -0.257644        -7.0108
  94   2.0000      -0.252169        -6.8619
  95   2.0000      -0.231833        -6.3085
  96   2.0000      -0.213900        -5.8205
  97   2.0000      -0.201139        -5.4733
  98   2.0000      -0.192027        -5.2253
  99   2.0000      -0.184614        -5.0236
 100   2.0000      -0.175454        -4.7744
 101   0.0000      -0.044104        -1.2001
 102   0.0000      -0.029035        -0.7901
 103   0.0000      -0.018617        -0.5066
 104   0.0000       0.001089         0.0296
 105   0.0000       0.018708         0.5091

MULLIKEN ATOMIC CHARGES
-----------------------
   0 C :   -0.305592
   1 C :   -0.015384
   2 O :   -0.380941
   3 P :    0.607664
   4 S :   -0.305528
   5 O :   -0.334578
   6 C :    0.009647
   7 C :   -0.322076
   8 S :   -0.123228
   9 C :   -0.346652
  10 S :   -0.118090
  11 P :    0.636217
  12 S :   -0.300132
  13 O :   -0.379899
  14 C :   -0.002912
  15 C :   -0.321226
  16 O :   -0.375764
  17 C :    0.000101
  18 C :   -0.311627
  19 H :    0.125613
  20 H :    0.127243
  21 H :    0.110100
  22 H :    0.109797
  23 H :    0.113685
  24 H :    0.105587
  25 H :    0.109479
  26 H :    0.113602
  27 H :    0.108486
  28 H :    0.132694
  29 H :    0.180545
  30 H :    0.215504
  31 H :    0.107398
  32 H :    0.100499
  33 H :    0.122509
  34 H :    0.113320
  35 H :    0.120178
  36 H :    0.103010
  37 H :    0.105317
  38 H :    0.134275
  39 H :    0.102991
  40 H :    0.128170
Sum of atomic charges:   -0.0000000

LOEWDIN ATOMIC CHARGES
----------------------
   0 C :   -0.368995
   1 C :   -0.114245
   2 O :   -0.244611
   3 P :    0.566998
   4 S :   -0.298430
   5 O :   -0.222080
   6 C :   -0.106939
   7 C :   -0.371766
   8 S :    0.063290
   9 C :   -0.475957
  10 S :    0.071645
  11 P :    0.570894
  12 S :   -0.295158
  13 O :   -0.249048
  14 C :   -0.126272
  15 C :   -0.369633
  16 O :   -0.240053
  17 C :   -0.106482
  18 C :   -0.367649
  19 H :    0.121616
  20 H :    0.131354
  21 H :    0.129565
  22 H :    0.121355
  23 H :    0.107268
  24 H :    0.112325
  25 H :    0.121980
  26 H :    0.113972
  27 H :    0.128633
  28 H :    0.123441
  29 H :    0.137085
  30 H :    0.132911
  31 H :    0.106256
  32 H :    0.116465
  33 H :    0.117086
  34 H :    0.131146
  35 H :    0.125058
  36 H :    0.118358
  37 H :    0.111118
  38 H :    0.128518
  39 H :    0.125974
  40 H :    0.123004

  Mayer bond orders larger than 0.100000
B(  0-C ,  1-C ) :   1.1669 B(  0-C , 19-H ) :   0.9309 B(  0-C , 20-H ) :   0.9435
B(  0-C , 21-H ) :   0.9348 B(  1-C ,  2-O ) :   0.9131 B(  1-C , 22-H ) :   0.9337
B(  1-C , 23-H ) :   0.9255 B(  2-O ,  3-P ) :   1.0807 B(  3-P ,  4-S ) :   1.6478
B(  3-P ,  5-O ) :   1.1570 B(  3-P ,  8-S ) :   0.9230 B(  4-S ,  8-S ) :   0.1073
B(  5-O ,  6-C ) :   0.8980 B(  6-C ,  7-C ) :   1.1685 B(  6-C , 24-H ) :   0.9300
B(  6-C , 25-H ) :   0.9299 B(  7-C , 26-H ) :   0.9413 B(  7-C , 27-H ) :   0.9362
B(  7-C , 28-H ) :   0.9362 B(  8-S ,  9-C ) :   1.0089 B(  9-C , 10-S ) :   0.9985
B(  9-C , 29-H ) :   0.9109 B(  9-C , 30-H ) :   0.8556 B( 10-S , 11-P ) :   0.9391
B( 10-S , 12-S ) :   0.1069 B( 11-P , 12-S ) :   1.6503 B( 11-P , 13-O ) :   1.0624
B( 11-P , 16-O ) :   1.1100 B( 13-O , 14-C ) :   0.9199 B( 14-C , 15-C ) :   1.1631
B( 14-C , 31-H ) :   0.9062 B( 14-C , 32-H ) :   0.9310 B( 15-C , 33-H ) :   0.9307
B( 15-C , 34-H ) :   0.9392 B( 15-C , 35-H ) :   0.9441 B( 16-O , 17-C ) :   0.9021
B( 17-C , 18-C ) :   1.1675 B( 17-C , 36-H ) :   0.9362 B( 17-C , 37-H ) :   0.9263
B( 18-C , 38-H ) :   0.9397 B( 18-C , 39-H ) :   0.9370 B( 18-C , 40-H ) :   0.9329

Dispersion correction           -0.069038502
FINAL SINGLE POINT ENERGY     -2929.503213511296

DIPOLE MOMENT
-------------

Method             : SCF
Type of density    : Electron Density
Multiplicity       :   1
Irrep              :   0
Energy             : -2929.6204282264634458 Eh
Relativity type    :
Basis              : AO
                                X                 Y                 Z
Electronic contribution:     -0.274714254      -1.556686637      -2.034335054
Nuclear contribution   :      0.652764261       0.760088172       2.643415326
                        -----------------------------------------
Total Dipole Moment    :      0.378050007      -0.796598464       0.609080272
                        -----------------------------------------
Magnitude (a.u.)       :      1.071666785
Magnitude (Debye)      :      2.723960492

Rotational constants in cm-1:             0.012305             0.005900             0.005105
Rotational constants in MHz :           368.892067           176.865254           153.037498

                             ****ORCA TERMINATED NORMALLY****
TOTAL RUN TIME: 0 days 0 hours 0 minutes 21 seconds 720 msec
