                         Program Version 6.0.0  -   RELEASE  -
|  1> ! pbe def2-sv(p) def2/J RI DEFGRID1 loosescf d4 GCP(DFT/SV(P)) printgap
|  2> %output
|  3>     printlevel normal
|  4> end
|  5> * xyz 0 1
|  6> C 3.3988961119 1.81690312 -2.1348653408
|  7> C 2.1676085386 0.9650952425 -1.9110480323
|  8> O 1.6344283598 1.1872208746 -0.582270008
|  9> P 1.8931246902 0.2086073756 0.628202388
| 10> S 1.3021089947 1.0200709552 2.3058861172
| 11> O 3.4523852737 -0.063846214 0.4639267721
| 12> C 4.1827697635 -1.1444145247 1.0734322772
| 13> C 4.023060227 -1.1908414869 2.5784715154
| 14> S 1.0606318391 -1.6993628319 0.1389892211
| 15> C -0.2851723166 -1.7658077332 1.3478764119
| 16> S -1.9425864169 -1.7816635405 0.6088251611
| 17> P -1.8932172621 -0.0566861968 -0.6034127947
| 18> S -1.097422899 -0.1325299962 -2.399470176
| 19> O -1.2240498959 0.9657794747 0.4074601516
| 20> C -1.225970256 2.3847587168 0.1314177811
| 21> C -2.3214817883 3.0712505966 0.9184542592
| 22> O -3.4083304988 0.4237705239 -0.6420878765
| 23> C -4.3230636911 -0.0399256276 -1.6499944492
| 24> C -4.6536613983 -1.5068926729 -1.4707403489
| 25> H 4.1856944456 1.5303356381 -1.4420689997
| 26> H 3.74477601 1.6747718125 -3.1537993374
| 27> H 3.1582576909 2.864890321 -1.9792826299
| 28> H 2.3849237185 -0.0988983204 -2.0365969085
| 29> H 1.3572825173 1.2417144592 -2.5888815127
| 30> H 3.8496478289 -2.0816697655 0.6189937689
| 31> H 5.2174387228 -0.9436053734 0.7899530275
| 32> H 4.2834060238 -0.2308608964 3.0178885897
| 33> H 2.9918209199 -1.4198582759 2.8427932431
| 34> H 4.6719008111 -1.9603015374 2.9841468897
| 35> H -0.1874830792 -0.9124880429 2.0257471901
| 36> H -0.2083657682 -2.7095005627 1.8832450501
| 37> H -0.237112651 2.7327555606 0.4390620667
| 38> H -1.3415218454 2.5344933252 -0.9468849981
| 39> H -2.2742354381 4.1394025185 0.7315533195
| 40> H -3.295583609 2.6928835686 0.6198304124
| 41> H -2.1786139146 2.8852240551 1.9796104248
| 42> H -5.201869479 0.59294424 -1.5214117333
| 43> H -3.8746663159 0.1380889749 -2.6331288168
| 44> H -5.0224470014 -1.6920145721 -0.4652175806
| 45> H -5.4081787893 -1.7990374295 -2.1939024105
| 46> H -3.758616241 -2.1088396096 -1.6295411268
| 47> *
| 48>
| 49>                          ****END OF INPUT****

CARTESIAN COORDINATES (ANGSTROEM)
---------------------------------
  C      3.398896    1.816903   -2.134865
  C      2.167609    0.965095   -1.911048
  O      1.634428    1.187221   -0.582270
  P      1.893125    0.208607    0.628202
  S      1.302109    1.020071    2.305886
  O      3.452385   -0.063846    0.463927
  C      4.182770   -1.144415    1.073432
  C      4.023060   -1.190841    2.578472
  S      1.060632   -1.699363    0.138989
  C     -0.285172   -1.765808    1.347876
  S     -1.942586   -1.781664    0.608825
  P     -1.893217   -0.056686   -0.603413
  S     -1.097423   -0.132530   -2.399470
  O     -1.224050    0.965779    0.407460
  C     -1.225970    2.384759    0.131418
  C     -2.321482    3.071251    0.918454
  O     -3.408330    0.423771   -0.642088
  C     -4.323064   -0.039926   -1.649994
  C     -4.653661   -1.506893   -1.470740
  H      4.185694    1.530336   -1.442069
  H      3.744776    1.674772   -3.153799
  H      3.158258    2.864890   -1.979283
  H      2.384924   -0.098898   -2.036597
  H      1.357283    1.241714   -2.588882
  H      3.849648   -2.081670    0.618994
  H      5.217439   -0.943605    0.789953
  H      4.283406   -0.230861    3.017889
  H      2.991821   -1.419858    2.842793
  H      4.671901   -1.960302    2.984147
  H     -0.187483   -0.912488    2.025747
  H     -0.208366   -2.709501    1.883245
  H     -0.237113    2.732756    0.439062
  H     -1.341522    2.534493   -0.946885
  H     -2.274235    4.139403    0.731553
  H     -3.295584    2.692884    0.619830
  H     -2.178614    2.885224    1.979610
  H     -5.201869    0.592944   -1.521412
  H     -3.874666    0.138089   -2.633129
  H     -5.022447   -1.692015   -0.465218
  H     -5.408179   -1.799037   -2.193902
  H     -3.758616   -2.108840   -1.629541

 Total Charge           Charge          ....    0
 Multiplicity           Mult            ....    1
 Number of Electrons    NEL             ....  202
 Basis Dimension        Dim             ....  334

ORBITAL ENERGIES
----------------

  NO   OCC          E(Eh)            E(eV)
   0   2.0000     -88.044942     -2395.8247
   1   2.0000     -88.039877     -2395.6868
   2   2.0000     -87.985679     -2394.2121
   3   2.0000     -87.980802     -2394.0793
   4   2.0000     -76.427214     -2079.6902
   5   2.0000     -76.422948     -2079.5741
   6   2.0000     -18.795642      -511.4554
   7   2.0000     -18.791723      -511.3488
   8   2.0000     -18.788107      -511.2504
   9   2.0000     -18.783434      -511.1232
  10   2.0000      -9.958311      -270.9794
  11   2.0000      -9.955257      -270.8963
  12   2.0000      -9.951004      -270.7806
  13   2.0000      -9.947204      -270.6772
  14   2.0000      -9.938976      -270.4533
  15   2.0000      -9.885633      -269.0018
  16   2.0000      -9.884742      -268.9775
  17   2.0000      -9.881441      -268.8877
  18   2.0000      -9.874405      -268.6962
  19   2.0000      -7.689451      -209.2406
  20   2.0000      -7.685605      -209.1359
  21   2.0000      -7.630767      -207.6437
  22   2.0000      -7.625769      -207.5077
  23   2.0000      -6.424255      -174.8129
  24   2.0000      -6.420716      -174.7166
  25   2.0000      -5.717235      -155.5739
  26   2.0000      -5.713934      -155.4840
  27   2.0000      -5.713814      -155.4808
  28   2.0000      -5.709982      -155.3765
  29   2.0000      -5.706620      -155.2850
  30   2.0000      -5.702263      -155.1665
  31   2.0000      -5.659834      -154.0119
  32   2.0000      -5.654530      -153.8676
  33   2.0000      -5.651429      -153.7832
  34   2.0000      -5.650644      -153.7618
  35   2.0000      -5.646380      -153.6458
  36   2.0000      -5.646106      -153.6384
  37   2.0000      -4.647017      -126.4518
  38   2.0000      -4.646149      -126.4281
  39   2.0000      -4.644507      -126.3834
  40   2.0000      -4.643636      -126.3598
  41   2.0000      -4.642524      -126.3295
  42   2.0000      -4.640795      -126.2824
  43   2.0000      -0.988529       -26.8992
  44   2.0000      -0.983909       -26.7735
  45   2.0000      -0.943279       -25.6679
  46   2.0000      -0.940766       -25.5995
  47   2.0000      -0.761956       -20.7339
  48   2.0000      -0.719209       -19.5707
  49   2.0000      -0.705806       -19.2059
  50   2.0000      -0.690141       -18.7797
  51   2.0000      -0.685332       -18.6488
  52   2.0000      -0.671651       -18.2766
  53   2.0000      -0.648577       -17.6487
  54   2.0000      -0.637998       -17.3608
  55   2.0000      -0.596202       -16.2235
  56   2.0000      -0.588961       -16.0265
  57   2.0000      -0.571815       -15.5599
  58   2.0000      -0.568836       -15.4788
  59   2.0000      -0.560667       -15.2565
  60   2.0000      -0.503827       -13.7098
  61   2.0000      -0.492507       -13.4018
  62   2.0000      -0.472479       -12.8568
  63   2.0000      -0.469090       -12.7646
  64   2.0000      -0.454391       -12.3646
  65   2.0000      -0.450790       -12.2666
  66   2.0000      -0.435561       -11.8522
  67   2.0000      -0.432629       -11.7724
  68   2.0000      -0.427093       -11.6218
  69   2.0000      -0.414201       -11.2710
  70   2.0000      -0.407818       -11.0973
  71   2.0000      -0.405898       -11.0451
  72   2.0000      -0.387382       -10.5412
  73   2.0000      -0.384389       -10.4598
  74   2.0000      -0.381042       -10.3687
  75   2.0000      -0.368852       -10.0370
  76   2.0000      -0.358779        -9.7629
  77   2.0000      -0.356916        -9.7122
  78   2.0000      -0.352561        -9.5937
  79   2.0000      -0.349525        -9.5111
  80   2.0000      -0.348305        -9.4779
  81   2.0000      -0.344798        -9.3824
  82   2.0000      -0.340047        -9.2531
  83   2.0000      -0.334454        -9.1010
  84   2.0000      -0.330206        -8.9854
  85   2.0000      -0.316998        -8.6259
  86   2.0000      -0.307252        -8.3608
  87   2.0000      -0.298458        -8.1215
  88   2.0000      -0.294967        -8.0265
  89   2.0000      -0.285915        -7.7801
  90   2.0000      -0.281073        -7.6484
  91   2.0000      -0.277122        -7.5409
  92   2.0000      -0.269630        -7.3370
  93   2.0000      -0.260607        -7.0915
  94   2.0000      -0.257526        -7.0076
  95   2.0000      -0.238698        -6.4953
  96   2.0000      -0.223507        -6.0819
  97   2.0000      -0.204488        -5.5644
  98   2.0000      -0.200721        -5.4619
  99   2.0000      -0.193417        -5.2631
 100   2.0000      -0.191449        -5.2096
 101   0.0000      -0.045871        -1.2482
 102   0.0000      -0.034350        -0.9347
 103   0.0000      -0.020238        -0.5507
 104   0.0000       0.004289         0.1167
 105   0.0000       0.014988         0.4078

MULLIKEN ATOMIC CHARGES
-----------------------
   0 C :   -0.281038
   1 C :   -0.017126
   2 O :   -0.353872
   3 P :    0.615877
   4 S :   -0.300598
   5 O :   -0.381261
   6 C :   -0.004907
   7 C :   -0.307096
   8 S :   -0.108182
   9 C :   -0.339940
  10 S :   -0.101672
  11 P :    0.618549
  12 S :   -0.326246
  13 O :   -0.367368
  14 C :   -0.011054
  15 C :   -0.284542
  16 O :   -0.374305
  17 C :   -0.003871
  18 C :   -0.327704
  19 H :    0.117265
  20 H :    0.108293
  21 H :    0.115805
  22 H :    0.098110
  23 H :    0.123361
  24 H :    0.110613
  25 H :    0.106806
  26 H :    0.127151
  27 H :    0.119155
  28 H :    0.110874
  29 H :    0.205418
  30 H :    0.180171
  31 H :    0.117618
  32 H :    0.092158
  33 H :    0.105294
  34 H :    0.114199
  35 H :    0.117759
  36 H :    0.104764
  37 H :    0.111554
  38 H :    0.122561
  39 H :    0.116706
  40 H :    0.130724
Sum of atomic charges:    0.0000000

LOEWDIN ATOMIC CHARGES
----------------------
   0 C :   -0.358623
   1 C :   -0.118287
   2 O :   -0.226622
   3 P :    0.577017
   4 S :   -0.286212
   5 O :   -0.244798
   6 C :   -0.117542
   7 C :   -0.368463
   8 S :    0.075684
   9 C :   -0.480718
  10 S :    0.080819
  11 P :    0.568762
  12 S :   -0.318814
  13 O :   -0.239596
  14 C :   -0.121201
  15 C :   -0.358462
  16 O :   -0.242213
  17 C :   -0.123172
  18 C :   -0.371235
  19 H :    0.124266
  20 H :    0.129022
  21 H :    0.127165
  22 H :    0.105481
  23 H :    0.115727
  24 H :    0.106583
  25 H :    0.119860
  26 H :    0.130364
  27 H :    0.119016
  28 H :    0.129754
  29 H :    0.124265
  30 H :    0.137169
  31 H :    0.114609
  32 H :    0.103857
  33 H :    0.127627
  34 H :    0.122373
  35 H :    0.128031
  36 H :    0.118380
  37 H :    0.109361
  38 H :    0.125993
  39 H :    0.133191
  40 H :    0.121582

  Mayer bond orders larger than 0.100000
B(  0-C ,  1-C ) :   1.1596 B(  0-C , 19-H ) :   0.9426 B(  0-C , 20-H ) :   0.9407
B(  0-C , 21-H ) :   0.9473 B(  1-C ,  2-O ) :   0.8840 B(  1-C , 22-H ) :   0.9215
B(  1-C , 23-H ) :   0.9190 B(  2-O ,  3-P ) :   1.1366 B(  3-P ,  4-S ) :   1.6195
B(  3-P ,  5-O ) :   1.0736 B(  3-P ,  8-S ) :   0.9459 B(  4-S ,  8-S ) :   0.1186
B(  4-S , 29-H ) :   0.1186 B(  5-O ,  6-C ) :   0.9131 B(  6-C ,  7-C ) :   1.1671
B(  6-C , 24-H ) :   0.9225 B(  6-C , 25-H ) :   0.9325 B(  7-C , 26-H ) :   0.9433
B(  7-C , 27-H ) :   0.9349 B(  7-C , 28-H ) :   0.9351 B(  8-S ,  9-C ) :   1.0097
B(  9-C , 10-S ) :   0.9950 B(  9-C , 29-H ) :   0.8450 B(  9-C , 30-H ) :   0.9116
B( 10-S , 11-P ) :   0.9635 B( 10-S , 12-S ) :   0.1125 B( 11-P , 12-S ) :   1.6291
B( 11-P , 13-O ) :   1.1266 B( 11-P , 16-O ) :   1.0778 B( 13-O , 14-C ) :   0.8816
B( 14-C , 15-C ) :   1.1668 B( 14-C , 31-H ) :   0.9140 B( 14-C , 32-H ) :   0.9112
B( 15-C , 33-H ) :   0.9413 B( 15-C , 34-H ) :   0.9426 B( 15-C , 35-H ) :   0.9466
B( 16-O , 17-C ) :   0.9106 B( 17-C , 18-C ) :   1.1639 B( 17-C , 36-H ) :   0.9316
B( 17-C , 37-H ) :   0.9103 B( 18-C , 38-H ) :   0.9440 B( 18-C , 39-H ) :   0.9383
B( 18-C , 40-H ) :   0.9312

Dispersion correction           -0.068480472
FINAL SINGLE POINT ENERGY     -2929.515701425462

DIPOLE MOMENT
-------------

Method             : SCF
Type of density    : Electron Density
Multiplicity       :   1
Irrep              :   0
Energy             : -2929.6353802966882540 Eh
Relativity type    :
Basis              : AO
                                X                 Y                 Z
Electronic contribution:     -2.440509182      -6.931863624       2.326755725
Nuclear contribution   :      2.706263107       6.609826799      -2.539874886
                        -----------------------------------------
Total Dipole Moment    :      0.265753925      -0.322036825      -0.213119162
                        -----------------------------------------
Magnitude (a.u.)       :      0.468777818
Magnitude (Debye)      :      1.191538520

Rotational constants in cm-1:             0.012601             0.005471             0.005205
Rotational constants in MHz :           377.769229           164.007863           156.029104

                             ****ORCA TERMINATED NORMALLY****
TOTAL RUN TIME: 0 days 0 hours 0 minutes 21 seconds 543 msec
