                         Program Version 6.0.0  -   RELEASE  -
|  1> ! pbe def2-sv(p) def2/J RI DEFGRID1 loosescf d4 GCP(DFT/SV(P)) printgap
|  2> %output
|  3>     printlevel normal
|  4> end
|  5> * xyz 0 1
|  6> C 4.6022275595 -1.7951837367 0.9584498866
|  7> C 4.2512768423 -0.3487207668 1.2350609907
|  8> O 3.6159877975 0.2974478183 0.1145125458
|  9> P 2.3222039384 -0.2355245328 -0.6358097078
| 10> S 2.5132003505 -1.7070314506 -1.9083498884
| 11> O 1.8295510514 1.0521263652 -1.4002737205
| 12> C 1.7787594022 2.3757405289 -0.8186987684
| 13> C 3.0022670104 3.1746537756 -1.214681381
| 14> S 0.9689653733 -0.597210595 0.9756465462
| 15> C -0.1366376277 -1.7119122032 0.0825365275
| 16> S -1.1811798961 -0.8795790416 -1.150633739
| 17> P -2.2512113414 0.4245554421 0.160757568
| 18> S -1.4077691362 2.137216475 0.5777346335
| 19> O -2.5861869789 -0.5168835231 1.4026849358
| 20> C -2.2304103006 -0.1872525012 2.7613239132
| 21> C -3.3266173515 0.6321853623 3.4112052093
| 22> O -3.6193749271 0.6609489108 -0.5944191276
| 23> C -4.7697796493 -0.2199497307 -0.5843547892
| 24> C -4.4693380982 -1.60552787 -1.1138831052
| 25> H 3.6962529443 -2.3818041068 0.8138218617
| 26> H 5.2070890313 -1.8734309928 0.058190032
| 27> H 5.1554603478 -2.1981537173 1.800596326
| 28> H 5.145737844 0.2536065791 1.4033600372
| 29> H 3.5831071413 -0.2695937253 2.0971759173
| 30> H 0.8631228007 2.8204205942 -1.2140419489
| 31> H 1.6874552222 2.2913923521 0.2675749824
| 32> H 3.9006544677 2.7084084162 -0.8186504549
| 33> H 3.0790328143 3.2209806776 -2.2975785657
| 34> H 2.9104355977 4.1801664085 -0.8165362619
| 35> H -0.7592508146 -2.2055239688 0.8234605898
| 36> H 0.4607392816 -2.4306110144 -0.481476887
| 37> H -2.0997603228 -1.1514331873 3.2546317552
| 38> H -1.2843031868 0.3617302992 2.762538662
| 39> H -3.4435896544 1.5761989864 2.8811498593
| 40> H -4.2693862618 0.0922185333 3.3884935943
| 41> H -3.056070085 0.8382675104 4.4416879862
| 42> H -5.1471978544 -0.2693777457 0.4390990356
| 43> H -5.4859056634 0.3054875553 -1.2181186251
| 44> H -3.7943719535 -2.130357519 -0.4415875462
| 45> H -5.3985163137 -2.1622841223 -1.1880047483
| 46> H -4.0087912985 -1.5465824098 -2.0972515563
| 47> *
| 48>
| 49>                          ****END OF INPUT****

CARTESIAN COORDINATES (ANGSTROEM)
---------------------------------
  C      4.602228   -1.795184    0.958450
  C      4.251277   -0.348721    1.235061
  O      3.615988    0.297448    0.114513
  P      2.322204   -0.235525   -0.635810
  S      2.513200   -1.707031   -1.908350
  O      1.829551    1.052126   -1.400274
  C      1.778759    2.375741   -0.818699
  C      3.002267    3.174654   -1.214681
  S      0.968965   -0.597211    0.975647
  C     -0.136638   -1.711912    0.082537
  S     -1.181180   -0.879579   -1.150634
  P     -2.251211    0.424555    0.160758
  S     -1.407769    2.137216    0.577735
  O     -2.586187   -0.516884    1.402685
  C     -2.230410   -0.187253    2.761324
  C     -3.326617    0.632185    3.411205
  O     -3.619375    0.660949   -0.594419
  C     -4.769780   -0.219950   -0.584355
  C     -4.469338   -1.605528   -1.113883
  H      3.696253   -2.381804    0.813822
  H      5.207089   -1.873431    0.058190
  H      5.155460   -2.198154    1.800596
  H      5.145738    0.253607    1.403360
  H      3.583107   -0.269594    2.097176
  H      0.863123    2.820421   -1.214042
  H      1.687455    2.291392    0.267575
  H      3.900654    2.708408   -0.818650
  H      3.079033    3.220981   -2.297579
  H      2.910436    4.180166   -0.816536
  H     -0.759251   -2.205524    0.823461
  H      0.460739   -2.430611   -0.481477
  H     -2.099760   -1.151433    3.254632
  H     -1.284303    0.361730    2.762539
  H     -3.443590    1.576199    2.881150
  H     -4.269386    0.092219    3.388494
  H     -3.056070    0.838268    4.441688
  H     -5.147198   -0.269378    0.439099
  H     -5.485906    0.305488   -1.218119
  H     -3.794372   -2.130358   -0.441588
  H     -5.398516   -2.162284   -1.188005
  H     -4.008791   -1.546582   -2.097252

 Total Charge           Charge          ....    0
 Multiplicity           Mult            ....    1
 Number of Electrons    NEL             ....  202
 Basis Dimension        Dim             ....  334

ORBITAL ENERGIES
----------------

  NO   OCC          E(Eh)            E(eV)
   0   2.0000     -88.042717     -2395.7641
   1   2.0000     -88.036846     -2395.6044
   2   2.0000     -87.982067     -2394.1137
   3   2.0000     -87.980660     -2394.0755
   4   2.0000     -76.427789     -2079.7059
   5   2.0000     -76.424005     -2079.6029
   6   2.0000     -18.801913      -511.6261
   7   2.0000     -18.795835      -511.4607
   8   2.0000     -18.792529      -511.3707
   9   2.0000     -18.781589      -511.0730
  10   2.0000      -9.960239      -271.0319
  11   2.0000      -9.959764      -271.0189
  12   2.0000      -9.959253      -271.0051
  13   2.0000      -9.955260      -270.8964
  14   2.0000      -9.940421      -270.4926
  15   2.0000      -9.889044      -269.0946
  16   2.0000      -9.888624      -269.0831
  17   2.0000      -9.883998      -268.9573
  18   2.0000      -9.876078      -268.7417
  19   2.0000      -7.687411      -209.1851
  20   2.0000      -7.681756      -209.0312
  21   2.0000      -7.627359      -207.5510
  22   2.0000      -7.626021      -207.5146
  23   2.0000      -6.425059      -174.8347
  24   2.0000      -6.421188      -174.7294
  25   2.0000      -5.715080      -155.5152
  26   2.0000      -5.711894      -155.4285
  27   2.0000      -5.709788      -155.3712
  28   2.0000      -5.706369      -155.2782
  29   2.0000      -5.704677      -155.2322
  30   2.0000      -5.698488      -155.0637
  31   2.0000      -5.656294      -153.9156
  32   2.0000      -5.655087      -153.8827
  33   2.0000      -5.647965      -153.6890
  34   2.0000      -5.647416      -153.6740
  35   2.0000      -5.646564      -153.6508
  36   2.0000      -5.646046      -153.6367
  37   2.0000      -4.648441      -126.4905
  38   2.0000      -4.646444      -126.4362
  39   2.0000      -4.645185      -126.4019
  40   2.0000      -4.644103      -126.3725
  41   2.0000      -4.643123      -126.3458
  42   2.0000      -4.641239      -126.2945
  43   2.0000      -0.990142       -26.9431
  44   2.0000      -0.985877       -26.8271
  45   2.0000      -0.949096       -25.8262
  46   2.0000      -0.940009       -25.5789
  47   2.0000      -0.761912       -20.7327
  48   2.0000      -0.721798       -19.6411
  49   2.0000      -0.709374       -19.3030
  50   2.0000      -0.696782       -18.9604
  51   2.0000      -0.687852       -18.7174
  52   2.0000      -0.671755       -18.2794
  53   2.0000      -0.650267       -17.6947
  54   2.0000      -0.636783       -17.3277
  55   2.0000      -0.595751       -16.2112
  56   2.0000      -0.589128       -16.0310
  57   2.0000      -0.582551       -15.8520
  58   2.0000      -0.567713       -15.4482
  59   2.0000      -0.563464       -15.3326
  60   2.0000      -0.506281       -13.7766
  61   2.0000      -0.495659       -13.4876
  62   2.0000      -0.480861       -13.0849
  63   2.0000      -0.469080       -12.7643
  64   2.0000      -0.459609       -12.5066
  65   2.0000      -0.450492       -12.2585
  66   2.0000      -0.444725       -12.1016
  67   2.0000      -0.431834       -11.7508
  68   2.0000      -0.428194       -11.6518
  69   2.0000      -0.415173       -11.2974
  70   2.0000      -0.408896       -11.1266
  71   2.0000      -0.401831       -10.9344
  72   2.0000      -0.393914       -10.7189
  73   2.0000      -0.387326       -10.5397
  74   2.0000      -0.380091       -10.3428
  75   2.0000      -0.373834       -10.1726
  76   2.0000      -0.364432        -9.9167
  77   2.0000      -0.355756        -9.6806
  78   2.0000      -0.353747        -9.6260
  79   2.0000      -0.350546        -9.5388
  80   2.0000      -0.347847        -9.4654
  81   2.0000      -0.346396        -9.4259
  82   2.0000      -0.345453        -9.4003
  83   2.0000      -0.336418        -9.1544
  84   2.0000      -0.331891        -9.0312
  85   2.0000      -0.322565        -8.7774
  86   2.0000      -0.312711        -8.5093
  87   2.0000      -0.304887        -8.2964
  88   2.0000      -0.296577        -8.0703
  89   2.0000      -0.295966        -8.0536
  90   2.0000      -0.280974        -7.6457
  91   2.0000      -0.274623        -7.4729
  92   2.0000      -0.272799        -7.4232
  93   2.0000      -0.264171        -7.1885
  94   2.0000      -0.256809        -6.9881
  95   2.0000      -0.237720        -6.4687
  96   2.0000      -0.217480        -5.9179
  97   2.0000      -0.204746        -5.5714
  98   2.0000      -0.198649        -5.4055
  99   2.0000      -0.195492        -5.3196
 100   2.0000      -0.188794        -5.1373
 101   0.0000      -0.046765        -1.2725
 102   0.0000      -0.019529        -0.5314
 103   0.0000      -0.012629        -0.3436
 104   0.0000      -0.002900        -0.0789
 105   0.0000       0.013675         0.3721

MULLIKEN ATOMIC CHARGES
-----------------------
   0 C :   -0.307185
   1 C :   -0.009778
   2 O :   -0.381119
   3 P :    0.616040
   4 S :   -0.312747
   5 O :   -0.344971
   6 C :   -0.016394
   7 C :   -0.282259
   8 S :   -0.119565
   9 C :   -0.365233
  10 S :   -0.070897
  11 P :    0.620910
  12 S :   -0.307423
  13 O :   -0.397917
  14 C :   -0.024325
  15 C :   -0.293527
  16 O :   -0.366136
  17 C :   -0.000211
  18 C :   -0.320668
  19 H :    0.122401
  20 H :    0.128144
  21 H :    0.110550
  22 H :    0.109066
  23 H :    0.112135
  24 H :    0.121748
  25 H :    0.099966
  26 H :    0.114090
  27 H :    0.117305
  28 H :    0.107294
  29 H :    0.183562
  30 H :    0.194485
  31 H :    0.102808
  32 H :    0.122468
  33 H :    0.125828
  34 H :    0.112133
  35 H :    0.112377
  36 H :    0.105559
  37 H :    0.112799
  38 H :    0.125907
  39 H :    0.112958
  40 H :    0.129821
Sum of atomic charges:   -0.0000000

LOEWDIN ATOMIC CHARGES
----------------------
   0 C :   -0.369135
   1 C :   -0.115151
   2 O :   -0.242807
   3 P :    0.573450
   4 S :   -0.304773
   5 O :   -0.226585
   6 C :   -0.117717
   7 C :   -0.359318
   8 S :    0.062600
   9 C :   -0.485312
  10 S :    0.090425
  11 P :    0.570486
  12 S :   -0.301954
  13 O :   -0.253310
  14 C :   -0.123509
  15 C :   -0.361552
  16 O :   -0.243254
  17 C :   -0.107784
  18 C :   -0.371809
  19 H :    0.120037
  20 H :    0.131175
  21 H :    0.129737
  22 H :    0.121011
  23 H :    0.107467
  24 H :    0.119624
  25 H :    0.102754
  26 H :    0.122689
  27 H :    0.127730
  28 H :    0.128299
  29 H :    0.128928
  30 H :    0.128417
  31 H :    0.115233
  32 H :    0.108702
  33 H :    0.126307
  34 H :    0.122135
  35 H :    0.131718
  36 H :    0.112200
  37 H :    0.123696
  38 H :    0.120411
  39 H :    0.130947
  40 H :    0.127792

  Mayer bond orders larger than 0.100000
B(  0-C ,  1-C ) :   1.1671 B(  0-C , 19-H ) :   0.9322 B(  0-C , 20-H ) :   0.9429
B(  0-C , 21-H ) :   0.9348 B(  1-C ,  2-O ) :   0.9117 B(  1-C , 22-H ) :   0.9328
B(  1-C , 23-H ) :   0.9256 B(  2-O ,  3-P ) :   1.0793 B(  3-P ,  4-S ) :   1.6401
B(  3-P ,  5-O ) :   1.1576 B(  3-P ,  8-S ) :   0.9283 B(  4-S ,  8-S ) :   0.1094
B(  5-O ,  6-C ) :   0.8862 B(  6-C ,  7-C ) :   1.1555 B(  6-C , 24-H ) :   0.9267
B(  6-C , 25-H ) :   0.9190 B(  7-C , 26-H ) :   0.9432 B(  7-C , 27-H ) :   0.9465
B(  7-C , 28-H ) :   0.9415 B(  8-S ,  9-C ) :   1.0128 B(  9-C , 10-S ) :   1.0027
B(  9-C , 29-H ) :   0.8993 B(  9-C , 30-H ) :   0.8672 B( 10-S , 11-P ) :   0.9632
B( 10-S , 12-S ) :   0.1018 B( 11-P , 12-S ) :   1.6521 B( 11-P , 13-O ) :   1.0457
B( 11-P , 16-O ) :   1.1369 B( 13-O , 14-C ) :   0.8933 B( 14-C , 15-C ) :   1.1684
B( 14-C , 31-H ) :   0.9316 B( 14-C , 32-H ) :   0.9036 B( 15-C , 33-H ) :   0.9370
B( 15-C , 34-H ) :   0.9459 B( 15-C , 35-H ) :   0.9394 B( 16-O , 17-C ) :   0.8997
B( 17-C , 18-C ) :   1.1700 B( 17-C , 36-H ) :   0.9296 B( 17-C , 37-H ) :   0.9350
B( 18-C , 38-H ) :   0.9387 B( 18-C , 39-H ) :   0.9337 B( 18-C , 40-H ) :   0.9407

Dispersion correction           -0.065916482
FINAL SINGLE POINT ENERGY     -2929.513307059932

DIPOLE MOMENT
-------------

Method             : SCF
Type of density    : Electron Density
Multiplicity       :   1
Irrep              :   0
Energy             : -2929.6326203280855225 Eh
Relativity type    :
Basis              : AO
                                X                 Y                 Z
Electronic contribution:      2.317489243      -0.333148174     -11.705032761
Nuclear contribution   :     -2.969526308      -0.088595124      13.462658717
                        -----------------------------------------
Total Dipole Moment    :     -0.652037065      -0.421743299       1.757625956
                        -----------------------------------------
Magnitude (a.u.)       :      1.921527712
Magnitude (Debye)      :      4.884135294

Rotational constants in cm-1:             0.012617             0.004778             0.004624
Rotational constants in MHz :           378.250112           143.240676           138.618854

                             ****ORCA TERMINATED NORMALLY****
TOTAL RUN TIME: 0 days 0 hours 0 minutes 20 seconds 638 msec
