                         Program Version 6.0.1  -  RELEASE   -
|  1> ! pbe def2-sv(p) def2/J RI DEFGRID1 loosescf d4 GCP(DFT/SV(P)) printgap
|  2> %output
|  3>     printlevel normal
|  4> end
|  5> * xyz 0 1
|  6> C 4.9152625941 -3.2549611964 0.3673833592
|  7> C 4.4683841179 -1.9249635338 -0.2086410808
|  8> O 3.034020424 -1.9462562579 -0.340292201
|  9> C 2.474054838 -1.1491333498 -1.2212895694
| 10> O 3.079196643 -0.4199581123 -1.979764769
| 11> C 0.9612058596 -1.2841719368 -1.2164308339
| 12> C 0.3598130373 0.1129771464 -1.3033019615
| 13> H 0.7418112325 0.607136525 -2.2052784249
| 14> C 0.8082768673 0.961696049 -0.1284944734
| 15> O 1.8621987015 0.7753435996 0.4343031527
| 16> O -0.0381691284 1.9354948411 0.1432347512
| 17> C 0.3140777342 2.8684752561 1.1850185625
| 18> C 1.1394335781 4.0123914225 0.62231616
| 19> S -1.4439347756 0.1043556654 -1.5080351429
| 20> P -2.0920891496 0.0095081845 0.5171115818
| 21> S -0.8534706036 -0.7278768958 1.8455361971
| 22> O -2.6545752631 1.4259003449 0.9297807863
| 23> C -3.6300279448 2.1256384875 0.1287577876
| 24> O -3.4598661961 -0.8067181228 0.3693686827
| 25> C -3.4646655266 -2.2029000328 0.0495119223
| 26> H 4.430365629 -3.4226099114 1.3243888323
| 27> H 4.6506091681 -4.0641170635 -0.3069368645
| 28> H 5.9910498179 -3.2411407985 0.5065892024
| 29> H 4.9035658546 -1.7344948703 -1.1947938852
| 30> H 4.72217162 -1.0919513048 0.4540600281
| 31> H 0.6576167198 -1.7950044136 -0.3017815492
| 32> H 0.6573480913 -1.8673588493 -2.0867762476
| 33> H -0.6435535473 3.2114378827 1.5776093672
| 34> H 0.8633588149 2.3246817959 1.9591691972
| 35> H 0.5992658982 4.5048452422 -0.1814678891
| 36> H 1.3395542009 4.7278368958 1.412846001
| 37> H 2.0852809573 3.6363946273 0.2380496676
| 38> H -3.7845434047 3.0751634787 0.6343134303
| 39> H -4.554603575 1.5537416534 0.0884238065
| 40> H -3.2400177235 2.2808288229 -0.8769556209
| 41> H -2.7654978629 -2.7381547581 0.6937357176
| 42> H -3.1936835065 -2.3432867894 -0.9965109161
| 43> H -4.4817189469 -2.5407367825 0.2311465931
| 44> *
| 45>
| 46>                          ****END OF INPUT****

CARTESIAN COORDINATES (ANGSTROEM)
---------------------------------
  C      4.915263   -3.254961    0.367383
  C      4.468384   -1.924964   -0.208641
  O      3.034020   -1.946256   -0.340292
  C      2.474055   -1.149133   -1.221290
  O      3.079197   -0.419958   -1.979765
  C      0.961206   -1.284172   -1.216431
  C      0.359813    0.112977   -1.303302
  H      0.741811    0.607137   -2.205278
  C      0.808277    0.961696   -0.128494
  O      1.862199    0.775344    0.434303
  O     -0.038169    1.935495    0.143235
  C      0.314078    2.868475    1.185019
  C      1.139434    4.012391    0.622316
  S     -1.443935    0.104356   -1.508035
  P     -2.092089    0.009508    0.517112
  S     -0.853471   -0.727877    1.845536
  O     -2.654575    1.425900    0.929781
  C     -3.630028    2.125638    0.128758
  O     -3.459866   -0.806718    0.369369
  C     -3.464666   -2.202900    0.049512
  H      4.430366   -3.422610    1.324389
  H      4.650609   -4.064117   -0.306937
  H      5.991050   -3.241141    0.506589
  H      4.903566   -1.734495   -1.194794
  H      4.722172   -1.091951    0.454060
  H      0.657617   -1.795004   -0.301782
  H      0.657348   -1.867359   -2.086776
  H     -0.643554    3.211438    1.577609
  H      0.863359    2.324682    1.959169
  H      0.599266    4.504845   -0.181468
  H      1.339554    4.727837    1.412846
  H      2.085281    3.636395    0.238050
  H     -3.784543    3.075163    0.634313
  H     -4.554604    1.553742    0.088424
  H     -3.240018    2.280829   -0.876956
  H     -2.765498   -2.738155    0.693736
  H     -3.193684   -2.343287   -0.996511
  H     -4.481719   -2.540737    0.231147

 Total Charge           Charge          ....    0
 Multiplicity           Mult            ....    1
 Number of Electrons    NEL             ....  174
 Basis Dimension        Dim             ....  316

ORBITAL ENERGIES
----------------

  NO   OCC          E(Eh)            E(eV)
   0   2.0000     -88.044346     -2395.8085
   1   2.0000     -87.988103     -2394.2780
   2   2.0000     -76.430411     -2079.7772
   3   2.0000     -18.808996      -511.8188
   4   2.0000     -18.799071      -511.5487
   5   2.0000     -18.797249      -511.4991
   6   2.0000     -18.788394      -511.2582
   7   2.0000     -18.739286      -509.9219
   8   2.0000     -18.723033      -509.4796
   9   2.0000     -10.018409      -272.6148
  10   2.0000      -9.997921      -272.0573
  11   2.0000      -9.954370      -270.8722
  12   2.0000      -9.948867      -270.7224
  13   2.0000      -9.948362      -270.7087
  14   2.0000      -9.944946      -270.6157
  15   2.0000      -9.936094      -270.3749
  16   2.0000      -9.899016      -269.3659
  17   2.0000      -9.886148      -269.0158
  18   2.0000      -9.881010      -268.8760
  19   2.0000      -7.689173      -209.2330
  20   2.0000      -7.633029      -207.7053
  21   2.0000      -6.427423      -174.8991
  22   2.0000      -5.717034      -155.5684
  23   2.0000      -5.713579      -155.4744
  24   2.0000      -5.706280      -155.2758
  25   2.0000      -5.662185      -154.0759
  26   2.0000      -5.653360      -153.8357
  27   2.0000      -5.653222      -153.8320
  28   2.0000      -4.650194      -126.5382
  29   2.0000      -4.649297      -126.5138
  30   2.0000      -4.647724      -126.4710
  31   2.0000      -1.016172       -27.6514
  32   2.0000      -0.996847       -27.1256
  33   2.0000      -0.992173       -26.9984
  34   2.0000      -0.947866       -25.7927
  35   2.0000      -0.921405       -25.0727
  36   2.0000      -0.900441       -24.5022
  37   2.0000      -0.765419       -20.8281
  38   2.0000      -0.708156       -19.2699
  39   2.0000      -0.702844       -19.1254
  40   2.0000      -0.693666       -18.8756
  41   2.0000      -0.658063       -17.9068
  42   2.0000      -0.641950       -17.4683
  43   2.0000      -0.626985       -17.0611
  44   2.0000      -0.615924       -16.7601
  45   2.0000      -0.587699       -15.9921
  46   2.0000      -0.556395       -15.1403
  47   2.0000      -0.519850       -14.1458
  48   2.0000      -0.501758       -13.6535
  49   2.0000      -0.496458       -13.5093
  50   2.0000      -0.482333       -13.1250
  51   2.0000      -0.479721       -13.0539
  52   2.0000      -0.452548       -12.3145
  53   2.0000      -0.440023       -11.9736
  54   2.0000      -0.437540       -11.9061
  55   2.0000      -0.434026       -11.8105
  56   2.0000      -0.425471       -11.5777
  57   2.0000      -0.419950       -11.4274
  58   2.0000      -0.416985       -11.3467
  59   2.0000      -0.406400       -11.0587
  60   2.0000      -0.400406       -10.8956
  61   2.0000      -0.399245       -10.8640
  62   2.0000      -0.389142       -10.5891
  63   2.0000      -0.381420       -10.3790
  64   2.0000      -0.371998       -10.1226
  65   2.0000      -0.356939        -9.7128
  66   2.0000      -0.354393        -9.6435
  67   2.0000      -0.347468        -9.4551
  68   2.0000      -0.342979        -9.3329
  69   2.0000      -0.336272        -9.1504
  70   2.0000      -0.335011        -9.1161
  71   2.0000      -0.324661        -8.8345
  72   2.0000      -0.322274        -8.7695
  73   2.0000      -0.310750        -8.4559
  74   2.0000      -0.309360        -8.4181
  75   2.0000      -0.300953        -8.1893
  76   2.0000      -0.297127        -8.0852
  77   2.0000      -0.286167        -7.7870
  78   2.0000      -0.276497        -7.5239
  79   2.0000      -0.266897        -7.2626
  80   2.0000      -0.262134        -7.1330
  81   2.0000      -0.245148        -6.6708
  82   2.0000      -0.240108        -6.5337
  83   2.0000      -0.220365        -5.9964
  84   2.0000      -0.208627        -5.6770
  85   2.0000      -0.205973        -5.6048
  86   2.0000      -0.202823        -5.5191
  87   0.0000      -0.041686        -1.1343
  88   0.0000      -0.030824        -0.8388
  89   0.0000      -0.004409        -0.1200
  90   0.0000       0.004940         0.1344
  91   0.0000       0.012941         0.3521

MULLIKEN ATOMIC CHARGES
-----------------------
   0 C :   -0.278346
   1 C :   -0.025040
   2 O :   -0.224124
   3 C :    0.107646
   4 O :   -0.222202
   5 C :   -0.034585
   6 C :   -0.291887
   7 H :    0.164345
   8 C :    0.169693
   9 O :   -0.176107
  10 O :   -0.230536
  11 C :   -0.011107
  12 C :   -0.303154
  13 S :   -0.095960
  14 P :    0.605034
  15 S :   -0.292321
  16 O :   -0.362893
  17 C :   -0.109114
  18 O :   -0.388029
  19 C :   -0.101181
  20 H :    0.117644
  21 H :    0.110485
  22 H :    0.108675
  23 H :    0.107798
  24 H :    0.110598
  25 H :    0.112617
  26 H :    0.108920
  27 H :    0.105137
  28 H :    0.117283
  29 H :    0.110966
  30 H :    0.114330
  31 H :    0.129445
  32 H :    0.130706
  33 H :    0.127295
  34 H :    0.123716
  35 H :    0.120456
  36 H :    0.116774
  37 H :    0.127022
Sum of atomic charges:    0.0000000

LOEWDIN ATOMIC CHARGES
----------------------
   0 C :   -0.351192
   1 C :   -0.106743
   2 O :   -0.053108
   3 C :    0.027725
   4 O :   -0.182824
   5 C :   -0.253099
   6 C :   -0.266902
   7 H :    0.158251
   8 C :    0.010385
   9 O :   -0.136909
  10 O :   -0.059934
  11 C :   -0.110104
  12 C :   -0.355480
  13 S :    0.096866
  14 P :    0.571488
  15 S :   -0.284864
  16 O :   -0.235789
  17 C :   -0.210813
  18 O :   -0.259756
  19 C :   -0.215633
  20 H :    0.127545
  21 H :    0.124406
  22 H :    0.128883
  23 H :    0.116754
  24 H :    0.120701
  25 H :    0.131586
  26 H :    0.141015
  27 H :    0.116967
  28 H :    0.123606
  29 H :    0.123476
  30 H :    0.131367
  31 H :    0.131707
  32 H :    0.125259
  33 H :    0.117538
  34 H :    0.111561
  35 H :    0.112966
  36 H :    0.109586
  37 H :    0.123514

  Mayer bond orders larger than 0.100000
B(  0-C ,  1-C ) :   1.1562 B(  0-C , 20-H ) :   0.9484 B(  0-C , 21-H ) :   0.9524
B(  0-C , 22-H ) :   0.9450 B(  1-C ,  2-O ) :   0.9094 B(  1-C , 23-H ) :   0.9196
B(  1-C , 24-H ) :   0.9336 B(  2-O ,  3-C ) :   1.2465 B(  3-C ,  4-O ) :   2.0331
B(  3-C ,  5-C ) :   0.9976 B(  5-C ,  6-C ) :   1.0408 B(  5-C , 25-H ) :   0.8868
B(  5-C , 26-H ) :   0.8817 B(  6-C ,  7-H ) :   0.8467 B(  6-C ,  8-C ) :   0.9174
B(  6-C , 13-S ) :   1.0012 B(  8-C ,  9-O ) :   2.0315 B(  8-C , 10-O ) :   1.2355
B( 10-O , 11-C ) :   0.8995 B( 11-C , 12-C ) :   1.1725 B( 11-C , 27-H ) :   0.9316
B( 11-C , 28-H ) :   0.9134 B( 12-C , 29-H ) :   0.9485 B( 12-C , 30-H ) :   0.9451
B( 12-C , 31-H ) :   0.9450 B( 13-S , 14-P ) :   0.9589 B( 13-S , 15-S ) :   0.1150
B( 14-P , 15-S ) :   1.6363 B( 14-P , 16-O ) :   1.1191 B( 14-P , 18-O ) :   1.0710
B( 16-O , 17-C ) :   0.9151 B( 17-C , 32-H ) :   0.9588 B( 17-C , 33-H ) :   0.9475
B( 17-C , 34-H ) :   0.9378 B( 18-O , 19-C ) :   0.9296 B( 19-C , 35-H ) :   0.9360
B( 19-C , 36-H ) :   0.9467 B( 19-C , 37-H ) :   0.9584

Dispersion correction           -0.052363661
FINAL SINGLE POINT ENERGY     -1979.021553403944

DIPOLE MOMENT
-------------

Method             : SCF
Type of density    : Electron Density
Multiplicity       :   1
Irrep              :   0
Energy             : -1979.1518811022278896 Eh
Relativity type    :
Basis              : AO
                                X                 Y                 Z
Electronic contribution:    -11.498787136      -0.775158753      -0.761546382
Nuclear contribution   :     10.386055970       1.040066484       0.431488040
                        -----------------------------------------
Total Dipole Moment    :     -1.112731166       0.264907731      -0.330058342
                        -----------------------------------------
Magnitude (a.u.)       :      1.190497905
Magnitude (Debye)      :      3.026005194

Rotational constants in cm-1:             0.014280             0.006572             0.005517
Rotational constants in MHz :           428.092952           197.036027           165.400155

                             ****ORCA TERMINATED NORMALLY****
TOTAL RUN TIME: 0 days 0 hours 0 minutes 43 seconds 232 msec
