                         Program Version 6.0.0  -   RELEASE  -
|  1> ! pbe def2-sv(p) def2/J RI DEFGRID1 loosescf d4 GCP(DFT/SV(P)) printgap
|  2> %output
|  3>     printlevel normal
|  4> end
|  5> * xyz 0 1
|  6> C 4.6894708035 0.1369371487 -1.872194487
|  7> C 4.4725716214 1.0511788637 -0.6840223385
|  8> O 3.5734517493 0.4852045854 0.2867574175
|  9> P 2.026833943 0.2622367954 -0.0012999205
| 10> S 1.1474526742 1.7024944298 -0.9903324424
| 11> O 1.418999992 0.089146902 1.4426689757
| 12> C 1.8204607463 -0.9254036624 2.3969857544
| 13> C 2.9286083178 -0.4215043176 3.2975566091
| 14> S 1.9617060378 -1.6671880654 -0.89251122
| 15> C 0.2070557361 -1.6859655817 -1.3150928785
| 16> S -0.8744206633 -1.8393339256 0.1490680431
| 17> P -2.0168333732 -0.0782355395 -0.0060515381
| 18> S -2.2499997824 0.6402754973 -1.8192143133
| 19> O -1.3584787254 0.8661912341 1.0771029472
| 20> C -1.5805895504 2.2893559942 1.0952270645
| 21> C -3.0200405804 2.6292121284 1.4140872925
| 22> O -3.3461953828 -0.5066670058 0.7567090329
| 23> C -4.3172128973 -1.3973208321 0.1724218563
| 24> C -5.4341203398 -0.6178491696 -0.4945150476
| 25> H 4.9648621304 -0.8600856561 -1.5378351391
| 26> H 3.7783356337 0.0699669845 -2.464413212
| 27> H 5.4818288054 0.5416058594 -2.4937255142
| 28> H 4.0672460855 2.0147701119 -1.0078117276
| 29> H 5.3947900659 1.2069428667 -0.1224446849
| 30> H 0.9077441818 -1.1344240499 2.9589505328
| 31> H 2.1290605823 -1.8223824687 1.8523386112
| 32> H 3.8280185306 -0.2295895744 2.7189739537
| 33> H 2.6226678464 0.4988998571 3.787506736
| 34> H 3.1397512457 -1.1750561342 4.0499194483
| 35> H 0.0557521518 -2.564487212 -1.9368154432
| 36> H -0.0611978308 -0.7717100194 -1.8527373643
| 37> H -0.8912854531 2.6481188578 1.86121969
| 38> H -1.285586097 2.6992875747 0.1231091616
| 39> H -3.3223513678 2.1481172431 2.3406315069
| 40> H -3.1217184153 3.7056498962 1.5102462206
| 41> H -3.6655136943 2.2821108412 0.6079019259
| 42> H -3.8184468493 -2.0566143461 -0.5438649499
| 43> H -4.6892018841 -1.9873302452 1.0120029984
| 44> H -5.9018380794 0.0524808874 0.2211937983
| 45> H -5.0405308487 -0.0314668613 -1.322064676
| 46> H -6.176323698 -1.311897977 -0.8751674507
| 47> *
| 48>
| 49>                          ****END OF INPUT****

CARTESIAN COORDINATES (ANGSTROEM)
---------------------------------
  C      4.689471    0.136937   -1.872194
  C      4.472572    1.051179   -0.684022
  O      3.573452    0.485205    0.286757
  P      2.026834    0.262237   -0.001300
  S      1.147453    1.702494   -0.990332
  O      1.419000    0.089147    1.442669
  C      1.820461   -0.925404    2.396986
  C      2.928608   -0.421504    3.297557
  S      1.961706   -1.667188   -0.892511
  C      0.207056   -1.685966   -1.315093
  S     -0.874421   -1.839334    0.149068
  P     -2.016833   -0.078236   -0.006052
  S     -2.250000    0.640275   -1.819214
  O     -1.358479    0.866191    1.077103
  C     -1.580590    2.289356    1.095227
  C     -3.020041    2.629212    1.414087
  O     -3.346195   -0.506667    0.756709
  C     -4.317213   -1.397321    0.172422
  C     -5.434120   -0.617849   -0.494515
  H      4.964862   -0.860086   -1.537835
  H      3.778336    0.069967   -2.464413
  H      5.481829    0.541606   -2.493726
  H      4.067246    2.014770   -1.007812
  H      5.394790    1.206943   -0.122445
  H      0.907744   -1.134424    2.958951
  H      2.129061   -1.822382    1.852339
  H      3.828019   -0.229590    2.718974
  H      2.622668    0.498900    3.787507
  H      3.139751   -1.175056    4.049919
  H      0.055752   -2.564487   -1.936815
  H     -0.061198   -0.771710   -1.852737
  H     -0.891285    2.648119    1.861220
  H     -1.285586    2.699288    0.123109
  H     -3.322351    2.148117    2.340632
  H     -3.121718    3.705650    1.510246
  H     -3.665514    2.282111    0.607902
  H     -3.818447   -2.056614   -0.543865
  H     -4.689202   -1.987330    1.012003
  H     -5.901838    0.052481    0.221194
  H     -5.040531   -0.031467   -1.322065
  H     -6.176324   -1.311898   -0.875167

 Total Charge           Charge          ....    0
 Multiplicity           Mult            ....    1
 Number of Electrons    NEL             ....  202
 Basis Dimension        Dim             ....  334

ORBITAL ENERGIES
----------------

  NO   OCC          E(Eh)            E(eV)
   0   2.0000     -88.044411     -2395.8102
   1   2.0000     -88.040861     -2395.7136
   2   2.0000     -87.981464     -2394.0973
   3   2.0000     -87.981402     -2394.0957
   4   2.0000     -76.424300     -2079.6109
   5   2.0000     -76.420852     -2079.5171
   6   2.0000     -18.795730      -511.4578
   7   2.0000     -18.788243      -511.2541
   8   2.0000     -18.788236      -511.2539
   9   2.0000     -18.779679      -511.0210
  10   2.0000      -9.954160      -270.8665
  11   2.0000      -9.954142      -270.8660
  12   2.0000      -9.950899      -270.7777
  13   2.0000      -9.950646      -270.7708
  14   2.0000      -9.938469      -270.4395
  15   2.0000      -9.885403      -268.9955
  16   2.0000      -9.883973      -268.9566
  17   2.0000      -9.878473      -268.8069
  18   2.0000      -9.875268      -268.7197
  19   2.0000      -7.689436      -209.2402
  20   2.0000      -7.686027      -209.1474
  21   2.0000      -7.626438      -207.5259
  22   2.0000      -7.626321      -207.5227
  23   2.0000      -6.421819      -174.7466
  24   2.0000      -6.418397      -174.6535
  25   2.0000      -5.717219      -155.5734
  26   2.0000      -5.713881      -155.4826
  27   2.0000      -5.713775      -155.4797
  28   2.0000      -5.710470      -155.3898
  29   2.0000      -5.706662      -155.2862
  30   2.0000      -5.703032      -155.1874
  31   2.0000      -5.655418      -153.8917
  32   2.0000      -5.655154      -153.8846
  33   2.0000      -5.647110      -153.6657
  34   2.0000      -5.646894      -153.6598
  35   2.0000      -5.646667      -153.6536
  36   2.0000      -5.646402      -153.6464
  37   2.0000      -4.644696      -126.3886
  38   2.0000      -4.643616      -126.3592
  39   2.0000      -4.641963      -126.3142
  40   2.0000      -4.640709      -126.2801
  41   2.0000      -4.640086      -126.2632
  42   2.0000      -4.639181      -126.2385
  43   2.0000      -0.987062       -26.8593
  44   2.0000      -0.980473       -26.6800
  45   2.0000      -0.944578       -25.7033
  46   2.0000      -0.937641       -25.5145
  47   2.0000      -0.761609       -20.7244
  48   2.0000      -0.718557       -19.5529
  49   2.0000      -0.706465       -19.2239
  50   2.0000      -0.689960       -18.7748
  51   2.0000      -0.680896       -18.5281
  52   2.0000      -0.672525       -18.3003
  53   2.0000      -0.649056       -17.6617
  54   2.0000      -0.632587       -17.2136
  55   2.0000      -0.597458       -16.2577
  56   2.0000      -0.589182       -16.0325
  57   2.0000      -0.574282       -15.6270
  58   2.0000      -0.565110       -15.3774
  59   2.0000      -0.558302       -15.1922
  60   2.0000      -0.500251       -13.6125
  61   2.0000      -0.492323       -13.3968
  62   2.0000      -0.474007       -12.8984
  63   2.0000      -0.466309       -12.6889
  64   2.0000      -0.449768       -12.2388
  65   2.0000      -0.443527       -12.0690
  66   2.0000      -0.438633       -11.9358
  67   2.0000      -0.434070       -11.8117
  68   2.0000      -0.426780       -11.6133
  69   2.0000      -0.415851       -11.3159
  70   2.0000      -0.407737       -11.0951
  71   2.0000      -0.395676       -10.7669
  72   2.0000      -0.389053       -10.5867
  73   2.0000      -0.382886       -10.4189
  74   2.0000      -0.378956       -10.3119
  75   2.0000      -0.368863       -10.0373
  76   2.0000      -0.365792        -9.9537
  77   2.0000      -0.358066        -9.7435
  78   2.0000      -0.351759        -9.5718
  79   2.0000      -0.350285        -9.5317
  80   2.0000      -0.345951        -9.4138
  81   2.0000      -0.341818        -9.3013
  82   2.0000      -0.337340        -9.1795
  83   2.0000      -0.333422        -9.0729
  84   2.0000      -0.328807        -8.9473
  85   2.0000      -0.315187        -8.5767
  86   2.0000      -0.309394        -8.4191
  87   2.0000      -0.295542        -8.0421
  88   2.0000      -0.292203        -7.9513
  89   2.0000      -0.289956        -7.8901
  90   2.0000      -0.277002        -7.5376
  91   2.0000      -0.270361        -7.3569
  92   2.0000      -0.263648        -7.1742
  93   2.0000      -0.260627        -7.0920
  94   2.0000      -0.258019        -7.0210
  95   2.0000      -0.236709        -6.4412
  96   2.0000      -0.221554        -6.0288
  97   2.0000      -0.213057        -5.7976
  98   2.0000      -0.202850        -5.5198
  99   2.0000      -0.193223        -5.2579
 100   2.0000      -0.184638        -5.0243
 101   0.0000      -0.037301        -1.0150
 102   0.0000      -0.028346        -0.7713
 103   0.0000      -0.009338        -0.2541
 104   0.0000       0.014649         0.3986
 105   0.0000       0.023784         0.6472

MULLIKEN ATOMIC CHARGES
-----------------------
   0 C :   -0.321928
   1 C :   -0.000346
   2 O :   -0.380040
   3 P :    0.599927
   4 S :   -0.301342
   5 O :   -0.343393
   6 C :   -0.011575
   7 C :   -0.288557
   8 S :   -0.104796
   9 C :   -0.355304
  10 S :   -0.099422
  11 P :    0.606783
  12 S :   -0.317849
  13 O :   -0.351191
  14 C :   -0.002853
  15 C :   -0.305742
  16 O :   -0.374523
  17 C :   -0.006938
  18 C :   -0.293064
  19 H :    0.116973
  20 H :    0.132581
  21 H :    0.115308
  22 H :    0.113139
  23 H :    0.104484
  24 H :    0.109473
  25 H :    0.100887
  26 H :    0.120659
  27 H :    0.117001
  28 H :    0.108073
  29 H :    0.182664
  30 H :    0.210040
  31 H :    0.101354
  32 H :    0.124451
  33 H :    0.111929
  34 H :    0.108877
  35 H :    0.123618
  36 H :    0.097343
  37 H :    0.104764
  38 H :    0.113775
  39 H :    0.128658
  40 H :    0.106101
Sum of atomic charges:    0.0000000

LOEWDIN ATOMIC CHARGES
----------------------
   0 C :   -0.371760
   1 C :   -0.117497
   2 O :   -0.247080
   3 P :    0.565341
   4 S :   -0.291698
   5 O :   -0.226524
   6 C :   -0.118772
   7 C :   -0.360739
   8 S :    0.078194
   9 C :   -0.480142
  10 S :    0.077068
  11 P :    0.568672
  12 S :   -0.309889
  13 O :   -0.228500
  14 C :   -0.118075
  15 C :   -0.366768
  16 O :   -0.247252
  17 C :   -0.117351
  18 C :   -0.363873
  19 H :    0.123010
  20 H :    0.123290
  21 H :    0.132341
  22 H :    0.112988
  23 H :    0.118144
  24 H :    0.119559
  25 H :    0.100814
  26 H :    0.124728
  27 H :    0.127390
  28 H :    0.128857
  29 H :    0.137448
  30 H :    0.126474
  31 H :    0.118161
  32 H :    0.109427
  33 H :    0.123807
  34 H :    0.129101
  35 H :    0.121317
  36 H :    0.105267
  37 H :    0.117460
  38 H :    0.124726
  39 H :    0.124337
  40 H :    0.127999

  Mayer bond orders larger than 0.100000
B(  0-C ,  1-C ) :   1.1667 B(  0-C , 19-H ) :   0.9438 B(  0-C , 20-H ) :   0.9345
B(  0-C , 21-H ) :   0.9372 B(  1-C ,  2-O ) :   0.9052 B(  1-C , 22-H ) :   0.9162
B(  1-C , 23-H ) :   0.9339 B(  2-O ,  3-P ) :   1.0832 B(  3-P ,  4-S ) :   1.6447
B(  3-P ,  5-O ) :   1.1494 B(  3-P ,  8-S ) :   0.9436 B(  4-S ,  8-S ) :   0.1043
B(  5-O ,  6-C ) :   0.8930 B(  6-C ,  7-C ) :   1.1632 B(  6-C , 24-H ) :   0.9330
B(  6-C , 25-H ) :   0.9089 B(  7-C , 26-H ) :   0.9407 B(  7-C , 27-H ) :   0.9475
B(  7-C , 28-H ) :   0.9398 B(  8-S ,  9-C ) :   1.0015 B(  9-C , 10-S ) :   0.9920
B(  9-C , 29-H ) :   0.9118 B(  9-C , 30-H ) :   0.8464 B( 10-S , 11-P ) :   0.9623
B( 10-S , 12-S ) :   0.1178 B( 11-P , 12-S ) :   1.6009 B( 11-P , 13-O ) :   1.1544
B( 11-P , 16-O ) :   1.0957 B( 13-O , 14-C ) :   0.9006 B( 14-C , 15-C ) :   1.1581
B( 14-C , 31-H ) :   0.9359 B( 14-C , 32-H ) :   0.9122 B( 15-C , 33-H ) :   0.9448
B( 15-C , 34-H ) :   0.9387 B( 15-C , 35-H ) :   0.9344 B( 16-O , 17-C ) :   0.9079
B( 17-C , 18-C ) :   1.1676 B( 17-C , 36-H ) :   0.9129 B( 17-C , 37-H ) :   0.9362
B( 18-C , 38-H ) :   0.9458 B( 18-C , 39-H ) :   0.9307 B( 18-C , 40-H ) :   0.9399

Dispersion correction           -0.067629166
FINAL SINGLE POINT ENERGY     -2929.521885304186

DIPOLE MOMENT
-------------

Method             : SCF
Type of density    : Electron Density
Multiplicity       :   1
Irrep              :   0
Energy             : -2929.6399853799553057 Eh
Relativity type    :
Basis              : AO
                                X                 Y                 Z
Electronic contribution:      2.019701966      -4.275159346      -7.623281029
Nuclear contribution   :     -1.509000078       3.563472366       8.499830200
                        -----------------------------------------
Total Dipole Moment    :      0.510701888      -0.711686980       0.876549171
                        -----------------------------------------
Magnitude (a.u.)       :      1.239214762
Magnitude (Debye)      :      3.149833602

Rotational constants in cm-1:             0.013448             0.005032             0.004975
Rotational constants in MHz :           403.173701           150.865021           149.143789

                             ****ORCA TERMINATED NORMALLY****
TOTAL RUN TIME: 0 days 0 hours 0 minutes 21 seconds 539 msec
