                         Program Version 6.0.0  -   RELEASE  -
|  1> ! pbe def2-sv(p) def2/J RI DEFGRID1 loosescf d4 GCP(DFT/SV(P)) printgap
|  2> %output
|  3>     printlevel normal
|  4> end
|  5> * xyz 0 1
|  6> C 4.6125273582 -1.5072442059 0.9430508246
|  7> C 4.5324709712 -0.058250164 0.5077406817
|  8> O 3.2067928846 0.4797050614 0.6567610579
|  9> P 1.9902884914 0.021919759 -0.258559797
| 10> S 2.4586905827 -0.2913353198 -2.1411340236
| 11> O 0.9429681079 1.1877449032 0.0283082182
| 12> C 0.8527560695 2.3384097341 -0.8330335351
| 13> C 2.0788606026 3.2194763839 -0.7301044617
| 14> S 1.1539161866 -1.5457413281 0.8616621212
| 15> C -0.1187790931 -2.1444355648 -0.3007492397
| 16> S -0.930269458 -0.858213165 -1.2874773987
| 17> P -2.1729425633 0.0719362854 0.1467983689
| 18> S -2.7878650221 1.8839324059 -0.2714102898
| 19> O -1.3023120518 -0.1095025506 1.4505543329
| 20> C -1.5662357989 0.6269904611 2.6658332537
| 21> C -0.2642044737 0.7390182798 3.4317530645
| 22> O -3.3591297366 -0.9589869078 0.4489912024
| 23> C -4.5942267991 -0.9369263464 -0.2815492183
| 24> C -4.4092387943 -1.3789720733 -1.7193406635
| 25> H 5.6491821309 -1.8282660011 0.9307606379
| 26> H 4.2084219623 -1.6234871708 1.9454097604
| 27> H 4.0404519948 -2.1329879937 0.2596243104
| 28> H 4.831077354 0.0446812484 -0.5405915962
| 29> H 5.148482039 0.5869096011 1.1355766129
| 30> H 0.7083214685 1.9896995996 -1.8619240109
| 31> H -0.0503816378 2.8541442668 -0.499462343
| 32> H 2.2634517244 3.4879596659 0.3067450593
| 33> H 2.9475831414 2.689993647 -1.1199231702
| 34> H 1.9208544538 4.1196219911 -1.3157618009
| 35> H -0.8546534795 -2.6760192943 0.2977478835
| 36> H 0.3486801364 -2.8015436087 -1.0318698538
| 37> H -1.9640205975 1.612055591 2.3980148696
| 38> H -2.3205718959 0.0754148585 3.2316635064
| 39> H 0.4799089892 1.2515378204 2.8266318705
| 40> H -0.4341345426 1.2997216935 4.3450441308
| 41> H 0.1105828824 -0.2512684903 3.6752364018
| 42> H -5.2424441913 -1.6178958269 0.2715902322
| 43> H -4.9998328436 0.0791912612 -0.242206726
| 44> H -3.9487949727 -2.3626339132 -1.7604316613
| 45> H -5.3751149908 -1.412461012 -2.2129062796
| 46> H -3.7685038514 -0.6704495267 -2.2449745422
| 47> *
| 48>
| 49>                          ****END OF INPUT****

CARTESIAN COORDINATES (ANGSTROEM)
---------------------------------
  C      4.612527   -1.507244    0.943051
  C      4.532471   -0.058250    0.507741
  O      3.206793    0.479705    0.656761
  P      1.990288    0.021920   -0.258560
  S      2.458691   -0.291335   -2.141134
  O      0.942968    1.187745    0.028308
  C      0.852756    2.338410   -0.833034
  C      2.078861    3.219476   -0.730104
  S      1.153916   -1.545741    0.861662
  C     -0.118779   -2.144436   -0.300749
  S     -0.930269   -0.858213   -1.287477
  P     -2.172943    0.071936    0.146798
  S     -2.787865    1.883932   -0.271410
  O     -1.302312   -0.109503    1.450554
  C     -1.566236    0.626990    2.665833
  C     -0.264204    0.739018    3.431753
  O     -3.359130   -0.958987    0.448991
  C     -4.594227   -0.936926   -0.281549
  C     -4.409239   -1.378972   -1.719341
  H      5.649182   -1.828266    0.930761
  H      4.208422   -1.623487    1.945410
  H      4.040452   -2.132988    0.259624
  H      4.831077    0.044681   -0.540592
  H      5.148482    0.586910    1.135577
  H      0.708321    1.989700   -1.861924
  H     -0.050382    2.854144   -0.499462
  H      2.263452    3.487960    0.306745
  H      2.947583    2.689994   -1.119923
  H      1.920854    4.119622   -1.315762
  H     -0.854653   -2.676019    0.297748
  H      0.348680   -2.801544   -1.031870
  H     -1.964021    1.612056    2.398015
  H     -2.320572    0.075415    3.231664
  H      0.479909    1.251538    2.826632
  H     -0.434135    1.299722    4.345044
  H      0.110583   -0.251268    3.675236
  H     -5.242444   -1.617896    0.271590
  H     -4.999833    0.079191   -0.242207
  H     -3.948795   -2.362634   -1.760432
  H     -5.375115   -1.412461   -2.212906
  H     -3.768504   -0.670450   -2.244975

 Total Charge           Charge          ....    0
 Multiplicity           Mult            ....    1
 Number of Electrons    NEL             ....  202
 Basis Dimension        Dim             ....  334

ORBITAL ENERGIES
----------------

  NO   OCC          E(Eh)            E(eV)
   0   2.0000     -88.046346     -2395.8629
   1   2.0000     -88.040571     -2395.7057
   2   2.0000     -87.990911     -2394.3544
   3   2.0000     -87.984309     -2394.1748
   4   2.0000     -76.426589     -2079.6732
   5   2.0000     -76.424905     -2079.6274
   6   2.0000     -18.792650      -511.3740
   7   2.0000     -18.790588      -511.3179
   8   2.0000     -18.789294      -511.2827
   9   2.0000     -18.783514      -511.1254
  10   2.0000      -9.963519      -271.1211
  11   2.0000      -9.951490      -270.7938
  12   2.0000      -9.951354      -270.7901
  13   2.0000      -9.951121      -270.7838
  14   2.0000      -9.936342      -270.3816
  15   2.0000      -9.884434      -268.9691
  16   2.0000      -9.883783      -268.9514
  17   2.0000      -9.880754      -268.8690
  18   2.0000      -9.874886      -268.7093
  19   2.0000      -7.690992      -209.2825
  20   2.0000      -7.685759      -209.1401
  21   2.0000      -7.635879      -207.7828
  22   2.0000      -7.629248      -207.6024
  23   2.0000      -6.424346      -174.8153
  24   2.0000      -6.421923      -174.7494
  25   2.0000      -5.719360      -155.6317
  26   2.0000      -5.715298      -155.5212
  27   2.0000      -5.713881      -155.4826
  28   2.0000      -5.710378      -155.3873
  29   2.0000      -5.707648      -155.3130
  30   2.0000      -5.702271      -155.1667
  31   2.0000      -5.664685      -154.1439
  32   2.0000      -5.658121      -153.9653
  33   2.0000      -5.656738      -153.9277
  34   2.0000      -5.655912      -153.9052
  35   2.0000      -5.649874      -153.7409
  36   2.0000      -5.649514      -153.7311
  37   2.0000      -4.646767      -126.4450
  38   2.0000      -4.646244      -126.4307
  39   2.0000      -4.644828      -126.3922
  40   2.0000      -4.644339      -126.3789
  41   2.0000      -4.643731      -126.3624
  42   2.0000      -4.642581      -126.3310
  43   2.0000      -0.986352       -26.8400
  44   2.0000      -0.982780       -26.7428
  45   2.0000      -0.943976       -25.6869
  46   2.0000      -0.940661       -25.5967
  47   2.0000      -0.765290       -20.8246
  48   2.0000      -0.720913       -19.6170
  49   2.0000      -0.705476       -19.1970
  50   2.0000      -0.685386       -18.6503
  51   2.0000      -0.682199       -18.5636
  52   2.0000      -0.672350       -18.2956
  53   2.0000      -0.653900       -17.7935
  54   2.0000      -0.639099       -17.3908
  55   2.0000      -0.600621       -16.3437
  56   2.0000      -0.590662       -16.0727
  57   2.0000      -0.572569       -15.5804
  58   2.0000      -0.565874       -15.3982
  59   2.0000      -0.561755       -15.2861
  60   2.0000      -0.504190       -13.7197
  61   2.0000      -0.488546       -13.2940
  62   2.0000      -0.472601       -12.8601
  63   2.0000      -0.468318       -12.7436
  64   2.0000      -0.456803       -12.4302
  65   2.0000      -0.443104       -12.0575
  66   2.0000      -0.437459       -11.9039
  67   2.0000      -0.432840       -11.7782
  68   2.0000      -0.427050       -11.6206
  69   2.0000      -0.416283       -11.3276
  70   2.0000      -0.410809       -11.1787
  71   2.0000      -0.396581       -10.7915
  72   2.0000      -0.390024       -10.6131
  73   2.0000      -0.384644       -10.4667
  74   2.0000      -0.384095       -10.4517
  75   2.0000      -0.375583       -10.2201
  76   2.0000      -0.370014       -10.0686
  77   2.0000      -0.355081        -9.6623
  78   2.0000      -0.353795        -9.6273
  79   2.0000      -0.349816        -9.5190
  80   2.0000      -0.344673        -9.3790
  81   2.0000      -0.342066        -9.3081
  82   2.0000      -0.337184        -9.1752
  83   2.0000      -0.336020        -9.1436
  84   2.0000      -0.326691        -8.8897
  85   2.0000      -0.319371        -8.6905
  86   2.0000      -0.309563        -8.4236
  87   2.0000      -0.297643        -8.0993
  88   2.0000      -0.293650        -7.9906
  89   2.0000      -0.293409        -7.9841
  90   2.0000      -0.278800        -7.5865
  91   2.0000      -0.271103        -7.3771
  92   2.0000      -0.264711        -7.2031
  93   2.0000      -0.264056        -7.1853
  94   2.0000      -0.259999        -7.0749
  95   2.0000      -0.228187        -6.2093
  96   2.0000      -0.221507        -6.0275
  97   2.0000      -0.213155        -5.8002
  98   2.0000      -0.205991        -5.6053
  99   2.0000      -0.197349        -5.3701
 100   2.0000      -0.196167        -5.3380
 101   0.0000      -0.047989        -1.3058
 102   0.0000      -0.027886        -0.7588
 103   0.0000      -0.012199        -0.3320
 104   0.0000      -0.000730        -0.0199
 105   0.0000       0.016613         0.4521

MULLIKEN ATOMIC CHARGES
-----------------------
   0 C :   -0.315127
   1 C :   -0.005538
   2 O :   -0.374161
   3 P :    0.616056
   4 S :   -0.331537
   5 O :   -0.367636
   6 C :   -0.016497
   7 C :   -0.300900
   8 S :   -0.082472
   9 C :   -0.321032
  10 S :   -0.073486
  11 P :    0.629953
  12 S :   -0.325240
  13 O :   -0.369964
  14 C :   -0.006165
  15 C :   -0.286887
  16 O :   -0.381689
  17 C :   -0.006518
  18 C :   -0.309530
  19 H :    0.112986
  20 H :    0.116969
  21 H :    0.126222
  22 H :    0.111559
  23 H :    0.105107
  24 H :    0.110808
  25 H :    0.114758
  26 H :    0.110986
  27 H :    0.116902
  28 H :    0.110369
  29 H :    0.181355
  30 H :    0.191385
  31 H :    0.105129
  32 H :    0.100581
  33 H :    0.128550
  34 H :    0.106061
  35 H :    0.114605
  36 H :    0.102844
  37 H :    0.110477
  38 H :    0.113085
  39 H :    0.112941
  40 H :    0.124691
Sum of atomic charges:   -0.0000000

LOEWDIN ATOMIC CHARGES
----------------------
   0 C :   -0.370082
   1 C :   -0.120323
   2 O :   -0.243770
   3 P :    0.568100
   4 S :   -0.331253
   5 O :   -0.238529
   6 C :   -0.128710
   7 C :   -0.365200
   8 S :    0.099453
   9 C :   -0.466793
  10 S :    0.116001
  11 P :    0.571964
  12 S :   -0.309840
  13 O :   -0.239149
  14 C :   -0.111465
  15 C :   -0.355259
  16 O :   -0.256231
  17 C :   -0.122543
  18 C :   -0.366838
  19 H :    0.131011
  20 H :    0.123555
  21 H :    0.121114
  22 H :    0.110329
  23 H :    0.118565
  24 H :    0.109303
  25 H :    0.111899
  26 H :    0.123358
  27 H :    0.118901
  28 H :    0.129856
  29 H :    0.135439
  30 H :    0.139617
  31 H :    0.107521
  32 H :    0.111997
  33 H :    0.127988
  34 H :    0.127247
  35 H :    0.122892
  36 H :    0.117322
  37 H :    0.108972
  38 H :    0.123057
  39 H :    0.130665
  40 H :    0.119856

  Mayer bond orders larger than 0.100000
B(  0-C ,  1-C ) :   1.1670 B(  0-C , 19-H ) :   0.9377 B(  0-C , 20-H ) :   0.9445
B(  0-C , 21-H ) :   0.9352 B(  1-C ,  2-O ) :   0.9088 B(  1-C , 22-H ) :   0.9143
B(  1-C , 23-H ) :   0.9337 B(  2-O ,  3-P ) :   1.1003 B(  3-P ,  4-S ) :   1.5916
B(  3-P ,  5-O ) :   1.1006 B(  3-P ,  8-S ) :   0.9845 B(  4-S ,  8-S ) :   0.1115
B(  5-O ,  6-C ) :   0.8942 B(  6-C ,  7-C ) :   1.1611 B(  6-C , 24-H ) :   0.9169
B(  6-C , 25-H ) :   0.9175 B(  7-C , 26-H ) :   0.9468 B(  7-C , 27-H ) :   0.9353
B(  7-C , 28-H ) :   0.9401 B(  8-S ,  9-C ) :   0.9771 B(  9-C , 10-S ) :   1.0047
B(  9-C , 29-H ) :   0.9066 B(  9-C , 30-H ) :   0.9040 B( 10-S , 11-P ) :   0.9593
B( 11-P , 12-S ) :   1.6286 B( 11-P , 13-O ) :   1.1287 B( 11-P , 16-O ) :   1.0739
B( 13-O , 14-C ) :   0.8961 B( 14-C , 15-C ) :   1.1631 B( 14-C , 31-H ) :   0.9101
B( 14-C , 32-H ) :   0.9331 B( 15-C , 33-H ) :   0.9435 B( 15-C , 34-H ) :   0.9397
B( 15-C , 35-H ) :   0.9477 B( 16-O , 17-C ) :   0.9195 B( 17-C , 18-C ) :   1.1622
B( 17-C , 36-H ) :   0.9337 B( 17-C , 37-H ) :   0.9144 B( 18-C , 38-H ) :   0.9457
B( 18-C , 39-H ) :   0.9388 B( 18-C , 40-H ) :   0.9366

Dispersion correction           -0.068527353
FINAL SINGLE POINT ENERGY     -2929.519979298067

DIPOLE MOMENT
-------------

Method             : SCF
Type of density    : Electron Density
Multiplicity       :   1
Irrep              :   0
Energy             : -2929.6374500088959394 Eh
Relativity type    :
Basis              : AO
                                X                 Y                 Z
Electronic contribution:     -3.763477360      -3.131063911      -7.416164630
Nuclear contribution   :      3.628549846       2.494618195       8.470577182
                        -----------------------------------------
Total Dipole Moment    :     -0.134927513      -0.636445716       1.054412552
                        -----------------------------------------
Magnitude (a.u.)       :      1.238973129
Magnitude (Debye)      :      3.149219420

Rotational constants in cm-1:             0.012800             0.005360             0.005291
Rotational constants in MHz :           383.737670           160.690816           158.605341

                             ****ORCA TERMINATED NORMALLY****
TOTAL RUN TIME: 0 days 0 hours 0 minutes 22 seconds 115 msec
