                         Program Version 6.0.0  -   RELEASE  -
|  1> ! pbe def2-sv(p) def2/J RI DEFGRID1 loosescf d4 GCP(DFT/SV(P)) printgap
|  2> %output
|  3>     printlevel normal
|  4> end
|  5> * xyz 0 1
|  6> C 5.4530399067 -0.7289273065 -0.9196679559
|  7> C 4.7854339366 -0.2035882374 0.3363472845
|  8> O 3.4525978713 -0.7331513872 0.4874981863
|  9> P 2.1717423815 -0.0756320066 -0.185968897
| 10> S 2.0547234689 -0.0929210225 -2.1444216636
| 11> O 2.1545258484 1.3692519946 0.4838365939
| 12> C 1.8753187148 2.6019744702 -0.1985337338
| 13> C 3.1621122747 3.3677153146 -0.4323698291
| 14> S 0.809741685 -1.2628787133 0.890978874
| 15> C -0.2314559389 -1.9054800467 -0.473027644
| 16> S -1.9781354276 -1.9024712122 -0.0333508036
| 17> P -2.1822166383 0.1927037986 0.2876396785
| 18> S -1.1535101449 1.3496455171 -0.9125210487
| 19> O -1.8058688849 0.4691702637 1.7918713835
| 20> C -2.0483236765 -0.4059096573 2.921215204
| 21> C -3.503419773 -0.796672212 3.0572505748
| 22> O -3.7483327442 0.4504540237 0.2662910359
| 23> C -4.4802481412 0.7263833744 -0.9406182728
| 24> C -4.5175039875 -0.4630604829 -1.8783475718
| 25> H 5.4646075646 -1.8152895072 -0.9083188089
| 26> H 4.9134774209 -0.3987947752 -1.8050638366
| 27> H 6.4722254339 -0.3584084094 -0.9655263651
| 28> H 4.7380789242 0.8887733917 0.3338437467
| 29> H 5.3064425003 -0.5434236804 1.2334942198
| 30> H 1.3722340717 2.3867474116 -1.1464129031
| 31> H 1.1884395809 3.1464370219 0.4518330374
| 32> H 3.8028239668 2.8177790111 -1.1194617857
| 33> H 2.9238631706 4.3317075688 -0.8698401344
| 34> H 3.6859933437 3.5186479225 0.507862739
| 35> H 0.0354498654 -2.94189173 -0.6632114356
| 36> H -0.0620894359 -1.2850133579 -1.3577721281
| 37> H -1.4084070991 -1.286262739 2.8086153867
| 38> H -1.7062877126 0.1879471507 3.7699848848
| 39> H -3.6308917496 -1.3674303627 3.9718420418
| 40> H -4.1293159021 0.0909839926 3.095282698
| 41> H -3.8101910682 -1.4087272817 2.2114538418
| 42> H -5.4769360431 0.9887841838 -0.5831737727
| 43> H -4.0224847568 1.5901903368 -1.4332035599
| 44> H -4.8587005805 -1.3507614729 -1.3522431315
| 45> H -5.1923334036 -0.2483409503 -2.7007870344
| 46> H -3.5238219181 -0.6529766118 -2.2810707672
| 47> *
| 48>
| 49>                          ****END OF INPUT****

CARTESIAN COORDINATES (ANGSTROEM)
---------------------------------
  C      5.453040   -0.728927   -0.919668
  C      4.785434   -0.203588    0.336347
  O      3.452598   -0.733151    0.487498
  P      2.171742   -0.075632   -0.185969
  S      2.054723   -0.092921   -2.144422
  O      2.154526    1.369252    0.483837
  C      1.875319    2.601974   -0.198534
  C      3.162112    3.367715   -0.432370
  S      0.809742   -1.262879    0.890979
  C     -0.231456   -1.905480   -0.473028
  S     -1.978135   -1.902471   -0.033351
  P     -2.182217    0.192704    0.287640
  S     -1.153510    1.349646   -0.912521
  O     -1.805869    0.469170    1.791871
  C     -2.048324   -0.405910    2.921215
  C     -3.503420   -0.796672    3.057251
  O     -3.748333    0.450454    0.266291
  C     -4.480248    0.726383   -0.940618
  C     -4.517504   -0.463060   -1.878348
  H      5.464608   -1.815290   -0.908319
  H      4.913477   -0.398795   -1.805064
  H      6.472225   -0.358408   -0.965526
  H      4.738079    0.888773    0.333844
  H      5.306443   -0.543424    1.233494
  H      1.372234    2.386747   -1.146413
  H      1.188440    3.146437    0.451833
  H      3.802824    2.817779   -1.119462
  H      2.923863    4.331708   -0.869840
  H      3.685993    3.518648    0.507863
  H      0.035450   -2.941892   -0.663211
  H     -0.062089   -1.285013   -1.357772
  H     -1.408407   -1.286263    2.808615
  H     -1.706288    0.187947    3.769985
  H     -3.630892   -1.367430    3.971842
  H     -4.129316    0.090984    3.095283
  H     -3.810191   -1.408727    2.211454
  H     -5.476936    0.988784   -0.583174
  H     -4.022485    1.590190   -1.433204
  H     -4.858701   -1.350761   -1.352243
  H     -5.192333   -0.248341   -2.700787
  H     -3.523822   -0.652977   -2.281071

 Total Charge           Charge          ....    0
 Multiplicity           Mult            ....    1
 Number of Electrons    NEL             ....  202
 Basis Dimension        Dim             ....  334

ORBITAL ENERGIES
----------------

  NO   OCC          E(Eh)            E(eV)
   0   2.0000     -88.046987     -2395.8803
   1   2.0000     -88.036627     -2395.5984
   2   2.0000     -87.984047     -2394.1676
   3   2.0000     -87.980555     -2394.0726
   4   2.0000     -76.425918     -2079.6550
   5   2.0000     -76.421025     -2079.5218
   6   2.0000     -18.793435      -511.3954
   7   2.0000     -18.788534      -511.2620
   8   2.0000     -18.783782      -511.1327
   9   2.0000     -18.783250      -511.1182
  10   2.0000      -9.954163      -270.8666
  11   2.0000      -9.952952      -270.8336
  12   2.0000      -9.952311      -270.8161
  13   2.0000      -9.950665      -270.7714
  14   2.0000      -9.939844      -270.4769
  15   2.0000      -9.887354      -269.0486
  16   2.0000      -9.884222      -268.9633
  17   2.0000      -9.880516      -268.8625
  18   2.0000      -9.878120      -268.7973
  19   2.0000      -7.691727      -209.3025
  20   2.0000      -7.681700      -209.0297
  21   2.0000      -7.628929      -207.5937
  22   2.0000      -7.625428      -207.4984
  23   2.0000      -6.423028      -174.7795
  24   2.0000      -6.418594      -174.6588
  25   2.0000      -5.719565      -155.6373
  26   2.0000      -5.716105      -155.5431
  27   2.0000      -5.709710      -155.3691
  28   2.0000      -5.708930      -155.3479
  29   2.0000      -5.706378      -155.2784
  30   2.0000      -5.698302      -155.0587
  31   2.0000      -5.657751      -153.9552
  32   2.0000      -5.654408      -153.8643
  33   2.0000      -5.649899      -153.7416
  34   2.0000      -5.648813      -153.7120
  35   2.0000      -5.645872      -153.6320
  36   2.0000      -5.645670      -153.6265
  37   2.0000      -4.645761      -126.4176
  38   2.0000      -4.644944      -126.3954
  39   2.0000      -4.643269      -126.3498
  40   2.0000      -4.641120      -126.2913
  41   2.0000      -4.639971      -126.2600
  42   2.0000      -4.639514      -126.2476
  43   2.0000      -0.986153       -26.8346
  44   2.0000      -0.978516       -26.6268
  45   2.0000      -0.944569       -25.7030
  46   2.0000      -0.935445       -25.4548
  47   2.0000      -0.761601       -20.7242
  48   2.0000      -0.720011       -19.5925
  49   2.0000      -0.708883       -19.2897
  50   2.0000      -0.690221       -18.7819
  51   2.0000      -0.681512       -18.5449
  52   2.0000      -0.672324       -18.2949
  53   2.0000      -0.649724       -17.6799
  54   2.0000      -0.633050       -17.2262
  55   2.0000      -0.598858       -16.2957
  56   2.0000      -0.588439       -16.0122
  57   2.0000      -0.575786       -15.6679
  58   2.0000      -0.569759       -15.5039
  59   2.0000      -0.557255       -15.1637
  60   2.0000      -0.498278       -13.5588
  61   2.0000      -0.489065       -13.3081
  62   2.0000      -0.471294       -12.8246
  63   2.0000      -0.470130       -12.7929
  64   2.0000      -0.448006       -12.1909
  65   2.0000      -0.447344       -12.1728
  66   2.0000      -0.441921       -12.0253
  67   2.0000      -0.432875       -11.7791
  68   2.0000      -0.425935       -11.5903
  69   2.0000      -0.413461       -11.2509
  70   2.0000      -0.407610       -11.0916
  71   2.0000      -0.397234       -10.8093
  72   2.0000      -0.393348       -10.7035
  73   2.0000      -0.383426       -10.4335
  74   2.0000      -0.378709       -10.3052
  75   2.0000      -0.370621       -10.0851
  76   2.0000      -0.365532        -9.9466
  77   2.0000      -0.358965        -9.7679
  78   2.0000      -0.352433        -9.5902
  79   2.0000      -0.347756        -9.4629
  80   2.0000      -0.347071        -9.4443
  81   2.0000      -0.343888        -9.3577
  82   2.0000      -0.337376        -9.1805
  83   2.0000      -0.334502        -9.1023
  84   2.0000      -0.333441        -9.0734
  85   2.0000      -0.312614        -8.5067
  86   2.0000      -0.306735        -8.3467
  87   2.0000      -0.292319        -7.9544
  88   2.0000      -0.291278        -7.9261
  89   2.0000      -0.286192        -7.7877
  90   2.0000      -0.282457        -7.6860
  91   2.0000      -0.273054        -7.4302
  92   2.0000      -0.271691        -7.3931
  93   2.0000      -0.262229        -7.1356
  94   2.0000      -0.257702        -7.0124
  95   2.0000      -0.232782        -6.3343
  96   2.0000      -0.218903        -5.9567
  97   2.0000      -0.212056        -5.7703
  98   2.0000      -0.197535        -5.3752
  99   2.0000      -0.195953        -5.3322
 100   2.0000      -0.187500        -5.1021
 101   0.0000      -0.043548        -1.1850
 102   0.0000      -0.032225        -0.8769
 103   0.0000      -0.006436        -0.1751
 104   0.0000       0.011225         0.3054
 105   0.0000       0.020526         0.5585

MULLIKEN ATOMIC CHARGES
-----------------------
   0 C :   -0.297929
   1 C :   -0.019299
   2 O :   -0.372628
   3 P :    0.652062
   4 S :   -0.325903
   5 O :   -0.381703
   6 C :   -0.020750
   7 C :   -0.288685
   8 S :   -0.105671
   9 C :   -0.342773
  10 S :   -0.118095
  11 P :    0.599356
  12 S :   -0.318325
  13 O :   -0.351052
  14 C :   -0.001289
  15 C :   -0.306651
  16 O :   -0.372002
  17 C :   -0.000809
  18 C :   -0.319190
  19 H :    0.115287
  20 H :    0.129199
  21 H :    0.105236
  22 H :    0.105742
  23 H :    0.106025
  24 H :    0.130103
  25 H :    0.108516
  26 H :    0.114243
  27 H :    0.112251
  28 H :    0.113384
  29 H :    0.181898
  30 H :    0.212999
  31 H :    0.111721
  32 H :    0.109971
  33 H :    0.113444
  34 H :    0.122258
  35 H :    0.118689
  36 H :    0.104520
  37 H :    0.114188
  38 H :    0.115411
  39 H :    0.114326
  40 H :    0.131925
Sum of atomic charges:    0.0000000

LOEWDIN ATOMIC CHARGES
----------------------
   0 C :   -0.364581
   1 C :   -0.114883
   2 O :   -0.248936
   3 P :    0.571390
   4 S :   -0.302167
   5 O :   -0.242887
   6 C :   -0.123386
   7 C :   -0.360267
   8 S :    0.084704
   9 C :   -0.476615
  10 S :    0.077785
  11 P :    0.569865
  12 S :   -0.301769
  13 O :   -0.231387
  14 C :   -0.114736
  15 C :   -0.366556
  16 O :   -0.242467
  17 C :   -0.117286
  18 C :   -0.370849
  19 H :    0.127278
  20 H :    0.122542
  21 H :    0.127144
  22 H :    0.108911
  23 H :    0.119197
  24 H :    0.105257
  25 H :    0.117907
  26 H :    0.121075
  27 H :    0.131196
  28 H :    0.122266
  29 H :    0.135657
  30 H :    0.124338
  31 H :    0.103200
  32 H :    0.123173
  33 H :    0.131420
  34 H :    0.128823
  35 H :    0.116622
  36 H :    0.118541
  37 H :    0.113188
  38 H :    0.122546
  39 H :    0.131780
  40 H :    0.122967

  Mayer bond orders larger than 0.100000
B(  0-C ,  1-C ) :   1.1666 B(  0-C , 19-H ) :   0.9471 B(  0-C , 20-H ) :   0.9325
B(  0-C , 21-H ) :   0.9396 B(  1-C ,  2-O ) :   0.9113 B(  1-C , 22-H ) :   0.9150
B(  1-C , 23-H ) :   0.9359 B(  2-O ,  3-P ) :   1.1145 B(  3-P ,  4-S ) :   1.6096
B(  3-P ,  5-O ) :   1.1112 B(  3-P ,  8-S ) :   0.9549 B(  4-S ,  8-S ) :   0.1152
B(  5-O ,  6-C ) :   0.9020 B(  6-C ,  7-C ) :   1.1579 B(  6-C , 24-H ) :   0.9008
B(  6-C , 25-H ) :   0.9336 B(  7-C , 26-H ) :   0.9380 B(  7-C , 27-H ) :   0.9399
B(  7-C , 28-H ) :   0.9442 B(  8-S ,  9-C ) :   0.9993 B(  9-C , 10-S ) :   1.0029
B(  9-C , 29-H ) :   0.9095 B(  9-C , 30-H ) :   0.8486 B( 10-S , 11-P ) :   0.9349
B( 10-S , 12-S ) :   0.1052 B( 11-P , 12-S ) :   1.6247 B( 11-P , 13-O ) :   1.1475
B( 11-P , 16-O ) :   1.0972 B( 13-O , 14-C ) :   0.9001 B( 14-C , 15-C ) :   1.1688
B( 14-C , 31-H ) :   0.9137 B( 14-C , 32-H ) :   0.9342 B( 15-C , 33-H ) :   0.9363
B( 15-C , 34-H ) :   0.9430 B( 15-C , 35-H ) :   0.9377 B( 16-O , 17-C ) :   0.9054
B( 17-C , 18-C ) :   1.1657 B( 17-C , 36-H ) :   0.9341 B( 17-C , 37-H ) :   0.9159
B( 18-C , 38-H ) :   0.9448 B( 18-C , 39-H ) :   0.9373 B( 18-C , 40-H ) :   0.9348

Dispersion correction           -0.066294395
FINAL SINGLE POINT ENERGY     -2929.516576303433

DIPOLE MOMENT
-------------

Method             : SCF
Type of density    : Electron Density
Multiplicity       :   1
Irrep              :   0
Energy             : -2929.6349604118749994 Eh
Relativity type    :
Basis              : AO
                                X                 Y                 Z
Electronic contribution:     -2.334216033      -5.923424702      -0.316372221
Nuclear contribution   :      1.971315600       5.875421658       1.141737084
                        -----------------------------------------
Total Dipole Moment    :     -0.362900433      -0.048003044       0.825364863
                        -----------------------------------------
Magnitude (a.u.)       :      0.902899869
Magnitude (Debye)      :      2.294989082

Rotational constants in cm-1:             0.013769             0.004729             0.004522
Rotational constants in MHz :           412.772240           141.775102           135.571734

                             ****ORCA TERMINATED NORMALLY****
TOTAL RUN TIME: 0 days 0 hours 0 minutes 20 seconds 736 msec
