                         Program Version 6.0.0  -   RELEASE  -
|  1> ! pbe def2-sv(p) def2/J RI DEFGRID1 loosescf d4 GCP(DFT/SV(P)) printgap
|  2> %output
|  3>     printlevel normal
|  4> end
|  5> * xyz 0 1
|  6> C 5.7895678013 -0.3425955611 0.2424133644
|  7> C 4.4470592237 -0.7625988774 -0.3211516382
|  8> O 3.4280060385 0.0267591244 0.3231776786
|  9> P 1.9676334954 0.1610994456 -0.2915074992
| 10> S 1.9356745794 0.5887982153 -2.2084635623
| 11> O 1.311349602 1.1839619039 0.7186127062
| 12> C 1.3513611255 2.6097255331 0.5120666129
| 13> C 2.7610638063 3.1534039683 0.5908487819
| 14> S 1.1012703739 -1.6693724061 0.2768848043
| 15> C -0.1358234957 -1.8966214924 -1.0479140748
| 16> S -1.8257090493 -1.9993990144 -0.4222822884
| 17> P -2.0453447479 0.0337429806 0.1597331104
| 18> S -1.4555692126 1.373462366 -1.1381525353
| 19> O -1.2825035669 0.173064685 1.5316607142
| 20> C -1.4536083779 -0.7069188974 2.6710222862
| 21> C -2.5265770342 -0.189595966 3.6059124361
| 22> O -3.5720330982 0.134182955 0.5882124009
| 23> C -4.6255196705 0.4289082042 -0.3470593099
| 24> C -4.8397556127 -0.689212305 -1.3462737981
| 25> H 5.9785567076 0.7042496696 0.0222007171
| 26> H 5.7982312338 -0.4833147748 1.3192387622
| 27> H 6.5687360551 -0.9491808179 -0.2070844317
| 28> H 4.2408919205 -1.8169199185 -0.1174857498
| 29> H 4.3901783605 -0.5890286403 -1.4012155605
| 30> H 0.8975958783 2.8315915819 -0.4599296685
| 31> H 0.7128314217 3.001381667 1.3054899385
| 32> H 3.3505130598 2.7681053999 -0.2404955108
| 33> H 2.7306926191 4.2367999699 0.5298298438
| 34> H 3.2275257217 2.8519256591 1.5250772329
| 35> H 0.0653231514 -2.8481309526 -1.5330329927
| 36> H -0.0454659025 -1.0669801036 -1.7549514926
| 37> H -1.6926039851 -1.7115092795 2.3103970046
| 38> H -0.4715136852 -0.7134545223 3.1483839021
| 39> H -2.2980745661 0.8280331524 3.9108483847
| 40> H -3.4945643457 -0.1997574394 3.1125498042
| 41> H -2.5645168991 -0.8269730955 4.4838537188
| 42> H -5.5008967229 0.5752193106 0.2872193858
| 43> H -4.3781849448 1.3630965826 -0.8605929557
| 44> H -3.9894504633 -0.7546127145 -2.0230659009
| 45> H -4.953279919 -1.6403565887 -0.8323316615
| 46> H -5.7334491915 -0.4827336727 -1.9263808009
| 47> *
| 48>
| 49>                          ****END OF INPUT****

CARTESIAN COORDINATES (ANGSTROEM)
---------------------------------
  C      5.789568   -0.342596    0.242413
  C      4.447059   -0.762599   -0.321152
  O      3.428006    0.026759    0.323178
  P      1.967633    0.161099   -0.291507
  S      1.935675    0.588798   -2.208464
  O      1.311350    1.183962    0.718613
  C      1.351361    2.609726    0.512067
  C      2.761064    3.153404    0.590849
  S      1.101270   -1.669372    0.276885
  C     -0.135823   -1.896621   -1.047914
  S     -1.825709   -1.999399   -0.422282
  P     -2.045345    0.033743    0.159733
  S     -1.455569    1.373462   -1.138153
  O     -1.282504    0.173065    1.531661
  C     -1.453608   -0.706919    2.671022
  C     -2.526577   -0.189596    3.605912
  O     -3.572033    0.134183    0.588212
  C     -4.625520    0.428908   -0.347059
  C     -4.839756   -0.689212   -1.346274
  H      5.978557    0.704250    0.022201
  H      5.798231   -0.483315    1.319239
  H      6.568736   -0.949181   -0.207084
  H      4.240892   -1.816920   -0.117486
  H      4.390178   -0.589029   -1.401216
  H      0.897596    2.831592   -0.459930
  H      0.712831    3.001382    1.305490
  H      3.350513    2.768105   -0.240496
  H      2.730693    4.236800    0.529830
  H      3.227526    2.851926    1.525077
  H      0.065323   -2.848131   -1.533033
  H     -0.045466   -1.066980   -1.754951
  H     -1.692604   -1.711509    2.310397
  H     -0.471514   -0.713455    3.148384
  H     -2.298075    0.828033    3.910848
  H     -3.494564   -0.199757    3.112550
  H     -2.564517   -0.826973    4.483854
  H     -5.500897    0.575219    0.287219
  H     -4.378185    1.363097   -0.860593
  H     -3.989450   -0.754613   -2.023066
  H     -4.953280   -1.640357   -0.832332
  H     -5.733449   -0.482734   -1.926381

 Total Charge           Charge          ....    0
 Multiplicity           Mult            ....    1
 Number of Electrons    NEL             ....  202
 Basis Dimension        Dim             ....  334

ORBITAL ENERGIES
----------------

  NO   OCC          E(Eh)            E(eV)
   0   2.0000     -88.044223     -2395.8051
   1   2.0000     -88.039930     -2395.6883
   2   2.0000     -87.981373     -2394.0949
   3   2.0000     -87.980080     -2394.0597
   4   2.0000     -76.424185     -2079.6078
   5   2.0000     -76.419563     -2079.4820
   6   2.0000     -18.795413      -511.4492
   7   2.0000     -18.788090      -511.2499
   8   2.0000     -18.787843      -511.2432
   9   2.0000     -18.779997      -511.0297
  10   2.0000      -9.954099      -270.8648
  11   2.0000      -9.953939      -270.8604
  12   2.0000      -9.950636      -270.7706
  13   2.0000      -9.947747      -270.6919
  14   2.0000      -9.938946      -270.4525
  15   2.0000      -9.885695      -269.0034
  16   2.0000      -9.885164      -268.9890
  17   2.0000      -9.883963      -268.9563
  18   2.0000      -9.875585      -268.7283
  19   2.0000      -7.689249      -209.2351
  20   2.0000      -7.685198      -209.1249
  21   2.0000      -7.626327      -207.5229
  22   2.0000      -7.625006      -207.4870
  23   2.0000      -6.421690      -174.7431
  24   2.0000      -6.417241      -174.6220
  25   2.0000      -5.717020      -155.5680
  26   2.0000      -5.713597      -155.4749
  27   2.0000      -5.713043      -155.4598
  28   2.0000      -5.709689      -155.3685
  29   2.0000      -5.706480      -155.2812
  30   2.0000      -5.702150      -155.1634
  31   2.0000      -5.655333      -153.8894
  32   2.0000      -5.653854      -153.8492
  33   2.0000      -5.646772      -153.6565
  34   2.0000      -5.646545      -153.6503
  35   2.0000      -5.645830      -153.6309
  36   2.0000      -5.645044      -153.6095
  37   2.0000      -4.644567      -126.3851
  38   2.0000      -4.643466      -126.3551
  39   2.0000      -4.641860      -126.3114
  40   2.0000      -4.639501      -126.2472
  41   2.0000      -4.638923      -126.2315
  42   2.0000      -4.638028      -126.2072
  43   2.0000      -0.986896       -26.8548
  44   2.0000      -0.980188       -26.6723
  45   2.0000      -0.944428       -25.6992
  46   2.0000      -0.937640       -25.5145
  47   2.0000      -0.761383       -20.7183
  48   2.0000      -0.718967       -19.5641
  49   2.0000      -0.707615       -19.2552
  50   2.0000      -0.689830       -18.7712
  51   2.0000      -0.682932       -18.5835
  52   2.0000      -0.672314       -18.2946
  53   2.0000      -0.647883       -17.6298
  54   2.0000      -0.630869       -17.1668
  55   2.0000      -0.597797       -16.2669
  56   2.0000      -0.589359       -16.0373
  57   2.0000      -0.574038       -15.6204
  58   2.0000      -0.562956       -15.3188
  59   2.0000      -0.557137       -15.1605
  60   2.0000      -0.501156       -13.6371
  61   2.0000      -0.494425       -13.4540
  62   2.0000      -0.473833       -12.8937
  63   2.0000      -0.467688       -12.7264
  64   2.0000      -0.449799       -12.2396
  65   2.0000      -0.444170       -12.0865
  66   2.0000      -0.441977       -12.0268
  67   2.0000      -0.430845       -11.7239
  68   2.0000      -0.425517       -11.5789
  69   2.0000      -0.417279       -11.3547
  70   2.0000      -0.410334       -11.1657
  71   2.0000      -0.393731       -10.7140
  72   2.0000      -0.387206       -10.5364
  73   2.0000      -0.381324       -10.3764
  74   2.0000      -0.378881       -10.3099
  75   2.0000      -0.369616       -10.0578
  76   2.0000      -0.365126        -9.9356
  77   2.0000      -0.357440        -9.7264
  78   2.0000      -0.353507        -9.6194
  79   2.0000      -0.351536        -9.5658
  80   2.0000      -0.346878        -9.4390
  81   2.0000      -0.340881        -9.2758
  82   2.0000      -0.337873        -9.1940
  83   2.0000      -0.336253        -9.1499
  84   2.0000      -0.331110        -9.0100
  85   2.0000      -0.315368        -8.5816
  86   2.0000      -0.307855        -8.3772
  87   2.0000      -0.296475        -8.0675
  88   2.0000      -0.294103        -8.0029
  89   2.0000      -0.289919        -7.8891
  90   2.0000      -0.275751        -7.5036
  91   2.0000      -0.270209        -7.3528
  92   2.0000      -0.262992        -7.1564
  93   2.0000      -0.260810        -7.0970
  94   2.0000      -0.256397        -6.9769
  95   2.0000      -0.236550        -6.4369
  96   2.0000      -0.220519        -6.0006
  97   2.0000      -0.213899        -5.8205
  98   2.0000      -0.202256        -5.5037
  99   2.0000      -0.192550        -5.2396
 100   2.0000      -0.184374        -5.0171
 101   0.0000      -0.037567        -1.0222
 102   0.0000      -0.027575        -0.7504
 103   0.0000      -0.008967        -0.2440
 104   0.0000       0.013637         0.3711
 105   0.0000       0.025015         0.6807

MULLIKEN ATOMIC CHARGES
-----------------------
   0 C :   -0.280995
   1 C :   -0.008986
   2 O :   -0.379253
   3 P :    0.612789
   4 S :   -0.320313
   5 O :   -0.351468
   6 C :   -0.001396
   7 C :   -0.304916
   8 S :   -0.104636
   9 C :   -0.354901
  10 S :   -0.104614
  11 P :    0.598853
  12 S :   -0.300382
  13 O :   -0.343082
  14 C :   -0.011676
  15 C :   -0.288016
  16 O :   -0.380016
  17 C :   -0.000387
  18 C :   -0.321424
  19 H :    0.119730
  20 H :    0.115261
  21 H :    0.110633
  22 H :    0.098012
  23 H :    0.103329
  24 H :    0.123884
  25 H :    0.101371
  26 H :    0.121140
  27 H :    0.109026
  28 H :    0.112243
  29 H :    0.182767
  30 H :    0.210015
  31 H :    0.101023
  32 H :    0.109272
  33 H :    0.116626
  34 H :    0.120573
  35 H :    0.108071
  36 H :    0.104396
  37 H :    0.113078
  38 H :    0.132347
  39 H :    0.116884
  40 H :    0.115139
Sum of atomic charges:   -0.0000000

LOEWDIN ATOMIC CHARGES
----------------------
   0 C :   -0.350393
   1 C :   -0.123180
   2 O :   -0.249140
   3 P :    0.568732
   4 S :   -0.313619
   5 O :   -0.228580
   6 C :   -0.117269
   7 C :   -0.366860
   8 S :    0.074395
   9 C :   -0.479167
  10 S :    0.078260
  11 P :    0.564963
  12 S :   -0.290973
  13 O :   -0.226404
  14 C :   -0.118658
  15 C :   -0.360621
  16 O :   -0.247150
  17 C :   -0.117484
  18 C :   -0.371645
  19 H :    0.127797
  20 H :    0.126270
  21 H :    0.130116
  22 H :    0.107371
  23 H :    0.106552
  24 H :    0.109859
  25 H :    0.118295
  26 H :    0.120482
  27 H :    0.129154
  28 H :    0.123776
  29 H :    0.137606
  30 H :    0.126874
  31 H :    0.100825
  32 H :    0.119550
  33 H :    0.127249
  34 H :    0.124741
  35 H :    0.128818
  36 H :    0.118091
  37 H :    0.112962
  38 H :    0.123201
  39 H :    0.122951
  40 H :    0.132253

  Mayer bond orders larger than 0.100000
B(  0-C ,  1-C ) :   1.1597 B(  0-C , 19-H ) :   0.9517 B(  0-C , 20-H ) :   0.9505
B(  0-C , 21-H ) :   0.9423 B(  1-C ,  2-O ) :   0.9080 B(  1-C , 22-H ) :   0.9275
B(  1-C , 23-H ) :   0.9073 B(  2-O ,  3-P ) :   1.0924 B(  3-P ,  4-S ) :   1.6058
B(  3-P ,  5-O ) :   1.1560 B(  3-P ,  8-S ) :   0.9622 B(  4-S ,  8-S ) :   0.1165
B(  5-O ,  6-C ) :   0.8999 B(  6-C ,  7-C ) :   1.1591 B(  6-C , 24-H ) :   0.9127
B(  6-C , 25-H ) :   0.9360 B(  7-C , 26-H ) :   0.9350 B(  7-C , 27-H ) :   0.9388
B(  7-C , 28-H ) :   0.9447 B(  8-S ,  9-C ) :   0.9931 B(  9-C , 10-S ) :   1.0010
B(  9-C , 29-H ) :   0.9119 B(  9-C , 30-H ) :   0.8477 B( 10-S , 11-P ) :   0.9439
B( 10-S , 12-S ) :   0.1043 B( 11-P , 12-S ) :   1.6438 B( 11-P , 13-O ) :   1.1497
B( 11-P , 16-O ) :   1.0831 B( 13-O , 14-C ) :   0.8930 B( 14-C , 15-C ) :   1.1629
B( 14-C , 31-H ) :   0.9088 B( 14-C , 32-H ) :   0.9331 B( 15-C , 33-H ) :   0.9476
B( 15-C , 34-H ) :   0.9407 B( 15-C , 35-H ) :   0.9398 B( 16-O , 17-C ) :   0.9052
B( 17-C , 18-C ) :   1.1660 B( 17-C , 36-H ) :   0.9340 B( 17-C , 37-H ) :   0.9162
B( 18-C , 38-H ) :   0.9346 B( 18-C , 39-H ) :   0.9438 B( 18-C , 40-H ) :   0.9373

Dispersion correction           -0.066943591
FINAL SINGLE POINT ENERGY     -2929.521602896904

DIPOLE MOMENT
-------------

Method             : SCF
Type of density    : Electron Density
Multiplicity       :   1
Irrep              :   0
Energy             : -2929.6401526722006565 Eh
Relativity type    :
Basis              : AO
                                X                 Y                 Z
Electronic contribution:     -3.031359192      -5.244416592      -9.137984789
Nuclear contribution   :      2.738342811       4.661308277      10.208884531
                        -----------------------------------------
Total Dipole Moment    :     -0.293016380      -0.583108315       1.070899742
                        -----------------------------------------
Magnitude (a.u.)       :      1.254073428
Magnitude (Debye)      :      3.187601332

Rotational constants in cm-1:             0.013358             0.004947             0.004922
Rotational constants in MHz :           400.453282           148.319759           147.559900

                             ****ORCA TERMINATED NORMALLY****
TOTAL RUN TIME: 0 days 0 hours 0 minutes 21 seconds 506 msec
