                         Program Version 6.0.0  -   RELEASE  -
|  1> ! pbe def2-sv(p) def2/J RI DEFGRID1 loosescf d4 GCP(DFT/SV(P)) printgap
|  2> %output
|  3>     printlevel normal
|  4> end
|  5> * xyz 0 1
|  6> C 3.5338048354 -2.6245907358 -1.9081169863
|  7> C 4.5537567177 -1.838776756 -1.1120266737
|  8> O 4.1395638225 -0.4704322845 -0.8754222785
|  9> P 2.8935205992 -0.015840531 -0.0291480157
| 10> S 3.0932166423 1.873205137 0.4547812807
| 11> O 2.898714608 -1.0976737818 1.1396416651
| 12> C 1.808227999 -1.3368324034 2.0448219881
| 13> C 1.6389218527 -0.2197634734 3.0543778452
| 14> S 1.1427882109 -0.4585644836 -1.1813114455
| 15> C 0.202780896 1.0531999854 -0.8743086705
| 16> S -0.8387914137 0.9536323752 0.6008166173
| 17> P -2.7151955768 0.4913315928 -0.3311249754
| 18> S -2.7194835009 0.3694339213 -2.2836893425
| 19> O -3.6964676469 1.6389355832 0.1181717549
| 20> C -3.923468807 2.0028009585 1.5025470987
| 21> C -5.1878589067 1.3538720778 2.027657717
| 22> O -3.2579890732 -0.7483272052 0.5054968414
| 23> C -2.5218361201 -1.9552332966 0.7738642867
| 24> C -1.9990440908 -2.619778886 -0.4825562427
| 25> H 3.9403922673 -3.6052443225 -2.1350306367
| 26> H 2.6150646839 -2.7459177693 -1.3371174486
| 27> H 3.2991078123 -2.1115454196 -2.8373576327
| 28> H 5.4887816933 -1.7217072179 -1.6620572317
| 29> H 4.7464994783 -2.3082654646 -0.1459080902
| 30> H 0.8936012942 -1.4734394281 1.4595208604
| 31> H 2.0784845209 -2.2754359353 2.5320833244
| 32> H 2.576758318 -0.0354219856 3.5718293217
| 33> H 1.3312124173 0.6988405256 2.5574780907
| 34> H 0.8784966654 -0.4992906641 3.776141052
| 35> H -0.4354040488 1.2142626261 -1.7450800968
| 36> H 0.904081373 1.8758320542 -0.7237842808
| 37> H -3.0498122206 1.7140671709 2.0938657265
| 38> H -4.0120516314 3.0906323296 1.4880036964
| 39> H -6.033583651 1.6334137412 1.4054444622
| 40> H -5.0902244035 0.271903693 2.0177128328
| 41> H -5.3636594651 1.6907931584 3.0444458573
| 42> H -1.7022387201 -1.7072330206 1.454700786
| 43> H -3.2472492172 -2.5900547246 1.2857086582
| 44> H -1.2535592438 -1.9902930549 -0.9686455186
| 45> H -1.5435580392 -3.5706821109 -0.2256071455
| 46> H -2.8104900084 -2.7888760988 -1.1863569015
| 47> *
| 48>
| 49>                          ****END OF INPUT****

CARTESIAN COORDINATES (ANGSTROEM)
---------------------------------
  C      3.533805   -2.624591   -1.908117
  C      4.553757   -1.838777   -1.112027
  O      4.139564   -0.470432   -0.875422
  P      2.893521   -0.015841   -0.029148
  S      3.093217    1.873205    0.454781
  O      2.898715   -1.097674    1.139642
  C      1.808228   -1.336832    2.044822
  C      1.638922   -0.219763    3.054378
  S      1.142788   -0.458564   -1.181311
  C      0.202781    1.053200   -0.874309
  S     -0.838791    0.953632    0.600817
  P     -2.715196    0.491332   -0.331125
  S     -2.719484    0.369434   -2.283689
  O     -3.696468    1.638936    0.118172
  C     -3.923469    2.002801    1.502547
  C     -5.187859    1.353872    2.027658
  O     -3.257989   -0.748327    0.505497
  C     -2.521836   -1.955233    0.773864
  C     -1.999044   -2.619779   -0.482556
  H      3.940392   -3.605244   -2.135031
  H      2.615065   -2.745918   -1.337117
  H      3.299108   -2.111545   -2.837358
  H      5.488782   -1.721707   -1.662057
  H      4.746499   -2.308265   -0.145908
  H      0.893601   -1.473439    1.459521
  H      2.078485   -2.275436    2.532083
  H      2.576758   -0.035422    3.571829
  H      1.331212    0.698841    2.557478
  H      0.878497   -0.499291    3.776141
  H     -0.435404    1.214263   -1.745080
  H      0.904081    1.875832   -0.723784
  H     -3.049812    1.714067    2.093866
  H     -4.012052    3.090632    1.488004
  H     -6.033584    1.633414    1.405444
  H     -5.090224    0.271904    2.017713
  H     -5.363659    1.690793    3.044446
  H     -1.702239   -1.707233    1.454701
  H     -3.247249   -2.590055    1.285709
  H     -1.253559   -1.990293   -0.968646
  H     -1.543558   -3.570682   -0.225607
  H     -2.810490   -2.788876   -1.186357

 Total Charge           Charge          ....    0
 Multiplicity           Mult            ....    1
 Number of Electrons    NEL             ....  202
 Basis Dimension        Dim             ....  334

ORBITAL ENERGIES
----------------

  NO   OCC          E(Eh)            E(eV)
   0   2.0000     -88.047068     -2395.8825
   1   2.0000     -88.046968     -2395.8798
   2   2.0000     -87.988867     -2394.2988
   3   2.0000     -87.986819     -2394.2431
   4   2.0000     -76.429927     -2079.7640
   5   2.0000     -76.429592     -2079.7549
   6   2.0000     -18.798996      -511.5467
   7   2.0000     -18.797987      -511.5192
   8   2.0000     -18.794284      -511.4185
   9   2.0000     -18.792721      -511.3759
  10   2.0000      -9.962761      -271.1005
  11   2.0000      -9.960975      -271.0519
  12   2.0000      -9.960646      -271.0429
  13   2.0000      -9.959788      -271.0196
  14   2.0000      -9.949436      -270.7379
  15   2.0000      -9.895201      -269.2621
  16   2.0000      -9.889698      -269.1124
  17   2.0000      -9.886464      -269.0244
  18   2.0000      -9.884358      -268.9670
  19   2.0000      -7.691413      -209.2940
  20   2.0000      -7.690951      -209.2814
  21   2.0000      -7.634075      -207.7338
  22   2.0000      -7.631949      -207.6759
  23   2.0000      -6.427293      -174.8955
  24   2.0000      -6.426914      -174.8852
  25   2.0000      -5.719140      -155.6257
  26   2.0000      -5.718782      -155.6160
  27   2.0000      -5.715871      -155.5368
  28   2.0000      -5.715388      -155.5236
  29   2.0000      -5.708732      -155.3425
  30   2.0000      -5.708262      -155.3297
  31   2.0000      -5.663192      -154.1033
  32   2.0000      -5.661030      -154.0445
  33   2.0000      -5.654674      -153.8715
  34   2.0000      -5.654019      -153.8537
  35   2.0000      -5.652346      -153.8082
  36   2.0000      -5.652135      -153.8024
  37   2.0000      -4.649981      -126.5324
  38   2.0000      -4.649805      -126.5276
  39   2.0000      -4.649253      -126.5126
  40   2.0000      -4.648699      -126.4975
  41   2.0000      -4.647483      -126.4644
  42   2.0000      -4.647090      -126.4537
  43   2.0000      -0.992556       -27.0088
  44   2.0000      -0.992402       -27.0046
  45   2.0000      -0.948882       -25.8204
  46   2.0000      -0.948003       -25.7965
  47   2.0000      -0.763292       -20.7702
  48   2.0000      -0.725867       -19.7518
  49   2.0000      -0.717033       -19.5114
  50   2.0000      -0.695564       -18.9272
  51   2.0000      -0.694921       -18.9098
  52   2.0000      -0.680569       -18.5192
  53   2.0000      -0.653601       -17.7854
  54   2.0000      -0.641566       -17.4579
  55   2.0000      -0.597302       -16.2534
  56   2.0000      -0.593587       -16.1523
  57   2.0000      -0.585122       -15.9220
  58   2.0000      -0.579279       -15.7630
  59   2.0000      -0.566173       -15.4064
  60   2.0000      -0.509020       -13.8511
  61   2.0000      -0.500830       -13.6283
  62   2.0000      -0.478169       -13.0116
  63   2.0000      -0.477779       -13.0010
  64   2.0000      -0.461134       -12.5481
  65   2.0000      -0.452429       -12.3112
  66   2.0000      -0.446489       -12.1496
  67   2.0000      -0.439474       -11.9587
  68   2.0000      -0.432370       -11.7654
  69   2.0000      -0.430158       -11.7052
  70   2.0000      -0.414706       -11.2847
  71   2.0000      -0.408594       -11.1184
  72   2.0000      -0.405837       -11.0434
  73   2.0000      -0.391587       -10.6556
  74   2.0000      -0.385130       -10.4799
  75   2.0000      -0.368913       -10.0386
  76   2.0000      -0.362127        -9.8540
  77   2.0000      -0.359608        -9.7854
  78   2.0000      -0.358595        -9.7579
  79   2.0000      -0.357253        -9.7214
  80   2.0000      -0.352741        -9.5986
  81   2.0000      -0.347890        -9.4666
  82   2.0000      -0.345985        -9.4147
  83   2.0000      -0.342431        -9.3180
  84   2.0000      -0.339864        -9.2482
  85   2.0000      -0.323793        -8.8109
  86   2.0000      -0.317569        -8.6415
  87   2.0000      -0.304317        -8.2809
  88   2.0000      -0.300583        -8.1793
  89   2.0000      -0.295446        -8.0395
  90   2.0000      -0.291063        -7.9202
  91   2.0000      -0.282432        -7.6854
  92   2.0000      -0.280206        -7.6248
  93   2.0000      -0.267743        -7.2856
  94   2.0000      -0.261255        -7.1091
  95   2.0000      -0.240405        -6.5417
  96   2.0000      -0.220642        -6.0040
  97   2.0000      -0.212050        -5.7702
  98   2.0000      -0.204061        -5.5528
  99   2.0000      -0.202382        -5.5071
 100   2.0000      -0.200144        -5.4462
 101   0.0000      -0.047723        -1.2986
 102   0.0000      -0.037430        -1.0185
 103   0.0000      -0.015770        -0.4291
 104   0.0000       0.001975         0.0537
 105   0.0000       0.005618         0.1529

MULLIKEN ATOMIC CHARGES
-----------------------
   0 C :   -0.331301
   1 C :    0.003032
   2 O :   -0.357384
   3 P :    0.613618
   4 S :   -0.303745
   5 O :   -0.380672
   6 C :   -0.032725
   7 C :   -0.304504
   8 S :   -0.121925
   9 C :   -0.336131
  10 S :   -0.128679
  11 P :    0.591948
  12 S :   -0.295326
  13 O :   -0.349788
  14 C :   -0.014934
  15 C :   -0.287926
  16 O :   -0.379400
  17 C :   -0.013479
  18 C :   -0.321307
  19 H :    0.118972
  20 H :    0.126847
  21 H :    0.133165
  22 H :    0.114083
  23 H :    0.112031
  24 H :    0.122242
  25 H :    0.103168
  26 H :    0.120193
  27 H :    0.134823
  28 H :    0.104977
  29 H :    0.195519
  30 H :    0.198432
  31 H :    0.101631
  32 H :    0.115515
  33 H :    0.122846
  34 H :    0.121063
  35 H :    0.110045
  36 H :    0.114370
  37 H :    0.107174
  38 H :    0.137714
  39 H :    0.108310
  40 H :    0.127510
Sum of atomic charges:   -0.0000000

LOEWDIN ATOMIC CHARGES
----------------------
   0 C :   -0.370335
   1 C :   -0.109128
   2 O :   -0.233705
   3 P :    0.567445
   4 S :   -0.294819
   5 O :   -0.245746
   6 C :   -0.122126
   7 C :   -0.367546
   8 S :    0.086367
   9 C :   -0.491478
  10 S :    0.068583
  11 P :    0.566912
  12 S :   -0.290440
  13 O :   -0.234836
  14 C :   -0.112861
  15 C :   -0.358879
  16 O :   -0.244743
  17 C :   -0.117324
  18 C :   -0.372347
  19 H :    0.134362
  20 H :    0.115936
  21 H :    0.131490
  22 H :    0.124542
  23 H :    0.115235
  24 H :    0.098896
  25 H :    0.117819
  26 H :    0.129246
  27 H :    0.116374
  28 H :    0.127547
  29 H :    0.127524
  30 H :    0.127384
  31 H :    0.102700
  32 H :    0.124034
  33 H :    0.130587
  34 H :    0.126118
  35 H :    0.129425
  36 H :    0.103959
  37 H :    0.120358
  38 H :    0.113066
  39 H :    0.129131
  40 H :    0.131274

  Mayer bond orders larger than 0.100000
B(  0-C ,  1-C ) :   1.1685 B(  0-C , 19-H ) :   0.9355 B(  0-C , 20-H ) :   0.9330
B(  0-C , 21-H ) :   0.9427 B(  1-C ,  2-O ) :   0.8993 B(  1-C , 22-H ) :   0.9334
B(  1-C , 23-H ) :   0.9270 B(  2-O ,  3-P ) :   1.1470 B(  3-P ,  4-S ) :   1.6526
B(  3-P ,  5-O ) :   1.0685 B(  3-P ,  8-S ) :   0.9340 B(  4-S ,  8-S ) :   0.1151
B(  4-S , 30-H ) :   0.1089 B(  5-O ,  6-C ) :   0.9157 B(  6-C ,  7-C ) :   1.1665
B(  6-C , 24-H ) :   0.9021 B(  6-C , 25-H ) :   0.9336 B(  7-C , 26-H ) :   0.9441
B(  7-C , 27-H ) :   0.9266 B(  7-C , 28-H ) :   0.9376 B(  8-S ,  9-C ) :   1.0140
B(  9-C , 10-S ) :   1.0074 B(  9-C , 29-H ) :   0.8520 B(  9-C , 30-H ) :   0.8523
B( 10-S , 11-P ) :   0.9382 B( 10-S , 12-S ) :   0.1150 B( 11-P , 12-S ) :   1.6497
B( 11-P , 13-O ) :   1.1435 B( 11-P , 16-O ) :   1.0770 B( 12-S , 29-H ) :   0.1078
B( 13-O , 14-C ) :   0.8941 B( 14-C , 15-C ) :   1.1641 B( 14-C , 31-H ) :   0.9157
B( 14-C , 32-H ) :   0.9356 B( 15-C , 33-H ) :   0.9465 B( 15-C , 34-H ) :   0.9424
B( 15-C , 35-H ) :   0.9397 B( 16-O , 17-C ) :   0.9111 B( 17-C , 18-C ) :   1.1690
B( 17-C , 36-H ) :   0.9201 B( 17-C , 37-H ) :   0.9308 B( 18-C , 38-H ) :   0.9215
B( 18-C , 39-H ) :   0.9348 B( 18-C , 40-H ) :   0.9411

Dispersion correction           -0.064167422
FINAL SINGLE POINT ENERGY     -2929.514854635869

DIPOLE MOMENT
-------------

Method             : SCF
Type of density    : Electron Density
Multiplicity       :   1
Irrep              :   0
Energy             : -2929.6364277327706986 Eh
Relativity type    :
Basis              : AO
                                X                 Y                 Z
Electronic contribution:      5.393844879      14.907732181     -11.849850958
Nuclear contribution   :     -5.609116333     -16.682272410      13.276508653
                        -----------------------------------------
Total Dipole Moment    :     -0.215271454      -1.774540229       1.426657696
                        -----------------------------------------
Magnitude (a.u.)       :      2.287069523
Magnitude (Debye)      :      5.813268740

Rotational constants in cm-1:             0.013076             0.004379             0.004126
Rotational constants in MHz :           392.016583           131.264447           123.707621

                             ****ORCA TERMINATED NORMALLY****
TOTAL RUN TIME: 0 days 0 hours 0 minutes 21 seconds 214 msec
