                         Program Version 6.0.0  -   RELEASE  -
|  1> ! wb97x-v def2-tzvp def2/J RIJCOSX DEFGRID2 scfconv7 GCP(DFT/TZ) printgap
|  2> %output
|  3>     printlevel normal
|  4> end
|  5> * xyz 0 1
|  6> C -3.0799551717694644 -0.383375089410107 -0.0035389916182006266
|  7> C -1.6136199278763157 -0.05270339251650072 0.003826752304997638
|  8> C -1.1789917863615629 1.2792359795337698 0.002297931284385425
|  9> C 0.17562891307231734 1.5705589647071656 -0.0008710329471426536
| 10> C 1.1579233411272971 0.5661907670858294 -0.0016628032842053882
| 11> C 0.7353033948821697 -0.7727840670509796 -0.0005636792217295147
| 12> C -0.6428201744467595 -1.048394267806387 0.002614534849219483
| 13> C 1.6699111410604368 -1.9557532219742217 0.00010982810083642021
| 14> C 2.600258260962746 1.0040074637098628 8.70523296809187e-05
| 15> H -3.549663130798175 -0.06549584635925704 -0.9415547738391454
| 16> H -3.2447786413149093 -1.4579333946202797 0.10962855436954864
| 17> H -3.6051355657928355 0.1328119783169664 0.8072096969645782
| 18> H -1.9084753602447952 2.085372433269476 0.003868257741464522
| 19> H 0.4970907369511219 2.6097060222560997 -0.000859267326383924
| 20> H -0.9588172104143485 -2.0900015856175975 0.004884462011030173
| 21> H 1.477874644435382 -2.5936258901384535 -0.8695284323266661
| 22> H 2.722963331731671 -1.6779224295238813 -0.01821310074494606
| 23> H 1.50342500383822 -2.5735034503509167 0.8894715467768775
| 24> H 3.305672531821795 0.1740102404752716 -0.009937214845267836
| 25> H 2.8116524450964904 1.6310494848700625 -0.8731062088321436
| 26> H 2.815080267056205 1.611918819270601 0.8859970712261416
| 27> *
| 28>
| 29>                          ****END OF INPUT****

CARTESIAN COORDINATES (ANGSTROEM)
---------------------------------
  C     -3.079955   -0.383375   -0.003539
  C     -1.613620   -0.052703    0.003827
  C     -1.178992    1.279236    0.002298
  C      0.175629    1.570559   -0.000871
  C      1.157923    0.566191   -0.001663
  C      0.735303   -0.772784   -0.000564
  C     -0.642820   -1.048394    0.002615
  C      1.669911   -1.955753    0.000110
  C      2.600258    1.004007    0.000087
  H     -3.549663   -0.065496   -0.941555
  H     -3.244779   -1.457933    0.109629
  H     -3.605136    0.132812    0.807210
  H     -1.908475    2.085372    0.003868
  H      0.497091    2.609706   -0.000859
  H     -0.958817   -2.090002    0.004884
  H      1.477875   -2.593626   -0.869528
  H      2.722963   -1.677922   -0.018213
  H      1.503425   -2.573503    0.889472
  H      3.305673    0.174010   -0.009937
  H      2.811652    1.631049   -0.873106
  H      2.815080    1.611919    0.885997

 Total Charge           Charge          ....    0
 Multiplicity           Mult            ....    1
 Number of Electrons    NEL             ....   66
 Basis Dimension        Dim             ....  351

ORBITAL ENERGIES
----------------

  NO   OCC          E(Eh)            E(eV)
   0   2.0000     -12.054197      -328.0114
   1   2.0000     -12.051335      -327.9335
   2   2.0000     -12.051080      -327.9265
   3   2.0000     -12.041483      -327.6654
   4   2.0000     -12.039583      -327.6137
   5   2.0000     -12.039528      -327.6122
   6   2.0000     -12.039148      -327.6019
   7   2.0000     -12.038507      -327.5844
   8   2.0000     -12.037594      -327.5596
   9   2.0000      -1.380973       -37.5782
  10   2.0000      -1.304678       -35.5021
  11   2.0000      -1.280219       -34.8365
  12   2.0000      -1.220407       -33.2090
  13   2.0000      -1.188987       -32.3540
  14   2.0000      -1.154420       -31.4134
  15   2.0000      -1.088507       -29.6198
  16   2.0000      -1.055252       -28.7149
  17   2.0000      -0.958590       -26.0846
  18   2.0000      -0.935687       -25.4613
  19   2.0000      -0.898318       -24.4445
  20   2.0000      -0.862436       -23.4681
  21   2.0000      -0.859852       -23.3978
  22   2.0000      -0.842814       -22.9341
  23   2.0000      -0.837080       -22.7781
  24   2.0000      -0.831162       -22.6171
  25   2.0000      -0.824927       -22.4474
  26   2.0000      -0.821898       -22.3650
  27   2.0000      -0.810891       -22.0655
  28   2.0000      -0.799935       -21.7673
  29   2.0000      -0.786344       -21.3975
  30   2.0000      -0.741281       -20.1713
  31   2.0000      -0.626393       -17.0450
  32   2.0000      -0.619769       -16.8648
  33   0.0000      -0.233126        -6.3437
  34   0.0000      -0.230329        -6.2676
  35   0.0000      -0.072078        -1.9613
  36   0.0000      -0.057572        -1.5666
  37   0.0000      -0.019927        -0.5423

MULLIKEN ATOMIC CHARGES
-----------------------
   0 C :   -0.365673
   1 C :    0.187242
   2 C :   -0.221531
   3 C :   -0.150493
   4 C :    0.068146
   5 C :    0.116831
   6 C :   -0.293566
   7 C :   -0.364578
   8 C :   -0.365078
   9 H :    0.121962
  10 H :    0.114687
  11 H :    0.120719
  12 H :    0.110072
  13 H :    0.111710
  14 H :    0.106853
  15 H :    0.124874
  16 H :    0.102110
  17 H :    0.125138
  18 H :    0.101316
  19 H :    0.124545
  20 H :    0.124711
Sum of atomic charges:   -0.0000000

LOEWDIN ATOMIC CHARGES
----------------------
   0 C :   -0.253396
   1 C :   -0.173617
   2 C :   -0.122043
   3 C :   -0.113703
   4 C :   -0.146959
   5 C :   -0.140375
   6 C :   -0.095122
   7 C :   -0.252698
   8 C :   -0.254328
   9 H :    0.126554
  10 H :    0.123142
  11 H :    0.125835
  12 H :    0.142355
  13 H :    0.143979
  14 H :    0.145059
  15 H :    0.127824
  16 H :    0.117471
  17 H :    0.127886
  18 H :    0.117410
  19 H :    0.127318
  20 H :    0.127407

  Mayer bond orders larger than 0.100000
B(  0-C ,  1-C ) :   0.9032 B(  0-C ,  9-H ) :   0.9723 B(  0-C , 10-H ) :   0.9988
B(  0-C , 11-H ) :   0.9813 B(  1-C ,  2-C ) :   1.3368 B(  1-C ,  6-C ) :   1.4428
B(  2-C ,  3-C ) :   1.4697 B(  2-C , 12-H ) :   0.9830 B(  3-C ,  4-C ) :   1.3466
B(  3-C , 13-H ) :   0.9848 B(  4-C ,  5-C ) :   1.4201 B(  4-C ,  8-C ) :   0.8968
B(  5-C ,  6-C ) :   1.3668 B(  5-C ,  7-C ) :   0.8946 B(  6-C , 14-H ) :   0.9731
B(  7-C , 15-H ) :   0.9804 B(  7-C , 16-H ) :   1.0056 B(  7-C , 17-H ) :   0.9790
B(  8-C , 18-H ) :   1.0063 B(  8-C , 19-H ) :   0.9799 B(  8-C , 20-H ) :   0.9791

FINAL SINGLE POINT ENERGY      -350.204320296350

DIPOLE MOMENT
-------------

Method             : SCF
Type of density    : Electron Density
Multiplicity       :   1
Irrep              :   0
Energy             :  -350.2170301295503236 Eh
Relativity type    :
Basis              : AO
                                X                 Y                 Z
Electronic contribution:     -1.701224026       2.023979418       0.009580872
Nuclear contribution   :      1.773619403      -2.100621541      -0.012829844
                        -----------------------------------------
Total Dipole Moment    :      0.072395377      -0.076642123      -0.003248972
                        -----------------------------------------
Magnitude (a.u.)       :      0.105478252
Magnitude (Debye)      :      0.268104409

Rotational constants in cm-1:             0.095005             0.043285             0.030236
Rotational constants in MHz :          2848.181538          1297.663760           906.466290

                             ****ORCA TERMINATED NORMALLY****
TOTAL RUN TIME: 0 days 0 hours 4 minutes 23 seconds 871 msec
