                         Program Version 6.0.0  -   RELEASE  -
|  1> ! wb97x-v def2-tzvp def2/J RIJCOSX DEFGRID2 scfconv7 GCP(DFT/TZ) printgap
|  2> %output
|  3>     printlevel normal
|  4> end
|  5> %cpcm
|  6>     smd true
|  7>     smdsolvent "water"
|  8> end
|  9> * xyz 0 1
| 10> C -3.0799551717694644 -0.383375089410107 -0.0035389916182006266
| 11> C -1.6136199278763157 -0.05270339251650072 0.003826752304997638
| 12> C -1.1789917863615629 1.2792359795337698 0.002297931284385425
| 13> C 0.17562891307231734 1.5705589647071656 -0.0008710329471426536
| 14> C 1.1579233411272971 0.5661907670858294 -0.0016628032842053882
| 15> C 0.7353033948821697 -0.7727840670509796 -0.0005636792217295147
| 16> C -0.6428201744467595 -1.048394267806387 0.002614534849219483
| 17> C 1.6699111410604368 -1.9557532219742217 0.00010982810083642021
| 18> C 2.600258260962746 1.0040074637098628 8.70523296809187e-05
| 19> H -3.549663130798175 -0.06549584635925704 -0.9415547738391454
| 20> H -3.2447786413149093 -1.4579333946202797 0.10962855436954864
| 21> H -3.6051355657928355 0.1328119783169664 0.8072096969645782
| 22> H -1.9084753602447952 2.085372433269476 0.003868257741464522
| 23> H 0.4970907369511219 2.6097060222560997 -0.000859267326383924
| 24> H -0.9588172104143485 -2.0900015856175975 0.004884462011030173
| 25> H 1.477874644435382 -2.5936258901384535 -0.8695284323266661
| 26> H 2.722963331731671 -1.6779224295238813 -0.01821310074494606
| 27> H 1.50342500383822 -2.5735034503509167 0.8894715467768775
| 28> H 3.305672531821795 0.1740102404752716 -0.009937214845267836
| 29> H 2.8116524450964904 1.6310494848700625 -0.8731062088321436
| 30> H 2.815080267056205 1.611918819270601 0.8859970712261416
| 31> *
| 32>
| 33>                          ****END OF INPUT****

CARTESIAN COORDINATES (ANGSTROEM)
---------------------------------
  C     -3.079955   -0.383375   -0.003539
  C     -1.613620   -0.052703    0.003827
  C     -1.178992    1.279236    0.002298
  C      0.175629    1.570559   -0.000871
  C      1.157923    0.566191   -0.001663
  C      0.735303   -0.772784   -0.000564
  C     -0.642820   -1.048394    0.002615
  C      1.669911   -1.955753    0.000110
  C      2.600258    1.004007    0.000087
  H     -3.549663   -0.065496   -0.941555
  H     -3.244779   -1.457933    0.109629
  H     -3.605136    0.132812    0.807210
  H     -1.908475    2.085372    0.003868
  H      0.497091    2.609706   -0.000859
  H     -0.958817   -2.090002    0.004884
  H      1.477875   -2.593626   -0.869528
  H      2.722963   -1.677922   -0.018213
  H      1.503425   -2.573503    0.889472
  H      3.305673    0.174010   -0.009937
  H      2.811652    1.631049   -0.873106
  H      2.815080    1.611919    0.885997

 Total Charge           Charge          ....    0
 Multiplicity           Mult            ....    1
 Number of Electrons    NEL             ....   66
 Basis Dimension        Dim             ....  351

ORBITAL ENERGIES
----------------

  NO   OCC          E(Eh)            E(eV)
   0   2.0000     -12.054360      -328.0158
   1   2.0000     -12.051864      -327.9479
   2   2.0000     -12.051167      -327.9289
   3   2.0000     -12.041283      -327.6600
   4   2.0000     -12.038373      -327.5808
   5   2.0000     -12.037008      -327.5436
   6   2.0000     -12.032178      -327.4122
   7   2.0000     -12.031196      -327.3855
   8   2.0000     -12.030948      -327.3787
   9   2.0000      -1.382172       -37.6108
  10   2.0000      -1.303622       -35.4734
  11   2.0000      -1.279686       -34.8220
  12   2.0000      -1.216215       -33.0949
  13   2.0000      -1.184696       -32.2372
  14   2.0000      -1.150338       -31.3023
  15   2.0000      -1.087714       -29.5982
  16   2.0000      -1.053273       -28.6610
  17   2.0000      -0.958002       -26.0686
  18   2.0000      -0.933268       -25.3955
  19   2.0000      -0.894694       -24.3459
  20   2.0000      -0.859407       -23.3857
  21   2.0000      -0.857713       -23.3396
  22   2.0000      -0.838002       -22.8032
  23   2.0000      -0.830518       -22.5996
  24   2.0000      -0.825167       -22.4539
  25   2.0000      -0.817640       -22.2491
  26   2.0000      -0.816838       -22.2273
  27   2.0000      -0.803594       -21.8669
  28   2.0000      -0.794104       -21.6087
  29   2.0000      -0.782978       -21.3059
  30   2.0000      -0.742047       -20.1921
  31   2.0000      -0.628805       -17.1106
  32   2.0000      -0.621154       -16.9025
  33   0.0000      -0.234530        -6.3819
  34   0.0000      -0.232268        -6.3203
  35   0.0000      -0.072206        -1.9648
  36   0.0000      -0.052817        -1.4372
  37   0.0000      -0.013071        -0.3557

MULLIKEN ATOMIC CHARGES
-----------------------
   0 C :   -0.394706
   1 C :    0.151396
   2 C :   -0.270962
   3 C :   -0.191628
   4 C :    0.040275
   5 C :    0.095120
   6 C :   -0.334546
   7 C :   -0.398071
   8 C :   -0.398965
   9 H :    0.138753
  10 H :    0.139550
  11 H :    0.138945
  12 H :    0.152117
  13 H :    0.153655
  14 H :    0.150364
  15 H :    0.141534
  16 H :    0.132361
  17 H :    0.141543
  18 H :    0.131811
  19 H :    0.140728
  20 H :    0.140726
Sum of atomic charges:   -0.0000000

LOEWDIN ATOMIC CHARGES
----------------------
   0 C :   -0.256048
   1 C :   -0.185156
   2 C :   -0.134995
   3 C :   -0.125360
   4 C :   -0.156982
   5 C :   -0.149722
   6 C :   -0.104670
   7 C :   -0.254536
   8 C :   -0.256519
   9 H :    0.130976
  10 H :    0.128543
  11 H :    0.130398
  12 H :    0.151213
  13 H :    0.152983
  14 H :    0.154719
  15 H :    0.132207
  16 H :    0.123834
  17 H :    0.132250
  18 H :    0.123788
  19 H :    0.131507
  20 H :    0.131571

  Mayer bond orders larger than 0.100000
B(  0-C ,  1-C ) :   0.9198 B(  0-C ,  9-H ) :   0.9666 B(  0-C , 10-H ) :   0.9941
B(  0-C , 11-H ) :   0.9751 B(  1-C ,  2-C ) :   1.3142 B(  1-C ,  6-C ) :   1.4281
B(  2-C ,  3-C ) :   1.4524 B(  2-C , 12-H ) :   0.9908 B(  3-C ,  4-C ) :   1.3284
B(  3-C , 13-H ) :   0.9911 B(  4-C ,  5-C ) :   1.3928 B(  4-C ,  8-C ) :   0.9158
B(  5-C ,  6-C ) :   1.3474 B(  5-C ,  7-C ) :   0.9154 B(  6-C , 14-H ) :   0.9846
B(  7-C , 15-H ) :   0.9735 B(  7-C , 16-H ) :   1.0006 B(  7-C , 17-H ) :   0.9722
B(  8-C , 18-H ) :   1.0015 B(  8-C , 19-H ) :   0.9733 B(  8-C , 20-H ) :   0.9727

FINAL SINGLE POINT ENERGY      -350.204948248800

DIPOLE MOMENT
-------------

Method             : SCF
Type of density    : Electron Density
Multiplicity       :   1
Irrep              :   0
Energy             :  -350.2176580819997866 Eh
Relativity type    :
Basis              : AO
                                X                 Y                 Z
Electronic contribution:     -1.657194241       1.972426464       0.008196672
Nuclear contribution   :      1.773619403      -2.100621541      -0.012829844
                        -----------------------------------------
Total Dipole Moment    :      0.116425162      -0.128195077      -0.004633172
                        -----------------------------------------
Magnitude (a.u.)       :      0.173234703
Magnitude (Debye)      :      0.440327623

Rotational constants in cm-1:             0.095005             0.043285             0.030236
Rotational constants in MHz :          2848.181538          1297.663760           906.466290

                             ****ORCA TERMINATED NORMALLY****
TOTAL RUN TIME: 0 days 0 hours 3 minutes 46 seconds 268 msec
