                         Program Version 6.0.0  -   RELEASE  -
|  1> ! pbe def2-sv(p) def2/J RI DEFGRID1 loosescf d4 GCP(DFT/SV(P)) printgap
|  2> %output
|  3>     printlevel normal
|  4> end
|  5> * xyz 0 1
|  6> C 5.0070543635 -1.3097380593 -1.679095147
|  7> C 4.9052247531 0.0789206437 -1.0829889297
|  8> O 3.8323628258 0.1687172859 -0.1292739542
|  9> P 2.3069261968 0.0929018133 -0.5667915718
| 10> S 1.9126911423 1.0524244259 -2.2374865695
| 11> O 1.5715036421 0.5965945732 0.7434750197
| 12> C 1.5902201022 1.9886341751 1.1308766148
| 13> C 0.7198538313 2.1304238599 2.3614756337
| 14> S 1.8000425311 -1.945731966 -0.4684330755
| 15> C 0.0116100157 -1.7642012155 -0.6823200747
| 16> S -0.8278785321 -1.4786745964 0.9105986367
| 17> P -2.1034253937 0.079213681 0.2981448019
| 18> S -1.3963005781 1.5222375235 -0.8180945296
| 19> O -2.7347795082 0.6460763573 1.6350837112
| 20> C -3.4236952072 -0.1881534365 2.6014889802
| 21> C -2.5193121811 -0.506505689 3.7746579018
| 22> O -3.2145493935 -0.8219372867 -0.4261516798
| 23> C -4.1377545388 -0.2687188534 -1.3820806003
| 24> C -5.1735377002 0.6121190597 -0.7132515
| 25> H 5.8867849652 -1.3676987065 -2.3117844605
| 26> H 5.0756512103 -2.055076304 -0.8909769942
| 27> H 4.1227895446 -1.5174522972 -2.2808819021
| 28> H 4.7337040111 0.8239569041 -1.8667572075
| 29> H 5.7929581377 0.3402754049 -0.5057104744
| 30> H 2.625621466 2.2733314357 1.3328203234
| 31> H 1.2076590624 2.5849140043 0.2950964154
| 32> H 1.0750324803 1.4658454687 3.1438079338
| 33> H 0.7573079916 3.1581028564 2.707409396
| 34> H -0.3099719083 1.8744567093 2.1193020398
| 35> H -0.3510829089 -2.6960485004 -1.1073290477
| 36> H -0.1844900993 -0.9169937013 -1.3452387918
| 37> H -4.2805278577 0.4110982411 2.9144774071
| 38> H -3.7660520182 -1.0992936005 2.1055863657
| 39> H -1.6702920624 -1.1042086525 3.4497535002
| 40> H -2.1525396288 0.4126921547 4.2229603233
| 41> H -3.0839655167 -1.0652756612 4.5142843352
| 42> H -3.5701332035 0.3018137567 -2.1244145651
| 43> H -4.5887723663 -1.1436464906 -1.8521811837
| 44> H -5.8760625642 0.9702738028 -1.4592346132
| 45> H -5.7112332855 0.0543176069 0.0490055414
| 46> H -4.6835812302 1.4685620656 -0.250488324
| 47> *
| 48>
| 49>                          ****END OF INPUT****

CARTESIAN COORDINATES (ANGSTROEM)
---------------------------------
  C      5.007054   -1.309738   -1.679095
  C      4.905225    0.078921   -1.082989
  O      3.832363    0.168717   -0.129274
  P      2.306926    0.092902   -0.566792
  S      1.912691    1.052424   -2.237487
  O      1.571504    0.596595    0.743475
  C      1.590220    1.988634    1.130877
  C      0.719854    2.130424    2.361476
  S      1.800043   -1.945732   -0.468433
  C      0.011610   -1.764201   -0.682320
  S     -0.827879   -1.478675    0.910599
  P     -2.103425    0.079214    0.298145
  S     -1.396301    1.522238   -0.818095
  O     -2.734780    0.646076    1.635084
  C     -3.423695   -0.188153    2.601489
  C     -2.519312   -0.506506    3.774658
  O     -3.214549   -0.821937   -0.426152
  C     -4.137755   -0.268719   -1.382081
  C     -5.173538    0.612119   -0.713252
  H      5.886785   -1.367699   -2.311784
  H      5.075651   -2.055076   -0.890977
  H      4.122790   -1.517452   -2.280882
  H      4.733704    0.823957   -1.866757
  H      5.792958    0.340275   -0.505710
  H      2.625621    2.273331    1.332820
  H      1.207659    2.584914    0.295096
  H      1.075032    1.465845    3.143808
  H      0.757308    3.158103    2.707409
  H     -0.309972    1.874457    2.119302
  H     -0.351083   -2.696049   -1.107329
  H     -0.184490   -0.916994   -1.345239
  H     -4.280528    0.411098    2.914477
  H     -3.766052   -1.099294    2.105586
  H     -1.670292   -1.104209    3.449754
  H     -2.152540    0.412692    4.222960
  H     -3.083966   -1.065276    4.514284
  H     -3.570133    0.301814   -2.124415
  H     -4.588772   -1.143646   -1.852181
  H     -5.876063    0.970274   -1.459235
  H     -5.711233    0.054318    0.049006
  H     -4.683581    1.468562   -0.250488

 Total Charge           Charge          ....    0
 Multiplicity           Mult            ....    1
 Number of Electrons    NEL             ....  202
 Basis Dimension        Dim             ....  334

ORBITAL ENERGIES
----------------

  NO   OCC          E(Eh)            E(eV)
   0   2.0000     -88.041567     -2395.7328
   1   2.0000     -88.039701     -2395.6821
   2   2.0000     -87.983972     -2394.1656
   3   2.0000     -87.975596     -2393.9377
   4   2.0000     -76.424874     -2079.6266
   5   2.0000     -76.418429     -2079.4512
   6   2.0000     -18.800193      -511.5793
   7   2.0000     -18.790764      -511.3227
   8   2.0000     -18.789335      -511.2838
   9   2.0000     -18.779485      -511.0158
  10   2.0000      -9.962899      -271.1043
  11   2.0000      -9.956311      -270.9250
  12   2.0000      -9.950228      -270.7595
  13   2.0000      -9.948546      -270.7137
  14   2.0000      -9.938260      -270.4338
  15   2.0000      -9.892827      -269.1975
  16   2.0000      -9.887053      -269.0404
  17   2.0000      -9.882888      -268.9271
  18   2.0000      -9.872878      -268.6547
  19   2.0000      -7.687269      -209.1812
  20   2.0000      -7.685151      -209.1236
  21   2.0000      -7.628908      -207.5931
  22   2.0000      -7.620610      -207.3673
  23   2.0000      -6.422655      -174.7693
  24   2.0000      -6.416287      -174.5961
  25   2.0000      -5.715249      -155.5198
  26   2.0000      -5.713120      -155.4619
  27   2.0000      -5.711832      -155.4268
  28   2.0000      -5.709792      -155.3713
  29   2.0000      -5.703960      -155.2126
  30   2.0000      -5.701820      -155.1544
  31   2.0000      -5.657956      -153.9608
  32   2.0000      -5.649504      -153.7308
  33   2.0000      -5.649488      -153.7304
  34   2.0000      -5.648929      -153.7152
  35   2.0000      -5.641218      -153.5053
  36   2.0000      -5.640876      -153.4960
  37   2.0000      -4.645763      -126.4176
  38   2.0000      -4.643984      -126.3692
  39   2.0000      -4.643005      -126.3426
  40   2.0000      -4.638947      -126.2322
  41   2.0000      -4.637984      -126.2060
  42   2.0000      -4.636660      -126.1699
  43   2.0000      -0.987773       -26.8787
  44   2.0000      -0.980458       -26.6796
  45   2.0000      -0.946811       -25.7640
  46   2.0000      -0.937585       -25.5130
  47   2.0000      -0.762858       -20.7584
  48   2.0000      -0.723174       -19.6786
  49   2.0000      -0.707075       -19.2405
  50   2.0000      -0.694572       -18.9003
  51   2.0000      -0.682285       -18.5659
  52   2.0000      -0.671502       -18.2725
  53   2.0000      -0.648958       -17.6590
  54   2.0000      -0.629551       -17.1310
  55   2.0000      -0.596183       -16.2230
  56   2.0000      -0.585789       -15.9401
  57   2.0000      -0.582525       -15.8513
  58   2.0000      -0.565083       -15.3767
  59   2.0000      -0.552548       -15.0356
  60   2.0000      -0.503637       -13.7047
  61   2.0000      -0.496000       -13.4968
  62   2.0000      -0.480379       -13.0718
  63   2.0000      -0.468086       -12.7373
  64   2.0000      -0.455852       -12.4044
  65   2.0000      -0.449355       -12.2276
  66   2.0000      -0.438338       -11.9278
  67   2.0000      -0.432663       -11.7734
  68   2.0000      -0.421006       -11.4561
  69   2.0000      -0.418333       -11.3834
  70   2.0000      -0.411718       -11.2034
  71   2.0000      -0.401415       -10.9230
  72   2.0000      -0.388896       -10.5824
  73   2.0000      -0.382630       -10.4119
  74   2.0000      -0.379014       -10.3135
  75   2.0000      -0.371159       -10.0997
  76   2.0000      -0.365306        -9.9405
  77   2.0000      -0.360090        -9.7986
  78   2.0000      -0.357019        -9.7150
  79   2.0000      -0.350472        -9.5368
  80   2.0000      -0.347469        -9.4551
  81   2.0000      -0.344333        -9.3698
  82   2.0000      -0.340704        -9.2710
  83   2.0000      -0.332698        -9.0532
  84   2.0000      -0.324909        -8.8412
  85   2.0000      -0.317879        -8.6499
  86   2.0000      -0.309659        -8.4262
  87   2.0000      -0.307085        -8.3562
  88   2.0000      -0.292740        -7.9659
  89   2.0000      -0.282501        -7.6872
  90   2.0000      -0.278712        -7.5841
  91   2.0000      -0.274146        -7.4599
  92   2.0000      -0.270448        -7.3593
  93   2.0000      -0.264081        -7.1860
  94   2.0000      -0.255897        -6.9633
  95   2.0000      -0.233414        -6.3515
  96   2.0000      -0.217598        -5.9211
  97   2.0000      -0.211785        -5.7630
  98   2.0000      -0.200452        -5.4546
  99   2.0000      -0.190399        -5.1810
 100   2.0000      -0.184237        -5.0133
 101   0.0000      -0.039011        -1.0615
 102   0.0000      -0.028135        -0.7656
 103   0.0000      -0.019018        -0.5175
 104   0.0000       0.014748         0.4013
 105   0.0000       0.021888         0.5956

MULLIKEN ATOMIC CHARGES
-----------------------
   0 C :   -0.325098
   1 C :   -0.002456
   2 O :   -0.375494
   3 P :    0.608399
   4 S :   -0.319185
   5 O :   -0.367521
   6 C :   -0.002593
   7 C :   -0.298137
   8 S :   -0.080117
   9 C :   -0.343343
  10 S :   -0.089796
  11 P :    0.597321
  12 S :   -0.281066
  13 O :   -0.369287
  14 C :   -0.036508
  15 C :   -0.297673
  16 O :   -0.386250
  17 C :   -0.008111
  18 C :   -0.318217
  19 H :    0.115126
  20 H :    0.118794
  21 H :    0.129702
  22 H :    0.111463
  23 H :    0.103858
  24 H :    0.095701
  25 H :    0.114986
  26 H :    0.108389
  27 H :    0.103238
  28 H :    0.132721
  29 H :    0.186767
  30 H :    0.195169
  31 H :    0.112913
  32 H :    0.112795
  33 H :    0.138038
  34 H :    0.126896
  35 H :    0.113406
  36 H :    0.115056
  37 H :    0.103367
  38 H :    0.115161
  39 H :    0.111073
  40 H :    0.130513
Sum of atomic charges:    0.0000000

LOEWDIN ATOMIC CHARGES
----------------------
   0 C :   -0.370944
   1 C :   -0.121244
   2 O :   -0.244166
   3 P :    0.570797
   4 S :   -0.321848
   5 O :   -0.242447
   6 C :   -0.117320
   7 C :   -0.356632
   8 S :    0.089658
   9 C :   -0.471526
  10 S :    0.081872
  11 P :    0.563792
  12 S :   -0.277822
  13 O :   -0.240001
  14 C :   -0.119142
  15 C :   -0.359901
  16 O :   -0.260541
  17 C :   -0.122860
  18 C :   -0.366057
  19 H :    0.132316
  20 H :    0.124484
  21 H :    0.122157
  22 H :    0.110413
  23 H :    0.117965
  24 H :    0.107135
  25 H :    0.110248
  26 H :    0.122955
  27 H :    0.127828
  28 H :    0.121172
  29 H :    0.137282
  30 H :    0.126919
  31 H :    0.121527
  32 H :    0.110874
  33 H :    0.121899
  34 H :    0.131068
  35 H :    0.132090
  36 H :    0.110961
  37 H :    0.117398
  38 H :    0.132075
  39 H :    0.121600
  40 H :    0.125961

  Mayer bond orders larger than 0.100000
B(  0-C ,  1-C ) :   1.1636 B(  0-C , 19-H ) :   0.9386 B(  0-C , 20-H ) :   0.9451
B(  0-C , 21-H ) :   0.9328 B(  1-C ,  2-O ) :   0.9094 B(  1-C , 22-H ) :   0.9119
B(  1-C , 23-H ) :   0.9328 B(  2-O ,  3-P ) :   1.0998 B(  3-P ,  4-S ) :   1.6373
B(  3-P ,  5-O ) :   1.1326 B(  3-P ,  8-S ) :   0.9514 B(  4-S ,  8-S ) :   0.1117
B(  5-O ,  6-C ) :   0.8933 B(  6-C ,  7-C ) :   1.1649 B(  6-C , 24-H ) :   0.9286
B(  6-C , 25-H ) :   0.9103 B(  7-C , 26-H ) :   0.9487 B(  7-C , 27-H ) :   0.9401
B(  7-C , 28-H ) :   0.9330 B(  8-S ,  9-C ) :   1.0181 B(  9-C , 10-S ) :   0.9757
B(  9-C , 29-H ) :   0.9119 B(  9-C , 30-H ) :   0.8508 B( 10-S , 11-P ) :   0.9780
B( 10-S , 12-S ) :   0.1091 B( 11-P , 12-S ) :   1.6296 B( 11-P , 13-O ) :   1.0910
B( 11-P , 16-O ) :   1.0616 B( 13-O , 14-C ) :   0.8991 B( 14-C , 15-C ) :   1.1689
B( 14-C , 31-H ) :   0.9326 B( 14-C , 32-H ) :   0.9148 B( 15-C , 33-H ) :   0.9344
B( 15-C , 34-H ) :   0.9441 B( 15-C , 35-H ) :   0.9381 B( 16-O , 17-C ) :   0.9131
B( 17-C , 18-C ) :   1.1617 B( 17-C , 36-H ) :   0.9119 B( 17-C , 37-H ) :   0.9343
B( 18-C , 38-H ) :   0.9397 B( 18-C , 39-H ) :   0.9468 B( 18-C , 40-H ) :   0.9358

Dispersion correction           -0.066104680
FINAL SINGLE POINT ENERGY     -2929.516603100477

DIPOLE MOMENT
-------------

Method             : SCF
Type of density    : Electron Density
Multiplicity       :   1
Irrep              :   0
Energy             : -2929.6361182634559555 Eh
Relativity type    :
Basis              : AO
                                X                 Y                 Z
Electronic contribution:      7.879886661      -3.535046671      -9.561691839
Nuclear contribution   :     -8.630756355       2.857248650      10.530771704
                        -----------------------------------------
Total Dipole Moment    :     -0.750869694      -0.677798021       0.969079865
                        -----------------------------------------
Magnitude (a.u.)       :      1.400832338
Magnitude (Debye)      :      3.560632836

Rotational constants in cm-1:             0.013703             0.004767             0.004588
Rotational constants in MHz :           410.790809           142.911528           137.533693

                             ****ORCA TERMINATED NORMALLY****
TOTAL RUN TIME: 0 days 0 hours 0 minutes 20 seconds 973 msec
