                         Program Version 6.0.0  -   RELEASE  -
|  1> ! pbe def2-sv(p) def2/J RI DEFGRID1 loosescf d4 GCP(DFT/SV(P)) printgap
|  2> %output
|  3>     printlevel normal
|  4> end
|  5> * xyz 0 1
|  6> C 5.4403405954 0.1024893749 0.6751757595
|  7> C 4.3720950264 -0.9430019381 0.4297556241
|  8> O 3.6386605711 -0.6618912793 -0.788915448
|  9> P 2.2783519684 0.1311311295 -0.8381879183
| 10> S 1.6163502081 0.2436056173 -2.6739756408
| 11> O 2.6671914866 1.5048063649 -0.1366880477
| 12> C 1.788121168 2.6413314587 -0.057935381
| 13> C 1.1310549981 2.7252023899 1.3059292393
| 14> S 1.0322675169 -0.8626322174 0.5756001066
| 15> C -0.0578123323 -1.7571539164 -0.5802648853
| 16> S -1.7142173421 -1.9669729586 0.0966777312
| 17> P -2.2066903488 0.0976427027 0.3269819072
| 18> S -1.5278387579 1.3409786448 -1.0228043507
| 19> O -1.7406814245 0.4917036521 1.7791693376
| 20> C -2.14305359 -0.2443410164 2.9667792095
| 21> C -0.9309240221 -0.8892276011 3.6072157291
| 22> O -3.7892348238 0.0651116739 0.4983970662
| 23> C -4.7024205194 0.1345641186 -0.609915643
| 24> C -4.6050713245 -1.0741995011 -1.5182377009
| 25> H 6.0143679662 -0.177200332 1.5530603013
| 26> H 6.1036276579 0.1645035066 -0.1832093286
| 27> H 4.9870879026 1.0766465717 0.8366238066
| 28> H 3.6655835714 -0.9939669379 1.2633616888
| 29> H 4.8119031579 -1.9267535313 0.2565411876
| 30> H 2.4330663926 3.503456652 -0.2389255971
| 31> H 1.040350222 2.5790190678 -0.8552938576
| 32> H 0.4349565551 1.9013656396 1.4496054618
| 33> H 1.8855608541 2.6946370473 2.0867255405
| 34> H 0.5787630573 3.6572422744 1.3716127391
| 35> H 0.3332696998 -2.7574053902 -0.749732764
| 36> H -0.1015706033 -1.1859663389 -1.5123322475
| 37> H -2.5936423378 0.5011955747 3.6233145361
| 38> H -2.8914808591 -0.989376405 2.6885793628
| 39> H -0.1800928146 -0.1367447247 3.8295754782
| 40> H -1.2357141947 -1.3773457975 4.5272012161
| 41> H -0.49242563 -1.6263672462 2.9385302886
| 42> H -5.6813885375 0.2021042057 -0.1331329953
| 43> H -4.4968147049 1.0528053195 -1.1688044799
| 44> H -3.6487545431 -1.0738928951 -2.0397752511
| 45> H -4.690716228 -1.9913773338 -0.9408567975
| 46> H -5.4025151336 -1.0339484532 -2.2533389304
| 47> *
| 48>
| 49>                          ****END OF INPUT****

CARTESIAN COORDINATES (ANGSTROEM)
---------------------------------
  C      5.440341    0.102489    0.675176
  C      4.372095   -0.943002    0.429756
  O      3.638661   -0.661891   -0.788915
  P      2.278352    0.131131   -0.838188
  S      1.616350    0.243606   -2.673976
  O      2.667191    1.504806   -0.136688
  C      1.788121    2.641331   -0.057935
  C      1.131055    2.725202    1.305929
  S      1.032268   -0.862632    0.575600
  C     -0.057812   -1.757154   -0.580265
  S     -1.714217   -1.966973    0.096678
  P     -2.206690    0.097643    0.326982
  S     -1.527839    1.340979   -1.022804
  O     -1.740681    0.491704    1.779169
  C     -2.143054   -0.244341    2.966779
  C     -0.930924   -0.889228    3.607216
  O     -3.789235    0.065112    0.498397
  C     -4.702421    0.134564   -0.609916
  C     -4.605071   -1.074200   -1.518238
  H      6.014368   -0.177200    1.553060
  H      6.103628    0.164504   -0.183209
  H      4.987088    1.076647    0.836624
  H      3.665584   -0.993967    1.263362
  H      4.811903   -1.926754    0.256541
  H      2.433066    3.503457   -0.238926
  H      1.040350    2.579019   -0.855294
  H      0.434957    1.901366    1.449605
  H      1.885561    2.694637    2.086726
  H      0.578763    3.657242    1.371613
  H      0.333270   -2.757405   -0.749733
  H     -0.101571   -1.185966   -1.512332
  H     -2.593642    0.501196    3.623315
  H     -2.891481   -0.989376    2.688579
  H     -0.180093   -0.136745    3.829575
  H     -1.235714   -1.377346    4.527201
  H     -0.492426   -1.626367    2.938530
  H     -5.681389    0.202104   -0.133133
  H     -4.496815    1.052805   -1.168804
  H     -3.648755   -1.073893   -2.039775
  H     -4.690716   -1.991377   -0.940857
  H     -5.402515   -1.033948   -2.253339

 Total Charge           Charge          ....    0
 Multiplicity           Mult            ....    1
 Number of Electrons    NEL             ....  202
 Basis Dimension        Dim             ....  334

ORBITAL ENERGIES
----------------

  NO   OCC          E(Eh)            E(eV)
   0   2.0000     -88.048441     -2395.9199
   1   2.0000     -88.039970     -2395.6894
   2   2.0000     -87.985985     -2394.2204
   3   2.0000     -87.978284     -2394.0108
   4   2.0000     -76.428323     -2079.7204
   5   2.0000     -76.420312     -2079.5024
   6   2.0000     -18.794789      -511.4322
   7   2.0000     -18.793239      -511.3900
   8   2.0000     -18.788126      -511.2509
   9   2.0000     -18.785824      -511.1883
  10   2.0000      -9.959514      -271.0122
  11   2.0000      -9.955144      -270.8933
  12   2.0000      -9.953844      -270.8579
  13   2.0000      -9.952754      -270.8282
  14   2.0000      -9.941834      -270.5311
  15   2.0000      -9.888210      -269.0719
  16   2.0000      -9.885479      -268.9976
  17   2.0000      -9.883707      -268.9493
  18   2.0000      -9.872057      -268.6323
  19   2.0000      -7.693165      -209.3417
  20   2.0000      -7.684254      -209.0992
  21   2.0000      -7.630825      -207.6453
  22   2.0000      -7.623591      -207.4485
  23   2.0000      -6.425504      -174.8469
  24   2.0000      -6.417965      -174.6417
  25   2.0000      -5.721021      -155.6769
  26   2.0000      -5.717573      -155.5831
  27   2.0000      -5.712050      -155.4328
  28   2.0000      -5.710330      -155.3860
  29   2.0000      -5.708803      -155.3444
  30   2.0000      -5.701358      -155.1418
  31   2.0000      -5.659898      -154.0137
  32   2.0000      -5.652669      -153.8170
  33   2.0000      -5.651155      -153.7757
  34   2.0000      -5.651120      -153.7748
  35   2.0000      -5.644052      -153.5824
  36   2.0000      -5.643688      -153.5726
  37   2.0000      -4.648324      -126.4873
  38   2.0000      -4.647281      -126.4590
  39   2.0000      -4.645784      -126.4182
  40   2.0000      -4.640734      -126.2808
  41   2.0000      -4.639716      -126.2531
  42   2.0000      -4.638243      -126.2130
  43   2.0000      -0.990409       -26.9504
  44   2.0000      -0.982539       -26.7362
  45   2.0000      -0.946705       -25.7612
  46   2.0000      -0.939418       -25.5629
  47   2.0000      -0.762622       -20.7520
  48   2.0000      -0.720299       -19.6003
  49   2.0000      -0.710810       -19.3421
  50   2.0000      -0.691179       -18.8079
  51   2.0000      -0.683457       -18.5978
  52   2.0000      -0.674990       -18.3674
  53   2.0000      -0.649836       -17.6829
  54   2.0000      -0.632412       -17.2088
  55   2.0000      -0.596190       -16.2232
  56   2.0000      -0.585465       -15.9313
  57   2.0000      -0.577832       -15.7236
  58   2.0000      -0.569581       -15.4991
  59   2.0000      -0.558301       -15.1921
  60   2.0000      -0.506175       -13.7737
  61   2.0000      -0.497616       -13.5408
  62   2.0000      -0.475059       -12.9270
  63   2.0000      -0.473263       -12.8781
  64   2.0000      -0.449451       -12.2302
  65   2.0000      -0.445758       -12.1297
  66   2.0000      -0.442704       -12.0466
  67   2.0000      -0.439678       -11.9643
  68   2.0000      -0.432821       -11.7777
  69   2.0000      -0.416770       -11.3409
  70   2.0000      -0.412444       -11.2232
  71   2.0000      -0.394099       -10.7240
  72   2.0000      -0.387632       -10.5480
  73   2.0000      -0.381938       -10.3931
  74   2.0000      -0.377622       -10.2756
  75   2.0000      -0.369426       -10.0526
  76   2.0000      -0.363700        -9.8968
  77   2.0000      -0.360040        -9.7972
  78   2.0000      -0.355096        -9.6627
  79   2.0000      -0.351234        -9.5576
  80   2.0000      -0.347862        -9.4658
  81   2.0000      -0.344512        -9.3747
  82   2.0000      -0.340538        -9.2665
  83   2.0000      -0.338550        -9.2124
  84   2.0000      -0.327099        -8.9008
  85   2.0000      -0.316067        -8.6006
  86   2.0000      -0.313272        -8.5246
  87   2.0000      -0.304203        -8.2778
  88   2.0000      -0.295372        -8.0375
  89   2.0000      -0.288242        -7.8435
  90   2.0000      -0.283240        -7.7074
  91   2.0000      -0.275258        -7.4902
  92   2.0000      -0.270070        -7.3490
  93   2.0000      -0.264012        -7.1841
  94   2.0000      -0.255334        -6.9480
  95   2.0000      -0.232827        -6.3355
  96   2.0000      -0.223540        -6.0828
  97   2.0000      -0.209124        -5.6906
  98   2.0000      -0.201729        -5.4893
  99   2.0000      -0.195282        -5.3139
 100   2.0000      -0.187129        -5.0920
 101   0.0000      -0.045617        -1.2413
 102   0.0000      -0.032986        -0.8976
 103   0.0000      -0.011051        -0.3007
 104   0.0000       0.006796         0.1849
 105   0.0000       0.014024         0.3816

MULLIKEN ATOMIC CHARGES
-----------------------
   0 C :   -0.289520
   1 C :   -0.013465
   2 O :   -0.356714
   3 P :    0.615977
   4 S :   -0.293792
   5 O :   -0.383105
   6 C :   -0.009102
   7 C :   -0.319578
   8 S :   -0.142788
   9 C :   -0.335256
  10 S :   -0.113754
  11 P :    0.594946
  12 S :   -0.295607
  13 O :   -0.351077
  14 C :   -0.012052
  15 C :   -0.286120
  16 O :   -0.379672
  17 C :    0.001739
  18 C :   -0.321585
  19 H :    0.106917
  20 H :    0.119928
  21 H :    0.123793
  22 H :    0.100416
  23 H :    0.108079
  24 H :    0.101302
  25 H :    0.124375
  26 H :    0.152353
  27 H :    0.099319
  28 H :    0.107540
  29 H :    0.180104
  30 H :    0.211212
  31 H :    0.112427
  32 H :    0.106102
  33 H :    0.120968
  34 H :    0.109078
  35 H :    0.122441
  36 H :    0.104799
  37 H :    0.113666
  38 H :    0.133585
  39 H :    0.116839
  40 H :    0.115281
Sum of atomic charges:    0.0000000

LOEWDIN ATOMIC CHARGES
----------------------
   0 C :   -0.360263
   1 C :   -0.115082
   2 O :   -0.239899
   3 P :    0.566713
   4 S :   -0.289667
   5 O :   -0.244354
   6 C :   -0.117340
   7 C :   -0.369029
   8 S :    0.063452
   9 C :   -0.479286
  10 S :    0.076885
  11 P :    0.566460
  12 S :   -0.288958
  13 O :   -0.233563
  14 C :   -0.111609
  15 C :   -0.359197
  16 O :   -0.250590
  17 C :   -0.115822
  18 C :   -0.371292
  19 H :    0.128008
  20 H :    0.129055
  21 H :    0.126306
  22 H :    0.100917
  23 H :    0.120443
  24 H :    0.116211
  25 H :    0.109150
  26 H :    0.121641
  27 H :    0.117957
  28 H :    0.130457
  29 H :    0.134588
  30 H :    0.123412
  31 H :    0.121915
  32 H :    0.107937
  33 H :    0.128502
  34 H :    0.129108
  35 H :    0.116001
  36 H :    0.118667
  37 H :    0.113705
  38 H :    0.123731
  39 H :    0.122521
  40 H :    0.132207

  Mayer bond orders larger than 0.100000
B(  0-C ,  1-C ) :   1.1627 B(  0-C , 19-H ) :   0.9396 B(  0-C , 20-H ) :   0.9470
B(  0-C , 21-H ) :   0.9407 B(  1-C ,  2-O ) :   0.9006 B(  1-C , 22-H ) :   0.9120
B(  1-C , 23-H ) :   0.9369 B(  2-O ,  3-P ) :   1.1344 B(  3-P ,  4-S ) :   1.6651
B(  3-P ,  5-O ) :   1.0946 B(  3-P ,  8-S ) :   0.9362 B(  4-S ,  8-S ) :   0.1155
B(  4-S , 30-H ) :   0.1004 B(  5-O ,  6-C ) :   0.8924 B(  6-C ,  7-C ) :   1.1719
B(  6-C , 24-H ) :   0.9349 B(  6-C , 25-H ) :   0.9017 B(  7-C , 26-H ) :   0.9227
B(  7-C , 27-H ) :   0.9472 B(  7-C , 28-H ) :   0.9396 B(  8-S ,  9-C ) :   0.9896
B(  9-C , 10-S ) :   1.0095 B(  9-C , 29-H ) :   0.9094 B(  9-C , 30-H ) :   0.8452
B( 10-S , 11-P ) :   0.9313 B( 10-S , 12-S ) :   0.1087 B( 11-P , 12-S ) :   1.6491
B( 11-P , 13-O ) :   1.1228 B( 11-P , 16-O ) :   1.0894 B( 13-O , 14-C ) :   0.8859
B( 14-C , 15-C ) :   1.1656 B( 14-C , 31-H ) :   0.9339 B( 14-C , 32-H ) :   0.9167
B( 15-C , 33-H ) :   0.9467 B( 15-C , 34-H ) :   0.9390 B( 15-C , 35-H ) :   0.9332
B( 16-O , 17-C ) :   0.9060 B( 17-C , 18-C ) :   1.1663 B( 17-C , 36-H ) :   0.9345
B( 17-C , 37-H ) :   0.9186 B( 18-C , 38-H ) :   0.9350 B( 18-C , 39-H ) :   0.9434
B( 18-C , 40-H ) :   0.9370

Dispersion correction           -0.066520742
FINAL SINGLE POINT ENERGY     -2929.519323081546

DIPOLE MOMENT
-------------

Method             : SCF
Type of density    : Electron Density
Multiplicity       :   1
Irrep              :   0
Energy             : -2929.6382199251852398 Eh
Relativity type    :
Basis              : AO
                                X                 Y                 Z
Electronic contribution:     -1.290284697      -2.342747443     -14.112071431
Nuclear contribution   :      0.784059403       1.787461326      15.902818856
                        -----------------------------------------
Total Dipole Moment    :     -0.506225295      -0.555286117       1.790747425
                        -----------------------------------------
Magnitude (a.u.)       :      1.942004908
Magnitude (Debye)      :      4.936184190

Rotational constants in cm-1:             0.012737             0.005117             0.004800
Rotational constants in MHz :           381.846704           153.406845           143.888196

                             ****ORCA TERMINATED NORMALLY****
TOTAL RUN TIME: 0 days 0 hours 0 minutes 21 seconds 593 msec
