                         Program Version 6.0.0  -   RELEASE  -
|  1> ! pbe def2-sv(p) def2/J RI DEFGRID1 loosescf d4 GCP(DFT/SV(P)) printgap
|  2> %output
|  3>     printlevel normal
|  4> end
|  5> * xyz 0 1
|  6> C 3.7743612454 -1.4576446122 -2.5539578933
|  7> C 4.0661185175 -1.7411480613 -1.0944846402
|  8> O 2.8763352261 -1.7060142192 -0.2873576715
|  9> P 2.0769724897 -0.3642810561 0.001988805
| 10> S 3.1816742438 1.2334837716 0.2894273551
| 11> O 1.149772316 -0.809907426 1.2057012933
| 12> C 1.4718579258 -0.5235737926 2.5793532537
| 13> C 2.6537868803 -1.34152028 3.0552846341
| 14> S 0.6462495153 -0.2699530168 -1.5531361939
| 15> C 0.1313062111 1.439427231 -1.2433111719
| 16> S -0.6194277027 1.6634073957 0.3888070422
| 17> P -2.3091872977 0.4209288113 0.0458012636
| 18> S -3.0515490578 0.4833786215 -1.7719593277
| 19> O -3.2623073837 0.7968698336 1.2548711684
| 20> C -3.6115584261 2.1339456385 1.6591691961
| 21> C -4.1985928824 2.9548879153 0.5293586003
| 22> O -1.9101722959 -1.0304461411 0.5379892735
| 23> C -2.0288249802 -2.2243606762 -0.2661363443
| 24> C -0.9465738071 -3.201863023 0.1430012073
| 25> H 4.6764913294 -1.6115540859 -3.1373442686
| 26> H 2.9907407076 -2.1169738403 -2.9188539299
| 27> H 3.4475154732 -0.4256698698 -2.6758093617
| 28> H 4.7758225393 -1.0091652191 -0.6958203578
| 29> H 4.4513144712 -2.7511893503 -0.9487129228
| 30> H 1.6761732903 0.5483358063 2.6727516531
| 31> H 0.5569777126 -0.7715041894 3.1197009108
| 32> H 3.5488376065 -1.0468107674 2.5082556814
| 33> H 2.8129609753 -1.1635617822 4.1141473941
| 34> H 2.4716792376 -2.3996810569 2.8873947045
| 35> H -0.5949387437 1.6879734941 -2.0172010754
| 36> H 0.9983382971 2.0982661106 -1.2793223993
| 37> H -4.3389389974 1.9765000927 2.4576376122
| 38> H -2.7163860999 2.6149921894 2.0637442749
| 39> H -5.0419245429 2.4343493847 0.0816700922
| 40> H -4.5309876964 3.9131084712 0.9154822135
| 41> H -3.4489639561 3.1242121819 -0.2423634077
| 42> H -3.0229273578 -2.6389184205 -0.0816454819
| 43> H -1.947867635 -1.9551577783 -1.3246414331
| 44> H -1.0286888697 -3.4233525409 1.2030678207
| 45> H -1.0659681133 -4.1164417229 -0.4286835482
| 46> H 0.0386602407 -2.7854531754 -0.0523230164
| 47> *
| 48>
| 49>                          ****END OF INPUT****

CARTESIAN COORDINATES (ANGSTROEM)
---------------------------------
  C      3.774361   -1.457645   -2.553958
  C      4.066119   -1.741148   -1.094485
  O      2.876335   -1.706014   -0.287358
  P      2.076972   -0.364281    0.001989
  S      3.181674    1.233484    0.289427
  O      1.149772   -0.809907    1.205701
  C      1.471858   -0.523574    2.579353
  C      2.653787   -1.341520    3.055285
  S      0.646250   -0.269953   -1.553136
  C      0.131306    1.439427   -1.243311
  S     -0.619428    1.663407    0.388807
  P     -2.309187    0.420929    0.045801
  S     -3.051549    0.483379   -1.771959
  O     -3.262307    0.796870    1.254871
  C     -3.611558    2.133946    1.659169
  C     -4.198593    2.954888    0.529359
  O     -1.910172   -1.030446    0.537989
  C     -2.028825   -2.224361   -0.266136
  C     -0.946574   -3.201863    0.143001
  H      4.676491   -1.611554   -3.137344
  H      2.990741   -2.116974   -2.918854
  H      3.447515   -0.425670   -2.675809
  H      4.775823   -1.009165   -0.695820
  H      4.451314   -2.751189   -0.948713
  H      1.676173    0.548336    2.672752
  H      0.556978   -0.771504    3.119701
  H      3.548838   -1.046811    2.508256
  H      2.812961   -1.163562    4.114147
  H      2.471679   -2.399681    2.887395
  H     -0.594939    1.687973   -2.017201
  H      0.998338    2.098266   -1.279322
  H     -4.338939    1.976500    2.457638
  H     -2.716386    2.614992    2.063744
  H     -5.041925    2.434349    0.081670
  H     -4.530988    3.913108    0.915482
  H     -3.448964    3.124212   -0.242363
  H     -3.022927   -2.638918   -0.081645
  H     -1.947868   -1.955158   -1.324641
  H     -1.028689   -3.423353    1.203068
  H     -1.065968   -4.116442   -0.428684
  H      0.038660   -2.785453   -0.052323

 Total Charge           Charge          ....    0
 Multiplicity           Mult            ....    1
 Number of Electrons    NEL             ....  202
 Basis Dimension        Dim             ....  334

ORBITAL ENERGIES
----------------

  NO   OCC          E(Eh)            E(eV)
   0   2.0000     -88.046228     -2395.8597
   1   2.0000     -88.042977     -2395.7712
   2   2.0000     -87.993453     -2394.4236
   3   2.0000     -87.984668     -2394.1845
   4   2.0000     -76.430348     -2079.7755
   5   2.0000     -76.425261     -2079.6371
   6   2.0000     -18.799981      -511.5735
   7   2.0000     -18.791260      -511.3362
   8   2.0000     -18.790034      -511.3028
   9   2.0000     -18.783008      -511.1116
  10   2.0000      -9.957013      -270.9441
  11   2.0000      -9.956855      -270.9398
  12   2.0000      -9.955622      -270.9063
  13   2.0000      -9.950204      -270.7588
  14   2.0000      -9.942922      -270.5607
  15   2.0000      -9.887386      -269.0494
  16   2.0000      -9.884109      -268.9603
  17   2.0000      -9.882170      -268.9075
  18   2.0000      -9.876172      -268.7443
  19   2.0000      -7.690939      -209.2811
  20   2.0000      -7.687775      -209.1950
  21   2.0000      -7.638278      -207.8481
  22   2.0000      -7.629686      -207.6143
  23   2.0000      -6.427631      -174.9047
  24   2.0000      -6.422271      -174.7589
  25   2.0000      -5.718739      -155.6148
  26   2.0000      -5.715609      -155.5296
  27   2.0000      -5.715526      -155.5274
  28   2.0000      -5.712322      -155.4402
  29   2.0000      -5.707850      -155.3185
  30   2.0000      -5.704858      -155.2371
  31   2.0000      -5.667099      -154.2096
  32   2.0000      -5.658894      -153.9863
  33   2.0000      -5.658585      -153.9779
  34   2.0000      -5.658552      -153.9770
  35   2.0000      -5.650312      -153.7528
  36   2.0000      -5.649906      -153.7418
  37   2.0000      -4.650010      -126.5332
  38   2.0000      -4.649403      -126.5167
  39   2.0000      -4.648281      -126.4861
  40   2.0000      -4.644584      -126.3856
  41   2.0000      -4.644280      -126.3773
  42   2.0000      -4.642800      -126.3370
  43   2.0000      -0.990740       -26.9594
  44   2.0000      -0.983350       -26.7583
  45   2.0000      -0.949232       -25.8299
  46   2.0000      -0.939308       -25.5599
  47   2.0000      -0.767329       -20.8801
  48   2.0000      -0.721741       -19.6396
  49   2.0000      -0.709412       -19.3041
  50   2.0000      -0.689056       -18.7502
  51   2.0000      -0.682829       -18.5807
  52   2.0000      -0.674647       -18.3581
  53   2.0000      -0.652047       -17.7431
  54   2.0000      -0.639933       -17.4135
  55   2.0000      -0.604845       -16.4587
  56   2.0000      -0.593133       -16.1400
  57   2.0000      -0.574174       -15.6241
  58   2.0000      -0.569603       -15.4997
  59   2.0000      -0.557312       -15.1652
  60   2.0000      -0.500264       -13.6129
  61   2.0000      -0.494351       -13.4520
  62   2.0000      -0.476560       -12.9679
  63   2.0000      -0.468354       -12.7446
  64   2.0000      -0.459837       -12.5128
  65   2.0000      -0.443423       -12.0662
  66   2.0000      -0.442037       -12.0284
  67   2.0000      -0.431944       -11.7538
  68   2.0000      -0.422870       -11.5069
  69   2.0000      -0.417178       -11.3520
  70   2.0000      -0.412996       -11.2382
  71   2.0000      -0.397713       -10.8223
  72   2.0000      -0.394539       -10.7359
  73   2.0000      -0.389532       -10.5997
  74   2.0000      -0.381409       -10.3787
  75   2.0000      -0.379348       -10.3226
  76   2.0000      -0.368334       -10.0229
  77   2.0000      -0.357912        -9.7393
  78   2.0000      -0.350735        -9.5440
  79   2.0000      -0.348066        -9.4714
  80   2.0000      -0.347123        -9.4457
  81   2.0000      -0.345576        -9.4036
  82   2.0000      -0.341985        -9.3059
  83   2.0000      -0.337689        -9.1890
  84   2.0000      -0.327491        -8.9115
  85   2.0000      -0.323306        -8.7976
  86   2.0000      -0.311797        -8.4844
  87   2.0000      -0.299579        -8.1520
  88   2.0000      -0.295274        -8.0348
  89   2.0000      -0.286789        -7.8039
  90   2.0000      -0.282233        -7.6800
  91   2.0000      -0.276967        -7.5367
  92   2.0000      -0.270259        -7.3541
  93   2.0000      -0.268759        -7.3133
  94   2.0000      -0.253764        -6.9053
  95   2.0000      -0.233180        -6.3452
  96   2.0000      -0.219525        -5.9736
  97   2.0000      -0.216015        -5.8781
  98   2.0000      -0.210202        -5.7199
  99   2.0000      -0.200275        -5.4498
 100   2.0000      -0.198550        -5.4028
 101   0.0000      -0.048569        -1.3216
 102   0.0000      -0.025441        -0.6923
 103   0.0000      -0.003684        -0.1003
 104   0.0000      -0.000710        -0.0193
 105   0.0000       0.006833         0.1859

MULLIKEN ATOMIC CHARGES
-----------------------
   0 C :   -0.316891
   1 C :   -0.005934
   2 O :   -0.376116
   3 P :    0.617702
   4 S :   -0.328090
   5 O :   -0.356458
   6 C :   -0.001083
   7 C :   -0.305397
   8 S :   -0.076158
   9 C :   -0.354569
  10 S :   -0.100807
  11 P :    0.610754
  12 S :   -0.337349
  13 O :   -0.363985
  14 C :   -0.013499
  15 C :   -0.307940
  16 O :   -0.358448
  17 C :   -0.004416
  18 C :   -0.288382
  19 H :    0.115255
  20 H :    0.119412
  21 H :    0.128348
  22 H :    0.112208
  23 H :    0.107493
  24 H :    0.111122
  25 H :    0.107507
  26 H :    0.120038
  27 H :    0.112030
  28 H :    0.116435
  29 H :    0.193557
  30 H :    0.189681
  31 H :    0.109671
  32 H :    0.114627
  33 H :    0.126280
  34 H :    0.110605
  35 H :    0.124602
  36 H :    0.100987
  37 H :    0.112330
  38 H :    0.107205
  39 H :    0.102736
  40 H :    0.124941
Sum of atomic charges:    0.0000000

LOEWDIN ATOMIC CHARGES
----------------------
   0 C :   -0.369319
   1 C :   -0.118642
   2 O :   -0.242211
   3 P :    0.573577
   4 S :   -0.322748
   5 O :   -0.227985
   6 C :   -0.117853
   7 C :   -0.364359
   8 S :    0.104976
   9 C :   -0.481662
  10 S :    0.080240
  11 P :    0.572072
  12 S :   -0.319551
  13 O :   -0.240520
  14 C :   -0.115252
  15 C :   -0.369042
  16 O :   -0.237660
  17 C :   -0.118039
  18 C :   -0.355765
  19 H :    0.132209
  20 H :    0.125076
  21 H :    0.121858
  22 H :    0.111390
  23 H :    0.119852
  24 H :    0.109402
  25 H :    0.119900
  26 H :    0.121328
  27 H :    0.130290
  28 H :    0.126136
  29 H :    0.130349
  30 H :    0.130345
  31 H :    0.121615
  32 H :    0.108089
  33 H :    0.130101
  34 H :    0.129596
  35 H :    0.120785
  36 H :    0.112145
  37 H :    0.103007
  38 H :    0.123181
  39 H :    0.126826
  40 H :    0.116266

  Mayer bond orders larger than 0.100000
B(  0-C ,  1-C ) :   1.1662 B(  0-C , 19-H ) :   0.9376 B(  0-C , 20-H ) :   0.9448
B(  0-C , 21-H ) :   0.9354 B(  1-C ,  2-O ) :   0.9071 B(  1-C , 22-H ) :   0.9166
B(  1-C , 23-H ) :   0.9336 B(  2-O ,  3-P ) :   1.0933 B(  3-P ,  4-S ) :   1.5855
B(  3-P ,  5-O ) :   1.1166 B(  3-P ,  8-S ) :   0.9566 B(  4-S ,  8-S ) :   0.1051
B(  5-O ,  6-C ) :   0.9011 B(  6-C ,  7-C ) :   1.1639 B(  6-C , 24-H ) :   0.9159
B(  6-C , 25-H ) :   0.9329 B(  7-C , 26-H ) :   0.9360 B(  7-C , 27-H ) :   0.9399
B(  7-C , 28-H ) :   0.9469 B(  8-S ,  9-C ) :   1.0006 B(  9-C , 10-S ) :   1.0129
B(  9-C , 29-H ) :   0.8783 B(  9-C , 30-H ) :   0.8832 B( 10-S , 11-P ) :   0.9320
B( 10-S , 12-S ) :   0.1099 B( 11-P , 12-S ) :   1.6005 B( 11-P , 13-O ) :   1.1300
B( 11-P , 16-O ) :   1.1406 B( 13-O , 14-C ) :   0.9164 B( 14-C , 15-C ) :   1.1637
B( 14-C , 31-H ) :   0.9339 B( 14-C , 32-H ) :   0.9254 B( 15-C , 33-H ) :   0.9433
B( 15-C , 34-H ) :   0.9355 B( 15-C , 35-H ) :   0.9334 B( 16-O , 17-C ) :   0.8962
B( 17-C , 18-C ) :   1.1632 B( 17-C , 36-H ) :   0.9348 B( 17-C , 37-H ) :   0.9041
B( 18-C , 38-H ) :   0.9484 B( 18-C , 39-H ) :   0.9400 B( 18-C , 40-H ) :   0.9374

Dispersion correction           -0.067881616
FINAL SINGLE POINT ENERGY     -2929.524522092086

DIPOLE MOMENT
-------------

Method             : SCF
Type of density    : Electron Density
Multiplicity       :   1
Irrep              :   0
Energy             : -2929.6422690096687802 Eh
Relativity type    :
Basis              : AO
                                X                 Y                 Z
Electronic contribution:     -4.225163924       8.874339979      -5.236454931
Nuclear contribution   :      4.602801645      -9.392056296       5.910561929
                        -----------------------------------------
Total Dipole Moment    :      0.377637721      -0.517716317       0.674106999
                        -----------------------------------------
Magnitude (a.u.)       :      0.930086382
Magnitude (Debye)      :      2.364091707

Rotational constants in cm-1:             0.012735             0.005207             0.005048
Rotational constants in MHz :           381.794007           156.092632           151.328885

                             ****ORCA TERMINATED NORMALLY****
TOTAL RUN TIME: 0 days 0 hours 0 minutes 21 seconds 700 msec
