                         Program Version 6.0.0  -   RELEASE  -
|  1> ! r2scan-3c def2/J RI DEFGRID2 scfconv6 printgap
|  2> %output
|  3>     printlevel normal
|  4> end
|  5> * xyz 0 1
|  6> C 3.645876129 0.2157162034 -2.6862946662
|  7> C 2.1703100038 0.4469085673 -2.4408567935
|  8> O 1.6245736081 -0.4810726952 -1.484599388
|  9> P 2.0946920721 -0.5143270912 0.0304541967
| 10> S 2.6106254487 1.178609011 0.8814710801
| 11> O 3.2689778336 -1.5852758424 -0.058289548
| 12> C 4.2360291154 -1.7648843533 0.9892389409
| 13> C 3.6172122772 -2.3221899214 2.2552339659
| 14> S 0.5059601726 -1.6091215103 0.8773852137
| 15> C -0.3000067966 -0.3153648933 1.8926144234
| 16> S -2.0909956221 -0.2591193781 1.6614194079
| 17> P -2.2076160342 0.6902589632 -0.2387696839
| 18> S -0.6084223578 1.7229389905 -0.7398916269
| 19> O -3.5519668412 1.5095791635 -0.1586819256
| 20> C -3.6466748601 2.6857531905 0.6727197658
| 21> C -4.8962384129 3.4390311632 0.2645558537
| 22> O -2.7312191344 -0.3512935814 -1.3036767021
| 23> C -1.9170576532 -1.3794945559 -1.898504314
| 24> C -2.1962831641 -2.7212525959 -1.24914199
| 25> H 4.2122939586 0.4453456946 -1.7844030589
| 26> H 3.8215544843 -0.8214964022 -2.9597905707
| 27> H 3.9814256313 0.8663127884 -3.4878292083
| 28> H 1.5764131899 0.2731769311 -3.3396343177
| 29> H 1.9845813289 1.4629228001 -2.0755560914
| 30> H 4.9627255796 -2.4546700241 0.5580365418
| 31> H 4.7104882055 -0.798763728 1.1895827676
| 32> H 3.0453166615 -3.2198099978 2.0340183432
| 33> H 4.4039831031 -2.5596137875 2.9640597585
| 34> H 2.9544456951 -1.5810414063 2.7002862873
| 35> H 0.1441417465 0.6505113302 1.6387273607
| 36> H -0.1479495249 -0.5574659196 2.9409878173
| 37> H -3.6980372128 2.3650116343 1.7170596499
| 38> H -2.7464507284 3.2934996037 0.5276448071
| 39> H -4.8261408763 3.7415049785 -0.7763612883
| 40> H -5.7665338448 2.8013229743 0.3871704194
| 41> H -5.0018816861 4.3200059748 0.8890210502
| 42> H -2.2030895735 -1.3850056377 -2.9523738487
| 43> H -0.8589595792 -1.1061535043 -1.8180117435
| 44> H -3.2589230925 -2.9397236372 -1.3013739307
| 45> H -1.6416469207 -3.4914528462 -1.7752141006
| 46> H -1.8867094346 -2.7178866977 -0.2063166255
| 47> *
| 48>
| 49>                          ****END OF INPUT****

CARTESIAN COORDINATES (ANGSTROEM)
---------------------------------
  C      3.645876    0.215716   -2.686295
  C      2.170310    0.446909   -2.440857
  O      1.624574   -0.481073   -1.484599
  P      2.094692   -0.514327    0.030454
  S      2.610625    1.178609    0.881471
  O      3.268978   -1.585276   -0.058290
  C      4.236029   -1.764884    0.989239
  C      3.617212   -2.322190    2.255234
  S      0.505960   -1.609122    0.877385
  C     -0.300007   -0.315365    1.892614
  S     -2.090996   -0.259119    1.661419
  P     -2.207616    0.690259   -0.238770
  S     -0.608422    1.722939   -0.739892
  O     -3.551967    1.509579   -0.158682
  C     -3.646675    2.685753    0.672720
  C     -4.896238    3.439031    0.264556
  O     -2.731219   -0.351294   -1.303677
  C     -1.917058   -1.379495   -1.898504
  C     -2.196283   -2.721253   -1.249142
  H      4.212294    0.445346   -1.784403
  H      3.821554   -0.821496   -2.959791
  H      3.981426    0.866313   -3.487829
  H      1.576413    0.273177   -3.339634
  H      1.984581    1.462923   -2.075556
  H      4.962726   -2.454670    0.558037
  H      4.710488   -0.798764    1.189583
  H      3.045317   -3.219810    2.034018
  H      4.403983   -2.559614    2.964060
  H      2.954446   -1.581041    2.700286
  H      0.144142    0.650511    1.638727
  H     -0.147950   -0.557466    2.940988
  H     -3.698037    2.365012    1.717060
  H     -2.746451    3.293500    0.527645
  H     -4.826141    3.741505   -0.776361
  H     -5.766534    2.801323    0.387170
  H     -5.001882    4.320006    0.889021
  H     -2.203090   -1.385006   -2.952374
  H     -0.858960   -1.106154   -1.818012
  H     -3.258923   -2.939724   -1.301374
  H     -1.641647   -3.491453   -1.775214
  H     -1.886709   -2.717887   -0.206317

 Total Charge           Charge          ....    0
 Multiplicity           Mult            ....    1
 Number of Electrons    NEL             ....  202
 Basis Dimension        Dim             ....  539

ORBITAL ENERGIES
----------------

  NO   OCC          E(Eh)            E(eV)
   0   2.0000     -88.579030     -2410.3580
   1   2.0000     -88.574905     -2410.2457
   2   2.0000     -88.520269     -2408.7590
   3   2.0000     -88.515316     -2408.6242
   4   2.0000     -76.912943     -2092.9076
   5   2.0000     -76.911283     -2092.8624
   6   2.0000     -18.989944      -516.7427
   7   2.0000     -18.989150      -516.7210
   8   2.0000     -18.986585      -516.6512
   9   2.0000     -18.985342      -516.6174
  10   2.0000     -10.106842      -275.0212
  11   2.0000     -10.097213      -274.7591
  12   2.0000     -10.096887      -274.7503
  13   2.0000     -10.092937      -274.6428
  14   2.0000     -10.092671      -274.6355
  15   2.0000     -10.030539      -272.9448
  16   2.0000     -10.028223      -272.8818
  17   2.0000     -10.025191      -272.7993
  18   2.0000     -10.022950      -272.7383
  19   2.0000      -7.873237      -214.2417
  20   2.0000      -7.869549      -214.1413
  21   2.0000      -7.814918      -212.6547
  22   2.0000      -7.810063      -212.5226
  23   2.0000      -6.591345      -179.3596
  24   2.0000      -6.589856      -179.3191
  25   2.0000      -5.820210      -158.3760
  26   2.0000      -5.816780      -158.2826
  27   2.0000      -5.816294      -158.2694
  28   2.0000      -5.813501      -158.1934
  29   2.0000      -5.810592      -158.1142
  30   2.0000      -5.806618      -158.0061
  31   2.0000      -5.762604      -156.8084
  32   2.0000      -5.757753      -156.6764
  33   2.0000      -5.755392      -156.6122
  34   2.0000      -5.754714      -156.5937
  35   2.0000      -5.750378      -156.4757
  36   2.0000      -5.750006      -156.4656
  37   2.0000      -4.736563      -128.8884
  38   2.0000      -4.736175      -128.8779
  39   2.0000      -4.735448      -128.8581
  40   2.0000      -4.735215      -128.8518
  41   2.0000      -4.735038      -128.8469
  42   2.0000      -4.733438      -128.8034
  43   2.0000      -1.050910       -28.5967
  44   2.0000      -1.047086       -28.4927
  45   2.0000      -1.007617       -27.4186
  46   2.0000      -1.007161       -27.4062
  47   2.0000      -0.798924       -21.7398
  48   2.0000      -0.758081       -20.6284
  49   2.0000      -0.749020       -20.3819
  50   2.0000      -0.729293       -19.8451
  51   2.0000      -0.726514       -19.7695
  52   2.0000      -0.711485       -19.3605
  53   2.0000      -0.683297       -18.5935
  54   2.0000      -0.664228       -18.0746
  55   2.0000      -0.633401       -17.2357
  56   2.0000      -0.624227       -16.9861
  57   2.0000      -0.603224       -16.4146
  58   2.0000      -0.595300       -16.1989
  59   2.0000      -0.590351       -16.0643
  60   2.0000      -0.528596       -14.3838
  61   2.0000      -0.515018       -14.0144
  62   2.0000      -0.492681       -13.4065
  63   2.0000      -0.488663       -13.2972
  64   2.0000      -0.469082       -12.7644
  65   2.0000      -0.465105       -12.6561
  66   2.0000      -0.456761       -12.4291
  67   2.0000      -0.454745       -12.3742
  68   2.0000      -0.444514       -12.0958
  69   2.0000      -0.432477       -11.7683
  70   2.0000      -0.422679       -11.5017
  71   2.0000      -0.413473       -11.2512
  72   2.0000      -0.409010       -11.1297
  73   2.0000      -0.404953       -11.0193
  74   2.0000      -0.397258       -10.8099
  75   2.0000      -0.388721       -10.5776
  76   2.0000      -0.382104       -10.3976
  77   2.0000      -0.371588       -10.1114
  78   2.0000      -0.368636       -10.0311
  79   2.0000      -0.361652        -9.8410
  80   2.0000      -0.360011        -9.7964
  81   2.0000      -0.355978        -9.6867
  82   2.0000      -0.351931        -9.5765
  83   2.0000      -0.350998        -9.5511
  84   2.0000      -0.346173        -9.4198
  85   2.0000      -0.329473        -8.9654
  86   2.0000      -0.323413        -8.8005
  87   2.0000      -0.316390        -8.6094
  88   2.0000      -0.307841        -8.3768
  89   2.0000      -0.305102        -8.3023
  90   2.0000      -0.296028        -8.0553
  91   2.0000      -0.284515        -7.7420
  92   2.0000      -0.280740        -7.6393
  93   2.0000      -0.279233        -7.5983
  94   2.0000      -0.271804        -7.3962
  95   2.0000      -0.248529        -6.7628
  96   2.0000      -0.231999        -6.3130
  97   2.0000      -0.228957        -6.2302
  98   2.0000      -0.216764        -5.8985
  99   2.0000      -0.212578        -5.7845
 100   2.0000      -0.202189        -5.5018
 101   0.0000      -0.046887        -1.2759
 102   0.0000      -0.036979        -1.0063
 103   0.0000      -0.011980        -0.3260
 104   0.0000       0.007490         0.2038
 105   0.0000       0.017538         0.4772

MULLIKEN ATOMIC CHARGES
-----------------------
   0 C :   -0.448904
   1 C :   -0.153072
   2 O :   -0.292460
   3 P :    0.663661
   4 S :   -0.461668
   5 O :   -0.289424
   6 C :   -0.155788
   7 C :   -0.442028
   8 S :   -0.142185
   9 C :   -0.206561
  10 S :   -0.154428
  11 P :    0.691611
  12 S :   -0.424112
  13 O :   -0.305054
  14 C :   -0.149524
  15 C :   -0.436342
  16 O :   -0.285814
  17 C :   -0.152130
  18 C :   -0.425537
  19 H :    0.169120
  20 H :    0.155811
  21 H :    0.147274
  22 H :    0.152091
  23 H :    0.177112
  24 H :    0.147663
  25 H :    0.171926
  26 H :    0.156782
  27 H :    0.147376
  28 H :    0.169340
  29 H :    0.217909
  30 H :    0.192643
  31 H :    0.151411
  32 H :    0.169259
  33 H :    0.158035
  34 H :    0.153347
  35 H :    0.145555
  36 H :    0.148905
  37 H :    0.181443
  38 H :    0.151049
  39 H :    0.146580
  40 H :    0.159127
Sum of atomic charges:   -0.0000000

LOEWDIN ATOMIC CHARGES
----------------------
   0 C :   -0.400750
   1 C :    0.012458
   2 O :   -0.692530
   3 P :    0.374067
   4 S :   -0.122122
   5 O :   -0.668904
   6 C :    0.018303
   7 C :   -0.407428
   8 S :    0.158488
   9 C :   -0.415724
  10 S :    0.136086
  11 P :    0.379594
  12 S :   -0.084719
  13 O :   -0.652458
  14 C :    0.020393
  15 C :   -0.384557
  16 O :   -0.643325
  17 C :    0.022911
  18 C :   -0.403107
  19 H :    0.165104
  20 H :    0.161071
  21 H :    0.159424
  22 H :    0.181644
  23 H :    0.182737
  24 H :    0.179206
  25 H :    0.179214
  26 H :    0.161115
  27 H :    0.158318
  28 H :    0.162628
  29 H :    0.202671
  30 H :    0.178536
  31 H :    0.171775
  32 H :    0.180040
  33 H :    0.161902
  34 H :    0.160059
  35 H :    0.159521
  36 H :    0.177752
  37 H :    0.190526
  38 H :    0.158149
  39 H :    0.160135
  40 H :    0.161798

  Mayer bond orders larger than 0.100000
B(  0-C ,  1-C ) :   0.9132 B(  0-C , 19-H ) :   0.9614 B(  0-C , 20-H ) :   0.9712
B(  0-C , 21-H ) :   0.9600 B(  1-C ,  2-O ) :   0.8162 B(  1-C , 22-H ) :   0.9603
B(  1-C , 23-H ) :   0.9642 B(  2-O ,  3-P ) :   1.1635 B(  3-P ,  4-S ) :   1.7490
B(  3-P ,  5-O ) :   1.0545 B(  3-P ,  8-S ) :   1.1128 B(  5-O ,  6-C ) :   0.8234
B(  6-C ,  7-C ) :   0.9189 B(  6-C , 24-H ) :   0.9581 B(  6-C , 25-H ) :   0.9681
B(  7-C , 26-H ) :   0.9667 B(  7-C , 27-H ) :   0.9595 B(  7-C , 28-H ) :   0.9674
B(  8-S ,  9-C ) :   0.8791 B(  9-C , 10-S ) :   0.9239 B(  9-C , 29-H ) :   0.9013
B(  9-C , 30-H ) :   0.9128 B( 10-S , 11-P ) :   1.0082 B( 11-P , 12-S ) :   1.7711
B( 11-P , 13-O ) :   1.1449 B( 11-P , 16-O ) :   1.1590 B( 13-O , 14-C ) :   0.7841
B( 14-C , 15-C ) :   0.9599 B( 14-C , 31-H ) :   0.9437 B( 14-C , 32-H ) :   0.9515
B( 15-C , 33-H ) :   0.9714 B( 15-C , 34-H ) :   0.9717 B( 15-C , 35-H ) :   0.9644
B( 16-O , 17-C ) :   0.7566 B( 17-C , 18-C ) :   0.9492 B( 17-C , 36-H ) :   0.9642
B( 17-C , 37-H ) :   0.9562 B( 18-C , 38-H ) :   0.9734 B( 18-C , 39-H ) :   0.9688
B( 18-C , 40-H ) :   0.9550

Dispersion correction           -0.021828569
FINAL SINGLE POINT ENERGY     -2932.461320114665

DIPOLE MOMENT
-------------

Method             : SCF
Type of density    : Electron Density
Multiplicity       :   1
Irrep              :   0
Energy             : -2932.4860924651457026 Eh
Relativity type    :
Basis              : AO
                                X                 Y                 Z
Electronic contribution:     -3.515252207       2.707969636       4.610341202
Nuclear contribution   :      3.596749913      -3.402976274      -4.561407284
                        -----------------------------------------
Total Dipole Moment    :      0.081497706      -0.695006639       0.048933918
                        -----------------------------------------
Magnitude (a.u.)       :      0.701477464
Magnitude (Debye)      :      1.783014014

Rotational constants in cm-1:             0.012690             0.004896             0.004748
Rotational constants in MHz :           380.435484           146.775287           142.352611

                             ****ORCA TERMINATED NORMALLY****
TOTAL RUN TIME: 0 days 0 hours 1 minutes 19 seconds 600 msec
