                         Program Version 6.0.0  -   RELEASE  -
|  1> ! r2scan-3c def2/J RI DEFGRID2 scfconv6 printgap
|  2> %output
|  3>     printlevel normal
|  4> end
|  5> %cpcm
|  6>     smd true
|  7>     smdsolvent "water"
|  8> end
|  9> * xyz 0 1
| 10> C 3.645876129 0.2157162034 -2.6862946662
| 11> C 2.1703100038 0.4469085673 -2.4408567935
| 12> O 1.6245736081 -0.4810726952 -1.484599388
| 13> P 2.0946920721 -0.5143270912 0.0304541967
| 14> S 2.6106254487 1.178609011 0.8814710801
| 15> O 3.2689778336 -1.5852758424 -0.058289548
| 16> C 4.2360291154 -1.7648843533 0.9892389409
| 17> C 3.6172122772 -2.3221899214 2.2552339659
| 18> S 0.5059601726 -1.6091215103 0.8773852137
| 19> C -0.3000067966 -0.3153648933 1.8926144234
| 20> S -2.0909956221 -0.2591193781 1.6614194079
| 21> P -2.2076160342 0.6902589632 -0.2387696839
| 22> S -0.6084223578 1.7229389905 -0.7398916269
| 23> O -3.5519668412 1.5095791635 -0.1586819256
| 24> C -3.6466748601 2.6857531905 0.6727197658
| 25> C -4.8962384129 3.4390311632 0.2645558537
| 26> O -2.7312191344 -0.3512935814 -1.3036767021
| 27> C -1.9170576532 -1.3794945559 -1.898504314
| 28> C -2.1962831641 -2.7212525959 -1.24914199
| 29> H 4.2122939586 0.4453456946 -1.7844030589
| 30> H 3.8215544843 -0.8214964022 -2.9597905707
| 31> H 3.9814256313 0.8663127884 -3.4878292083
| 32> H 1.5764131899 0.2731769311 -3.3396343177
| 33> H 1.9845813289 1.4629228001 -2.0755560914
| 34> H 4.9627255796 -2.4546700241 0.5580365418
| 35> H 4.7104882055 -0.798763728 1.1895827676
| 36> H 3.0453166615 -3.2198099978 2.0340183432
| 37> H 4.4039831031 -2.5596137875 2.9640597585
| 38> H 2.9544456951 -1.5810414063 2.7002862873
| 39> H 0.1441417465 0.6505113302 1.6387273607
| 40> H -0.1479495249 -0.5574659196 2.9409878173
| 41> H -3.6980372128 2.3650116343 1.7170596499
| 42> H -2.7464507284 3.2934996037 0.5276448071
| 43> H -4.8261408763 3.7415049785 -0.7763612883
| 44> H -5.7665338448 2.8013229743 0.3871704194
| 45> H -5.0018816861 4.3200059748 0.8890210502
| 46> H -2.2030895735 -1.3850056377 -2.9523738487
| 47> H -0.8589595792 -1.1061535043 -1.8180117435
| 48> H -3.2589230925 -2.9397236372 -1.3013739307
| 49> H -1.6416469207 -3.4914528462 -1.7752141006
| 50> H -1.8867094346 -2.7178866977 -0.2063166255
| 51> *
| 52>
| 53>                          ****END OF INPUT****

CARTESIAN COORDINATES (ANGSTROEM)
---------------------------------
  C      3.645876    0.215716   -2.686295
  C      2.170310    0.446909   -2.440857
  O      1.624574   -0.481073   -1.484599
  P      2.094692   -0.514327    0.030454
  S      2.610625    1.178609    0.881471
  O      3.268978   -1.585276   -0.058290
  C      4.236029   -1.764884    0.989239
  C      3.617212   -2.322190    2.255234
  S      0.505960   -1.609122    0.877385
  C     -0.300007   -0.315365    1.892614
  S     -2.090996   -0.259119    1.661419
  P     -2.207616    0.690259   -0.238770
  S     -0.608422    1.722939   -0.739892
  O     -3.551967    1.509579   -0.158682
  C     -3.646675    2.685753    0.672720
  C     -4.896238    3.439031    0.264556
  O     -2.731219   -0.351294   -1.303677
  C     -1.917058   -1.379495   -1.898504
  C     -2.196283   -2.721253   -1.249142
  H      4.212294    0.445346   -1.784403
  H      3.821554   -0.821496   -2.959791
  H      3.981426    0.866313   -3.487829
  H      1.576413    0.273177   -3.339634
  H      1.984581    1.462923   -2.075556
  H      4.962726   -2.454670    0.558037
  H      4.710488   -0.798764    1.189583
  H      3.045317   -3.219810    2.034018
  H      4.403983   -2.559614    2.964060
  H      2.954446   -1.581041    2.700286
  H      0.144142    0.650511    1.638727
  H     -0.147950   -0.557466    2.940988
  H     -3.698037    2.365012    1.717060
  H     -2.746451    3.293500    0.527645
  H     -4.826141    3.741505   -0.776361
  H     -5.766534    2.801323    0.387170
  H     -5.001882    4.320006    0.889021
  H     -2.203090   -1.385006   -2.952374
  H     -0.858960   -1.106154   -1.818012
  H     -3.258923   -2.939724   -1.301374
  H     -1.641647   -3.491453   -1.775214
  H     -1.886709   -2.717887   -0.206317

 Total Charge           Charge          ....    0
 Multiplicity           Mult            ....    1
 Number of Electrons    NEL             ....  202
 Basis Dimension        Dim             ....  539

ORBITAL ENERGIES
----------------

  NO   OCC          E(Eh)            E(eV)
   0   2.0000     -88.583104     -2410.4688
   1   2.0000     -88.577028     -2410.3035
   2   2.0000     -88.527333     -2408.9512
   3   2.0000     -88.525140     -2408.8915
   4   2.0000     -76.918821     -2093.0675
   5   2.0000     -76.917772     -2093.0390
   6   2.0000     -18.996222      -516.9135
   7   2.0000     -18.994639      -516.8704
   8   2.0000     -18.991774      -516.7925
   9   2.0000     -18.989074      -516.7190
  10   2.0000     -10.105528      -274.9854
  11   2.0000     -10.091016      -274.5905
  12   2.0000     -10.090154      -274.5671
  13   2.0000     -10.088102      -274.5112
  14   2.0000     -10.087975      -274.5077
  15   2.0000     -10.019771      -272.6518
  16   2.0000     -10.017889      -272.6006
  17   2.0000     -10.017512      -272.5904
  18   2.0000     -10.017141      -272.5803
  19   2.0000      -7.877241      -214.3506
  20   2.0000      -7.871642      -214.1983
  21   2.0000      -7.822296      -212.8555
  22   2.0000      -7.820103      -212.7958
  23   2.0000      -6.597530      -179.5279
  24   2.0000      -6.596231      -179.4926
  25   2.0000      -5.824233      -158.4855
  26   2.0000      -5.820799      -158.3920
  27   2.0000      -5.818414      -158.3271
  28   2.0000      -5.815615      -158.2509
  29   2.0000      -5.814580      -158.2228
  30   2.0000      -5.808675      -158.0621
  31   2.0000      -5.769915      -157.0074
  32   2.0000      -5.767723      -156.9477
  33   2.0000      -5.762747      -156.8123
  34   2.0000      -5.762126      -156.7954
  35   2.0000      -5.760359      -156.7473
  36   2.0000      -5.760133      -156.7412
  37   2.0000      -4.742872      -129.0601
  38   2.0000      -4.742731      -129.0563
  39   2.0000      -4.741434      -129.0210
  40   2.0000      -4.741118      -129.0124
  41   2.0000      -4.741039      -129.0102
  42   2.0000      -4.740401      -128.9929
  43   2.0000      -1.058045       -28.7909
  44   2.0000      -1.049968       -28.5711
  45   2.0000      -1.013971       -27.5915
  46   2.0000      -1.009504       -27.4700
  47   2.0000      -0.800305       -21.7774
  48   2.0000      -0.757299       -20.6071
  49   2.0000      -0.745784       -20.2938
  50   2.0000      -0.722348       -19.6561
  51   2.0000      -0.721386       -19.6299
  52   2.0000      -0.711389       -19.3579
  53   2.0000      -0.688377       -18.7317
  54   2.0000      -0.670613       -18.2483
  55   2.0000      -0.633313       -17.2333
  56   2.0000      -0.623071       -16.9546
  57   2.0000      -0.598033       -16.2733
  58   2.0000      -0.593618       -16.1532
  59   2.0000      -0.587182       -15.9780
  60   2.0000      -0.528725       -14.3873
  61   2.0000      -0.512671       -13.9505
  62   2.0000      -0.495336       -13.4788
  63   2.0000      -0.486734       -13.2447
  64   2.0000      -0.471026       -12.8173
  65   2.0000      -0.465497       -12.6668
  66   2.0000      -0.454090       -12.3564
  67   2.0000      -0.452409       -12.3107
  68   2.0000      -0.442490       -12.0408
  69   2.0000      -0.429393       -11.6844
  70   2.0000      -0.422174       -11.4879
  71   2.0000      -0.414422       -11.2770
  72   2.0000      -0.406647       -11.0654
  73   2.0000      -0.402885       -10.9631
  74   2.0000      -0.396521       -10.7899
  75   2.0000      -0.388162       -10.5624
  76   2.0000      -0.381122       -10.3709
  77   2.0000      -0.366231        -9.9657
  78   2.0000      -0.362707        -9.8697
  79   2.0000      -0.355856        -9.6833
  80   2.0000      -0.354563        -9.6482
  81   2.0000      -0.350290        -9.5319
  82   2.0000      -0.349029        -9.4976
  83   2.0000      -0.346547        -9.4300
  84   2.0000      -0.344137        -9.3644
  85   2.0000      -0.328718        -8.9449
  86   2.0000      -0.321859        -8.7582
  87   2.0000      -0.316529        -8.6132
  88   2.0000      -0.306292        -8.3346
  89   2.0000      -0.303441        -8.2571
  90   2.0000      -0.296857        -8.0779
  91   2.0000      -0.285380        -7.7656
  92   2.0000      -0.282887        -7.6977
  93   2.0000      -0.280324        -7.6280
  94   2.0000      -0.275685        -7.5018
  95   2.0000      -0.251735        -6.8500
  96   2.0000      -0.239145        -6.5075
  97   2.0000      -0.236124        -6.4253
  98   2.0000      -0.224151        -6.0995
  99   2.0000      -0.219855        -5.9826
 100   2.0000      -0.212032        -5.7697
 101   0.0000      -0.051443        -1.3998
 102   0.0000      -0.041642        -1.1331
 103   0.0000      -0.015330        -0.4172
 104   0.0000       0.001974         0.0537
 105   0.0000       0.013430         0.3655

MULLIKEN ATOMIC CHARGES
-----------------------
   0 C :   -0.491489
   1 C :   -0.150820
   2 O :   -0.315086
   3 P :    0.706918
   4 S :   -0.517063
   5 O :   -0.318377
   6 C :   -0.157939
   7 C :   -0.476077
   8 S :   -0.141370
   9 C :   -0.204277
  10 S :   -0.155423
  11 P :    0.705705
  12 S :   -0.468176
  13 O :   -0.335745
  14 C :   -0.140422
  15 C :   -0.479054
  16 O :   -0.317169
  17 C :   -0.138838
  18 C :   -0.468460
  19 H :    0.170060
  20 H :    0.169453
  21 H :    0.171677
  22 H :    0.177748
  23 H :    0.176102
  24 H :    0.173869
  25 H :    0.177313
  26 H :    0.166488
  27 H :    0.171638
  28 H :    0.171045
  29 H :    0.211842
  30 H :    0.234482
  31 H :    0.170601
  32 H :    0.172522
  33 H :    0.166206
  34 H :    0.165876
  35 H :    0.169710
  36 H :    0.175512
  37 H :    0.174322
  38 H :    0.165429
  39 H :    0.172116
  40 H :    0.159151
Sum of atomic charges:   -0.0000000

LOEWDIN ATOMIC CHARGES
----------------------
   0 C :   -0.403646
   1 C :    0.014583
   2 O :   -0.703680
   3 P :    0.379848
   4 S :   -0.155302
   5 O :   -0.681674
   6 C :    0.023292
   7 C :   -0.410065
   8 S :    0.161967
   9 C :   -0.408301
  10 S :    0.141856
  11 P :    0.379063
  12 S :   -0.112637
  13 O :   -0.672462
  14 C :    0.024902
  15 C :   -0.388314
  16 O :   -0.662425
  17 C :    0.026598
  18 C :   -0.406578
  19 H :    0.163085
  20 H :    0.164509
  21 H :    0.168468
  22 H :    0.191092
  23 H :    0.181650
  24 H :    0.190161
  25 H :    0.180971
  26 H :    0.163371
  27 H :    0.167157
  28 H :    0.160820
  29 H :    0.200381
  30 H :    0.195159
  31 H :    0.179903
  32 H :    0.181520
  33 H :    0.163054
  34 H :    0.163342
  35 H :    0.169163
  36 H :    0.188654
  37 H :    0.188954
  38 H :    0.162381
  39 H :    0.169450
  40 H :    0.159732

  Mayer bond orders larger than 0.100000
B(  0-C ,  1-C ) :   0.9070 B(  0-C , 19-H ) :   0.9614 B(  0-C , 20-H ) :   0.9696
B(  0-C , 21-H ) :   0.9539 B(  1-C ,  2-O ) :   0.8021 B(  1-C , 22-H ) :   0.9494
B(  1-C , 23-H ) :   0.9613 B(  2-O ,  3-P ) :   1.1675 B(  3-P ,  4-S ) :   1.6944
B(  3-P ,  5-O ) :   1.0617 B(  3-P ,  8-S ) :   1.1319 B(  5-O ,  6-C ) :   0.8110
B(  6-C ,  7-C ) :   0.9073 B(  6-C , 24-H ) :   0.9484 B(  6-C , 25-H ) :   0.9663
B(  7-C , 26-H ) :   0.9646 B(  7-C , 27-H ) :   0.9544 B(  7-C , 28-H ) :   0.9666
B(  8-S ,  9-C ) :   0.8754 B(  9-C , 10-S ) :   0.9183 B(  9-C , 29-H ) :   0.9054
B(  9-C , 30-H ) :   0.8972 B( 10-S , 11-P ) :   1.0310 B( 11-P , 12-S ) :   1.7481
B( 11-P , 13-O ) :   1.1425 B( 11-P , 16-O ) :   1.1540 B( 13-O , 14-C ) :   0.7781
B( 14-C , 15-C ) :   0.9549 B( 14-C , 31-H ) :   0.9347 B( 14-C , 32-H ) :   0.9471
B( 15-C , 33-H ) :   0.9697 B( 15-C , 34-H ) :   0.9693 B( 15-C , 35-H ) :   0.9581
B( 16-O , 17-C ) :   0.7493 B( 17-C , 18-C ) :   0.9417 B( 17-C , 36-H ) :   0.9539
B( 17-C , 37-H ) :   0.9521 B( 18-C , 38-H ) :   0.9713 B( 18-C , 39-H ) :   0.9631
B( 18-C , 40-H ) :   0.9556

Dispersion correction           -0.021828569
FINAL SINGLE POINT ENERGY     -2932.468230166760

DIPOLE MOMENT
-------------

Method             : SCF
Type of density    : Electron Density
Multiplicity       :   1
Irrep              :   0
Energy             : -2932.4930025172407113 Eh
Relativity type    :
Basis              : AO
                                X                 Y                 Z
Electronic contribution:     -3.402056505       2.343324814       4.824533610
Nuclear contribution   :      3.596749913      -3.402976274      -4.561407284
                        -----------------------------------------
Total Dipole Moment    :      0.194693408      -1.059651461       0.263126326
                        -----------------------------------------
Magnitude (a.u.)       :      1.109054645
Magnitude (Debye)      :      2.818992877

Rotational constants in cm-1:             0.012690             0.004896             0.004748
Rotational constants in MHz :           380.435484           146.775287           142.352611

                             ****ORCA TERMINATED NORMALLY****
TOTAL RUN TIME: 0 days 0 hours 1 minutes 47 seconds 441 msec
