                         Program Version 6.0.1  -  RELEASE   -
|  1> ! r2scan-3c def2/J RI DEFGRID2 scfconv6 printgap
|  2> %output
|  3>     printlevel normal
|  4> end
|  5> * xyz 0 1
|  6> C 4.6690620343 0.2971049003 0.5683286242
|  7> C 4.41426603 -0.765947351 -0.4855595605
|  8> O 3.0243278302 -0.7218423722 -0.871141565
|  9> C 2.3189779486 -1.8407358281 -0.8808306878
| 10> O 2.77127295 -2.9353396691 -0.6321631255
| 11> C 0.8715357131 -1.6000664722 -1.2543232048
| 12> C 0.5251876945 -0.1220149329 -1.2551580014
| 13> H 1.0324657492 0.4234319579 -2.052711738
| 14> C 0.8357126097 0.5331560344 0.0752102706
| 15> O 0.8495220693 -0.0619093699 1.1316580566
| 16> O 1.0499773355 1.820764455 -0.057084268
| 17> C 1.3280519653 2.582217775 1.1368557476
| 18> C 1.2914910218 4.0538847519 0.7765135357
| 19> S -1.2539363721 0.162564799 -1.5693363643
| 20> P -2.1144176595 -0.1890163053 0.3478562249
| 21> S -1.7506673037 -1.8751277332 1.2735915838
| 22> O -1.8362237435 1.1063328987 1.2179395999
| 23> C -2.2924565527 2.4130744921 0.799625814
| 24> O -3.6566028329 0.0234214782 -0.0082067102
| 25> C -4.397481593 -0.9739304481 -0.7215604732
| 26> H 4.0408091062 0.1159616892 1.43819074
| 27> H 5.7106397901 0.2612422234 0.86970057
| 28> H 4.4450939199 1.2811212994 0.1657711468
| 29> H 4.6376492037 -1.7689804865 -0.1116224946
| 30> H 4.9940903544 -0.5727471966 -1.3911746115
| 31> H 0.2645749072 -2.1435326356 -0.5231818852
| 32> H 0.6839557292 -2.0402884403 -2.2350259669
| 33> H 0.5849921805 2.3154950641 1.8952024911
| 34> H 2.3126924043 2.2804572578 1.50638809
| 35> H 2.0297756431 4.2645921332 0.0090262211
| 36> H 0.310052499 4.3297617825 0.4033917639
| 37> H 1.5165933931 4.6412721242 1.660349002
| 38> H -1.8433551806 2.6737074554 -0.159136132
| 39> H -1.9652405103 3.0916903832 1.5831686392
| 40> H -3.3768686043 2.414641153 0.7165194377
| 41> H -4.1696506686 -1.9647188192 -0.3253217307
| 42> H -4.1483698163 -0.9281290536 -1.7808916192
| 43> H -5.4450252841 -0.7319733856 -0.5613650668
| 44> *
| 45>
| 46>                          ****END OF INPUT****

CARTESIAN COORDINATES (ANGSTROEM)
---------------------------------
  C      4.669062    0.297105    0.568329
  C      4.414266   -0.765947   -0.485560
  O      3.024328   -0.721842   -0.871142
  C      2.318978   -1.840736   -0.880831
  O      2.771273   -2.935340   -0.632163
  C      0.871536   -1.600066   -1.254323
  C      0.525188   -0.122015   -1.255158
  H      1.032466    0.423432   -2.052712
  C      0.835713    0.533156    0.075210
  O      0.849522   -0.061909    1.131658
  O      1.049977    1.820764   -0.057084
  C      1.328052    2.582218    1.136856
  C      1.291491    4.053885    0.776514
  S     -1.253936    0.162565   -1.569336
  P     -2.114418   -0.189016    0.347856
  S     -1.750667   -1.875128    1.273592
  O     -1.836224    1.106333    1.217940
  C     -2.292457    2.413074    0.799626
  O     -3.656603    0.023421   -0.008207
  C     -4.397482   -0.973930   -0.721560
  H      4.040809    0.115962    1.438191
  H      5.710640    0.261242    0.869701
  H      4.445094    1.281121    0.165771
  H      4.637649   -1.768980   -0.111622
  H      4.994090   -0.572747   -1.391175
  H      0.264575   -2.143533   -0.523182
  H      0.683956   -2.040288   -2.235026
  H      0.584992    2.315495    1.895202
  H      2.312692    2.280457    1.506388
  H      2.029776    4.264592    0.009026
  H      0.310052    4.329762    0.403392
  H      1.516593    4.641272    1.660349
  H     -1.843355    2.673707   -0.159136
  H     -1.965241    3.091690    1.583169
  H     -3.376869    2.414641    0.716519
  H     -4.169651   -1.964719   -0.325322
  H     -4.148370   -0.928129   -1.780892
  H     -5.445025   -0.731973   -0.561365

 Total Charge           Charge          ....    0
 Multiplicity           Mult            ....    1
 Number of Electrons    NEL             ....  174
 Basis Dimension        Dim             ....  510

ORBITAL ENERGIES
----------------

  NO   OCC          E(Eh)            E(eV)
   0   2.0000     -88.580790     -2410.4058
   1   2.0000     -88.515086     -2408.6179
   2   2.0000     -76.915637     -2092.9809
   3   2.0000     -19.008860      -517.2574
   4   2.0000     -19.003129      -517.1014
   5   2.0000     -18.998189      -516.9670
   6   2.0000     -18.995592      -516.8963
   7   2.0000     -18.935879      -515.2715
   8   2.0000     -18.926964      -515.0289
   9   2.0000     -10.164410      -276.5877
  10   2.0000     -10.156397      -276.3696
  11   2.0000     -10.101320      -274.8709
  12   2.0000     -10.100574      -274.8506
  13   2.0000     -10.098628      -274.7976
  14   2.0000     -10.094556      -274.6868
  15   2.0000     -10.094253      -274.6786
  16   2.0000     -10.050329      -273.4834
  17   2.0000     -10.042085      -273.2590
  18   2.0000     -10.034646      -273.0566
  19   2.0000      -7.874967      -214.2887
  20   2.0000      -7.809510      -212.5076
  21   2.0000      -6.593690      -179.4234
  22   2.0000      -5.821768      -158.4183
  23   2.0000      -5.818824      -158.3383
  24   2.0000      -5.812181      -158.1575
  25   2.0000      -5.757510      -156.6698
  26   2.0000      -5.749597      -156.4545
  27   2.0000      -5.749437      -156.4501
  28   2.0000      -4.739705      -128.9739
  29   2.0000      -4.738772      -128.9486
  30   2.0000      -4.736839      -128.8959
  31   2.0000      -1.087048       -29.5801
  32   2.0000      -1.076114       -29.2826
  33   2.0000      -1.054424       -28.6923
  34   2.0000      -1.012485       -27.5511
  35   2.0000      -0.986908       -26.8551
  36   2.0000      -0.978040       -26.6138
  37   2.0000      -0.813430       -22.1345
  38   2.0000      -0.759275       -20.6609
  39   2.0000      -0.752401       -20.4739
  40   2.0000      -0.732372       -19.9288
  41   2.0000      -0.699478       -19.0338
  42   2.0000      -0.681059       -18.5326
  43   2.0000      -0.661449       -17.9989
  44   2.0000      -0.649038       -17.6612
  45   2.0000      -0.624566       -16.9953
  46   2.0000      -0.598636       -16.2897
  47   2.0000      -0.548669       -14.9300
  48   2.0000      -0.537292       -14.6205
  49   2.0000      -0.535166       -14.5626
  50   2.0000      -0.503865       -13.7109
  51   2.0000      -0.498982       -13.5780
  52   2.0000      -0.480722       -13.0811
  53   2.0000      -0.475421       -12.9369
  54   2.0000      -0.460449       -12.5295
  55   2.0000      -0.454814       -12.3761
  56   2.0000      -0.451855       -12.2956
  57   2.0000      -0.444704       -12.1010
  58   2.0000      -0.437357       -11.9011
  59   2.0000      -0.432245       -11.7620
  60   2.0000      -0.420878       -11.4527
  61   2.0000      -0.418326       -11.3832
  62   2.0000      -0.410178       -11.1615
  63   2.0000      -0.401315       -10.9203
  64   2.0000      -0.389577       -10.6009
  65   2.0000      -0.384670       -10.4674
  66   2.0000      -0.379980       -10.3398
  67   2.0000      -0.371155       -10.0996
  68   2.0000      -0.368002       -10.0138
  69   2.0000      -0.361981        -9.8500
  70   2.0000      -0.350490        -9.5373
  71   2.0000      -0.344928        -9.3860
  72   2.0000      -0.336182        -9.1480
  73   2.0000      -0.332678        -9.0526
  74   2.0000      -0.328247        -8.9321
  75   2.0000      -0.323231        -8.7956
  76   2.0000      -0.316093        -8.6013
  77   2.0000      -0.312624        -8.5069
  78   2.0000      -0.292909        -7.9704
  79   2.0000      -0.282177        -7.6784
  80   2.0000      -0.281008        -7.6466
  81   2.0000      -0.271159        -7.3786
  82   2.0000      -0.260241        -7.0815
  83   2.0000      -0.243651        -6.6301
  84   2.0000      -0.232666        -6.3312
  85   2.0000      -0.209006        -5.6874
  86   2.0000      -0.205974        -5.6048
  87   0.0000      -0.048561        -1.3214
  88   0.0000      -0.032587        -0.8867
  89   0.0000      -0.011769        -0.3203
  90   0.0000       0.000324         0.0088
  91   0.0000       0.018950         0.5157

MULLIKEN ATOMIC CHARGES
-----------------------
   0 C :   -0.478875
   1 C :   -0.161744
   2 O :   -0.134171
   3 C :    0.334891
   4 O :   -0.408781
   5 C :   -0.337530
   6 C :   -0.021821
   7 H :    0.193047
   8 C :    0.279287
   9 O :   -0.395411
  10 O :   -0.140468
  11 C :   -0.152573
  12 C :   -0.455677
  13 S :   -0.201930
  14 P :    0.708931
  15 S :   -0.402613
  16 O :   -0.308615
  17 C :   -0.296332
  18 O :   -0.341968
  19 C :   -0.289079
  20 H :    0.177781
  21 H :    0.150116
  22 H :    0.153096
  23 H :    0.193110
  24 H :    0.144426
  25 H :    0.218591
  26 H :    0.184854
  27 H :    0.179319
  28 H :    0.156349
  29 H :    0.154301
  30 H :    0.151884
  31 H :    0.154089
  32 H :    0.180480
  33 H :    0.156520
  34 H :    0.169966
  35 H :    0.181198
  36 H :    0.153302
  37 H :    0.152051
Sum of atomic charges:   -0.0000000

LOEWDIN ATOMIC CHARGES
----------------------
   0 C :   -0.389480
   1 C :    0.038413
   2 O :   -0.605978
   3 C :    0.371947
   4 O :   -0.418797
   5 C :   -0.211711
   6 C :   -0.194917
   7 H :    0.204599
   8 C :    0.327195
   9 O :   -0.413037
  10 O :   -0.577957
  11 C :    0.033203
  12 C :   -0.385698
  13 S :    0.185471
  14 P :    0.388605
  15 S :   -0.061105
  16 O :   -0.652611
  17 C :   -0.056050
  18 O :   -0.689040
  19 C :   -0.057009
  20 H :    0.166300
  21 H :    0.160046
  22 H :    0.155443
  23 H :    0.198342
  24 H :    0.175444
  25 H :    0.213957
  26 H :    0.189352
  27 H :    0.189558
  28 H :    0.179671
  29 H :    0.160539
  30 H :    0.157539
  31 H :    0.161674
  32 H :    0.175317
  33 H :    0.178243
  34 H :    0.177669
  35 H :    0.179996
  36 H :    0.167517
  37 H :    0.177350

  Mayer bond orders larger than 0.100000
B(  0-C ,  1-C ) :   0.9217 B(  0-C , 20-H ) :   0.9711 B(  0-C , 21-H ) :   0.9617
B(  0-C , 22-H ) :   0.9726 B(  1-C ,  2-O ) :   0.7932 B(  1-C , 23-H ) :   0.9723
B(  1-C , 24-H ) :   0.9537 B(  2-O ,  3-C ) :   1.0863 B(  3-C ,  4-O ) :   1.8935
B(  3-C ,  5-C ) :   0.9698 B(  5-C ,  6-C ) :   1.0006 B(  5-C , 25-H ) :   0.9126
B(  5-C , 26-H ) :   0.9419 B(  6-C ,  7-H ) :   0.9533 B(  6-C ,  8-C ) :   0.9042
B(  6-C , 13-S ) :   0.7801 B(  8-C ,  9-O ) :   1.7943 B(  8-C , 10-O ) :   1.0686
B( 10-O , 11-C ) :   0.7603 B( 11-C , 12-C ) :   0.9325 B( 11-C , 27-H ) :   0.9643
B( 11-C , 28-H ) :   0.9391 B( 12-C , 29-H ) :   0.9700 B( 12-C , 30-H ) :   0.9772
B( 12-C , 31-H ) :   0.9710 B( 13-S , 14-P ) :   0.9941 B( 14-P , 15-S ) :   1.8936
B( 14-P , 16-O ) :   1.1217 B( 14-P , 18-O ) :   1.0259 B( 16-O , 17-C ) :   0.7911
B( 17-C , 32-H ) :   0.9552 B( 17-C , 33-H ) :   0.9632 B( 17-C , 34-H ) :   0.9575
B( 18-O , 19-C ) :   0.8288 B( 19-C , 35-H ) :   0.9562 B( 19-C , 36-H ) :   0.9572
B( 19-C , 37-H ) :   0.9678

Dispersion correction           -0.018134109
FINAL SINGLE POINT ENERGY     -1981.450537998725

DIPOLE MOMENT
-------------

Method             : SCF
Type of density    : Electron Density
Multiplicity       :   1
Irrep              :   0
Energy             : -1981.4695165330899727 Eh
Relativity type    :
Basis              : AO
                                X                 Y                 Z
Electronic contribution:    -12.901726618     -14.571678149      -1.713407284
Nuclear contribution   :     12.905583615      17.040693771       0.748131767
                        -----------------------------------------
Total Dipole Moment    :      0.003856997       2.469015622      -0.965275517
                        -----------------------------------------
Magnitude (a.u.)       :      2.651001668
Magnitude (Debye)      :      6.738310737

Rotational constants in cm-1:             0.014082             0.007445             0.005774
Rotational constants in MHz :           422.180133           223.208350           173.113421

                             ****ORCA TERMINATED NORMALLY****
TOTAL RUN TIME: 0 days 0 hours 1 minutes 22 seconds 735 msec
