                         Program Version 6.0.1  -  RELEASE   -
|  1> ! r2scan-3c def2/J RI DEFGRID2 scfconv6 printgap
|  2> %output
|  3>     printlevel normal
|  4> end
|  5> %cpcm
|  6>     smd true
|  7>     smdsolvent "water"
|  8> end
|  9> * xyz 0 1
| 10> C 4.6690620343 0.2971049003 0.5683286242
| 11> C 4.41426603 -0.765947351 -0.4855595605
| 12> O 3.0243278302 -0.7218423722 -0.871141565
| 13> C 2.3189779486 -1.8407358281 -0.8808306878
| 14> O 2.77127295 -2.9353396691 -0.6321631255
| 15> C 0.8715357131 -1.6000664722 -1.2543232048
| 16> C 0.5251876945 -0.1220149329 -1.2551580014
| 17> H 1.0324657492 0.4234319579 -2.052711738
| 18> C 0.8357126097 0.5331560344 0.0752102706
| 19> O 0.8495220693 -0.0619093699 1.1316580566
| 20> O 1.0499773355 1.820764455 -0.057084268
| 21> C 1.3280519653 2.582217775 1.1368557476
| 22> C 1.2914910218 4.0538847519 0.7765135357
| 23> S -1.2539363721 0.162564799 -1.5693363643
| 24> P -2.1144176595 -0.1890163053 0.3478562249
| 25> S -1.7506673037 -1.8751277332 1.2735915838
| 26> O -1.8362237435 1.1063328987 1.2179395999
| 27> C -2.2924565527 2.4130744921 0.799625814
| 28> O -3.6566028329 0.0234214782 -0.0082067102
| 29> C -4.397481593 -0.9739304481 -0.7215604732
| 30> H 4.0408091062 0.1159616892 1.43819074
| 31> H 5.7106397901 0.2612422234 0.86970057
| 32> H 4.4450939199 1.2811212994 0.1657711468
| 33> H 4.6376492037 -1.7689804865 -0.1116224946
| 34> H 4.9940903544 -0.5727471966 -1.3911746115
| 35> H 0.2645749072 -2.1435326356 -0.5231818852
| 36> H 0.6839557292 -2.0402884403 -2.2350259669
| 37> H 0.5849921805 2.3154950641 1.8952024911
| 38> H 2.3126924043 2.2804572578 1.50638809
| 39> H 2.0297756431 4.2645921332 0.0090262211
| 40> H 0.310052499 4.3297617825 0.4033917639
| 41> H 1.5165933931 4.6412721242 1.660349002
| 42> H -1.8433551806 2.6737074554 -0.159136132
| 43> H -1.9652405103 3.0916903832 1.5831686392
| 44> H -3.3768686043 2.414641153 0.7165194377
| 45> H -4.1696506686 -1.9647188192 -0.3253217307
| 46> H -4.1483698163 -0.9281290536 -1.7808916192
| 47> H -5.4450252841 -0.7319733856 -0.5613650668
| 48> *
| 49>
| 50>                          ****END OF INPUT****

CARTESIAN COORDINATES (ANGSTROEM)
---------------------------------
  C      4.669062    0.297105    0.568329
  C      4.414266   -0.765947   -0.485560
  O      3.024328   -0.721842   -0.871142
  C      2.318978   -1.840736   -0.880831
  O      2.771273   -2.935340   -0.632163
  C      0.871536   -1.600066   -1.254323
  C      0.525188   -0.122015   -1.255158
  H      1.032466    0.423432   -2.052712
  C      0.835713    0.533156    0.075210
  O      0.849522   -0.061909    1.131658
  O      1.049977    1.820764   -0.057084
  C      1.328052    2.582218    1.136856
  C      1.291491    4.053885    0.776514
  S     -1.253936    0.162565   -1.569336
  P     -2.114418   -0.189016    0.347856
  S     -1.750667   -1.875128    1.273592
  O     -1.836224    1.106333    1.217940
  C     -2.292457    2.413074    0.799626
  O     -3.656603    0.023421   -0.008207
  C     -4.397482   -0.973930   -0.721560
  H      4.040809    0.115962    1.438191
  H      5.710640    0.261242    0.869701
  H      4.445094    1.281121    0.165771
  H      4.637649   -1.768980   -0.111622
  H      4.994090   -0.572747   -1.391175
  H      0.264575   -2.143533   -0.523182
  H      0.683956   -2.040288   -2.235026
  H      0.584992    2.315495    1.895202
  H      2.312692    2.280457    1.506388
  H      2.029776    4.264592    0.009026
  H      0.310052    4.329762    0.403392
  H      1.516593    4.641272    1.660349
  H     -1.843355    2.673707   -0.159136
  H     -1.965241    3.091690    1.583169
  H     -3.376869    2.414641    0.716519
  H     -4.169651   -1.964719   -0.325322
  H     -4.148370   -0.928129   -1.780892
  H     -5.445025   -0.731973   -0.561365

 Total Charge           Charge          ....    0
 Multiplicity           Mult            ....    1
 Number of Electrons    NEL             ....  174
 Basis Dimension        Dim             ....  510

ORBITAL ENERGIES
----------------

  NO   OCC          E(Eh)            E(eV)
   0   2.0000     -88.585703     -2410.5395
   1   2.0000     -88.528980     -2408.9960
   2   2.0000     -76.923803     -2093.2031
   3   2.0000     -19.010941      -517.3140
   4   2.0000     -19.009134      -517.2648
   5   2.0000     -19.001095      -517.0461
   6   2.0000     -18.997946      -516.9604
   7   2.0000     -18.949746      -515.6488
   8   2.0000     -18.946931      -515.5722
   9   2.0000     -10.174483      -276.8618
  10   2.0000     -10.171644      -276.7845
  11   2.0000     -10.098797      -274.8022
  12   2.0000     -10.087766      -274.5021
  13   2.0000     -10.085710      -274.4461
  14   2.0000     -10.084903      -274.4242
  15   2.0000     -10.083371      -274.3825
  16   2.0000     -10.053547      -273.5709
  17   2.0000     -10.020214      -272.6639
  18   2.0000     -10.019829      -272.6534
  19   2.0000      -7.879573      -214.4141
  20   2.0000      -7.824107      -212.9048
  21   2.0000      -6.601933      -179.6477
  22   2.0000      -5.826435      -158.5454
  23   2.0000      -5.823505      -158.4656
  24   2.0000      -5.816711      -158.2808
  25   2.0000      -5.771918      -157.0619
  26   2.0000      -5.764259      -156.8534
  27   2.0000      -5.764010      -156.8467
  28   2.0000      -4.747892      -129.1967
  29   2.0000      -4.746947      -129.1710
  30   2.0000      -4.745271      -129.1254
  31   2.0000      -1.091911       -29.7124
  32   2.0000      -1.084639       -29.5145
  33   2.0000      -1.056654       -28.7530
  34   2.0000      -1.013851       -27.5883
  35   2.0000      -0.998449       -27.1692
  36   2.0000      -0.995167       -27.0799
  37   2.0000      -0.815622       -22.1942
  38   2.0000      -0.753255       -20.4971
  39   2.0000      -0.744388       -20.2558
  40   2.0000      -0.730138       -19.8681
  41   2.0000      -0.698966       -19.0198
  42   2.0000      -0.673511       -18.3272
  43   2.0000      -0.661891       -18.0110
  44   2.0000      -0.648249       -17.6398
  45   2.0000      -0.618584       -16.8325
  46   2.0000      -0.593088       -16.1388
  47   2.0000      -0.544560       -14.8182
  48   2.0000      -0.534787       -14.5523
  49   2.0000      -0.532594       -14.4926
  50   2.0000      -0.505815       -13.7639
  51   2.0000      -0.496037       -13.4979
  52   2.0000      -0.482125       -13.1193
  53   2.0000      -0.472275       -12.8513
  54   2.0000      -0.466836       -12.7033
  55   2.0000      -0.457954       -12.4616
  56   2.0000      -0.449617       -12.2347
  57   2.0000      -0.447365       -12.1734
  58   2.0000      -0.443846       -12.0777
  59   2.0000      -0.429524       -11.6879
  60   2.0000      -0.418309       -11.3828
  61   2.0000      -0.411456       -11.1963
  62   2.0000      -0.409035       -11.1304
  63   2.0000      -0.399201       -10.8628
  64   2.0000      -0.386124       -10.5070
  65   2.0000      -0.376559       -10.2467
  66   2.0000      -0.369185       -10.0460
  67   2.0000      -0.367856       -10.0099
  68   2.0000      -0.363822        -9.9001
  69   2.0000      -0.358186        -9.7467
  70   2.0000      -0.346668        -9.4333
  71   2.0000      -0.339816        -9.2469
  72   2.0000      -0.334179        -9.0935
  73   2.0000      -0.331578        -9.0227
  74   2.0000      -0.324828        -8.8390
  75   2.0000      -0.320691        -8.7265
  76   2.0000      -0.315949        -8.5974
  77   2.0000      -0.310421        -8.4470
  78   2.0000      -0.292101        -7.9485
  79   2.0000      -0.284768        -7.7489
  80   2.0000      -0.284350        -7.7376
  81   2.0000      -0.278740        -7.5849
  82   2.0000      -0.271554        -7.3894
  83   2.0000      -0.258702        -7.0396
  84   2.0000      -0.246866        -6.7176
  85   2.0000      -0.224206        -6.1009
  86   2.0000      -0.221261        -6.0208
  87   0.0000      -0.054910        -1.4942
  88   0.0000      -0.041064        -1.1174
  89   0.0000      -0.024712        -0.6724
  90   0.0000      -0.005720        -0.1557
  91   0.0000       0.016507         0.4492

MULLIKEN ATOMIC CHARGES
-----------------------
   0 C :   -0.501539
   1 C :   -0.153858
   2 O :   -0.141210
   3 C :    0.353080
   4 O :   -0.489635
   5 C :   -0.365244
   6 C :    0.006488
   7 H :    0.233907
   8 C :    0.271444
   9 O :   -0.454148
  10 O :   -0.152498
  11 C :   -0.135006
  12 C :   -0.504715
  13 S :   -0.192786
  14 P :    0.732748
  15 S :   -0.480300
  16 O :   -0.341880
  17 C :   -0.297838
  18 O :   -0.362938
  19 C :   -0.300321
  20 H :    0.171465
  21 H :    0.171824
  22 H :    0.172608
  23 H :    0.185442
  24 H :    0.174035
  25 H :    0.213961
  26 H :    0.222362
  27 H :    0.178317
  28 H :    0.179645
  29 H :    0.166748
  30 H :    0.170592
  31 H :    0.173532
  32 H :    0.188390
  33 H :    0.186848
  34 H :    0.184241
  35 H :    0.179233
  36 H :    0.176152
  37 H :    0.180854
Sum of atomic charges:   -0.0000000

LOEWDIN ATOMIC CHARGES
----------------------
   0 C :   -0.388591
   1 C :    0.044538
   2 O :   -0.596432
   3 C :    0.377354
   4 O :   -0.481444
   5 C :   -0.210642
   6 C :   -0.187596
   7 H :    0.221280
   8 C :    0.330418
   9 O :   -0.467949
  10 O :   -0.574473
  11 C :    0.038869
  12 C :   -0.387368
  13 S :    0.202818
  14 P :    0.390943
  15 S :   -0.121854
  16 O :   -0.672051
  17 C :   -0.043875
  18 O :   -0.694324
  19 C :   -0.051541
  20 H :    0.163704
  21 H :    0.168507
  22 H :    0.162906
  23 H :    0.196187
  24 H :    0.188103
  25 H :    0.207705
  26 H :    0.205683
  27 H :    0.190895
  28 H :    0.187865
  29 H :    0.163861
  30 H :    0.163415
  31 H :    0.170083
  32 H :    0.181232
  33 H :    0.192316
  34 H :    0.183917
  35 H :    0.179097
  36 H :    0.176856
  37 H :    0.189590

  Mayer bond orders larger than 0.100000
B(  0-C ,  1-C ) :   0.9220 B(  0-C , 20-H ) :   0.9700 B(  0-C , 21-H ) :   0.9564
B(  0-C , 22-H ) :   0.9678 B(  1-C ,  2-O ) :   0.7794 B(  1-C , 23-H ) :   0.9676
B(  1-C , 24-H ) :   0.9430 B(  2-O ,  3-C ) :   1.1220 B(  3-C ,  4-O ) :   1.8291
B(  3-C ,  5-C ) :   0.9777 B(  5-C ,  6-C ) :   0.9793 B(  5-C , 25-H ) :   0.9310
B(  5-C , 26-H ) :   0.9116 B(  6-C ,  7-H ) :   0.9345 B(  6-C ,  8-C ) :   0.9113
B(  6-C , 13-S ) :   0.7612 B(  8-C ,  9-O ) :   1.7410 B(  8-C , 10-O ) :   1.0832
B(  8-C , 13-S ) :   0.1029 B( 10-O , 11-C ) :   0.7521 B( 11-C , 12-C ) :   0.9317
B( 11-C , 27-H ) :   0.9532 B( 11-C , 28-H ) :   0.9317 B( 12-C , 29-H ) :   0.9682
B( 12-C , 30-H ) :   0.9729 B( 12-C , 31-H ) :   0.9638 B( 13-S , 14-P ) :   1.0165
B( 14-P , 15-S ) :   1.8434 B( 14-P , 16-O ) :   1.1323 B( 14-P , 18-O ) :   1.0383
B( 16-O , 17-C ) :   0.7829 B( 17-C , 32-H ) :   0.9472 B( 17-C , 33-H ) :   0.9514
B( 17-C , 34-H ) :   0.9498 B( 18-O , 19-C ) :   0.8193 B( 19-C , 35-H ) :   0.9541
B( 19-C , 36-H ) :   0.9491 B( 19-C , 37-H ) :   0.9574

Dispersion correction           -0.018134109
FINAL SINGLE POINT ENERGY     -1981.470632131085

DIPOLE MOMENT
-------------

Method             : SCF
Type of density    : Electron Density
Multiplicity       :   1
Irrep              :   0
Energy             : -1981.4896106654496180 Eh
Relativity type    :
Basis              : AO
                                X                 Y                 Z
Electronic contribution:    -12.931548797     -13.415444694      -2.503427338
Nuclear contribution   :     12.905583615      17.040693771       0.748131767
                        -----------------------------------------
Total Dipole Moment    :     -0.025965182       3.625249077      -1.755295572
                        -----------------------------------------
Magnitude (a.u.)       :      4.027923485
Magnitude (Debye)      :     10.238167859

Rotational constants in cm-1:             0.014082             0.007445             0.005774
Rotational constants in MHz :           422.180133           223.208350           173.113421

                             ****ORCA TERMINATED NORMALLY****
TOTAL RUN TIME: 0 days 0 hours 2 minutes 5 seconds 753 msec
