                         Program Version 6.0.0  -   RELEASE  -
|  1> ! pbe def2-sv(p) def2/J RI DEFGRID1 loosescf d4 GCP(DFT/SV(P)) printgap
|  2> %output
|  3>     printlevel normal
|  4> end
|  5> * xyz 0 1
|  6> C 5.492190853 1.4150944979 -1.5581053058
|  7> C 3.9852400702 1.295632256 -1.4514845829
|  8> O 3.6901734253 0.2257251279 -0.5354421815
|  9> P 2.2679970467 0.0745847195 0.1617496547
| 10> S 1.6420044498 1.7441138017 0.9785998964
| 11> O 2.5300385065 -1.1418291788 1.1273295422
| 12> C 2.5744208188 -1.0364172338 2.5712147805
| 13> C 1.5733372606 -1.9969246084 3.1799688179
| 14> S 1.1135168061 -0.8158203161 -1.3816757569
| 15> C -0.0157594858 -1.8227259748 -0.3689914906
| 16> S -1.0126179571 -0.8712880193 0.7975386508
| 17> P -2.2789003851 0.1274421268 -0.6026470702
| 18> S -2.3142124771 -0.6600234423 -2.3958194268
| 19> O -1.8033351254 1.6322483382 -0.6158948102
| 20> C -2.219859296 2.6578329321 0.3198335612
| 21> C -1.9251085308 2.3023449191 1.7611368529
| 22> O -3.6952643355 0.2228342911 0.1137894538
| 23> C -4.6895866684 -0.809702276 -0.0115052795
| 24> C -4.2689283584 -2.0999025976 0.6617516702
| 25> H 5.9159028591 1.6508452776 -0.5860651194
| 26> H 5.9126507018 0.4769548023 -1.9082833386
| 27> H 5.738171834 2.205562594 -2.259478428
| 28> H 3.5326239432 1.0544241893 -2.4180374229
| 29> H 3.5359562766 2.2190219666 -1.0683725873
| 30> H 3.5970038767 -1.2875047732 2.858086315
| 31> H 2.3570323288 -0.0020552036 2.8577017505
| 32> H 1.7832117382 -3.0124443535 2.8565033395
| 33> H 1.6494460962 -1.9440111278 4.2610602136
| 34> H 0.5618761065 -1.7283275135 2.8808668462
| 35> H 0.559910663 -2.5375938758 0.2128454718
| 36> H -0.6658684529 -2.319745731 -1.0893915739
| 37> H -1.6475729179 3.5304113416 0.0012061428
| 38> H -3.2872938071 2.8321443256 0.1693374416
| 39> H -0.8593333994 2.1381513228 1.9006923754
| 40> H -2.240116835 3.1242405281 2.3961818493
| 41> H -2.4648858842 1.4022672586 2.0486044407
| 42> H -5.5717083392 -0.3765390149 0.462052727
| 43> H -4.8806015859 -0.9761953878 -1.0761045572
| 44> H -3.9660479604 -1.9126305472 1.6886984329
| 45> H -5.1024731176 -2.7947639363 0.6522638867
| 46> H -3.4343721644 -2.5454754999 0.1227392471
| 47> *
| 48>
| 49>                          ****END OF INPUT****

CARTESIAN COORDINATES (ANGSTROEM)
---------------------------------
  C      5.492191    1.415094   -1.558105
  C      3.985240    1.295632   -1.451485
  O      3.690173    0.225725   -0.535442
  P      2.267997    0.074585    0.161750
  S      1.642004    1.744114    0.978600
  O      2.530039   -1.141829    1.127330
  C      2.574421   -1.036417    2.571215
  C      1.573337   -1.996925    3.179969
  S      1.113517   -0.815820   -1.381676
  C     -0.015759   -1.822726   -0.368991
  S     -1.012618   -0.871288    0.797539
  P     -2.278900    0.127442   -0.602647
  S     -2.314212   -0.660023   -2.395819
  O     -1.803335    1.632248   -0.615895
  C     -2.219859    2.657833    0.319834
  C     -1.925109    2.302345    1.761137
  O     -3.695264    0.222834    0.113789
  C     -4.689587   -0.809702   -0.011505
  C     -4.268928   -2.099903    0.661752
  H      5.915903    1.650845   -0.586065
  H      5.912651    0.476955   -1.908283
  H      5.738172    2.205563   -2.259478
  H      3.532624    1.054424   -2.418037
  H      3.535956    2.219022   -1.068373
  H      3.597004   -1.287505    2.858086
  H      2.357032   -0.002055    2.857702
  H      1.783212   -3.012444    2.856503
  H      1.649446   -1.944011    4.261060
  H      0.561876   -1.728328    2.880867
  H      0.559911   -2.537594    0.212845
  H     -0.665868   -2.319746   -1.089392
  H     -1.647573    3.530411    0.001206
  H     -3.287294    2.832144    0.169337
  H     -0.859333    2.138151    1.900692
  H     -2.240117    3.124241    2.396182
  H     -2.464886    1.402267    2.048604
  H     -5.571708   -0.376539    0.462053
  H     -4.880602   -0.976195   -1.076105
  H     -3.966048   -1.912631    1.688698
  H     -5.102473   -2.794764    0.652264
  H     -3.434372   -2.545475    0.122739

 Total Charge           Charge          ....    0
 Multiplicity           Mult            ....    1
 Number of Electrons    NEL             ....  202
 Basis Dimension        Dim             ....  334

ORBITAL ENERGIES
----------------

  NO   OCC          E(Eh)            E(eV)
   0   2.0000     -88.041819     -2395.7397
   1   2.0000     -88.034173     -2395.5316
   2   2.0000     -87.984705     -2394.1856
   3   2.0000     -87.982620     -2394.1288
   4   2.0000     -76.426024     -2079.6578
   5   2.0000     -76.423561     -2079.5908
   6   2.0000     -18.796021      -511.4657
   7   2.0000     -18.795805      -511.4599
   8   2.0000     -18.785461      -511.1784
   9   2.0000     -18.784118      -511.1418
  10   2.0000      -9.955103      -270.8921
  11   2.0000      -9.954814      -270.8842
  12   2.0000      -9.954576      -270.8778
  13   2.0000      -9.949271      -270.7334
  14   2.0000      -9.949174      -270.7308
  15   2.0000      -9.889958      -269.1194
  16   2.0000      -9.886328      -269.0207
  17   2.0000      -9.884986      -268.9841
  18   2.0000      -9.876702      -268.7587
  19   2.0000      -7.686050      -209.1481
  20   2.0000      -7.679506      -208.9700
  21   2.0000      -7.629881      -207.6196
  22   2.0000      -7.627593      -207.5573
  23   2.0000      -6.423299      -174.7869
  24   2.0000      -6.421286      -174.7321
  25   2.0000      -5.713896      -155.4830
  26   2.0000      -5.710673      -155.3953
  27   2.0000      -5.707629      -155.3125
  28   2.0000      -5.704086      -155.2161
  29   2.0000      -5.703059      -155.1881
  30   2.0000      -5.696144      -155.0000
  31   2.0000      -5.658935      -153.9874
  32   2.0000      -5.656200      -153.9130
  33   2.0000      -5.650230      -153.7506
  34   2.0000      -5.650151      -153.7484
  35   2.0000      -5.648454      -153.7022
  36   2.0000      -5.647780      -153.6839
  37   2.0000      -4.646359      -126.4338
  38   2.0000      -4.644728      -126.3895
  39   2.0000      -4.644026      -126.3704
  40   2.0000      -4.643685      -126.3611
  41   2.0000      -4.643134      -126.3461
  42   2.0000      -4.641439      -126.3000
  43   2.0000      -0.986804       -26.8523
  44   2.0000      -0.986209       -26.8361
  45   2.0000      -0.945017       -25.7152
  46   2.0000      -0.941005       -25.6060
  47   2.0000      -0.760271       -20.6880
  48   2.0000      -0.721466       -19.6321
  49   2.0000      -0.708468       -19.2784
  50   2.0000      -0.689311       -18.7571
  51   2.0000      -0.688429       -18.7331
  52   2.0000      -0.670812       -18.2537
  53   2.0000      -0.648574       -17.6486
  54   2.0000      -0.635333       -17.2883
  55   2.0000      -0.598505       -16.2861
  56   2.0000      -0.592025       -16.1098
  57   2.0000      -0.575746       -15.6668
  58   2.0000      -0.565577       -15.3901
  59   2.0000      -0.559598       -15.2274
  60   2.0000      -0.505491       -13.7551
  61   2.0000      -0.493330       -13.4242
  62   2.0000      -0.480476       -13.0744
  63   2.0000      -0.466532       -12.6950
  64   2.0000      -0.460371       -12.5273
  65   2.0000      -0.447663       -12.1815
  66   2.0000      -0.439932       -11.9712
  67   2.0000      -0.433745       -11.8028
  68   2.0000      -0.424193       -11.5429
  69   2.0000      -0.420298       -11.4369
  70   2.0000      -0.407518       -11.0891
  71   2.0000      -0.397218       -10.8088
  72   2.0000      -0.391923       -10.6648
  73   2.0000      -0.381609       -10.3841
  74   2.0000      -0.376391       -10.2421
  75   2.0000      -0.374002       -10.1771
  76   2.0000      -0.369977       -10.0676
  77   2.0000      -0.358696        -9.7606
  78   2.0000      -0.355258        -9.6671
  79   2.0000      -0.352776        -9.5995
  80   2.0000      -0.345991        -9.4149
  81   2.0000      -0.342983        -9.3330
  82   2.0000      -0.342002        -9.3063
  83   2.0000      -0.335828        -9.1383
  84   2.0000      -0.333118        -9.0646
  85   2.0000      -0.322156        -8.7663
  86   2.0000      -0.306281        -8.3343
  87   2.0000      -0.298722        -8.1286
  88   2.0000      -0.295622        -8.0443
  89   2.0000      -0.290393        -7.9020
  90   2.0000      -0.288083        -7.8391
  91   2.0000      -0.274305        -7.4642
  92   2.0000      -0.272832        -7.4241
  93   2.0000      -0.258178        -7.0254
  94   2.0000      -0.255167        -6.9435
  95   2.0000      -0.236234        -6.4283
  96   2.0000      -0.214631        -5.8404
  97   2.0000      -0.205271        -5.5857
  98   2.0000      -0.203141        -5.5278
  99   2.0000      -0.196402        -5.3444
 100   2.0000      -0.189788        -5.1644
 101   0.0000      -0.047652        -1.2967
 102   0.0000      -0.024986        -0.6799
 103   0.0000      -0.013909        -0.3785
 104   0.0000      -0.002894        -0.0787
 105   0.0000       0.016344         0.4448

MULLIKEN ATOMIC CHARGES
-----------------------
   0 C :   -0.279956
   1 C :   -0.014005
   2 O :   -0.371190
   3 P :    0.614685
   4 S :   -0.330000
   5 O :   -0.371710
   6 C :   -0.006034
   7 C :   -0.311913
   8 S :   -0.078613
   9 C :   -0.351886
  10 S :   -0.117856
  11 P :    0.633394
  12 S :   -0.315093
  13 O :   -0.358219
  14 C :    0.021517
  15 C :   -0.352093
  16 O :   -0.385016
  17 C :   -0.000731
  18 C :   -0.312179
  19 H :    0.117467
  20 H :    0.117382
  21 H :    0.111347
  22 H :    0.104737
  23 H :    0.105872
  24 H :    0.107671
  25 H :    0.113248
  26 H :    0.117998
  27 H :    0.114210
  28 H :    0.133495
  29 H :    0.187525
  30 H :    0.191137
  31 H :    0.111270
  32 H :    0.102977
  33 H :    0.153876
  34 H :    0.108349
  35 H :    0.116138
  36 H :    0.104635
  37 H :    0.114467
  38 H :    0.117010
  39 H :    0.113310
  40 H :    0.122779
Sum of atomic charges:    0.0000000

LOEWDIN ATOMIC CHARGES
----------------------
   0 C :   -0.350395
   1 C :   -0.121236
   2 O :   -0.249753
   3 P :    0.565129
   4 S :   -0.311281
   5 O :   -0.239709
   6 C :   -0.115269
   7 C :   -0.360334
   8 S :    0.078517
   9 C :   -0.479360
  10 S :    0.082177
  11 P :    0.581291
  12 S :   -0.306207
  13 O :   -0.233820
  14 C :   -0.103682
  15 C :   -0.379550
  16 O :   -0.245476
  17 C :   -0.117375
  18 C :   -0.369297
  19 H :    0.127748
  20 H :    0.127157
  21 H :    0.130435
  22 H :    0.110909
  23 H :    0.107094
  24 H :    0.118135
  25 H :    0.108364
  26 H :    0.125128
  27 H :    0.132917
  28 H :    0.118307
  29 H :    0.132235
  30 H :    0.128287
  31 H :    0.124748
  32 H :    0.111810
  33 H :    0.122204
  34 H :    0.130395
  35 H :    0.113920
  36 H :    0.118551
  37 H :    0.112688
  38 H :    0.123594
  39 H :    0.131147
  40 H :    0.119855

  Mayer bond orders larger than 0.100000
B(  0-C ,  1-C ) :   1.1615 B(  0-C , 19-H ) :   0.9515 B(  0-C , 20-H ) :   0.9509
B(  0-C , 21-H ) :   0.9420 B(  1-C ,  2-O ) :   0.9117 B(  1-C , 22-H ) :   0.9288
B(  1-C , 23-H ) :   0.9079 B(  2-O ,  3-P ) :   1.1102 B(  3-P ,  4-S ) :   1.6238
B(  3-P ,  5-O ) :   1.1255 B(  3-P ,  8-S ) :   0.9698 B(  4-S ,  8-S ) :   0.1034
B(  5-O ,  6-C ) :   0.8948 B(  6-C ,  7-C ) :   1.1664 B(  6-C , 24-H ) :   0.9330
B(  6-C , 25-H ) :   0.8988 B(  7-C , 26-H ) :   0.9465 B(  7-C , 27-H ) :   0.9386
B(  7-C , 28-H ) :   0.9337 B(  8-S ,  9-C ) :   1.0051 B(  9-C , 10-S ) :   1.0164
B(  9-C , 29-H ) :   0.8968 B(  9-C , 30-H ) :   0.8792 B( 10-S , 11-P ) :   0.9252
B( 10-S , 12-S ) :   0.1102 B( 11-P , 12-S ) :   1.6278 B( 11-P , 13-O ) :   1.1546
B( 11-P , 16-O ) :   1.0710 B( 13-O , 14-C ) :   0.8931 B( 14-C , 15-C ) :   1.1702
B( 14-C , 31-H ) :   0.9316 B( 14-C , 32-H ) :   0.9317 B( 15-C , 33-H ) :   0.9200
B( 15-C , 34-H ) :   0.9350 B( 15-C , 35-H ) :   0.9356 B( 16-O , 17-C ) :   0.9057
B( 17-C , 18-C ) :   1.1663 B( 17-C , 36-H ) :   0.9340 B( 17-C , 37-H ) :   0.9158
B( 18-C , 38-H ) :   0.9445 B( 18-C , 39-H ) :   0.9368 B( 18-C , 40-H ) :   0.9354

Dispersion correction           -0.065310167
FINAL SINGLE POINT ENERGY     -2929.515854504496

DIPOLE MOMENT
-------------

Method             : SCF
Type of density    : Electron Density
Multiplicity       :   1
Irrep              :   0
Energy             : -2929.6349899773699690 Eh
Relativity type    :
Basis              : AO
                                X                 Y                 Z
Electronic contribution:     -1.105651875       0.565816665     -13.290066399
Nuclear contribution   :      0.997197206      -0.902748805      14.491173048
                        -----------------------------------------
Total Dipole Moment    :     -0.108454668      -0.336932139       1.201106649
                        -----------------------------------------
Magnitude (a.u.)       :      1.252175253
Magnitude (Debye)      :      3.182776554

Rotational constants in cm-1:             0.012182             0.004923             0.004733
Rotational constants in MHz :           365.196557           147.594864           141.899686

                             ****ORCA TERMINATED NORMALLY****
TOTAL RUN TIME: 0 days 0 hours 0 minutes 21 seconds 5 msec
