                         Program Version 6.0.1  -  RELEASE   -
|  1> ! pbe def2-sv(p) def2/J RI DEFGRID1 loosescf d4 GCP(DFT/SV(P)) printgap
|  2> %output
|  3>     printlevel normal
|  4> end
|  5> * xyz 0 1
|  6> C 2.802517784 -4.2717520666 0.7820614857
|  7> C 2.3368289533 -3.3939697756 -0.3681463309
|  8> O 2.5424799754 -1.9989915009 -0.0741112767
|  9> C 1.6339094503 -1.3645057148 0.6287997933
| 10> O 0.617832223 -1.8729504467 1.0631873996
| 11> C 1.971470119 0.0982408289 0.8094698937
| 12> C 0.8629020924 0.9442537558 0.193431061
| 13> H 0.6976032348 0.6637318278 -0.8557501037
| 14> C 1.1754856358 2.4340965003 0.2549123266
| 15> O 2.154850241 2.8888568316 0.7950535949
| 16> O 0.2429877971 3.1333145021 -0.3527199786
| 17> C 0.3904625649 4.5686115245 -0.3998223616
| 18> C 1.2328564821 4.987466625 -1.593661937
| 19> S -0.7408375657 0.7010085519 1.0406061604
| 20> P -1.5904959554 -0.781352745 -0.2365168875
| 21> S -0.6161738369 -1.2184614845 -1.8767049597
| 22> O -2.0358738595 -2.0436857726 0.5907945763
| 23> C -2.6051473267 -1.9492070274 1.9104466444
| 24> O -3.0375210054 -0.1412852991 -0.526909349
| 25> C -3.1672324653 1.0508336446 -1.3055827087
| 26> H 2.6999164608 -5.3140839153 0.4991993254
| 27> H 3.843292269 -4.0622700954 1.013199575
| 28> H 2.1961524395 -4.0843748158 1.6653195152
| 29> H 1.2739189251 -3.5507185013 -0.5772497091
| 30> H 2.9243084923 -3.5672708517 -1.2696103435
| 31> H 2.9182067418 0.3184498618 0.3172310764
| 32> H 2.0519228886 0.3270537582 1.8736687941
| 33> H -0.6295225515 4.9436307258 -0.4803673326
| 34> H 0.848719311 4.9004886391 0.5355035316
| 35> H 0.8035605516 4.5956348095 -2.5116745473
| 36> H 1.2636462294 6.0706215112 -1.6466526931
| 37> H 2.2473889516 4.6104290415 -1.4875258104
| 38> H -2.9382269569 -2.9565925661 2.1458429191
| 39> H -3.4408626338 -1.2516638833 1.9121563434
| 40> H -1.8353356446 -1.6263728925 2.6106786858
| 41> H -4.2360169689 1.2133678166 -1.4162051447
| 42> H -2.6979521795 0.9128845097 -2.2809897304
| 43> H -2.7004959127 1.8890574558 -0.7865331137
| 44> *
| 45>
| 46>                          ****END OF INPUT****

CARTESIAN COORDINATES (ANGSTROEM)
---------------------------------
  C      2.802518   -4.271752    0.782061
  C      2.336829   -3.393970   -0.368146
  O      2.542480   -1.998992   -0.074111
  C      1.633909   -1.364506    0.628800
  O      0.617832   -1.872950    1.063187
  C      1.971470    0.098241    0.809470
  C      0.862902    0.944254    0.193431
  H      0.697603    0.663732   -0.855750
  C      1.175486    2.434097    0.254912
  O      2.154850    2.888857    0.795054
  O      0.242988    3.133315   -0.352720
  C      0.390463    4.568612   -0.399822
  C      1.232856    4.987467   -1.593662
  S     -0.740838    0.701009    1.040606
  P     -1.590496   -0.781353   -0.236517
  S     -0.616174   -1.218461   -1.876705
  O     -2.035874   -2.043686    0.590795
  C     -2.605147   -1.949207    1.910447
  O     -3.037521   -0.141285   -0.526909
  C     -3.167232    1.050834   -1.305583
  H      2.699916   -5.314084    0.499199
  H      3.843292   -4.062270    1.013200
  H      2.196152   -4.084375    1.665320
  H      1.273919   -3.550719   -0.577250
  H      2.924308   -3.567271   -1.269610
  H      2.918207    0.318450    0.317231
  H      2.051923    0.327054    1.873669
  H     -0.629523    4.943631   -0.480367
  H      0.848719    4.900489    0.535504
  H      0.803561    4.595635   -2.511675
  H      1.263646    6.070622   -1.646653
  H      2.247389    4.610429   -1.487526
  H     -2.938227   -2.956593    2.145843
  H     -3.440863   -1.251664    1.912156
  H     -1.835336   -1.626373    2.610679
  H     -4.236017    1.213368   -1.416205
  H     -2.697952    0.912885   -2.280990
  H     -2.700496    1.889057   -0.786533

 Total Charge           Charge          ....    0
 Multiplicity           Mult            ....    1
 Number of Electrons    NEL             ....  174
 Basis Dimension        Dim             ....  316

ORBITAL ENERGIES
----------------

  NO   OCC          E(Eh)            E(eV)
   0   2.0000     -88.037710     -2395.6279
   1   2.0000     -87.983108     -2394.1421
   2   2.0000     -76.422213     -2079.5541
   3   2.0000     -18.811030      -511.8741
   4   2.0000     -18.801437      -511.6131
   5   2.0000     -18.788172      -511.2522
   6   2.0000     -18.783537      -511.1260
   7   2.0000     -18.749348      -510.1957
   8   2.0000     -18.733089      -509.7533
   9   2.0000     -10.020531      -272.6725
  10   2.0000     -10.007541      -272.3190
  11   2.0000      -9.954883      -270.8861
  12   2.0000      -9.945374      -270.6274
  13   2.0000      -9.944058      -270.5916
  14   2.0000      -9.940813      -270.5033
  15   2.0000      -9.937544      -270.4143
  16   2.0000      -9.903578      -269.4901
  17   2.0000      -9.892193      -269.1803
  18   2.0000      -9.882613      -268.9196
  19   2.0000      -7.682079      -209.0400
  20   2.0000      -7.628174      -207.5732
  21   2.0000      -6.418996      -174.6698
  22   2.0000      -5.710084      -155.3793
  23   2.0000      -5.706917      -155.2931
  24   2.0000      -5.698714      -155.0699
  25   2.0000      -5.657225      -153.9409
  26   2.0000      -5.648964      -153.7161
  27   2.0000      -5.647950      -153.6885
  28   2.0000      -4.641585      -126.3040
  29   2.0000      -4.640903      -126.2854
  30   2.0000      -4.639477      -126.2466
  31   2.0000      -1.020593       -27.7718
  32   2.0000      -1.008610       -27.4457
  33   2.0000      -0.981012       -26.6947
  34   2.0000      -0.936020       -25.4704
  35   2.0000      -0.927567       -25.2404
  36   2.0000      -0.912069       -24.8187
  37   2.0000      -0.762182       -20.7400
  38   2.0000      -0.711747       -19.3676
  39   2.0000      -0.705588       -19.2000
  40   2.0000      -0.689797       -18.7703
  41   2.0000      -0.654988       -17.8231
  42   2.0000      -0.629549       -17.1309
  43   2.0000      -0.624923       -17.0050
  44   2.0000      -0.616591       -16.7783
  45   2.0000      -0.596552       -16.2330
  46   2.0000      -0.562942       -15.3184
  47   2.0000      -0.510452       -13.8901
  48   2.0000      -0.504243       -13.7211
  49   2.0000      -0.493507       -13.4290
  50   2.0000      -0.476130       -12.9562
  51   2.0000      -0.469497       -12.7757
  52   2.0000      -0.456252       -12.4152
  53   2.0000      -0.449630       -12.2351
  54   2.0000      -0.430246       -11.7076
  55   2.0000      -0.428902       -11.6710
  56   2.0000      -0.425736       -11.5849
  57   2.0000      -0.416684       -11.3385
  58   2.0000      -0.413357       -11.2480
  59   2.0000      -0.409609       -11.1460
  60   2.0000      -0.400809       -10.9066
  61   2.0000      -0.398737       -10.8502
  62   2.0000      -0.389837       -10.6080
  63   2.0000      -0.380719       -10.3599
  64   2.0000      -0.377581       -10.2745
  65   2.0000      -0.368890       -10.0380
  66   2.0000      -0.365795        -9.9538
  67   2.0000      -0.352000        -9.5784
  68   2.0000      -0.349069        -9.4986
  69   2.0000      -0.338436        -9.2093
  70   2.0000      -0.336755        -9.1636
  71   2.0000      -0.327733        -8.9181
  72   2.0000      -0.319692        -8.6992
  73   2.0000      -0.308348        -8.3906
  74   2.0000      -0.302651        -8.2356
  75   2.0000      -0.296717        -8.0741
  76   2.0000      -0.289747        -7.8844
  77   2.0000      -0.289367        -7.8741
  78   2.0000      -0.269860        -7.3433
  79   2.0000      -0.269661        -7.3378
  80   2.0000      -0.259901        -7.0723
  81   2.0000      -0.253337        -6.8937
  82   2.0000      -0.237263        -6.4562
  83   2.0000      -0.230646        -6.2762
  84   2.0000      -0.208166        -5.6645
  85   2.0000      -0.202396        -5.5075
  86   2.0000      -0.193385        -5.2623
  87   0.0000      -0.046986        -1.2786
  88   0.0000      -0.036543        -0.9944
  89   0.0000      -0.023161        -0.6302
  90   0.0000       0.022232         0.6050
  91   0.0000       0.028979         0.7886

MULLIKEN ATOMIC CHARGES
-----------------------
   0 C :   -0.306582
   1 C :   -0.015575
   2 O :   -0.215495
   3 C :    0.115812
   4 O :   -0.219278
   5 C :    0.005542
   6 C :   -0.388377
   7 H :    0.156538
   8 C :    0.221900
   9 O :   -0.189576
  10 O :   -0.220290
  11 C :   -0.009903
  12 C :   -0.305855
  13 S :   -0.095098
  14 P :    0.617622
  15 S :   -0.319067
  16 O :   -0.348645
  17 C :   -0.105484
  18 O :   -0.384658
  19 C :   -0.101907
  20 H :    0.112740
  21 H :    0.111441
  22 H :    0.124977
  23 H :    0.121549
  24 H :    0.102210
  25 H :    0.108988
  26 H :    0.117767
  27 H :    0.105903
  28 H :    0.110899
  29 H :    0.118407
  30 H :    0.115636
  31 H :    0.128179
  32 H :    0.131220
  33 H :    0.118307
  34 H :    0.133041
  35 H :    0.121009
  36 H :    0.113861
  37 H :    0.112243
Sum of atomic charges:   -0.0000000

LOEWDIN ATOMIC CHARGES
----------------------
   0 C :   -0.357017
   1 C :   -0.111564
   2 O :   -0.044803
   3 C :    0.028792
   4 O :   -0.182856
   5 C :   -0.243731
   6 C :   -0.271407
   7 H :    0.133949
   8 C :    0.016265
   9 O :   -0.152644
  10 O :   -0.052737
  11 C :   -0.107876
  12 C :   -0.355782
  13 S :    0.103479
  14 P :    0.588867
  15 S :   -0.304382
  16 O :   -0.225094
  17 C :   -0.207135
  18 O :   -0.265254
  19 C :   -0.221692
  20 H :    0.130718
  21 H :    0.123428
  22 H :    0.129323
  23 H :    0.122851
  24 H :    0.118467
  25 H :    0.140711
  26 H :    0.145009
  27 H :    0.119040
  28 H :    0.121511
  29 H :    0.126920
  30 H :    0.132063
  31 H :    0.131236
  32 H :    0.127129
  33 H :    0.112138
  34 H :    0.117891
  35 H :    0.120119
  36 H :    0.109594
  37 H :    0.104475

  Mayer bond orders larger than 0.100000
B(  0-C ,  1-C ) :   1.1678 B(  0-C , 20-H ) :   0.9448 B(  0-C , 21-H ) :   0.9480
B(  0-C , 22-H ) :   0.9459 B(  1-C ,  2-O ) :   0.9101 B(  1-C , 23-H ) :   0.9119
B(  1-C , 24-H ) :   0.9382 B(  2-O ,  3-C ) :   1.2697 B(  3-C ,  4-O ) :   1.9534
B(  3-C ,  5-C ) :   0.9951 B(  5-C ,  6-C ) :   1.0269 B(  5-C , 25-H ) :   0.8929
B(  5-C , 26-H ) :   0.8831 B(  6-C ,  7-H ) :   0.8267 B(  6-C ,  8-C ) :   0.9014
B(  6-C , 13-S ) :   1.0257 B(  7-H , 15-S ) :   0.1131 B(  8-C ,  9-O ) :   2.0571
B(  8-C , 10-O ) :   1.2535 B( 10-O , 11-C ) :   0.9109 B( 11-C , 12-C ) :   1.1771
B( 11-C , 27-H ) :   0.9361 B( 11-C , 28-H ) :   0.9142 B( 12-C , 29-H ) :   0.9480
B( 12-C , 30-H ) :   0.9437 B( 12-C , 31-H ) :   0.9460 B( 13-S , 14-P ) :   0.9374
B( 13-S , 15-S ) :   0.1159 B( 14-P , 15-S ) :   1.5968 B( 14-P , 16-O ) :   1.1531
B( 14-P , 18-O ) :   1.0648 B( 16-O , 17-C ) :   0.9163 B( 17-C , 32-H ) :   0.9600
B( 17-C , 33-H ) :   0.9451 B( 17-C , 34-H ) :   0.9418 B( 18-O , 19-C ) :   0.9391
B( 19-C , 35-H ) :   0.9585 B( 19-C , 36-H ) :   0.9386 B( 19-C , 37-H ) :   0.9382

Dispersion correction           -0.051689892
FINAL SINGLE POINT ENERGY     -1979.019498276777

DIPOLE MOMENT
-------------

Method             : SCF
Type of density    : Electron Density
Multiplicity       :   1
Irrep              :   0
Energy             : -1979.1496027166463136 Eh
Relativity type    :
Basis              : AO
                                X                 Y                 Z
Electronic contribution:     -6.770996191      -3.846937224       0.676738117
Nuclear contribution   :      6.430717494       4.495317762      -0.436341606
                        -----------------------------------------
Total Dipole Moment    :     -0.340278697       0.648380538       0.240396511
                        -----------------------------------------
Magnitude (a.u.)       :      0.770699291
Magnitude (Debye)      :      1.958961915

Rotational constants in cm-1:             0.011693             0.007619             0.005610
Rotational constants in MHz :           350.548111           228.405328           168.171329

                             ****ORCA TERMINATED NORMALLY****
TOTAL RUN TIME: 0 days 0 hours 0 minutes 44 seconds 853 msec
