                         Program Version 6.0.0  -   RELEASE  -
|  1> ! r2scan-3c def2/J RI DEFGRID2 scfconv6 printgap
|  2> %output
|  3>     printlevel normal
|  4> end
|  5> * xyz 0 1
|  6> C 4.3761474413 1.3923334069 -0.0005096817
|  7> C 3.0993866023 1.9317868092 0.0003955233
|  8> C 1.9932749082 1.1001102325 0.0013599324
|  9> C 2.1617780587 -0.283364158 0.0012668559
| 10> C 3.4316644621 -0.8314770525 0.0002250055
| 11> C 4.5305725325 0.0170300039 -0.0004589085
| 12> Cl 6.118354327 -0.6727050591 -0.002193121
| 13> O 1.0861836586 -1.1488214125 0.002364595
| 14> C -0.1447605216 -0.568767057 0.0015197588
| 15> C -0.3146355655 0.8200549497 0.0014266323
| 16> C -1.5986579987 1.3559054298 0.0003736268
| 17> C -2.7159237839 0.5201938094 -0.0003079451
| 18> C -2.5466457992 -0.8592713459 -7.58348e-05
| 19> C -1.2601425018 -1.399655394 0.0007369404
| 20> Cl -1.0233225926 -3.0996101743 0.0008105327
| 21> Cl -3.9107350564 -1.8987853291 -0.0011051635
| 22> Cl -4.2910259854 1.1983165633 -0.0017540362
| 23> Cl -1.7806320911 3.0621087385 6.62797e-05
| 24> O 0.73822134 1.6789778123 0.0024561194
| 25> H 5.238176198 2.0372540745 -0.0012533336
| 26> H 2.9440483287 2.9973000584 0.0005770127
| 27> H 3.5415691792 -1.9025108466 9.83102e-05
| 28> *
| 29>
| 30>                          ****END OF INPUT****

CARTESIAN COORDINATES (ANGSTROEM)
---------------------------------
  C      4.376147    1.392333   -0.000510
  C      3.099387    1.931787    0.000396
  C      1.993275    1.100110    0.001360
  C      2.161778   -0.283364    0.001267
  C      3.431664   -0.831477    0.000225
  C      4.530573    0.017030   -0.000459
  Cl     6.118354   -0.672705   -0.002193
  O      1.086184   -1.148821    0.002365
  C     -0.144761   -0.568767    0.001520
  C     -0.314636    0.820055    0.001427
  C     -1.598658    1.355905    0.000374
  C     -2.715924    0.520194   -0.000308
  C     -2.546646   -0.859271   -0.000076
  C     -1.260143   -1.399655    0.000737
  Cl    -1.023323   -3.099610    0.000811
  Cl    -3.910735   -1.898785   -0.001105
  Cl    -4.291026    1.198317   -0.001754
  Cl    -1.780632    3.062109    0.000066
  O      0.738221    1.678978    0.002456
  H      5.238176    2.037254   -0.001253
  H      2.944048    2.997300    0.000577
  H      3.541569   -1.902511    0.000098

 Total Charge           Charge          ....    0
 Multiplicity           Mult            ....    1
 Number of Electrons    NEL             ....  176
 Basis Dimension        Dim             ....  426

ORBITAL ENERGIES
----------------

  NO   OCC          E(Eh)            E(eV)
   0   2.0000    -101.244177     -2754.9941
   1   2.0000    -101.244107     -2754.9922
   2   2.0000    -101.242639     -2754.9523
   3   2.0000    -101.242510     -2754.9488
   4   2.0000    -101.234002     -2754.7172
   5   2.0000     -19.046420      -518.2794
   6   2.0000     -19.045022      -518.2414
   7   2.0000     -10.149280      -276.1759
   8   2.0000     -10.148873      -276.1649
   9   2.0000     -10.140000      -275.9234
  10   2.0000     -10.136225      -275.8207
  11   2.0000     -10.135789      -275.8088
  12   2.0000     -10.135660      -275.8053
  13   2.0000     -10.135159      -275.7917
  14   2.0000     -10.134970      -275.7866
  15   2.0000     -10.121463      -275.4190
  16   2.0000     -10.072896      -274.0974
  17   2.0000     -10.072552      -274.0881
  18   2.0000     -10.068576      -273.9799
  19   2.0000      -9.399767      -255.7807
  20   2.0000      -9.399678      -255.7782
  21   2.0000      -9.398357      -255.7423
  22   2.0000      -9.398223      -255.7386
  23   2.0000      -9.389899      -255.5121
  24   2.0000      -7.146525      -194.4668
  25   2.0000      -7.146444      -194.4646
  26   2.0000      -7.145101      -194.4281
  27   2.0000      -7.144974      -194.4246
  28   2.0000      -7.136206      -194.1860
  29   2.0000      -7.136006      -194.1806
  30   2.0000      -7.135913      -194.1781
  31   2.0000      -7.135057      -194.1548
  32   2.0000      -7.134968      -194.1524
  33   2.0000      -7.134590      -194.1421
  34   2.0000      -7.134449      -194.1382
  35   2.0000      -7.133635      -194.1161
  36   2.0000      -7.133503      -194.1125
  37   2.0000      -7.126106      -193.9112
  38   2.0000      -7.125661      -193.8991
  39   2.0000      -1.117863       -30.4186
  40   2.0000      -1.084072       -29.4991
  41   2.0000      -0.928010       -25.2524
  42   2.0000      -0.886679       -24.1278
  43   2.0000      -0.882663       -24.0185
  44   2.0000      -0.860142       -23.4057
  45   2.0000      -0.831730       -22.6325
  46   2.0000      -0.829451       -22.5705
  47   2.0000      -0.808521       -22.0010
  48   2.0000      -0.767786       -20.8925
  49   2.0000      -0.744858       -20.2686
  50   2.0000      -0.716905       -19.5080
  51   2.0000      -0.707429       -19.2501
  52   2.0000      -0.658160       -17.9094
  53   2.0000      -0.634339       -17.2612
  54   2.0000      -0.604033       -16.4366
  55   2.0000      -0.586567       -15.9613
  56   2.0000      -0.570542       -15.5252
  57   2.0000      -0.537719       -14.6321
  58   2.0000      -0.508321       -13.8321
  59   2.0000      -0.490887       -13.3577
  60   2.0000      -0.484623       -13.1873
  61   2.0000      -0.480454       -13.0738
  62   2.0000      -0.460149       -12.5213
  63   2.0000      -0.452628       -12.3166
  64   2.0000      -0.443317       -12.0633
  65   2.0000      -0.428112       -11.6495
  66   2.0000      -0.426399       -11.6029
  67   2.0000      -0.424063       -11.5393
  68   2.0000      -0.420853       -11.4520
  69   2.0000      -0.415169       -11.2973
  70   2.0000      -0.389751       -10.6057
  71   2.0000      -0.387280       -10.5384
  72   2.0000      -0.383969       -10.4483
  73   2.0000      -0.369571       -10.0565
  74   2.0000      -0.349686        -9.5154
  75   2.0000      -0.339279        -9.2323
  76   2.0000      -0.324886        -8.8406
  77   2.0000      -0.324010        -8.8168
  78   2.0000      -0.321901        -8.7594
  79   2.0000      -0.318909        -8.6780
  80   2.0000      -0.305157        -8.3038
  81   2.0000      -0.301179        -8.1955
  82   2.0000      -0.292645        -7.9633
  83   2.0000      -0.282909        -7.6983
  84   2.0000      -0.267131        -7.2690
  85   2.0000      -0.253137        -6.8882
  86   2.0000      -0.234621        -6.3844
  87   2.0000      -0.207883        -5.6568
  88   0.0000      -0.078134        -2.1261
  89   0.0000      -0.070503        -1.9185
  90   0.0000      -0.066116        -1.7991
  91   0.0000      -0.065061        -1.7704
  92   0.0000      -0.034943        -0.9509

MULLIKEN ATOMIC CHARGES
-----------------------
   0 C :   -0.204369
   1 C :   -0.296765
   2 C :    0.188804
   3 C :    0.246620
   4 C :   -0.443338
   5 C :    0.261804
   6 Cl:   -0.129600
   7 O :   -0.075711
   8 C :    0.485079
   9 C :    0.502994
  10 C :   -0.387439
  11 C :    0.038049
  12 C :    0.034947
  13 C :   -0.386449
  14 Cl:   -0.070290
  15 Cl:   -0.061577
  16 Cl:   -0.061517
  17 Cl:   -0.071125
  18 O :   -0.073302
  19 H :    0.166901
  20 H :    0.162764
  21 H :    0.173521
Sum of atomic charges:    0.0000000

LOEWDIN ATOMIC CHARGES
----------------------
   0 C :   -0.168478
   1 C :   -0.103264
   2 C :    0.220636
   3 C :    0.230743
   4 C :   -0.122958
   5 C :   -0.164274
   6 Cl:    0.140671
   7 O :   -0.565002
   8 C :    0.210794
   9 C :    0.211344
  10 C :   -0.150482
  11 C :   -0.199797
  12 C :   -0.200413
  13 C :   -0.149658
  14 Cl:    0.216792
  15 Cl:    0.187922
  16 Cl:    0.188116
  17 Cl:    0.216256
  18 O :   -0.567722
  19 H :    0.182529
  20 H :    0.189747
  21 H :    0.196496

  Mayer bond orders larger than 0.100000
B(  0-C ,  1-C ) :   1.3125 B(  0-C ,  5-C ) :   1.3838 B(  0-C , 19-H ) :   0.9397
B(  1-C ,  2-C ) :   1.3431 B(  1-C , 20-H ) :   0.9741 B(  2-C ,  3-C ) :   1.4778
B(  2-C , 18-O ) :   0.8964 B(  3-C ,  4-C ) :   1.3014 B(  3-C ,  7-O ) :   0.8876
B(  4-C ,  5-C ) :   1.3125 B(  4-C , 21-H ) :   0.9487 B(  5-C ,  6-Cl) :   0.9211
B(  7-O ,  8-C ) :   1.1300 B(  8-C ,  9-C ) :   1.3393 B(  8-C , 10-C ) :  -0.1840
B(  8-C , 13-C ) :   0.7673 B(  8-C , 14-Cl) :  -0.2517 B(  9-C , 10-C ) :   0.7653
B(  9-C , 13-C ) :  -0.1864 B(  9-C , 17-Cl) :  -0.2531 B(  9-C , 18-O ) :   1.1281
B( 10-C , 11-C ) :   0.9444 B( 10-C , 13-C ) :   0.1491 B( 10-C , 17-Cl) :   1.4504
B( 11-C , 12-C ) :   1.0738 B( 11-C , 16-Cl) :   1.2535 B( 12-C , 13-C ) :   0.9460
B( 12-C , 15-Cl) :   1.2528 B( 13-C , 14-Cl) :   1.4492

Dispersion correction           -0.013736855
FINAL SINGLE POINT ENERGY     -2910.276867050139

DIPOLE MOMENT
-------------

Method             : SCF
Type of density    : Electron Density
Multiplicity       :   1
Irrep              :   0
Energy             : -2910.2765405377313073 Eh
Relativity type    :
Basis              : AO
                                X                 Y                 Z
Electronic contribution:    -17.028693334      -4.454736059      -0.005070662
Nuclear contribution   :     17.585826102       4.839669725       0.005133396
                        -----------------------------------------
Total Dipole Moment    :      0.557132769       0.384933665       0.000062733
                        -----------------------------------------
Magnitude (a.u.)       :      0.677178597
Magnitude (Debye)      :      1.721251204

Rotational constants in cm-1:             0.015153             0.004432             0.003429
Rotational constants in MHz :           454.261316           132.880319           102.807229

                             ****ORCA TERMINATED NORMALLY****
TOTAL RUN TIME: 0 days 0 hours 0 minutes 52 seconds 681 msec
