                         Program Version 6.0.0  -   RELEASE  -
|  1> ! r2scan-3c def2/J RI DEFGRID2 scfconv6 printgap
|  2> %output
|  3>     printlevel normal
|  4> end
|  5> %cpcm
|  6>     smd true
|  7>     smdsolvent "water"
|  8> end
|  9> * xyz 0 1
| 10> C 4.3761474413 1.3923334069 -0.0005096817
| 11> C 3.0993866023 1.9317868092 0.0003955233
| 12> C 1.9932749082 1.1001102325 0.0013599324
| 13> C 2.1617780587 -0.283364158 0.0012668559
| 14> C 3.4316644621 -0.8314770525 0.0002250055
| 15> C 4.5305725325 0.0170300039 -0.0004589085
| 16> Cl 6.118354327 -0.6727050591 -0.002193121
| 17> O 1.0861836586 -1.1488214125 0.002364595
| 18> C -0.1447605216 -0.568767057 0.0015197588
| 19> C -0.3146355655 0.8200549497 0.0014266323
| 20> C -1.5986579987 1.3559054298 0.0003736268
| 21> C -2.7159237839 0.5201938094 -0.0003079451
| 22> C -2.5466457992 -0.8592713459 -7.58348e-05
| 23> C -1.2601425018 -1.399655394 0.0007369404
| 24> Cl -1.0233225926 -3.0996101743 0.0008105327
| 25> Cl -3.9107350564 -1.8987853291 -0.0011051635
| 26> Cl -4.2910259854 1.1983165633 -0.0017540362
| 27> Cl -1.7806320911 3.0621087385 6.62797e-05
| 28> O 0.73822134 1.6789778123 0.0024561194
| 29> H 5.238176198 2.0372540745 -0.0012533336
| 30> H 2.9440483287 2.9973000584 0.0005770127
| 31> H 3.5415691792 -1.9025108466 9.83102e-05
| 32> *
| 33>
| 34>                          ****END OF INPUT****

CARTESIAN COORDINATES (ANGSTROEM)
---------------------------------
  C      4.376147    1.392333   -0.000510
  C      3.099387    1.931787    0.000396
  C      1.993275    1.100110    0.001360
  C      2.161778   -0.283364    0.001267
  C      3.431664   -0.831477    0.000225
  C      4.530573    0.017030   -0.000459
  Cl     6.118354   -0.672705   -0.002193
  O      1.086184   -1.148821    0.002365
  C     -0.144761   -0.568767    0.001520
  C     -0.314636    0.820055    0.001427
  C     -1.598658    1.355905    0.000374
  C     -2.715924    0.520194   -0.000308
  C     -2.546646   -0.859271   -0.000076
  C     -1.260143   -1.399655    0.000737
  Cl    -1.023323   -3.099610    0.000811
  Cl    -3.910735   -1.898785   -0.001105
  Cl    -4.291026    1.198317   -0.001754
  Cl    -1.780632    3.062109    0.000066
  O      0.738221    1.678978    0.002456
  H      5.238176    2.037254   -0.001253
  H      2.944048    2.997300    0.000577
  H      3.541569   -1.902511    0.000098

 Total Charge           Charge          ....    0
 Multiplicity           Mult            ....    1
 Number of Electrons    NEL             ....  176
 Basis Dimension        Dim             ....  426

ORBITAL ENERGIES
----------------

  NO   OCC          E(Eh)            E(eV)
   0   2.0000    -101.243650     -2754.9798
   1   2.0000    -101.243601     -2754.9784
   2   2.0000    -101.243172     -2754.9668
   3   2.0000    -101.243126     -2754.9655
   4   2.0000    -101.228668     -2754.5721
   5   2.0000     -19.038474      -518.0632
   6   2.0000     -19.037324      -518.0319
   7   2.0000     -10.142924      -276.0030
   8   2.0000     -10.142515      -275.9919
   9   2.0000     -10.132469      -275.7185
  10   2.0000     -10.132020      -275.7063
  11   2.0000     -10.130474      -275.6642
  12   2.0000     -10.130268      -275.6586
  13   2.0000     -10.128581      -275.6127
  14   2.0000     -10.124094      -275.4906
  15   2.0000     -10.110414      -275.1184
  16   2.0000     -10.059856      -273.7426
  17   2.0000     -10.057273      -273.6723
  18   2.0000     -10.054253      -273.5901
  19   2.0000      -9.399255      -255.7667
  20   2.0000      -9.399220      -255.7658
  21   2.0000      -9.398947      -255.7584
  22   2.0000      -9.398897      -255.7570
  23   2.0000      -9.384697      -255.3706
  24   2.0000      -7.145925      -194.4505
  25   2.0000      -7.145885      -194.4494
  26   2.0000      -7.145594      -194.4415
  27   2.0000      -7.145550      -194.4403
  28   2.0000      -7.135505      -194.1670
  29   2.0000      -7.135474      -194.1661
  30   2.0000      -7.135190      -194.1584
  31   2.0000      -7.135135      -194.1569
  32   2.0000      -7.134625      -194.1430
  33   2.0000      -7.134589      -194.1420
  34   2.0000      -7.134306      -194.1343
  35   2.0000      -7.134258      -194.1330
  36   2.0000      -7.130859      -194.0405
  37   2.0000      -7.120982      -193.7718
  38   2.0000      -7.120504      -193.7588
  39   2.0000      -1.109105       -30.1803
  40   2.0000      -1.075691       -29.2710
  41   2.0000      -0.924590       -25.1594
  42   2.0000      -0.880828       -23.9686
  43   2.0000      -0.877202       -23.8699
  44   2.0000      -0.857461       -23.3327
  45   2.0000      -0.829367       -22.5682
  46   2.0000      -0.825121       -22.4527
  47   2.0000      -0.803389       -21.8613
  48   2.0000      -0.756531       -20.5863
  49   2.0000      -0.737756       -20.0753
  50   2.0000      -0.710477       -19.3330
  51   2.0000      -0.700066       -19.0498
  52   2.0000      -0.650780       -17.7086
  53   2.0000      -0.623923       -16.9778
  54   2.0000      -0.597185       -16.2502
  55   2.0000      -0.577521       -15.7151
  56   2.0000      -0.562940       -15.3184
  57   2.0000      -0.531582       -14.4651
  58   2.0000      -0.499365       -13.5884
  59   2.0000      -0.482925       -13.1411
  60   2.0000      -0.475452       -12.9377
  61   2.0000      -0.475187       -12.9305
  62   2.0000      -0.450090       -12.2476
  63   2.0000      -0.449840       -12.2408
  64   2.0000      -0.429078       -11.6758
  65   2.0000      -0.424644       -11.5552
  66   2.0000      -0.420935       -11.4542
  67   2.0000      -0.420202       -11.4343
  68   2.0000      -0.413032       -11.2392
  69   2.0000      -0.407840       -11.0979
  70   2.0000      -0.379836       -10.3359
  71   2.0000      -0.379542       -10.3279
  72   2.0000      -0.370361       -10.0780
  73   2.0000      -0.366857        -9.9827
  74   2.0000      -0.346734        -9.4351
  75   2.0000      -0.329809        -8.9746
  76   2.0000      -0.325346        -8.8531
  77   2.0000      -0.322664        -8.7801
  78   2.0000      -0.319775        -8.7015
  79   2.0000      -0.319174        -8.6852
  80   2.0000      -0.305474        -8.3124
  81   2.0000      -0.295884        -8.0514
  82   2.0000      -0.287871        -7.8334
  83   2.0000      -0.283953        -7.7268
  84   2.0000      -0.257831        -7.0159
  85   2.0000      -0.246975        -6.7205
  86   2.0000      -0.229905        -6.2560
  87   2.0000      -0.199840        -5.4379
  88   0.0000      -0.070491        -1.9182
  89   0.0000      -0.065346        -1.7782
  90   0.0000      -0.063707        -1.7335
  91   0.0000      -0.052326        -1.4239
  92   0.0000      -0.026373        -0.7176

MULLIKEN ATOMIC CHARGES
-----------------------
   0 C :   -0.224846
   1 C :   -0.328018
   2 C :    0.194364
   3 C :    0.229218
   4 C :   -0.433802
   5 C :    0.243629
   6 Cl:   -0.150012
   7 O :   -0.079765
   8 C :    0.509706
   9 C :    0.528381
  10 C :   -0.387324
  11 C :    0.046311
  12 C :    0.042788
  13 C :   -0.386122
  14 Cl:   -0.087199
  15 Cl:   -0.079471
  16 Cl:   -0.079323
  17 Cl:   -0.087075
  18 O :   -0.078676
  19 H :    0.201221
  20 H :    0.199533
  21 H :    0.206480
Sum of atomic charges:    0.0000000

LOEWDIN ATOMIC CHARGES
----------------------
   0 C :   -0.167960
   1 C :   -0.100319
   2 C :    0.223381
   3 C :    0.232814
   4 C :   -0.122686
   5 C :   -0.173562
   6 Cl:    0.124155
   7 O :   -0.565914
   8 C :    0.222830
   9 C :    0.222897
  10 C :   -0.148530
  11 C :   -0.198717
  12 C :   -0.199324
  13 C :   -0.147719
  14 Cl:    0.205916
  15 Cl:    0.175981
  16 Cl:    0.176277
  17 Cl:    0.205894
  18 O :   -0.568879
  19 H :    0.193815
  20 H :    0.202564
  21 H :    0.207086

  Mayer bond orders larger than 0.100000
B(  0-C ,  1-C ) :   1.3271 B(  0-C ,  5-C ) :   1.3503 B(  0-C , 19-H ) :   0.9382
B(  1-C ,  2-C ) :   1.2965 B(  1-C , 20-H ) :   0.9786 B(  2-C ,  3-C ) :   1.4684
B(  2-C , 18-O ) :   0.8951 B(  3-C ,  4-C ) :   1.3236 B(  3-C ,  7-O ) :   0.8890
B(  4-C ,  5-C ) :   1.3016 B(  4-C , 21-H ) :   0.9301 B(  5-C ,  6-Cl) :   0.9160
B(  7-O ,  8-C ) :   1.1398 B(  8-C ,  9-C ) :   1.3498 B(  8-C , 10-C ) :  -0.1896
B(  8-C , 13-C ) :   0.7611 B(  8-C , 14-Cl) :  -0.2396 B(  9-C , 10-C ) :   0.7599
B(  9-C , 13-C ) :  -0.1922 B(  9-C , 17-Cl) :  -0.2415 B(  9-C , 18-O ) :   1.1365
B( 10-C , 11-C ) :   0.9454 B( 10-C , 13-C ) :   0.1536 B( 10-C , 17-Cl) :   1.4250
B( 11-C , 12-C ) :   1.0823 B( 11-C , 16-Cl) :   1.2328 B( 12-C , 13-C ) :   0.9467
B( 12-C , 15-Cl) :   1.2323 B( 13-C , 14-Cl) :   1.4219

Dispersion correction           -0.013736855
FINAL SINGLE POINT ENERGY     -2910.277500337216

DIPOLE MOMENT
-------------

Method             : SCF
Type of density    : Electron Density
Multiplicity       :   1
Irrep              :   0
Energy             : -2910.2771738248084148 Eh
Relativity type    :
Basis              : AO
                                X                 Y                 Z
Electronic contribution:    -16.775971862      -4.280778507      -0.004953871
Nuclear contribution   :     17.585826102       4.839669725       0.005133396
                        -----------------------------------------
Total Dipole Moment    :      0.809854240       0.558891217       0.000179525
                        -----------------------------------------
Magnitude (a.u.)       :      0.983983392
Magnitude (Debye)      :      2.501087017

Rotational constants in cm-1:             0.015153             0.004432             0.003429
Rotational constants in MHz :           454.261316           132.880319           102.807229

                             ****ORCA TERMINATED NORMALLY****
TOTAL RUN TIME: 0 days 0 hours 1 minutes 12 seconds 532 msec
