                         Program Version 6.0.0  -   RELEASE  -
|  1> ! r2scan-3c def2/J RI DEFGRID2 scfconv6 printgap
|  2> %output
|  3>     printlevel normal
|  4> end
|  5> * xyz 0 1
|  6> C 2.3065470405 -2.890307709 1.903189449
|  7> C 1.38406465 -2.1208984902 0.9789774135
|  8> O 1.7463919284 -0.7289376058 0.9975256268
|  9> P 2.3341751759 0.0805975556 -0.2460553309
| 10> S 3.0309391714 -0.9961352245 -1.7153088772
| 11> O 3.4310752897 0.996505812 0.4161651173
| 12> C 3.1582821002 1.8749857996 1.5395910721
| 13> C 4.4037758737 2.700011244 1.7843682944
| 14> S 0.8145320409 1.5009965187 -0.7466982125
| 15> C 0.0430458751 0.5476003221 -2.0745762001
| 16> S -0.7021092652 -0.9980451295 -1.4908998622
| 17> P -2.0673795951 -0.1100754653 -0.1298834265
| 18> S -2.8788856654 1.577001619 -0.7208301247
| 19> O -1.2211672003 -0.052389207 1.2052458022
| 20> C -1.3936971892 0.992762591 2.1823817777
| 21> C -2.6767441102 0.7993749163 2.9621002575
| 22> O -3.0368003561 -1.3194939567 0.2106259485
| 23> C -3.9731459173 -1.8683364286 -0.7386369096
| 24> C -5.3148323305 -1.1664437886 -0.6536008249
| 25> H 3.3307179512 -2.8222370567 1.5430143371
| 26> H 2.2567664226 -2.4846873081 2.9095736367
| 27> H 2.0037976594 -3.9322280687 1.9193001282
| 28> H 0.3440488477 -2.1690613877 1.3103510052
| 29> H 1.4577630303 -2.4991817162 -0.0459417141
| 30> H 2.3026099603 2.5058368578 1.2824091459
| 31> H 2.9072657605 1.2550284915 2.4024445593
| 32> H 5.2445350471 2.0485293687 2.0042975348
| 33> H 4.639868928 3.2887678307 0.9027268886
| 34> H 4.2315309653 3.3641046942 2.6251431927
| 35> H 0.793799952 0.2689013558 -2.8133841192
| 36> H -0.7270358694 1.1873493927 -2.5046278549
| 37> H -0.5104185612 0.9105814503 2.8173679304
| 38> H -1.390795481 1.9590122025 1.6671047093
| 39> H -2.6935312155 -0.1850116793 3.4219188749
| 40> H -2.7525733437 1.5620489552 3.7305509721
| 41> H -3.5283270855 0.8872560058 2.2882247725
| 42> H -3.5515450363 -1.7935656707 -1.7452699972
| 43> H -4.056619325 -2.9200097244 -0.4582106355
| 44> H -5.7082245582 -1.2330854494 0.3568854377
| 45> H -5.2112088617 -0.1172318633 -0.9211801283
| 46> H -6.0091509867 -1.6392250489 -1.3406879144
| 47> *
| 48>
| 49>                          ****END OF INPUT****

CARTESIAN COORDINATES (ANGSTROEM)
---------------------------------
  C      2.306547   -2.890308    1.903189
  C      1.384065   -2.120898    0.978977
  O      1.746392   -0.728938    0.997526
  P      2.334175    0.080598   -0.246055
  S      3.030939   -0.996135   -1.715309
  O      3.431075    0.996506    0.416165
  C      3.158282    1.874986    1.539591
  C      4.403776    2.700011    1.784368
  S      0.814532    1.500997   -0.746698
  C      0.043046    0.547600   -2.074576
  S     -0.702109   -0.998045   -1.490900
  P     -2.067380   -0.110075   -0.129883
  S     -2.878886    1.577002   -0.720830
  O     -1.221167   -0.052389    1.205246
  C     -1.393697    0.992763    2.182382
  C     -2.676744    0.799375    2.962100
  O     -3.036800   -1.319494    0.210626
  C     -3.973146   -1.868336   -0.738637
  C     -5.314832   -1.166444   -0.653601
  H      3.330718   -2.822237    1.543014
  H      2.256766   -2.484687    2.909574
  H      2.003798   -3.932228    1.919300
  H      0.344049   -2.169061    1.310351
  H      1.457763   -2.499182   -0.045942
  H      2.302610    2.505837    1.282409
  H      2.907266    1.255028    2.402445
  H      5.244535    2.048529    2.004298
  H      4.639869    3.288768    0.902727
  H      4.231531    3.364105    2.625143
  H      0.793800    0.268901   -2.813384
  H     -0.727036    1.187349   -2.504628
  H     -0.510419    0.910581    2.817368
  H     -1.390795    1.959012    1.667105
  H     -2.693531   -0.185012    3.421919
  H     -2.752573    1.562049    3.730551
  H     -3.528327    0.887256    2.288225
  H     -3.551545   -1.793566   -1.745270
  H     -4.056619   -2.920010   -0.458211
  H     -5.708225   -1.233085    0.356885
  H     -5.211209   -0.117232   -0.921180
  H     -6.009151   -1.639225   -1.340688

 Total Charge           Charge          ....    0
 Multiplicity           Mult            ....    1
 Number of Electrons    NEL             ....  202
 Basis Dimension        Dim             ....  539

ORBITAL ENERGIES
----------------

  NO   OCC          E(Eh)            E(eV)
   0   2.0000     -88.576472     -2410.2883
   1   2.0000     -88.571328     -2410.1484
   2   2.0000     -88.524169     -2408.8651
   3   2.0000     -88.519438     -2408.7364
   4   2.0000     -76.917193     -2093.0232
   5   2.0000     -76.912536     -2092.8965
   6   2.0000     -18.996540      -516.9221
   7   2.0000     -18.991992      -516.7984
   8   2.0000     -18.991462      -516.7840
   9   2.0000     -18.985928      -516.6334
  10   2.0000     -10.107489      -275.0388
  11   2.0000     -10.105076      -274.9731
  12   2.0000     -10.104570      -274.9593
  13   2.0000     -10.099180      -274.8127
  14   2.0000     -10.089624      -274.5526
  15   2.0000     -10.037191      -273.1259
  16   2.0000     -10.030464      -272.9428
  17   2.0000     -10.028820      -272.8981
  18   2.0000     -10.026098      -272.8240
  19   2.0000      -7.870788      -214.1750
  20   2.0000      -7.865675      -214.0359
  21   2.0000      -7.819003      -212.7659
  22   2.0000      -7.814306      -212.6381
  23   2.0000      -6.595606      -179.4756
  24   2.0000      -6.590768      -179.3439
  25   2.0000      -5.817613      -158.3053
  26   2.0000      -5.814632      -158.2242
  27   2.0000      -5.812558      -158.1677
  28   2.0000      -5.809562      -158.0862
  29   2.0000      -5.807985      -158.0433
  30   2.0000      -5.802750      -157.9008
  31   2.0000      -5.766627      -156.9179
  32   2.0000      -5.762039      -156.7931
  33   2.0000      -5.759240      -156.7169
  34   2.0000      -5.759069      -156.7122
  35   2.0000      -5.754582      -156.5901
  36   2.0000      -5.754200      -156.5798
  37   2.0000      -4.740999      -129.0091
  38   2.0000      -4.740591      -128.9980
  39   2.0000      -4.739397      -128.9655
  40   2.0000      -4.736561      -128.8884
  41   2.0000      -4.735477      -128.8589
  42   2.0000      -4.734484      -128.8318
  43   2.0000      -1.053760       -28.6743
  44   2.0000      -1.047765       -28.5111
  45   2.0000      -1.014017       -27.5928
  46   2.0000      -1.006213       -27.3805
  47   2.0000      -0.802050       -21.8249
  48   2.0000      -0.761584       -20.7238
  49   2.0000      -0.752943       -20.4886
  50   2.0000      -0.733295       -19.9540
  51   2.0000      -0.732403       -19.9297
  52   2.0000      -0.708730       -19.2855
  53   2.0000      -0.686611       -18.6836
  54   2.0000      -0.671251       -18.2657
  55   2.0000      -0.631390       -17.1810
  56   2.0000      -0.616297       -16.7703
  57   2.0000      -0.608574       -16.5601
  58   2.0000      -0.605478       -16.4759
  59   2.0000      -0.595454       -16.2031
  60   2.0000      -0.534526       -14.5452
  61   2.0000      -0.523496       -14.2450
  62   2.0000      -0.500976       -13.6322
  63   2.0000      -0.498162       -13.5557
  64   2.0000      -0.475337       -12.9346
  65   2.0000      -0.463514       -12.6129
  66   2.0000      -0.461204       -12.5500
  67   2.0000      -0.455535       -12.3957
  68   2.0000      -0.445570       -12.1246
  69   2.0000      -0.425529       -11.5792
  70   2.0000      -0.419927       -11.4268
  71   2.0000      -0.416890       -11.3441
  72   2.0000      -0.409173       -11.1342
  73   2.0000      -0.406763       -11.0686
  74   2.0000      -0.397766       -10.8238
  75   2.0000      -0.392163       -10.6713
  76   2.0000      -0.384350       -10.4587
  77   2.0000      -0.372675       -10.1410
  78   2.0000      -0.372010       -10.1229
  79   2.0000      -0.368218       -10.0197
  80   2.0000      -0.364003        -9.9050
  81   2.0000      -0.360047        -9.7974
  82   2.0000      -0.354093        -9.6354
  83   2.0000      -0.353433        -9.6174
  84   2.0000      -0.349612        -9.5134
  85   2.0000      -0.335431        -9.1275
  86   2.0000      -0.329127        -8.9560
  87   2.0000      -0.321324        -8.7437
  88   2.0000      -0.314782        -8.5657
  89   2.0000      -0.304234        -8.2786
  90   2.0000      -0.302078        -8.2200
  91   2.0000      -0.293836        -7.9957
  92   2.0000      -0.285159        -7.7596
  93   2.0000      -0.282552        -7.6886
  94   2.0000      -0.268961        -7.3188
  95   2.0000      -0.247218        -6.7271
  96   2.0000      -0.229197        -6.2368
  97   2.0000      -0.227095        -6.1796
  98   2.0000      -0.222098        -6.0436
  99   2.0000      -0.214435        -5.8351
 100   2.0000      -0.210474        -5.7273
 101   0.0000      -0.048822        -1.3285
 102   0.0000      -0.026656        -0.7253
 103   0.0000      -0.003447        -0.0938
 104   0.0000       0.005205         0.1416
 105   0.0000       0.008429         0.2294

MULLIKEN ATOMIC CHARGES
-----------------------
   0 C :   -0.484965
   1 C :   -0.117235
   2 O :   -0.257637
   3 P :    0.676434
   4 S :   -0.452737
   5 O :   -0.282409
   6 C :   -0.132353
   7 C :   -0.443080
   8 S :   -0.175222
   9 C :   -0.222538
  10 S :   -0.149659
  11 P :    0.680632
  12 S :   -0.475630
  13 O :   -0.245727
  14 C :   -0.156183
  15 C :   -0.447364
  16 O :   -0.302695
  17 C :   -0.136563
  18 C :   -0.451963
  19 H :    0.163964
  20 H :    0.148678
  21 H :    0.145882
  22 H :    0.165170
  23 H :    0.177186
  24 H :    0.145213
  25 H :    0.159992
  26 H :    0.158282
  27 H :    0.160761
  28 H :    0.144943
  29 H :    0.210347
  30 H :    0.209912
  31 H :    0.153512
  32 H :    0.177956
  33 H :    0.154471
  34 H :    0.146915
  35 H :    0.168575
  36 H :    0.154624
  37 H :    0.151012
  38 H :    0.152009
  39 H :    0.181377
  40 H :    0.146112
Sum of atomic charges:   -0.0000000

LOEWDIN ATOMIC CHARGES
----------------------
   0 C :   -0.392603
   1 C :    0.003795
   2 O :   -0.669974
   3 P :    0.387038
   4 S :   -0.098004
   5 O :   -0.655343
   6 C :    0.024347
   7 C :   -0.382292
   8 S :    0.141448
   9 C :   -0.420896
  10 S :    0.158961
  11 P :    0.380326
  12 S :   -0.125326
  13 O :   -0.674694
  14 C :    0.013476
  15 C :   -0.398409
  16 O :   -0.658502
  17 C :    0.022879
  18 C :   -0.401621
  19 H :    0.162616
  20 H :    0.155985
  21 H :    0.159074
  22 H :    0.180569
  23 H :    0.183470
  24 H :    0.173771
  25 H :    0.174783
  26 H :    0.163052
  27 H :    0.163743
  28 H :    0.159575
  29 H :    0.190949
  30 H :    0.189768
  31 H :    0.179684
  32 H :    0.182342
  33 H :    0.159426
  34 H :    0.159539
  35 H :    0.165683
  36 H :    0.175834
  37 H :    0.179489
  38 H :    0.158429
  39 H :    0.169190
  40 H :    0.158422

  Mayer bond orders larger than 0.100000
B(  0-C ,  1-C ) :   0.9391 B(  0-C , 19-H ) :   0.9724 B(  0-C , 20-H ) :   0.9799
B(  0-C , 21-H ) :   0.9671 B(  1-C ,  2-O ) :   0.7227 B(  1-C , 22-H ) :   0.9544
B(  1-C , 23-H ) :   0.9495 B(  2-O ,  3-P ) :   1.0359 B(  3-P ,  4-S ) :   1.8387
B(  3-P ,  5-O ) :   1.1910 B(  3-P ,  8-S ) :   0.9845 B(  5-O ,  6-C ) :   0.7486
B(  6-C ,  7-C ) :   0.9647 B(  6-C , 24-H ) :   0.9394 B(  6-C , 25-H ) :   0.9479
B(  7-C , 26-H ) :   0.9717 B(  7-C , 27-H ) :   0.9697 B(  7-C , 28-H ) :   0.9621
B(  8-S ,  9-C ) :   0.9011 B(  9-C , 10-S ) :   0.8886 B(  9-C , 29-H ) :   0.9096
B(  9-C , 30-H ) :   0.9118 B( 10-S , 11-P ) :   1.0745 B( 11-P , 12-S ) :   1.7504
B( 11-P , 13-O ) :   1.1392 B( 11-P , 16-O ) :   1.0766 B( 13-O , 14-C ) :   0.7762
B( 14-C , 15-C ) :   0.9274 B( 14-C , 31-H ) :   0.9623 B( 14-C , 32-H ) :   0.9596
B( 15-C , 33-H ) :   0.9739 B( 15-C , 34-H ) :   0.9641 B( 15-C , 35-H ) :   0.9592
B( 16-O , 17-C ) :   0.7831 B( 17-C , 18-C ) :   0.9552 B( 17-C , 36-H ) :   0.9624
B( 17-C , 37-H ) :   0.9630 B( 18-C , 38-H ) :   0.9744 B( 18-C , 39-H ) :   0.9559
B( 18-C , 40-H ) :   0.9645

Dispersion correction           -0.021626740
FINAL SINGLE POINT ENERGY     -2932.462543684922

DIPOLE MOMENT
-------------

Method             : SCF
Type of density    : Electron Density
Multiplicity       :   1
Irrep              :   0
Energy             : -2932.4873233653447642 Eh
Relativity type    :
Basis              : AO
                                X                 Y                 Z
Electronic contribution:      5.755300621       2.208332999     -18.983518518
Nuclear contribution   :     -6.449428465      -2.421335124      20.544955755
                        -----------------------------------------
Total Dipole Moment    :     -0.694127844      -0.213002125       1.561437236
                        -----------------------------------------
Magnitude (a.u.)       :      1.721995822
Magnitude (Debye)      :      4.376965537

Rotational constants in cm-1:             0.012077             0.005136             0.004865
Rotational constants in MHz :           362.062944           153.972657           145.852755

                             ****ORCA TERMINATED NORMALLY****
TOTAL RUN TIME: 0 days 0 hours 1 minutes 21 seconds 143 msec
