                         Program Version 6.0.0  -   RELEASE  -
|  1> ! r2scan-3c def2/J RI DEFGRID2 scfconv6 printgap
|  2> %output
|  3>     printlevel normal
|  4> end
|  5> %cpcm
|  6>     smd true
|  7>     smdsolvent "water"
|  8> end
|  9> * xyz 0 1
| 10> C 2.3065470405 -2.890307709 1.903189449
| 11> C 1.38406465 -2.1208984902 0.9789774135
| 12> O 1.7463919284 -0.7289376058 0.9975256268
| 13> P 2.3341751759 0.0805975556 -0.2460553309
| 14> S 3.0309391714 -0.9961352245 -1.7153088772
| 15> O 3.4310752897 0.996505812 0.4161651173
| 16> C 3.1582821002 1.8749857996 1.5395910721
| 17> C 4.4037758737 2.700011244 1.7843682944
| 18> S 0.8145320409 1.5009965187 -0.7466982125
| 19> C 0.0430458751 0.5476003221 -2.0745762001
| 20> S -0.7021092652 -0.9980451295 -1.4908998622
| 21> P -2.0673795951 -0.1100754653 -0.1298834265
| 22> S -2.8788856654 1.577001619 -0.7208301247
| 23> O -1.2211672003 -0.052389207 1.2052458022
| 24> C -1.3936971892 0.992762591 2.1823817777
| 25> C -2.6767441102 0.7993749163 2.9621002575
| 26> O -3.0368003561 -1.3194939567 0.2106259485
| 27> C -3.9731459173 -1.8683364286 -0.7386369096
| 28> C -5.3148323305 -1.1664437886 -0.6536008249
| 29> H 3.3307179512 -2.8222370567 1.5430143371
| 30> H 2.2567664226 -2.4846873081 2.9095736367
| 31> H 2.0037976594 -3.9322280687 1.9193001282
| 32> H 0.3440488477 -2.1690613877 1.3103510052
| 33> H 1.4577630303 -2.4991817162 -0.0459417141
| 34> H 2.3026099603 2.5058368578 1.2824091459
| 35> H 2.9072657605 1.2550284915 2.4024445593
| 36> H 5.2445350471 2.0485293687 2.0042975348
| 37> H 4.639868928 3.2887678307 0.9027268886
| 38> H 4.2315309653 3.3641046942 2.6251431927
| 39> H 0.793799952 0.2689013558 -2.8133841192
| 40> H -0.7270358694 1.1873493927 -2.5046278549
| 41> H -0.5104185612 0.9105814503 2.8173679304
| 42> H -1.390795481 1.9590122025 1.6671047093
| 43> H -2.6935312155 -0.1850116793 3.4219188749
| 44> H -2.7525733437 1.5620489552 3.7305509721
| 45> H -3.5283270855 0.8872560058 2.2882247725
| 46> H -3.5515450363 -1.7935656707 -1.7452699972
| 47> H -4.056619325 -2.9200097244 -0.4582106355
| 48> H -5.7082245582 -1.2330854494 0.3568854377
| 49> H -5.2112088617 -0.1172318633 -0.9211801283
| 50> H -6.0091509867 -1.6392250489 -1.3406879144
| 51> *
| 52>
| 53>                          ****END OF INPUT****

CARTESIAN COORDINATES (ANGSTROEM)
---------------------------------
  C      2.306547   -2.890308    1.903189
  C      1.384065   -2.120898    0.978977
  O      1.746392   -0.728938    0.997526
  P      2.334175    0.080598   -0.246055
  S      3.030939   -0.996135   -1.715309
  O      3.431075    0.996506    0.416165
  C      3.158282    1.874986    1.539591
  C      4.403776    2.700011    1.784368
  S      0.814532    1.500997   -0.746698
  C      0.043046    0.547600   -2.074576
  S     -0.702109   -0.998045   -1.490900
  P     -2.067380   -0.110075   -0.129883
  S     -2.878886    1.577002   -0.720830
  O     -1.221167   -0.052389    1.205246
  C     -1.393697    0.992763    2.182382
  C     -2.676744    0.799375    2.962100
  O     -3.036800   -1.319494    0.210626
  C     -3.973146   -1.868336   -0.738637
  C     -5.314832   -1.166444   -0.653601
  H      3.330718   -2.822237    1.543014
  H      2.256766   -2.484687    2.909574
  H      2.003798   -3.932228    1.919300
  H      0.344049   -2.169061    1.310351
  H      1.457763   -2.499182   -0.045942
  H      2.302610    2.505837    1.282409
  H      2.907266    1.255028    2.402445
  H      5.244535    2.048529    2.004298
  H      4.639869    3.288768    0.902727
  H      4.231531    3.364105    2.625143
  H      0.793800    0.268901   -2.813384
  H     -0.727036    1.187349   -2.504628
  H     -0.510419    0.910581    2.817368
  H     -1.390795    1.959012    1.667105
  H     -2.693531   -0.185012    3.421919
  H     -2.752573    1.562049    3.730551
  H     -3.528327    0.887256    2.288225
  H     -3.551545   -1.793566   -1.745270
  H     -4.056619   -2.920010   -0.458211
  H     -5.708225   -1.233085    0.356885
  H     -5.211209   -0.117232   -0.921180
  H     -6.009151   -1.639225   -1.340688

 Total Charge           Charge          ....    0
 Multiplicity           Mult            ....    1
 Number of Electrons    NEL             ....  202
 Basis Dimension        Dim             ....  539

ORBITAL ENERGIES
----------------

  NO   OCC          E(Eh)            E(eV)
   0   2.0000     -88.578865     -2410.3535
   1   2.0000     -88.576505     -2410.2892
   2   2.0000     -88.531486     -2409.0642
   3   2.0000     -88.528829     -2408.9919
   4   2.0000     -76.920682     -2093.1182
   5   2.0000     -76.919968     -2093.0987
   6   2.0000     -18.996423      -516.9189
   7   2.0000     -18.996188      -516.9126
   8   2.0000     -18.992298      -516.8067
   9   2.0000     -18.991237      -516.7778
  10   2.0000     -10.104641      -274.9613
  11   2.0000     -10.095339      -274.7081
  12   2.0000     -10.092057      -274.6188
  13   2.0000     -10.089018      -274.5361
  14   2.0000     -10.086286      -274.4618
  15   2.0000     -10.021312      -272.6938
  16   2.0000     -10.018284      -272.6114
  17   2.0000     -10.016997      -272.5763
  18   2.0000     -10.016845      -272.5722
  19   2.0000      -7.873225      -214.2413
  20   2.0000      -7.870814      -214.1757
  21   2.0000      -7.826700      -212.9753
  22   2.0000      -7.823925      -212.8998
  23   2.0000      -6.598961      -179.5669
  24   2.0000      -6.598415      -179.5520
  25   2.0000      -5.820033      -158.3712
  26   2.0000      -5.817678      -158.3071
  27   2.0000      -5.817074      -158.2906
  28   2.0000      -5.814673      -158.2253
  29   2.0000      -5.810429      -158.1098
  30   2.0000      -5.807949      -158.0423
  31   2.0000      -5.774322      -157.1273
  32   2.0000      -5.771499      -157.0505
  33   2.0000      -5.766966      -156.9271
  34   2.0000      -5.766647      -156.9184
  35   2.0000      -5.764161      -156.8508
  36   2.0000      -5.763993      -156.8462
  37   2.0000      -4.744719      -129.1104
  38   2.0000      -4.743764      -129.0844
  39   2.0000      -4.743650      -129.0813
  40   2.0000      -4.743401      -129.0745
  41   2.0000      -4.742769      -129.0573
  42   2.0000      -4.742275      -129.0439
  43   2.0000      -1.053919       -28.6786
  44   2.0000      -1.052002       -28.6264
  45   2.0000      -1.013462       -27.5777
  46   2.0000      -1.010226       -27.4897
  47   2.0000      -0.804213       -21.8837
  48   2.0000      -0.757730       -20.6189
  49   2.0000      -0.745782       -20.2938
  50   2.0000      -0.725927       -19.7535
  51   2.0000      -0.722500       -19.6602
  52   2.0000      -0.708167       -19.2702
  53   2.0000      -0.690203       -18.7814
  54   2.0000      -0.677023       -18.4227
  55   2.0000      -0.627477       -17.0745
  56   2.0000      -0.614870       -16.7315
  57   2.0000      -0.600556       -16.3420
  58   2.0000      -0.598072       -16.2744
  59   2.0000      -0.592583       -16.1250
  60   2.0000      -0.531981       -14.4760
  61   2.0000      -0.518375       -14.1057
  62   2.0000      -0.499769       -13.5994
  63   2.0000      -0.492998       -13.4152
  64   2.0000      -0.474227       -12.9044
  65   2.0000      -0.459183       -12.4950
  66   2.0000      -0.454305       -12.3623
  67   2.0000      -0.450151       -12.2492
  68   2.0000      -0.442727       -12.0472
  69   2.0000      -0.421056       -11.4575
  70   2.0000      -0.419267       -11.4088
  71   2.0000      -0.414488       -11.2788
  72   2.0000      -0.405001       -11.0206
  73   2.0000      -0.403200       -10.9716
  74   2.0000      -0.394002       -10.7214
  75   2.0000      -0.388697       -10.5770
  76   2.0000      -0.381214       -10.3733
  77   2.0000      -0.368761       -10.0345
  78   2.0000      -0.361511        -9.8372
  79   2.0000      -0.358239        -9.7482
  80   2.0000      -0.354353        -9.6424
  81   2.0000      -0.352941        -9.6040
  82   2.0000      -0.346285        -9.4229
  83   2.0000      -0.346070        -9.4170
  84   2.0000      -0.345531        -9.4024
  85   2.0000      -0.333671        -9.0796
  86   2.0000      -0.325768        -8.8646
  87   2.0000      -0.318140        -8.6570
  88   2.0000      -0.306881        -8.3507
  89   2.0000      -0.303123        -8.2484
  90   2.0000      -0.299421        -8.1477
  91   2.0000      -0.291467        -7.9312
  92   2.0000      -0.284055        -7.7295
  93   2.0000      -0.282679        -7.6921
  94   2.0000      -0.271668        -7.3925
  95   2.0000      -0.250251        -6.8097
  96   2.0000      -0.238555        -6.4914
  97   2.0000      -0.236156        -6.4261
  98   2.0000      -0.228606        -6.2207
  99   2.0000      -0.222415        -6.0522
 100   2.0000      -0.218177        -5.9369
 101   0.0000      -0.053446        -1.4543
 102   0.0000      -0.032854        -0.8940
 103   0.0000      -0.006332        -0.1723
 104   0.0000      -0.000176        -0.0048
 105   0.0000       0.008615         0.2344

MULLIKEN ATOMIC CHARGES
-----------------------
   0 C :   -0.523322
   1 C :   -0.094425
   2 O :   -0.281908
   3 P :    0.683379
   4 S :   -0.503517
   5 O :   -0.318680
   6 C :   -0.114134
   7 C :   -0.489507
   8 S :   -0.185527
   9 C :   -0.233273
  10 S :   -0.158602
  11 P :    0.713661
  12 S :   -0.516501
  13 O :   -0.276187
  14 C :   -0.141696
  15 C :   -0.489884
  16 O :   -0.331853
  17 C :   -0.128443
  18 C :   -0.490651
  19 H :    0.165564
  20 H :    0.167057
  21 H :    0.168999
  22 H :    0.176891
  23 H :    0.174932
  24 H :    0.161016
  25 H :    0.180796
  26 H :    0.168655
  27 H :    0.167998
  28 H :    0.171097
  29 H :    0.229158
  30 H :    0.232545
  31 H :    0.179973
  32 H :    0.178037
  33 H :    0.169682
  34 H :    0.172247
  35 H :    0.166058
  36 H :    0.164367
  37 H :    0.177326
  38 H :    0.167820
  39 H :    0.170773
  40 H :    0.170080
Sum of atomic charges:   -0.0000000

LOEWDIN ATOMIC CHARGES
----------------------
   0 C :   -0.395678
   1 C :    0.008608
   2 O :   -0.677835
   3 P :    0.386090
   4 S :   -0.137231
   5 O :   -0.677438
   6 C :    0.033375
   7 C :   -0.386223
   8 S :    0.139187
   9 C :   -0.416206
  10 S :    0.155952
  11 P :    0.385462
  12 S :   -0.150905
  13 O :   -0.687637
  14 C :    0.019071
  15 C :   -0.401927
  16 O :   -0.670351
  17 C :    0.028849
  18 C :   -0.405803
  19 H :    0.161866
  20 H :    0.162334
  21 H :    0.167654
  22 H :    0.185641
  23 H :    0.182799
  24 H :    0.180978
  25 H :    0.184588
  26 H :    0.164997
  27 H :    0.164236
  28 H :    0.170387
  29 H :    0.196309
  30 H :    0.196808
  31 H :    0.190528
  32 H :    0.182807
  33 H :    0.163655
  34 H :    0.168864
  35 H :    0.162388
  36 H :    0.180075
  37 H :    0.190825
  38 H :    0.162524
  39 H :    0.162932
  40 H :    0.167443

  Mayer bond orders larger than 0.100000
B(  0-C ,  1-C ) :   0.9379 B(  0-C , 19-H ) :   0.9713 B(  0-C , 20-H ) :   0.9747
B(  0-C , 21-H ) :   0.9614 B(  1-C ,  2-O ) :   0.7120 B(  1-C , 22-H ) :   0.9456
B(  1-C , 23-H ) :   0.9478 B(  2-O ,  3-P ) :   1.0396 B(  3-P ,  4-S ) :   1.8199
B(  3-P ,  5-O ) :   1.1963 B(  3-P ,  8-S ) :   1.0034 B(  5-O ,  6-C ) :   0.7428
B(  6-C ,  7-C ) :   0.9539 B(  6-C , 24-H ) :   0.9299 B(  6-C , 25-H ) :   0.9374
B(  7-C , 26-H ) :   0.9698 B(  7-C , 27-H ) :   0.9688 B(  7-C , 28-H ) :   0.9554
B(  8-S ,  9-C ) :   0.8867 B(  9-C , 10-S ) :   0.8813 B(  9-C , 29-H ) :   0.9048
B(  9-C , 30-H ) :   0.9051 B( 10-S , 11-P ) :   1.0820 B( 11-P , 12-S ) :   1.7189
B( 11-P , 13-O ) :   1.1454 B( 11-P , 16-O ) :   1.0822 B( 13-O , 14-C ) :   0.7649
B( 14-C , 15-C ) :   0.9185 B( 14-C , 31-H ) :   0.9516 B( 14-C , 32-H ) :   0.9551
B( 15-C , 33-H ) :   0.9721 B( 15-C , 34-H ) :   0.9583 B( 15-C , 35-H ) :   0.9597
B( 16-O , 17-C ) :   0.7724 B( 17-C , 18-C ) :   0.9439 B( 17-C , 36-H ) :   0.9558
B( 17-C , 37-H ) :   0.9531 B( 18-C , 38-H ) :   0.9720 B( 18-C , 39-H ) :   0.9604
B( 18-C , 40-H ) :   0.9593

Dispersion correction           -0.021626740
FINAL SINGLE POINT ENERGY     -2932.471644762411

DIPOLE MOMENT
-------------

Method             : SCF
Type of density    : Electron Density
Multiplicity       :   1
Irrep              :   0
Energy             : -2932.4964244428333586 Eh
Relativity type    :
Basis              : AO
                                X                 Y                 Z
Electronic contribution:      5.404469672       2.118822633     -18.483486694
Nuclear contribution   :     -6.449428465      -2.421335124      20.544955755
                        -----------------------------------------
Total Dipole Moment    :     -1.044958794      -0.302512491       2.061469061
                        -----------------------------------------
Magnitude (a.u.)       :      2.330902696
Magnitude (Debye)      :      5.924683810

Rotational constants in cm-1:             0.012077             0.005136             0.004865
Rotational constants in MHz :           362.062944           153.972657           145.852755

                             ****ORCA TERMINATED NORMALLY****
TOTAL RUN TIME: 0 days 0 hours 1 minutes 51 seconds 780 msec
