                         Program Version 6.0.0  -   RELEASE  -
|  1> ! pbe def2-sv(p) def2/J RI DEFGRID1 loosescf d4 GCP(DFT/SV(P)) printgap
|  2> %output
|  3>     printlevel normal
|  4> end
|  5> * xyz 0 1
|  6> C 4.3614011257 -2.3698214041 -0.7808841141
|  7> C 4.9604011499 -0.9847911312 -0.6440532164
|  8> O 4.1042819034 -0.0882099528 0.0849466978
|  9> P 2.7008532691 0.4013948136 -0.4757902892
| 10> S 2.6649060235 0.7744072129 -2.3979866252
| 11> O 2.4223760006 1.7098479932 0.3561855886
| 12> C 2.041884151 1.8019262874 1.7504230213
| 13> C 2.9575464599 1.0230026739 2.6688932555
| 14> S 1.3084814839 -1.0641945585 0.2000356343
| 15> C -0.0228410153 -0.6098482122 -0.9261341919
| 16> S -0.8514504638 0.9444210174 -0.4280805023
| 17> P -2.7443633359 0.1412863694 0.0631976211
| 18> S -4.0596160966 1.3751660758 0.8236653596
| 19> O -2.457540268 -1.1677619684 0.9274814707
| 20> C -2.4524802629 -1.1486704129 2.3648677181
| 21> C -1.2569550212 -0.3988006207 2.9155605549
| 22> O -3.0935879141 -0.4908784177 -1.3516137206
| 23> C -4.4496191261 -0.8087884286 -1.72836723
| 24> C -5.0187873082 -1.9416790226 -0.9003973417
| 25> H 5.0996565995 -3.0366491793 -1.2146637131
| 26> H 4.0579212159 -2.7498933853 0.1911070055
| 27> H 3.4916206978 -2.3365234695 -1.434955712
| 28> H 5.1560809793 -0.5515916095 -1.6300178597
| 29> H 5.8795211541 -0.9995087266 -0.0567043566
| 30> H 2.0860438854 2.8739824375 1.9477594536
| 31> H 1.0075799224 1.4596272154 1.8387823951
| 32> H 3.9883270027 1.336359173 2.5263346798
| 33> H 2.6637706028 1.2078975734 3.6975547318
| 34> H 2.8825476105 -0.0430544859 2.4638060931
| 35> H -0.7470968095 -1.4187218748 -0.9262020835
| 36> H 0.3978729187 -0.4453865853 -1.9190151155
| 37> H -3.3848826448 -0.6878747822 2.7065038043
| 38> H -2.4306551677 -2.2031566449 2.6422026531
| 39> H -0.333705006 -0.8250541123 2.5294132258
| 40> H -1.3201059456 0.6507173206 2.6263118962
| 41> H -1.2582754891 -0.4643772239 3.9986472584
| 42> H -5.0587413965 0.0938016726 -1.6176263385
| 43> H -4.3694487621 -1.0750562373 -2.7831979235
| 44> H -4.3613871124 -2.806216848 -0.9392114495
| 45> H -5.1265956884 -1.6240944968 0.1358334138
| 46> H -5.9955692696 -2.2127372629 -1.2886709113
| 47> *
| 48>
| 49>                          ****END OF INPUT****

CARTESIAN COORDINATES (ANGSTROEM)
---------------------------------
  C      4.361401   -2.369821   -0.780884
  C      4.960401   -0.984791   -0.644053
  O      4.104282   -0.088210    0.084947
  P      2.700853    0.401395   -0.475790
  S      2.664906    0.774407   -2.397987
  O      2.422376    1.709848    0.356186
  C      2.041884    1.801926    1.750423
  C      2.957546    1.023003    2.668893
  S      1.308481   -1.064195    0.200036
  C     -0.022841   -0.609848   -0.926134
  S     -0.851450    0.944421   -0.428081
  P     -2.744363    0.141286    0.063198
  S     -4.059616    1.375166    0.823665
  O     -2.457540   -1.167762    0.927481
  C     -2.452480   -1.148670    2.364868
  C     -1.256955   -0.398801    2.915561
  O     -3.093588   -0.490878   -1.351614
  C     -4.449619   -0.808788   -1.728367
  C     -5.018787   -1.941679   -0.900397
  H      5.099657   -3.036649   -1.214664
  H      4.057921   -2.749893    0.191107
  H      3.491621   -2.336523   -1.434956
  H      5.156081   -0.551592   -1.630018
  H      5.879521   -0.999509   -0.056704
  H      2.086044    2.873982    1.947759
  H      1.007580    1.459627    1.838782
  H      3.988327    1.336359    2.526335
  H      2.663771    1.207898    3.697555
  H      2.882548   -0.043054    2.463806
  H     -0.747097   -1.418722   -0.926202
  H      0.397873   -0.445387   -1.919015
  H     -3.384883   -0.687875    2.706504
  H     -2.430655   -2.203157    2.642203
  H     -0.333705   -0.825054    2.529413
  H     -1.320106    0.650717    2.626312
  H     -1.258275   -0.464377    3.998647
  H     -5.058741    0.093802   -1.617626
  H     -4.369449   -1.075056   -2.783198
  H     -4.361387   -2.806217   -0.939211
  H     -5.126596   -1.624094    0.135833
  H     -5.995569   -2.212737   -1.288671

 Total Charge           Charge          ....    0
 Multiplicity           Mult            ....    1
 Number of Electrons    NEL             ....  202
 Basis Dimension        Dim             ....  334

ORBITAL ENERGIES
----------------

  NO   OCC          E(Eh)            E(eV)
   0   2.0000     -88.050543     -2395.9771
   1   2.0000     -88.042059     -2395.7462
   2   2.0000     -87.991689     -2394.3756
   3   2.0000     -87.987107     -2394.2509
   4   2.0000     -76.430403     -2079.7770
   5   2.0000     -76.428573     -2079.7272
   6   2.0000     -18.798011      -511.5199
   7   2.0000     -18.796830      -511.4877
   8   2.0000     -18.793716      -511.4030
   9   2.0000     -18.792318      -511.3650
  10   2.0000      -9.956633      -270.9337
  11   2.0000      -9.956532      -270.9310
  12   2.0000      -9.956344      -270.9259
  13   2.0000      -9.956331      -270.9256
  14   2.0000      -9.954273      -270.8695
  15   2.0000      -9.890155      -269.1248
  16   2.0000      -9.887891      -269.0632
  17   2.0000      -9.887053      -269.0404
  18   2.0000      -9.886934      -269.0371
  19   2.0000      -7.695039      -209.3926
  20   2.0000      -7.687094      -209.1765
  21   2.0000      -7.636783      -207.8074
  22   2.0000      -7.632333      -207.6863
  23   2.0000      -6.427763      -174.9083
  24   2.0000      -6.426351      -174.8699
  25   2.0000      -5.722656      -155.7214
  26   2.0000      -5.719599      -155.6382
  27   2.0000      -5.715325      -155.5219
  28   2.0000      -5.712280      -155.4390
  29   2.0000      -5.711516      -155.4183
  30   2.0000      -5.703794      -155.2081
  31   2.0000      -5.665769      -154.1734
  32   2.0000      -5.661311      -154.0521
  33   2.0000      -5.657368      -153.9448
  34   2.0000      -5.656933      -153.9330
  35   2.0000      -5.652906      -153.8234
  36   2.0000      -5.652442      -153.8108
  37   2.0000      -4.650526      -126.5472
  38   2.0000      -4.649585      -126.5216
  39   2.0000      -4.648726      -126.4983
  40   2.0000      -4.648282      -126.4862
  41   2.0000      -4.648019      -126.4790
  42   2.0000      -4.646818      -126.4464
  43   2.0000      -0.990530       -26.9537
  44   2.0000      -0.989870       -26.9357
  45   2.0000      -0.949160       -25.8280
  46   2.0000      -0.948689       -25.8151
  47   2.0000      -0.766188       -20.8490
  48   2.0000      -0.724956       -19.7270
  49   2.0000      -0.712971       -19.4009
  50   2.0000      -0.693806       -18.8794
  51   2.0000      -0.690581       -18.7917
  52   2.0000      -0.678362       -18.4592
  53   2.0000      -0.657562       -17.8932
  54   2.0000      -0.640536       -17.4299
  55   2.0000      -0.603507       -16.4222
  56   2.0000      -0.598810       -16.2944
  57   2.0000      -0.579924       -15.7805
  58   2.0000      -0.575470       -15.6593
  59   2.0000      -0.564622       -15.3641
  60   2.0000      -0.498865       -13.5748
  61   2.0000      -0.494315       -13.4510
  62   2.0000      -0.477211       -12.9856
  63   2.0000      -0.474260       -12.9053
  64   2.0000      -0.460062       -12.5189
  65   2.0000      -0.448838       -12.2135
  66   2.0000      -0.445770       -12.1300
  67   2.0000      -0.444816       -12.1041
  68   2.0000      -0.435632       -11.8542
  69   2.0000      -0.421683       -11.4746
  70   2.0000      -0.411031       -11.1847
  71   2.0000      -0.401350       -10.9213
  72   2.0000      -0.399881       -10.8813
  73   2.0000      -0.396653       -10.7935
  74   2.0000      -0.387214       -10.5366
  75   2.0000      -0.374663       -10.1951
  76   2.0000      -0.368412       -10.0250
  77   2.0000      -0.365220        -9.9381
  78   2.0000      -0.357026        -9.7152
  79   2.0000      -0.355587        -9.6760
  80   2.0000      -0.351560        -9.5664
  81   2.0000      -0.350067        -9.5258
  82   2.0000      -0.345656        -9.4058
  83   2.0000      -0.341260        -9.2862
  84   2.0000      -0.333895        -9.0857
  85   2.0000      -0.324295        -8.8245
  86   2.0000      -0.314592        -8.5605
  87   2.0000      -0.299736        -8.1562
  88   2.0000      -0.296119        -8.0578
  89   2.0000      -0.295284        -8.0351
  90   2.0000      -0.289770        -7.8851
  91   2.0000      -0.277777        -7.5587
  92   2.0000      -0.273823        -7.4511
  93   2.0000      -0.267787        -7.2869
  94   2.0000      -0.265448        -7.2232
  95   2.0000      -0.238149        -6.4804
  96   2.0000      -0.220231        -5.9928
  97   2.0000      -0.211144        -5.7455
  98   2.0000      -0.208151        -5.6641
  99   2.0000      -0.206936        -5.6310
 100   2.0000      -0.201168        -5.4741
 101   0.0000      -0.043736        -1.1901
 102   0.0000      -0.033331        -0.9070
 103   0.0000      -0.020274        -0.5517
 104   0.0000       0.003933         0.1070
 105   0.0000       0.016338         0.4446

MULLIKEN ATOMIC CHARGES
-----------------------
   0 C :   -0.316946
   1 C :   -0.002278
   2 O :   -0.374532
   3 P :    0.596573
   4 S :   -0.306649
   5 O :   -0.354503
   6 C :   -0.021680
   7 C :   -0.309044
   8 S :   -0.110012
   9 C :   -0.352278
  10 S :   -0.055308
  11 P :    0.596100
  12 S :   -0.317626
  13 O :   -0.382175
  14 C :    0.001482
  15 C :   -0.348903
  16 O :   -0.378254
  17 C :   -0.004647
  18 C :   -0.308476
  19 H :    0.115247
  20 H :    0.114999
  21 H :    0.127808
  22 H :    0.116187
  23 H :    0.106195
  24 H :    0.112835
  25 H :    0.134218
  26 H :    0.123398
  27 H :    0.114506
  28 H :    0.117340
  29 H :    0.192087
  30 H :    0.200069
  31 H :    0.110879
  32 H :    0.105068
  33 H :    0.132366
  34 H :    0.139307
  35 H :    0.111200
  36 H :    0.115467
  37 H :    0.108214
  38 H :    0.115022
  39 H :    0.122989
  40 H :    0.113754
Sum of atomic charges:   -0.0000000

LOEWDIN ATOMIC CHARGES
----------------------
   0 C :   -0.370816
   1 C :   -0.116962
   2 O :   -0.241479
   3 P :    0.571080
   4 S :   -0.305827
   5 O :   -0.232048
   6 C :   -0.115806
   7 C :   -0.366396
   8 S :    0.086430
   9 C :   -0.479605
  10 S :    0.098883
  11 P :    0.567582
  12 S :   -0.317593
  13 O :   -0.248498
  14 C :   -0.119544
  15 C :   -0.375894
  16 O :   -0.249191
  17 C :   -0.115117
  18 C :   -0.365768
  19 H :    0.132201
  20 H :    0.122482
  21 H :    0.121575
  22 H :    0.114106
  23 H :    0.119361
  24 H :    0.125024
  25 H :    0.109670
  26 H :    0.129059
  27 H :    0.132024
  28 H :    0.115580
  29 H :    0.135163
  30 H :    0.129669
  31 H :    0.110040
  32 H :    0.118666
  33 H :    0.116488
  34 H :    0.121750
  35 H :    0.130729
  36 H :    0.113445
  37 H :    0.120407
  38 H :    0.125377
  39 H :    0.122441
  40 H :    0.131311

  Mayer bond orders larger than 0.100000
B(  0-C ,  1-C ) :   1.1656 B(  0-C , 19-H ) :   0.9374 B(  0-C , 20-H ) :   0.9448
B(  0-C , 21-H ) :   0.9347 B(  1-C ,  2-O ) :   0.9044 B(  1-C , 22-H ) :   0.9166
B(  1-C , 23-H ) :   0.9339 B(  2-O ,  3-P ) :   1.0962 B(  3-P ,  4-S ) :   1.6300
B(  3-P ,  5-O ) :   1.1536 B(  3-P ,  8-S ) :   0.9336 B(  4-S ,  8-S ) :   0.1079
B(  5-O ,  6-C ) :   0.8939 B(  6-C ,  7-C ) :   1.1712 B(  6-C , 24-H ) :   0.9328
B(  6-C , 25-H ) :   0.9076 B(  7-C , 26-H ) :   0.9424 B(  7-C , 27-H ) :   0.9358
B(  7-C , 28-H ) :   0.9371 B(  8-S ,  9-C ) :   1.0072 B(  9-C , 10-S ) :   0.9694
B(  9-C , 29-H ) :   0.8889 B(  9-C , 30-H ) :   0.8630 B( 10-S , 11-P ) :   0.9970
B( 11-P , 12-S ) :   1.6324 B( 11-P , 13-O ) :   1.0612 B( 11-P , 16-O ) :   1.0989
B( 13-O , 14-C ) :   0.9101 B( 14-C , 15-C ) :   1.1650 B( 14-C , 31-H ) :   0.9136
B( 14-C , 32-H ) :   0.9331 B( 15-C , 33-H ) :   0.9297 B( 15-C , 34-H ) :   0.9278
B( 15-C , 35-H ) :   0.9350 B( 16-O , 17-C ) :   0.9071 B( 17-C , 18-C ) :   1.1623
B( 17-C , 36-H ) :   0.9191 B( 17-C , 37-H ) :   0.9354 B( 18-C , 38-H ) :   0.9464
B( 18-C , 39-H ) :   0.9359 B( 18-C , 40-H ) :   0.9380

Dispersion correction           -0.064770361
FINAL SINGLE POINT ENERGY     -2929.517646297977

DIPOLE MOMENT
-------------

Method             : SCF
Type of density    : Electron Density
Multiplicity       :   1
Irrep              :   0
Energy             : -2929.6395244345007995 Eh
Relativity type    :
Basis              : AO
                                X                 Y                 Z
Electronic contribution:     -1.891868896      13.784536679     -11.984559364
Nuclear contribution   :      2.261228376     -15.421263655      13.080761064
                        -----------------------------------------
Total Dipole Moment    :      0.369359481      -1.636726976       1.096201700
                        -----------------------------------------
Magnitude (a.u.)       :      2.004235462
Magnitude (Debye)      :      5.094361688

Rotational constants in cm-1:             0.013981             0.004219             0.003943
Rotational constants in MHz :           419.143554           126.470845           118.212698

                             ****ORCA TERMINATED NORMALLY****
TOTAL RUN TIME: 0 days 0 hours 0 minutes 21 seconds 28 msec
