                         Program Version 6.0.1  -  RELEASE   -
|  1> ! r2scan-3c def2/J RI DEFGRID2 scfconv6 printgap
|  2> %output
|  3>     printlevel normal
|  4> end
|  5> * xyz 0 1
|  6> C 4.9907764986 -0.1112041867 -0.4936369506
|  7> C 4.4903017851 -1.3567888273 -1.2070056712
|  8> O 3.0635436417 -1.2855712879 -1.3921365421
|  9> C 2.2804047436 -1.9476192384 -0.5561804008
| 10> O 2.671992645 -2.6948877104 0.3102912852
| 11> C 0.812349336 -1.7273722803 -0.8784074114
| 12> C 0.518561811 -0.2448024479 -1.0755803856
| 13> H 1.1007734224 0.1327417677 -1.9236973831
| 14> C 0.9377154155 0.5617579448 0.1393934378
| 15> O 1.8860176146 0.2502578142 0.8214525006
| 16> O 0.2039937904 1.644620581 0.3076636877
| 17> C 0.5522148544 2.5387348551 1.3839098054
| 18> C 1.5959395355 3.5441959052 0.9295665505
| 19> S -1.2120284939 0.0622035926 -1.5464569294
| 20> P -2.1668332369 0.1308287668 0.3509724559
| 21> S -1.289669001 -0.7561831972 1.8665331518
| 22> O -2.5502577758 1.6304151959 0.6620248254
| 23> C -3.2614664338 2.451133874 -0.2890205233
| 24> O -3.6116321365 -0.4598102717 -0.0059572174
| 25> C -3.7973049197 -1.843977641 -0.3206485517
| 26> H 4.7970220134 0.7718017298 -1.0961999382
| 27> H 4.4760768708 -0.0052131302 0.4593544601
| 28> H 6.0573723216 -0.1992008641 -0.3162809075
| 29> H 4.719641931 -2.2561384228 -0.6288643459
| 30> H 4.9042536746 -1.435014167 -2.2133650361
| 31> H 0.2280969193 -2.1378612554 -0.0523415371
| 32> H 0.576125972 -2.2694045844 -1.7953383274
| 33> H -0.3886863352 3.0204260398 1.6514872504
| 34> H 0.9158326708 1.9384386137 2.2232383677
| 35> H 1.2409227555 4.0843695385 0.0563812383
| 36> H 1.7846451471 4.2463291934 1.7347384143
| 37> H 2.5240941528 3.0337779863 0.6827022827
| 38> H -3.3400218451 3.4275333486 0.181562364
| 39> H -4.247609182 2.0314086575 -0.4757779512
| 40> H -2.6969880927 2.5127188775 -1.2191543002
| 41> H -3.3037522123 -2.46916628 0.4251238577
| 42> H -3.3959326364 -2.0554742631 -1.31147308
| 43> H -4.8717582915 -2.0073649289 -0.2993590572
| 44> *
| 45>
| 46>                          ****END OF INPUT****

CARTESIAN COORDINATES (ANGSTROEM)
---------------------------------
  C      4.990776   -0.111204   -0.493637
  C      4.490302   -1.356789   -1.207006
  O      3.063544   -1.285571   -1.392137
  C      2.280405   -1.947619   -0.556180
  O      2.671993   -2.694888    0.310291
  C      0.812349   -1.727372   -0.878407
  C      0.518562   -0.244802   -1.075580
  H      1.100773    0.132742   -1.923697
  C      0.937715    0.561758    0.139393
  O      1.886018    0.250258    0.821453
  O      0.203994    1.644621    0.307664
  C      0.552215    2.538735    1.383910
  C      1.595940    3.544196    0.929567
  S     -1.212028    0.062204   -1.546457
  P     -2.166833    0.130829    0.350972
  S     -1.289669   -0.756183    1.866533
  O     -2.550258    1.630415    0.662025
  C     -3.261466    2.451134   -0.289021
  O     -3.611632   -0.459810   -0.005957
  C     -3.797305   -1.843978   -0.320649
  H      4.797022    0.771802   -1.096200
  H      4.476077   -0.005213    0.459354
  H      6.057372   -0.199201   -0.316281
  H      4.719642   -2.256138   -0.628864
  H      4.904254   -1.435014   -2.213365
  H      0.228097   -2.137861   -0.052342
  H      0.576126   -2.269405   -1.795338
  H     -0.388686    3.020426    1.651487
  H      0.915833    1.938439    2.223238
  H      1.240923    4.084370    0.056381
  H      1.784645    4.246329    1.734738
  H      2.524094    3.033778    0.682702
  H     -3.340022    3.427533    0.181562
  H     -4.247609    2.031409   -0.475778
  H     -2.696988    2.512719   -1.219154
  H     -3.303752   -2.469166    0.425124
  H     -3.395933   -2.055474   -1.311473
  H     -4.871758   -2.007365   -0.299359

 Total Charge           Charge          ....    0
 Multiplicity           Mult            ....    1
 Number of Electrons    NEL             ....  174
 Basis Dimension        Dim             ....  510

ORBITAL ENERGIES
----------------

  NO   OCC          E(Eh)            E(eV)
   0   2.0000     -88.580117     -2410.3875
   1   2.0000     -88.521979     -2408.8055
   2   2.0000     -76.918704     -2093.0644
   3   2.0000     -19.006491      -517.1929
   4   2.0000     -18.999098      -516.9918
   5   2.0000     -18.995904      -516.9048
   6   2.0000     -18.990683      -516.7628
   7   2.0000     -18.941287      -515.4186
   8   2.0000     -18.917664      -514.7758
   9   2.0000     -10.168967      -276.7117
  10   2.0000     -10.148418      -276.1525
  11   2.0000     -10.102526      -274.9037
  12   2.0000     -10.101807      -274.8841
  13   2.0000     -10.095386      -274.7094
  14   2.0000     -10.093539      -274.6592
  15   2.0000     -10.084204      -274.4051
  16   2.0000     -10.049916      -273.4721
  17   2.0000     -10.033112      -273.0149
  18   2.0000     -10.020336      -272.6672
  19   2.0000      -7.874550      -214.2774
  20   2.0000      -7.816446      -212.6963
  21   2.0000      -6.596845      -179.5093
  22   2.0000      -5.821512      -158.4114
  23   2.0000      -5.818249      -158.3226
  24   2.0000      -5.811704      -158.1445
  25   2.0000      -5.764437      -156.8583
  26   2.0000      -5.756561      -156.6440
  27   2.0000      -5.756339      -156.6379
  28   2.0000      -4.742606      -129.0529
  29   2.0000      -4.741917      -129.0341
  30   2.0000      -4.740282      -128.9896
  31   2.0000      -1.085797       -29.5460
  32   2.0000      -1.065512       -28.9941
  33   2.0000      -1.055665       -28.7261
  34   2.0000      -1.013556       -27.5803
  35   2.0000      -0.991700       -26.9855
  36   2.0000      -0.968502       -26.3543
  37   2.0000      -0.813462       -22.1354
  38   2.0000      -0.751093       -20.4383
  39   2.0000      -0.743078       -20.2202
  40   2.0000      -0.730965       -19.8906
  41   2.0000      -0.696700       -18.9582
  42   2.0000      -0.680869       -18.5274
  43   2.0000      -0.663245       -18.0478
  44   2.0000      -0.652304       -17.7501
  45   2.0000      -0.621211       -16.9040
  46   2.0000      -0.601775       -16.3751
  47   2.0000      -0.546033       -14.8583
  48   2.0000      -0.530413       -14.4333
  49   2.0000      -0.520703       -14.1690
  50   2.0000      -0.507159       -13.8005
  51   2.0000      -0.499450       -13.5907
  52   2.0000      -0.476526       -12.9669
  53   2.0000      -0.461564       -12.5598
  54   2.0000      -0.459349       -12.4995
  55   2.0000      -0.450832       -12.2678
  56   2.0000      -0.447606       -12.1800
  57   2.0000      -0.443675       -12.0730
  58   2.0000      -0.437683       -11.9100
  59   2.0000      -0.424773       -11.5587
  60   2.0000      -0.423053       -11.5119
  61   2.0000      -0.419931       -11.4269
  62   2.0000      -0.411250       -11.1907
  63   2.0000      -0.401113       -10.9148
  64   2.0000      -0.387699       -10.5498
  65   2.0000      -0.380734       -10.3603
  66   2.0000      -0.371595       -10.1116
  67   2.0000      -0.366409        -9.9705
  68   2.0000      -0.361158        -9.8276
  69   2.0000      -0.353966        -9.6319
  70   2.0000      -0.346305        -9.4234
  71   2.0000      -0.345178        -9.3928
  72   2.0000      -0.332812        -9.0563
  73   2.0000      -0.330171        -8.9844
  74   2.0000      -0.327151        -8.9022
  75   2.0000      -0.319569        -8.6959
  76   2.0000      -0.314521        -8.5586
  77   2.0000      -0.301426        -8.2022
  78   2.0000      -0.293442        -7.9850
  79   2.0000      -0.283666        -7.7189
  80   2.0000      -0.280838        -7.6420
  81   2.0000      -0.261995        -7.1293
  82   2.0000      -0.259566        -7.0631
  83   2.0000      -0.238483        -6.4894
  84   2.0000      -0.225903        -6.1471
  85   2.0000      -0.219256        -5.9663
  86   2.0000      -0.216072        -5.8796
  87   0.0000      -0.045588        -1.2405
  88   0.0000      -0.032407        -0.8818
  89   0.0000      -0.003176        -0.0864
  90   0.0000       0.003745         0.1019
  91   0.0000       0.009578         0.2606

MULLIKEN ATOMIC CHARGES
-----------------------
   0 C :   -0.475124
   1 C :   -0.152142
   2 O :   -0.143052
   3 C :    0.351499
   4 O :   -0.389371
   5 C :   -0.473592
   6 C :    0.056187
   7 H :    0.206571
   8 C :    0.264429
   9 O :   -0.379300
  10 O :   -0.142742
  11 C :   -0.156281
  12 C :   -0.471248
  13 S :   -0.190612
  14 P :    0.756641
  15 S :   -0.410002
  16 O :   -0.309975
  17 C :   -0.292409
  18 O :   -0.357469
  19 C :   -0.298663
  20 H :    0.143747
  21 H :    0.189331
  22 H :    0.143500
  23 H :    0.183097
  24 H :    0.142837
  25 H :    0.215212
  26 H :    0.184445
  27 H :    0.163378
  28 H :    0.183852
  29 H :    0.151844
  30 H :    0.151866
  31 H :    0.168953
  32 H :    0.155779
  33 H :    0.170330
  34 H :    0.170582
  35 H :    0.176536
  36 H :    0.158167
  37 H :    0.153204
Sum of atomic charges:    0.0000000

LOEWDIN ATOMIC CHARGES
----------------------
   0 C :   -0.391082
   1 C :    0.030854
   2 O :   -0.603255
   3 C :    0.358828
   4 O :   -0.413445
   5 C :   -0.210708
   6 C :   -0.198293
   7 H :    0.213189
   8 C :    0.346969
   9 O :   -0.408437
  10 O :   -0.626314
  11 C :    0.032129
  12 C :   -0.387328
  13 S :    0.195242
  14 P :    0.401541
  15 S :   -0.048320
  16 O :   -0.652233
  17 C :   -0.051795
  18 O :   -0.684689
  19 C :   -0.059087
  20 H :    0.153724
  21 H :    0.175263
  22 H :    0.156809
  23 H :    0.194283
  24 H :    0.174670
  25 H :    0.200624
  26 H :    0.184589
  27 H :    0.185114
  28 H :    0.196020
  29 H :    0.156963
  30 H :    0.160892
  31 H :    0.164314
  32 H :    0.179542
  33 H :    0.175133
  34 H :    0.174038
  35 H :    0.177288
  36 H :    0.168981
  37 H :    0.177986

  Mayer bond orders larger than 0.100000
B(  0-C ,  1-C ) :   0.9323 B(  0-C , 20-H ) :   0.9732 B(  0-C , 21-H ) :   0.9673
B(  0-C , 22-H ) :   0.9662 B(  1-C ,  2-O ) :   0.7927 B(  1-C , 23-H ) :   0.9718
B(  1-C , 24-H ) :   0.9612 B(  2-O ,  3-C ) :   1.0761 B(  2-O ,  6-C ) :   0.1277
B(  3-C ,  4-O ) :   1.9086 B(  3-C ,  5-C ) :   0.8877 B(  5-C ,  6-C ) :   0.8631
B(  5-C , 25-H ) :   0.9845 B(  5-C , 26-H ) :   0.9527 B(  6-C ,  7-H ) :   0.8862
B(  6-C ,  8-C ) :   0.9848 B(  6-C , 13-S ) :   0.8254 B(  8-C ,  9-O ) :   1.7745
B(  8-C , 10-O ) :   1.0975 B( 10-O , 11-C ) :   0.7909 B( 11-C , 12-C ) :   0.9233
B( 11-C , 27-H ) :   0.9561 B( 11-C , 28-H ) :   0.9642 B( 12-C , 29-H ) :   0.9764
B( 12-C , 30-H ) :   0.9658 B( 12-C , 31-H ) :   0.9726 B( 13-S , 14-P ) :   1.0165
B( 14-P , 15-S ) :   1.7925 B( 14-P , 16-O ) :   1.1400 B( 14-P , 18-O ) :   1.0224
B( 16-O , 17-C ) :   0.7980 B( 17-C , 32-H ) :   0.9648 B( 17-C , 33-H ) :   0.9607
B( 17-C , 34-H ) :   0.9555 B( 18-O , 19-C ) :   0.8317 B( 19-C , 35-H ) :   0.9587
B( 19-C , 36-H ) :   0.9561 B( 19-C , 37-H ) :   0.9673

Dispersion correction           -0.018010054
FINAL SINGLE POINT ENERGY     -1981.452552090203

DIPOLE MOMENT
-------------

Method             : SCF
Type of density    : Electron Density
Multiplicity       :   1
Irrep              :   0
Energy             : -1981.4720650075419144 Eh
Relativity type    :
Basis              : AO
                                X                 Y                 Z
Electronic contribution:    -13.198400964      -8.101041954       2.383857915
Nuclear contribution   :     12.428179991       9.613514500      -3.987509939
                        -----------------------------------------
Total Dipole Moment    :     -0.770220974       1.512472546      -1.603652025
                        -----------------------------------------
Magnitude (a.u.)       :      2.335061748
Magnitude (Debye)      :      5.935255281

Rotational constants in cm-1:             0.015379             0.006910             0.005747
Rotational constants in MHz :           461.054241           207.148701           172.294717

                             ****ORCA TERMINATED NORMALLY****
TOTAL RUN TIME: 0 days 0 hours 1 minutes 38 seconds 416 msec
