                         Program Version 6.0.1  -  RELEASE   -
|  1> ! r2scan-3c def2/J RI DEFGRID2 scfconv6 printgap
|  2> %output
|  3>     printlevel normal
|  4> end
|  5> %cpcm
|  6>     smd true
|  7>     smdsolvent "water"
|  8> end
|  9> * xyz 0 1
| 10> C 4.9907764986 -0.1112041867 -0.4936369506
| 11> C 4.4903017851 -1.3567888273 -1.2070056712
| 12> O 3.0635436417 -1.2855712879 -1.3921365421
| 13> C 2.2804047436 -1.9476192384 -0.5561804008
| 14> O 2.671992645 -2.6948877104 0.3102912852
| 15> C 0.812349336 -1.7273722803 -0.8784074114
| 16> C 0.518561811 -0.2448024479 -1.0755803856
| 17> H 1.1007734224 0.1327417677 -1.9236973831
| 18> C 0.9377154155 0.5617579448 0.1393934378
| 19> O 1.8860176146 0.2502578142 0.8214525006
| 20> O 0.2039937904 1.644620581 0.3076636877
| 21> C 0.5522148544 2.5387348551 1.3839098054
| 22> C 1.5959395355 3.5441959052 0.9295665505
| 23> S -1.2120284939 0.0622035926 -1.5464569294
| 24> P -2.1668332369 0.1308287668 0.3509724559
| 25> S -1.289669001 -0.7561831972 1.8665331518
| 26> O -2.5502577758 1.6304151959 0.6620248254
| 27> C -3.2614664338 2.451133874 -0.2890205233
| 28> O -3.6116321365 -0.4598102717 -0.0059572174
| 29> C -3.7973049197 -1.843977641 -0.3206485517
| 30> H 4.7970220134 0.7718017298 -1.0961999382
| 31> H 4.4760768708 -0.0052131302 0.4593544601
| 32> H 6.0573723216 -0.1992008641 -0.3162809075
| 33> H 4.719641931 -2.2561384228 -0.6288643459
| 34> H 4.9042536746 -1.435014167 -2.2133650361
| 35> H 0.2280969193 -2.1378612554 -0.0523415371
| 36> H 0.576125972 -2.2694045844 -1.7953383274
| 37> H -0.3886863352 3.0204260398 1.6514872504
| 38> H 0.9158326708 1.9384386137 2.2232383677
| 39> H 1.2409227555 4.0843695385 0.0563812383
| 40> H 1.7846451471 4.2463291934 1.7347384143
| 41> H 2.5240941528 3.0337779863 0.6827022827
| 42> H -3.3400218451 3.4275333486 0.181562364
| 43> H -4.247609182 2.0314086575 -0.4757779512
| 44> H -2.6969880927 2.5127188775 -1.2191543002
| 45> H -3.3037522123 -2.46916628 0.4251238577
| 46> H -3.3959326364 -2.0554742631 -1.31147308
| 47> H -4.8717582915 -2.0073649289 -0.2993590572
| 48> *
| 49>
| 50>                          ****END OF INPUT****

CARTESIAN COORDINATES (ANGSTROEM)
---------------------------------
  C      4.990776   -0.111204   -0.493637
  C      4.490302   -1.356789   -1.207006
  O      3.063544   -1.285571   -1.392137
  C      2.280405   -1.947619   -0.556180
  O      2.671993   -2.694888    0.310291
  C      0.812349   -1.727372   -0.878407
  C      0.518562   -0.244802   -1.075580
  H      1.100773    0.132742   -1.923697
  C      0.937715    0.561758    0.139393
  O      1.886018    0.250258    0.821453
  O      0.203994    1.644621    0.307664
  C      0.552215    2.538735    1.383910
  C      1.595940    3.544196    0.929567
  S     -1.212028    0.062204   -1.546457
  P     -2.166833    0.130829    0.350972
  S     -1.289669   -0.756183    1.866533
  O     -2.550258    1.630415    0.662025
  C     -3.261466    2.451134   -0.289021
  O     -3.611632   -0.459810   -0.005957
  C     -3.797305   -1.843978   -0.320649
  H      4.797022    0.771802   -1.096200
  H      4.476077   -0.005213    0.459354
  H      6.057372   -0.199201   -0.316281
  H      4.719642   -2.256138   -0.628864
  H      4.904254   -1.435014   -2.213365
  H      0.228097   -2.137861   -0.052342
  H      0.576126   -2.269405   -1.795338
  H     -0.388686    3.020426    1.651487
  H      0.915833    1.938439    2.223238
  H      1.240923    4.084370    0.056381
  H      1.784645    4.246329    1.734738
  H      2.524094    3.033778    0.682702
  H     -3.340022    3.427533    0.181562
  H     -4.247609    2.031409   -0.475778
  H     -2.696988    2.512719   -1.219154
  H     -3.303752   -2.469166    0.425124
  H     -3.395933   -2.055474   -1.311473
  H     -4.871758   -2.007365   -0.299359

 Total Charge           Charge          ....    0
 Multiplicity           Mult            ....    1
 Number of Electrons    NEL             ....  174
 Basis Dimension        Dim             ....  510

ORBITAL ENERGIES
----------------

  NO   OCC          E(Eh)            E(eV)
   0   2.0000     -88.581567     -2410.4270
   1   2.0000     -88.531844     -2409.0739
   2   2.0000     -76.923162     -2093.1857
   3   2.0000     -19.011523      -517.3298
   4   2.0000     -19.003352      -517.1075
   5   2.0000     -18.998569      -516.9773
   6   2.0000     -18.995864      -516.9037
   7   2.0000     -18.955150      -515.7959
   8   2.0000     -18.944365      -515.5024
   9   2.0000     -10.179459      -276.9972
  10   2.0000     -10.169164      -276.7170
  11   2.0000     -10.101564      -274.8775
  12   2.0000     -10.087310      -274.4897
  13   2.0000     -10.085294      -274.4348
  14   2.0000     -10.083463      -274.3850
  15   2.0000     -10.082403      -274.3561
  16   2.0000     -10.053103      -273.5588
  17   2.0000     -10.020187      -272.6631
  18   2.0000     -10.017832      -272.5991
  19   2.0000      -7.875865      -214.3132
  20   2.0000      -7.826763      -212.9771
  21   2.0000      -6.601364      -179.6322
  22   2.0000      -5.822914      -158.4495
  23   2.0000      -5.819625      -158.3601
  24   2.0000      -5.812889      -158.1767
  25   2.0000      -5.774592      -157.1346
  26   2.0000      -5.766961      -156.9270
  27   2.0000      -5.766647      -156.9185
  28   2.0000      -4.747053      -129.1739
  29   2.0000      -4.746384      -129.1557
  30   2.0000      -4.744973      -129.1173
  31   2.0000      -1.092885       -29.7389
  32   2.0000      -1.081083       -29.4178
  33   2.0000      -1.055153       -28.7122
  34   2.0000      -1.012327       -27.5468
  35   2.0000      -1.003618       -27.3098
  36   2.0000      -0.992595       -27.0099
  37   2.0000      -0.815349       -22.1868
  38   2.0000      -0.751947       -20.4615
  39   2.0000      -0.739470       -20.1220
  40   2.0000      -0.729652       -19.8549
  41   2.0000      -0.696830       -18.9617
  42   2.0000      -0.671579       -18.2746
  43   2.0000      -0.662358       -18.0237
  44   2.0000      -0.652067       -17.7436
  45   2.0000      -0.622318       -16.9341
  46   2.0000      -0.601566       -16.3694
  47   2.0000      -0.542981       -14.7753
  48   2.0000      -0.529259       -14.4019
  49   2.0000      -0.524794       -14.2804
  50   2.0000      -0.508992       -13.8504
  51   2.0000      -0.493864       -13.4387
  52   2.0000      -0.482850       -13.1390
  53   2.0000      -0.468497       -12.7484
  54   2.0000      -0.462183       -12.5766
  55   2.0000      -0.453421       -12.3382
  56   2.0000      -0.450562       -12.2604
  57   2.0000      -0.447050       -12.1648
  58   2.0000      -0.437470       -11.9042
  59   2.0000      -0.428553       -11.6615
  60   2.0000      -0.423977       -11.5370
  61   2.0000      -0.411876       -11.2077
  62   2.0000      -0.408166       -11.1068
  63   2.0000      -0.405329       -11.0296
  64   2.0000      -0.386484       -10.5168
  65   2.0000      -0.378684       -10.3045
  66   2.0000      -0.373269       -10.1572
  67   2.0000      -0.364185        -9.9100
  68   2.0000      -0.362192        -9.8558
  69   2.0000      -0.352876        -9.6023
  70   2.0000      -0.351240        -9.5577
  71   2.0000      -0.343976        -9.3601
  72   2.0000      -0.337853        -9.1934
  73   2.0000      -0.331724        -9.0267
  74   2.0000      -0.323105        -8.7921
  75   2.0000      -0.318985        -8.6800
  76   2.0000      -0.310063        -8.4372
  77   2.0000      -0.305059        -8.3011
  78   2.0000      -0.293200        -7.9784
  79   2.0000      -0.284890        -7.7523
  80   2.0000      -0.284302        -7.7363
  81   2.0000      -0.276630        -7.5275
  82   2.0000      -0.269233        -7.3262
  83   2.0000      -0.256037        -6.9671
  84   2.0000      -0.240660        -6.5487
  85   2.0000      -0.230504        -6.2723
  86   2.0000      -0.226219        -6.1557
  87   0.0000      -0.050605        -1.3770
  88   0.0000      -0.039513        -1.0752
  89   0.0000      -0.018344        -0.4992
  90   0.0000       0.001161         0.0316
  91   0.0000       0.006682         0.1818

MULLIKEN ATOMIC CHARGES
-----------------------
   0 C :   -0.506609
   1 C :   -0.140755
   2 O :   -0.158882
   3 C :    0.371531
   4 O :   -0.480534
   5 C :   -0.491006
   6 C :    0.072053
   7 H :    0.249478
   8 C :    0.280553
   9 O :   -0.443513
  10 O :   -0.152336
  11 C :   -0.151172
  12 C :   -0.500265
  13 S :   -0.180352
  14 P :    0.786728
  15 S :   -0.483914
  16 O :   -0.344099
  17 C :   -0.298319
  18 O :   -0.383078
  19 C :   -0.308415
  20 H :    0.169266
  21 H :    0.171961
  22 H :    0.169399
  23 H :    0.180957
  24 H :    0.173114
  25 H :    0.212898
  26 H :    0.224878
  27 H :    0.183017
  28 H :    0.179857
  29 H :    0.169063
  30 H :    0.173937
  31 H :    0.169807
  32 H :    0.184116
  33 H :    0.185980
  34 H :    0.180830
  35 H :    0.177298
  36 H :    0.175909
  37 H :    0.180618
Sum of atomic charges:    0.0000000

LOEWDIN ATOMIC CHARGES
----------------------
   0 C :   -0.392923
   1 C :    0.037426
   2 O :   -0.596692
   3 C :    0.364456
   4 O :   -0.482424
   5 C :   -0.207435
   6 C :   -0.193105
   7 H :    0.230143
   8 C :    0.353231
   9 O :   -0.456786
  10 O :   -0.625344
  11 C :    0.035291
  12 C :   -0.387375
  13 S :    0.216178
  14 P :    0.406321
  15 S :   -0.101671
  16 O :   -0.669142
  17 C :   -0.042525
  18 O :   -0.692961
  19 C :   -0.054022
  20 H :    0.161829
  21 H :    0.166832
  22 H :    0.166908
  23 H :    0.193351
  24 H :    0.188478
  25 H :    0.197348
  26 H :    0.203000
  27 H :    0.193315
  28 H :    0.193786
  29 H :    0.163770
  30 H :    0.169238
  31 H :    0.163790
  32 H :    0.191816
  33 H :    0.182278
  34 H :    0.179776
  35 H :    0.177755
  36 H :    0.176604
  37 H :    0.189485

  Mayer bond orders larger than 0.100000
B(  0-C ,  1-C ) :   0.9210 B(  0-C , 20-H ) :   0.9693 B(  0-C , 21-H ) :   0.9695
B(  0-C , 22-H ) :   0.9602 B(  1-C ,  2-O ) :   0.7787 B(  1-C , 23-H ) :   0.9683
B(  1-C , 24-H ) :   0.9503 B(  2-O ,  3-C ) :   1.0998 B(  2-O ,  6-C ) :   0.1113
B(  3-C ,  4-O ) :   1.8380 B(  3-C ,  5-C ) :   0.9003 B(  5-C ,  6-C ) :   0.8330
B(  5-C , 25-H ) :   0.9916 B(  5-C , 26-H ) :   0.9253 B(  6-C ,  7-H ) :   0.8764
B(  6-C ,  8-C ) :   0.9868 B(  6-C , 13-S ) :   0.8120 B(  8-C ,  9-O ) :   1.7310
B(  8-C , 10-O ) :   1.1161 B( 10-O , 11-C ) :   0.7715 B( 11-C , 12-C ) :   0.9317
B( 11-C , 27-H ) :   0.9468 B( 11-C , 28-H ) :   0.9560 B( 12-C , 29-H ) :   0.9720
B( 12-C , 30-H ) :   0.9599 B( 12-C , 31-H ) :   0.9691 B( 13-S , 14-P ) :   1.0347
B( 14-P , 15-S ) :   1.7490 B( 14-P , 16-O ) :   1.1492 B( 14-P , 18-O ) :   1.0333
B( 16-O , 17-C ) :   0.7890 B( 17-C , 32-H ) :   0.9538 B( 17-C , 33-H ) :   0.9521
B( 17-C , 34-H ) :   0.9473 B( 18-O , 19-C ) :   0.8239 B( 19-C , 35-H ) :   0.9549
B( 19-C , 36-H ) :   0.9496 B( 19-C , 37-H ) :   0.9573

Dispersion correction           -0.018010054
FINAL SINGLE POINT ENERGY     -1981.468930716263

DIPOLE MOMENT
-------------

Method             : SCF
Type of density    : Electron Density
Multiplicity       :   1
Irrep              :   0
Energy             : -1981.4884436336017188 Eh
Relativity type    :
Basis              : AO
                                X                 Y                 Z
Electronic contribution:    -13.498151893      -7.504095009       1.237159286
Nuclear contribution   :     12.428179991       9.613514500      -3.987509939
                        -----------------------------------------
Total Dipole Moment    :     -1.069971903       2.109419490      -2.750350653
                        -----------------------------------------
Magnitude (a.u.)       :      3.627522457
Magnitude (Debye)      :      9.220429326

Rotational constants in cm-1:             0.015379             0.006910             0.005747
Rotational constants in MHz :           461.054241           207.148701           172.294717

                             ****ORCA TERMINATED NORMALLY****
TOTAL RUN TIME: 0 days 0 hours 2 minutes 4 seconds 407 msec
