                         Program Version 6.0.1  -  RELEASE   -
|  1> ! r2scan-3c def2/J RI DEFGRID2 scfconv6 printgap
|  2> %output
|  3>     printlevel normal
|  4> end
|  5> * xyz 0 1
|  6> C 5.9109813739 -1.9590130841 -0.7873885759
|  7> C 4.8518896423 -0.996727474 -1.2876393374
|  8> O 3.5596374597 -1.5455103871 -0.961499667
|  9> C 2.4949042294 -0.9104779823 -1.4003632213
| 10> O 2.5283008612 0.1025837235 -2.0640769195
| 11> C 1.2153048196 -1.6160993589 -0.9872134568
| 12> C 0.2046872526 -0.5788035005 -0.5193979244
| 13> H 0.1224304779 0.2185101205 -1.2714705564
| 14> C 0.5900208519 0.0948700708 0.7818400971
| 15> O -0.2396243174 0.4362061368 1.6009357308
| 16> O 1.8801085602 0.2634666722 0.8997818027
| 17> C 2.3708057915 1.008217018 2.0373387612
| 18> C 2.3504964872 2.4988955865 1.745282569
| 19> S -1.451687755 -1.3024484636 -0.2954600331
| 20> P -2.501734278 0.4752070935 0.222550768
| 21> S -1.7677712095 2.1755524686 -0.4144022467
| 22> O -3.9345909343 0.1498023923 -0.4345411299
| 23> C -4.1180609032 0.1258154459 -1.8519555205
| 24> O -2.9266852961 0.4515056719 1.7421871175
| 25> C -3.5862281168 -0.6827348484 2.3387713492
| 26> H 6.8940294091 -1.5590808741 -1.0123016232
| 27> H 5.8151567559 -2.0936681892 0.2856383865
| 28> H 5.797071451 -2.9236020996 -1.2726793457
| 29> H 4.9047134244 -0.8569902168 -2.3717744436
| 30> H 4.9344947104 -0.0145620281 -0.8121341466
| 31> H 1.4354112289 -2.3441322832 -0.2082397806
| 32> H 0.8107956907 -2.1348446251 -1.8583636493
| 33> H 1.7462161871 0.7712492982 2.9027313593
| 34> H 3.386295894 0.6401093621 2.1825139499
| 35> H 2.9263908571 2.7144257608 0.8489813743
| 36> H 1.3274400258 2.8369770448 1.5882279466
| 37> H 2.7750668239 3.0373232246 2.5858989631
| 38> H -3.6794488151 1.0183292021 -2.3017713574
| 39> H -5.1935149866 0.11168401 -2.008655734
| 40> H -3.6559955724 -0.7683103915 -2.270505728
| 41> H -3.633016324 -0.4539200355 3.4002346196
| 42> H -3.0032793902 -1.5874902878 2.1650906088
| 43> H -4.5839551293 -0.792722559 1.9176856433
| 44> *
| 45>
| 46>                          ****END OF INPUT****

CARTESIAN COORDINATES (ANGSTROEM)
---------------------------------
  C      5.910981   -1.959013   -0.787389
  C      4.851890   -0.996727   -1.287639
  O      3.559637   -1.545510   -0.961500
  C      2.494904   -0.910478   -1.400363
  O      2.528301    0.102584   -2.064077
  C      1.215305   -1.616099   -0.987213
  C      0.204687   -0.578804   -0.519398
  H      0.122430    0.218510   -1.271471
  C      0.590021    0.094870    0.781840
  O     -0.239624    0.436206    1.600936
  O      1.880109    0.263467    0.899782
  C      2.370806    1.008217    2.037339
  C      2.350496    2.498896    1.745283
  S     -1.451688   -1.302448   -0.295460
  P     -2.501734    0.475207    0.222551
  S     -1.767771    2.175552   -0.414402
  O     -3.934591    0.149802   -0.434541
  C     -4.118061    0.125815   -1.851956
  O     -2.926685    0.451506    1.742187
  C     -3.586228   -0.682735    2.338771
  H      6.894029   -1.559081   -1.012302
  H      5.815157   -2.093668    0.285638
  H      5.797071   -2.923602   -1.272679
  H      4.904713   -0.856990   -2.371774
  H      4.934495   -0.014562   -0.812134
  H      1.435411   -2.344132   -0.208240
  H      0.810796   -2.134845   -1.858364
  H      1.746216    0.771249    2.902731
  H      3.386296    0.640109    2.182514
  H      2.926391    2.714426    0.848981
  H      1.327440    2.836977    1.588228
  H      2.775067    3.037323    2.585899
  H     -3.679449    1.018329   -2.301771
  H     -5.193515    0.111684   -2.008656
  H     -3.655996   -0.768310   -2.270506
  H     -3.633016   -0.453920    3.400235
  H     -3.003279   -1.587490    2.165091
  H     -4.583955   -0.792723    1.917686

 Total Charge           Charge          ....    0
 Multiplicity           Mult            ....    1
 Number of Electrons    NEL             ....  174
 Basis Dimension        Dim             ....  510

ORBITAL ENERGIES
----------------

  NO   OCC          E(Eh)            E(eV)
   0   2.0000     -88.571849     -2410.1625
   1   2.0000     -88.505805     -2408.3654
   2   2.0000     -76.905665     -2092.7095
   3   2.0000     -19.015106      -517.4273
   4   2.0000     -19.007647      -517.2244
   5   2.0000     -18.981512      -516.5132
   6   2.0000     -18.978222      -516.4237
   7   2.0000     -18.941134      -515.4145
   8   2.0000     -18.935865      -515.2711
   9   2.0000     -10.167103      -276.6609
  10   2.0000     -10.164386      -276.5870
  11   2.0000     -10.101163      -274.8666
  12   2.0000     -10.100508      -274.8488
  13   2.0000     -10.094654      -274.6895
  14   2.0000     -10.089178      -274.5405
  15   2.0000     -10.080962      -274.3169
  16   2.0000     -10.066175      -273.9146
  17   2.0000     -10.039451      -273.1874
  18   2.0000     -10.029624      -272.9200
  19   2.0000      -7.866141      -214.0486
  20   2.0000      -7.800642      -212.2663
  21   2.0000      -6.583340      -179.1418
  22   2.0000      -5.812950      -158.1784
  23   2.0000      -5.810057      -158.0997
  24   2.0000      -5.803281      -157.9153
  25   2.0000      -5.748624      -156.4280
  26   2.0000      -5.741047      -156.2218
  27   2.0000      -5.740171      -156.1980
  28   2.0000      -4.729105      -128.6855
  29   2.0000      -4.728528      -128.6698
  30   2.0000      -4.726737      -128.6210
  31   2.0000      -1.093138       -29.7458
  32   2.0000      -1.083671       -29.4882
  33   2.0000      -1.039282       -28.2803
  34   2.0000      -0.996683       -27.1211
  35   2.0000      -0.992533       -27.0082
  36   2.0000      -0.985782       -26.8245
  37   2.0000      -0.812343       -22.1050
  38   2.0000      -0.760733       -20.7006
  39   2.0000      -0.750080       -20.4107
  40   2.0000      -0.727365       -19.7926
  41   2.0000      -0.697433       -18.9781
  42   2.0000      -0.666029       -18.1236
  43   2.0000      -0.658186       -17.9101
  44   2.0000      -0.645810       -17.5734
  45   2.0000      -0.627109       -17.0645
  46   2.0000      -0.597525       -16.2595
  47   2.0000      -0.547023       -14.8853
  48   2.0000      -0.535929       -14.5834
  49   2.0000      -0.527012       -14.3407
  50   2.0000      -0.496667       -13.5150
  51   2.0000      -0.491586       -13.3767
  52   2.0000      -0.483129       -13.1466
  53   2.0000      -0.474872       -12.9219
  54   2.0000      -0.460620       -12.5341
  55   2.0000      -0.451745       -12.2926
  56   2.0000      -0.441404       -12.0112
  57   2.0000      -0.440313       -11.9815
  58   2.0000      -0.438275       -11.9261
  59   2.0000      -0.430928       -11.7261
  60   2.0000      -0.423163       -11.5148
  61   2.0000      -0.415653       -11.3105
  62   2.0000      -0.407693       -11.0939
  63   2.0000      -0.404312       -11.0019
  64   2.0000      -0.388728       -10.5778
  65   2.0000      -0.383119       -10.4252
  66   2.0000      -0.378463       -10.2985
  67   2.0000      -0.369977       -10.0676
  68   2.0000      -0.368298       -10.0219
  69   2.0000      -0.358081        -9.7439
  70   2.0000      -0.348778        -9.4907
  71   2.0000      -0.346727        -9.4349
  72   2.0000      -0.334364        -9.0985
  73   2.0000      -0.330759        -9.0004
  74   2.0000      -0.323099        -8.7920
  75   2.0000      -0.316271        -8.6062
  76   2.0000      -0.309339        -8.4175
  77   2.0000      -0.305038        -8.3005
  78   2.0000      -0.288783        -7.8582
  79   2.0000      -0.280279        -7.6268
  80   2.0000      -0.277873        -7.5613
  81   2.0000      -0.267351        -7.2750
  82   2.0000      -0.252024        -6.8579
  83   2.0000      -0.245175        -6.6715
  84   2.0000      -0.233431        -6.3520
  85   2.0000      -0.207649        -5.6504
  86   2.0000      -0.199326        -5.4239
  87   0.0000      -0.044001        -1.1973
  88   0.0000      -0.028978        -0.7885
  89   0.0000      -0.016416        -0.4467
  90   0.0000       0.011110         0.3023
  91   0.0000       0.027777         0.7559

MULLIKEN ATOMIC CHARGES
-----------------------
   0 C :   -0.441152
   1 C :   -0.153652
   2 O :   -0.138715
   3 C :    0.284626
   4 O :   -0.391653
   5 C :   -0.376752
   6 C :   -0.019956
   7 H :    0.272325
   8 C :    0.276579
   9 O :   -0.402358
  10 O :   -0.098366
  11 C :   -0.148945
  12 C :   -0.459818
  13 S :   -0.218182
  14 P :    0.811854
  15 S :   -0.462974
  16 O :   -0.363760
  17 C :   -0.301129
  18 O :   -0.302265
  19 C :   -0.290284
  20 H :    0.149845
  21 H :    0.152118
  22 H :    0.154457
  23 H :    0.162840
  24 H :    0.155051
  25 H :    0.192361
  26 H :    0.184186
  27 H :    0.169325
  28 H :    0.148695
  29 H :    0.157940
  30 H :    0.185279
  31 H :    0.148607
  32 H :    0.176304
  33 H :    0.148532
  34 H :    0.153781
  35 H :    0.155577
  36 H :    0.162465
  37 H :    0.167214
Sum of atomic charges:    0.0000000

LOEWDIN ATOMIC CHARGES
----------------------
   0 C :   -0.385112
   1 C :    0.036527
   2 O :   -0.582994
   3 C :    0.351776
   4 O :   -0.419101
   5 C :   -0.203094
   6 C :   -0.204158
   7 H :    0.223954
   8 C :    0.360299
   9 O :   -0.449147
  10 O :   -0.570506
  11 C :    0.038305
  12 C :   -0.384902
  13 S :    0.187519
  14 P :    0.409219
  15 S :   -0.087711
  16 O :   -0.695219
  17 C :   -0.065582
  18 O :   -0.637890
  19 C :   -0.049472
  20 H :    0.160660
  21 H :    0.159448
  22 H :    0.160298
  23 H :    0.182573
  24 H :    0.178774
  25 H :    0.190340
  26 H :    0.190329
  27 H :    0.190793
  28 H :    0.178205
  29 H :    0.161032
  30 H :    0.172804
  31 H :    0.159705
  32 H :    0.176796
  33 H :    0.175109
  34 H :    0.166557
  35 H :    0.179956
  36 H :    0.171352
  37 H :    0.172560

  Mayer bond orders larger than 0.100000
B(  0-C ,  1-C ) :   0.9426 B(  0-C , 20-H ) :   0.9676 B(  0-C , 21-H ) :   0.9718
B(  0-C , 22-H ) :   0.9730 B(  1-C ,  2-O ) :   0.7912 B(  1-C , 23-H ) :   0.9528
B(  1-C , 24-H ) :   0.9520 B(  2-O ,  3-C ) :   1.1162 B(  3-C ,  4-O ) :   1.8495
B(  3-C ,  5-C ) :   0.8947 B(  5-C ,  6-C ) :   0.8555 B(  5-C , 25-H ) :   1.0019
B(  5-C , 26-H ) :   0.9377 B(  6-C ,  7-H ) :   0.8829 B(  6-C ,  8-C ) :   0.9769
B(  6-C , 13-S ) :   0.8786 B(  8-C ,  9-O ) :   1.8103 B(  8-C , 10-O ) :   1.1666
B(  9-O , 14-P ) :   0.1068 B( 10-O , 11-C ) :   0.7661 B( 11-C , 12-C ) :   0.9411
B( 11-C , 27-H ) :   0.9598 B( 11-C , 28-H ) :   0.9633 B( 12-C , 29-H ) :   0.9714
B( 12-C , 30-H ) :   0.9622 B( 12-C , 31-H ) :   0.9654 B( 13-S , 14-P ) :   0.9643
B( 14-P , 15-S ) :   1.7897 B( 14-P , 16-O ) :   1.0005 B( 14-P , 18-O ) :   1.1862
B( 16-O , 17-C ) :   0.8381 B( 17-C , 32-H ) :   0.9579 B( 17-C , 33-H ) :   0.9694
B( 17-C , 34-H ) :   0.9569 B( 18-O , 19-C ) :   0.7962 B( 19-C , 35-H ) :   0.9658
B( 19-C , 36-H ) :   0.9593 B( 19-C , 37-H ) :   0.9626

Dispersion correction           -0.016827119
FINAL SINGLE POINT ENERGY     -1981.447740879201

DIPOLE MOMENT
-------------

Method             : SCF
Type of density    : Electron Density
Multiplicity       :   1
Irrep              :   0
Energy             : -1981.4684586135203972 Eh
Relativity type    :
Basis              : AO
                                X                 Y                 Z
Electronic contribution:    -19.083139216       2.785182196      -1.670535668
Nuclear contribution   :     20.285106235      -4.374205669       2.168500673
                        -----------------------------------------
Total Dipole Moment    :      1.201967019      -1.589023473       0.497965005
                        -----------------------------------------
Magnitude (a.u.)       :      2.053701404
Magnitude (Debye)      :      5.220094122

Rotational constants in cm-1:             0.017507             0.005399             0.004941
Rotational constants in MHz :           524.846075           161.851496           148.119521

                             ****ORCA TERMINATED NORMALLY****
TOTAL RUN TIME: 0 days 0 hours 1 minutes 18 seconds 90 msec
