                         Program Version 6.0.1  -  RELEASE   -
|  1> ! r2scan-3c def2/J RI DEFGRID2 scfconv6 printgap
|  2> %output
|  3>     printlevel normal
|  4> end
|  5> %cpcm
|  6>     smd true
|  7>     smdsolvent "water"
|  8> end
|  9> * xyz 0 1
| 10> C 5.9109813739 -1.9590130841 -0.7873885759
| 11> C 4.8518896423 -0.996727474 -1.2876393374
| 12> O 3.5596374597 -1.5455103871 -0.961499667
| 13> C 2.4949042294 -0.9104779823 -1.4003632213
| 14> O 2.5283008612 0.1025837235 -2.0640769195
| 15> C 1.2153048196 -1.6160993589 -0.9872134568
| 16> C 0.2046872526 -0.5788035005 -0.5193979244
| 17> H 0.1224304779 0.2185101205 -1.2714705564
| 18> C 0.5900208519 0.0948700708 0.7818400971
| 19> O -0.2396243174 0.4362061368 1.6009357308
| 20> O 1.8801085602 0.2634666722 0.8997818027
| 21> C 2.3708057915 1.008217018 2.0373387612
| 22> C 2.3504964872 2.4988955865 1.745282569
| 23> S -1.451687755 -1.3024484636 -0.2954600331
| 24> P -2.501734278 0.4752070935 0.222550768
| 25> S -1.7677712095 2.1755524686 -0.4144022467
| 26> O -3.9345909343 0.1498023923 -0.4345411299
| 27> C -4.1180609032 0.1258154459 -1.8519555205
| 28> O -2.9266852961 0.4515056719 1.7421871175
| 29> C -3.5862281168 -0.6827348484 2.3387713492
| 30> H 6.8940294091 -1.5590808741 -1.0123016232
| 31> H 5.8151567559 -2.0936681892 0.2856383865
| 32> H 5.797071451 -2.9236020996 -1.2726793457
| 33> H 4.9047134244 -0.8569902168 -2.3717744436
| 34> H 4.9344947104 -0.0145620281 -0.8121341466
| 35> H 1.4354112289 -2.3441322832 -0.2082397806
| 36> H 0.8107956907 -2.1348446251 -1.8583636493
| 37> H 1.7462161871 0.7712492982 2.9027313593
| 38> H 3.386295894 0.6401093621 2.1825139499
| 39> H 2.9263908571 2.7144257608 0.8489813743
| 40> H 1.3274400258 2.8369770448 1.5882279466
| 41> H 2.7750668239 3.0373232246 2.5858989631
| 42> H -3.6794488151 1.0183292021 -2.3017713574
| 43> H -5.1935149866 0.11168401 -2.008655734
| 44> H -3.6559955724 -0.7683103915 -2.270505728
| 45> H -3.633016324 -0.4539200355 3.4002346196
| 46> H -3.0032793902 -1.5874902878 2.1650906088
| 47> H -4.5839551293 -0.792722559 1.9176856433
| 48> *
| 49>
| 50>                          ****END OF INPUT****

CARTESIAN COORDINATES (ANGSTROEM)
---------------------------------
  C      5.910981   -1.959013   -0.787389
  C      4.851890   -0.996727   -1.287639
  O      3.559637   -1.545510   -0.961500
  C      2.494904   -0.910478   -1.400363
  O      2.528301    0.102584   -2.064077
  C      1.215305   -1.616099   -0.987213
  C      0.204687   -0.578804   -0.519398
  H      0.122430    0.218510   -1.271471
  C      0.590021    0.094870    0.781840
  O     -0.239624    0.436206    1.600936
  O      1.880109    0.263467    0.899782
  C      2.370806    1.008217    2.037339
  C      2.350496    2.498896    1.745283
  S     -1.451688   -1.302448   -0.295460
  P     -2.501734    0.475207    0.222551
  S     -1.767771    2.175552   -0.414402
  O     -3.934591    0.149802   -0.434541
  C     -4.118061    0.125815   -1.851956
  O     -2.926685    0.451506    1.742187
  C     -3.586228   -0.682735    2.338771
  H      6.894029   -1.559081   -1.012302
  H      5.815157   -2.093668    0.285638
  H      5.797071   -2.923602   -1.272679
  H      4.904713   -0.856990   -2.371774
  H      4.934495   -0.014562   -0.812134
  H      1.435411   -2.344132   -0.208240
  H      0.810796   -2.134845   -1.858364
  H      1.746216    0.771249    2.902731
  H      3.386296    0.640109    2.182514
  H      2.926391    2.714426    0.848981
  H      1.327440    2.836977    1.588228
  H      2.775067    3.037323    2.585899
  H     -3.679449    1.018329   -2.301771
  H     -5.193515    0.111684   -2.008656
  H     -3.655996   -0.768310   -2.270506
  H     -3.633016   -0.453920    3.400235
  H     -3.003279   -1.587490    2.165091
  H     -4.583955   -0.792723    1.917686

 Total Charge           Charge          ....    0
 Multiplicity           Mult            ....    1
 Number of Electrons    NEL             ....  174
 Basis Dimension        Dim             ....  510

ORBITAL ENERGIES
----------------

  NO   OCC          E(Eh)            E(eV)
   0   2.0000     -88.579714     -2410.3766
   1   2.0000     -88.524677     -2408.8789
   2   2.0000     -76.919868     -2093.0960
   3   2.0000     -19.017854      -517.5021
   4   2.0000     -19.009131      -517.2648
   5   2.0000     -18.994973      -516.8795
   6   2.0000     -18.988604      -516.7062
   7   2.0000     -18.953074      -515.7394
   8   2.0000     -18.948306      -515.6096
   9   2.0000     -10.176277      -276.9106
  10   2.0000     -10.172519      -276.8083
  11   2.0000     -10.098650      -274.7982
  12   2.0000     -10.090126      -274.5663
  13   2.0000     -10.086936      -274.4795
  14   2.0000     -10.084639      -274.4170
  15   2.0000     -10.078639      -274.2537
  16   2.0000     -10.059956      -273.7453
  17   2.0000     -10.020942      -272.6837
  18   2.0000     -10.019935      -272.6563
  19   2.0000      -7.873889      -214.2594
  20   2.0000      -7.819887      -212.7899
  21   2.0000      -6.597669      -179.5317
  22   2.0000      -5.820736      -158.3903
  23   2.0000      -5.817862      -158.3121
  24   2.0000      -5.810947      -158.1239
  25   2.0000      -5.767717      -156.9476
  26   2.0000      -5.760347      -156.7470
  27   2.0000      -5.759440      -156.7223
  28   2.0000      -4.743416      -129.0749
  29   2.0000      -4.742763      -129.0571
  30   2.0000      -4.741201      -129.0146
  31   2.0000      -1.097357       -29.8606
  32   2.0000      -1.087100       -29.5815
  33   2.0000      -1.051278       -28.6067
  34   2.0000      -1.007332       -27.4109
  35   2.0000      -1.002874       -27.2896
  36   2.0000      -0.995912       -27.1001
  37   2.0000      -0.814313       -22.1586
  38   2.0000      -0.752889       -20.4871
  39   2.0000      -0.746074       -20.3017
  40   2.0000      -0.729334       -19.8462
  41   2.0000      -0.697854       -18.9896
  42   2.0000      -0.667255       -18.1569
  43   2.0000      -0.659225       -17.9384
  44   2.0000      -0.654483       -17.8094
  45   2.0000      -0.619961       -16.8700
  46   2.0000      -0.593599       -16.1527
  47   2.0000      -0.541620       -14.7382
  48   2.0000      -0.536604       -14.6017
  49   2.0000      -0.527657       -14.3583
  50   2.0000      -0.498002       -13.5513
  51   2.0000      -0.494559       -13.4576
  52   2.0000      -0.488786       -13.3005
  53   2.0000      -0.476301       -12.9608
  54   2.0000      -0.462379       -12.5820
  55   2.0000      -0.460639       -12.5346
  56   2.0000      -0.447079       -12.1656
  57   2.0000      -0.446061       -12.1379
  58   2.0000      -0.437555       -11.9065
  59   2.0000      -0.427392       -11.6299
  60   2.0000      -0.424913       -11.5625
  61   2.0000      -0.415144       -11.2966
  62   2.0000      -0.408426       -11.1138
  63   2.0000      -0.405036       -11.0216
  64   2.0000      -0.386325       -10.5124
  65   2.0000      -0.379783       -10.3344
  66   2.0000      -0.370473       -10.0811
  67   2.0000      -0.363666        -9.8958
  68   2.0000      -0.362932        -9.8759
  69   2.0000      -0.352965        -9.6047
  70   2.0000      -0.351746        -9.5715
  71   2.0000      -0.344803        -9.3826
  72   2.0000      -0.333876        -9.0852
  73   2.0000      -0.328303        -8.9336
  74   2.0000      -0.320162        -8.7120
  75   2.0000      -0.319041        -8.6815
  76   2.0000      -0.312870        -8.5136
  77   2.0000      -0.309540        -8.4230
  78   2.0000      -0.291896        -7.9429
  79   2.0000      -0.287850        -7.8328
  80   2.0000      -0.281517        -7.6605
  81   2.0000      -0.276600        -7.5267
  82   2.0000      -0.263730        -7.1765
  83   2.0000      -0.258012        -7.0209
  84   2.0000      -0.242716        -6.6046
  85   2.0000      -0.227074        -6.1790
  86   2.0000      -0.218951        -5.9579
  87   0.0000      -0.052081        -1.4172
  88   0.0000      -0.038343        -1.0434
  89   0.0000      -0.022783        -0.6199
  90   0.0000       0.003312         0.0901
  91   0.0000       0.017153         0.4668

MULLIKEN ATOMIC CHARGES
-----------------------
   0 C :   -0.491290
   1 C :   -0.152614
   2 O :   -0.155697
   3 C :    0.325303
   4 O :   -0.471933
   5 C :   -0.385085
   6 C :   -0.024287
   7 H :    0.275275
   8 C :    0.300007
   9 O :   -0.454304
  10 O :   -0.108320
  11 C :   -0.143255
  12 C :   -0.497263
  13 S :   -0.204994
  14 P :    0.816306
  15 S :   -0.519337
  16 O :   -0.393340
  17 C :   -0.309056
  18 O :   -0.351663
  19 C :   -0.296106
  20 H :    0.170763
  21 H :    0.166108
  22 H :    0.166692
  23 H :    0.175222
  24 H :    0.175704
  25 H :    0.219337
  26 H :    0.221283
  27 H :    0.178923
  28 H :    0.181879
  29 H :    0.170825
  30 H :    0.170042
  31 H :    0.175458
  32 H :    0.175442
  33 H :    0.177261
  34 H :    0.172913
  35 H :    0.182009
  36 H :    0.177862
  37 H :    0.183932
Sum of atomic charges:    0.0000000

LOEWDIN ATOMIC CHARGES
----------------------
   0 C :   -0.387941
   1 C :    0.040184
   2 O :   -0.581829
   3 C :    0.361887
   4 O :   -0.476419
   5 C :   -0.194474
   6 C :   -0.200231
   7 H :    0.223206
   8 C :    0.366670
   9 O :   -0.490949
  10 O :   -0.567238
  11 C :    0.046526
  12 C :   -0.389017
  13 S :    0.205615
  14 P :    0.406556
  15 S :   -0.133663
  16 O :   -0.707399
  17 C :   -0.060554
  18 O :   -0.669985
  19 C :   -0.041679
  20 H :    0.169183
  21 H :    0.163343
  22 H :    0.163211
  23 H :    0.187004
  24 H :    0.186233
  25 H :    0.202743
  26 H :    0.204935
  27 H :    0.194020
  28 H :    0.192818
  29 H :    0.163808
  30 H :    0.163868
  31 H :    0.170046
  32 H :    0.176445
  33 H :    0.187269
  34 H :    0.174734
  35 H :    0.191177
  36 H :    0.178832
  37 H :    0.181066

  Mayer bond orders larger than 0.100000
B(  0-C ,  1-C ) :   0.9423 B(  0-C , 20-H ) :   0.9611 B(  0-C , 21-H ) :   0.9692
B(  0-C , 22-H ) :   0.9717 B(  1-C ,  2-O ) :   0.7784 B(  1-C , 23-H ) :   0.9461
B(  1-C , 24-H ) :   0.9413 B(  2-O ,  3-C ) :   1.1391 B(  3-C ,  4-O ) :   1.7877
B(  3-C ,  5-C ) :   0.9061 B(  5-C ,  6-C ) :   0.8466 B(  5-C , 25-H ) :   0.9865
B(  5-C , 26-H ) :   0.9296 B(  6-C ,  7-H ) :   0.8872 B(  6-C ,  8-C ) :   0.9674
B(  6-C , 13-S ) :   0.8668 B(  8-C ,  9-O ) :   1.7741 B(  8-C , 10-O ) :   1.1863
B(  9-O , 14-P ) :   0.1077 B( 10-O , 11-C ) :   0.7532 B( 11-C , 12-C ) :   0.9226
B( 11-C , 27-H ) :   0.9567 B( 11-C , 28-H ) :   0.9514 B( 12-C , 29-H ) :   0.9714
B( 12-C , 30-H ) :   0.9679 B( 12-C , 31-H ) :   0.9586 B( 13-S , 14-P ) :   0.9921
B( 14-P , 15-S ) :   1.7762 B( 14-P , 16-O ) :   1.0045 B( 14-P , 18-O ) :   1.1781
B( 16-O , 17-C ) :   0.8300 B( 17-C , 32-H ) :   0.9551 B( 17-C , 33-H ) :   0.9589
B( 17-C , 34-H ) :   0.9501 B( 18-O , 19-C ) :   0.7885 B( 19-C , 35-H ) :   0.9548
B( 19-C , 36-H ) :   0.9488 B( 19-C , 37-H ) :   0.9534

Dispersion correction           -0.016827119
FINAL SINGLE POINT ENERGY     -1981.464204522945

DIPOLE MOMENT
-------------

Method             : SCF
Type of density    : Electron Density
Multiplicity       :   1
Irrep              :   0
Energy             : -1981.4849222572645431 Eh
Relativity type    :
Basis              : AO
                                X                 Y                 Z
Electronic contribution:    -18.673601917       1.830127694      -1.656046998
Nuclear contribution   :     20.285106235      -4.374205669       2.168500673
                        -----------------------------------------
Total Dipole Moment    :      1.611504318      -2.544077975       0.512453675
                        -----------------------------------------
Magnitude (a.u.)       :      3.054813853
Magnitude (Debye)      :      7.764719742

Rotational constants in cm-1:             0.017507             0.005399             0.004941
Rotational constants in MHz :           524.846075           161.851496           148.119521

                             ****ORCA TERMINATED NORMALLY****
TOTAL RUN TIME: 0 days 0 hours 1 minutes 40 seconds 115 msec
