                         Program Version 6.0.0  -   RELEASE  -
|  1> ! r2scan-3c def2/J RI DEFGRID2 scfconv6 printgap
|  2> %output
|  3>     printlevel normal
|  4> end
|  5> * xyz 0 1
|  6> C 4.7663952268 -1.2243502534 -1.0212126853
|  7> C 4.6949459336 0.1851084987 -0.4704304188
|  8> O 3.5192022762 0.3935715628 0.3313849641
|  9> P 2.0528577243 0.4273126169 -0.2902342124
| 10> S 1.9737392572 1.3100177143 -2.045038832
| 11> O 1.2551409753 1.0857194914 0.9105211631
| 12> C 1.3474685996 2.5038108571 1.1667567122
| 13> C 0.4890547597 2.8103310332 2.3748991779
| 14> S 1.3900752401 -1.5530092308 -0.1545309937
| 15> C 0.1154694259 -1.5682442865 -1.462930548
| 16> S -1.5353880721 -1.9316388447 -0.8311193686
| 17> P -1.9303665175 -0.0814764648 0.143803477
| 18> S -1.4023078343 1.5126863372 -0.8624627965
| 19> O -1.3223262335 -0.1250873184 1.5926090113
| 20> C -1.6795705638 -1.111635356 2.5997133332
| 21> C -0.5966393786 -2.1627724121 2.732709618
| 22> O -3.4871652011 -0.2011650693 0.4414967327
| 23> C -4.4598739891 -0.1282764486 -0.620914436
| 24> C -5.8149686503 0.1264649311 0.0070903046
| 25> H 4.6502869756 -1.9498638196 -0.2201641324
| 26> H 3.9740093704 -1.3764266334 -1.7526917419
| 27> H 5.7258801331 -1.3704498356 -1.5067112307
| 28> H 4.6897602836 0.9164445434 -1.2850993275
| 29> H 5.5178622244 0.3945119837 0.2142816542
| 30> H 2.3970461902 2.7570015399 1.339835894
| 31> H 0.9909597367 3.0344122432 0.2768081372
| 32> H 0.846957185 2.253800745 3.2359626933
| 33> H 0.5326492753 3.8745129164 2.5823048818
| 34> H -0.5401375749 2.5244422667 2.1716779019
| 35> H 0.3554141477 -2.3711031021 -2.1549622557
| 36> H 0.1178607289 -0.5975891147 -1.9665828903
| 37> H -1.7809053869 -0.5295563372 3.5169845792
| 38> H -2.6406988462 -1.5560468982 2.3373340141
| 39> H 0.3684185738 -1.6874607856 2.8887661371
| 40> H -0.8253219164 -2.7962457774 3.583872641
| 41> H -0.5375497868 -2.7781637295 1.8382732361
| 42> H -4.1725320163 0.6808787914 -1.3003640798
| 43> H -4.4410555333 -1.07643922 -1.1645614974
| 44> H -5.8017397846 1.0642038714 0.5554592355
| 45> H -6.564228077 0.1798939624 -0.7757567611
| 46> H -6.0655223569 -0.6789816093 0.6910018869
| 47> *
| 48>
| 49>                          ****END OF INPUT****

CARTESIAN COORDINATES (ANGSTROEM)
---------------------------------
  C      4.766395   -1.224350   -1.021213
  C      4.694946    0.185108   -0.470430
  O      3.519202    0.393572    0.331385
  P      2.052858    0.427313   -0.290234
  S      1.973739    1.310018   -2.045039
  O      1.255141    1.085719    0.910521
  C      1.347469    2.503811    1.166757
  C      0.489055    2.810331    2.374899
  S      1.390075   -1.553009   -0.154531
  C      0.115469   -1.568244   -1.462931
  S     -1.535388   -1.931639   -0.831119
  P     -1.930367   -0.081476    0.143803
  S     -1.402308    1.512686   -0.862463
  O     -1.322326   -0.125087    1.592609
  C     -1.679571   -1.111635    2.599713
  C     -0.596639   -2.162772    2.732710
  O     -3.487165   -0.201165    0.441497
  C     -4.459874   -0.128276   -0.620914
  C     -5.814969    0.126465    0.007090
  H      4.650287   -1.949864   -0.220164
  H      3.974009   -1.376427   -1.752692
  H      5.725880   -1.370450   -1.506711
  H      4.689760    0.916445   -1.285099
  H      5.517862    0.394512    0.214282
  H      2.397046    2.757002    1.339836
  H      0.990960    3.034412    0.276808
  H      0.846957    2.253801    3.235963
  H      0.532649    3.874513    2.582305
  H     -0.540138    2.524442    2.171678
  H      0.355414   -2.371103   -2.154962
  H      0.117861   -0.597589   -1.966583
  H     -1.780905   -0.529556    3.516985
  H     -2.640699   -1.556047    2.337334
  H      0.368419   -1.687461    2.888766
  H     -0.825322   -2.796246    3.583873
  H     -0.537550   -2.778164    1.838273
  H     -4.172532    0.680879   -1.300364
  H     -4.441056   -1.076439   -1.164561
  H     -5.801740    1.064204    0.555459
  H     -6.564228    0.179894   -0.775757
  H     -6.065522   -0.678982    0.691002

 Total Charge           Charge          ....    0
 Multiplicity           Mult            ....    1
 Number of Electrons    NEL             ....  202
 Basis Dimension        Dim             ....  539

ORBITAL ENERGIES
----------------

  NO   OCC          E(Eh)            E(eV)
   0   2.0000     -88.576389     -2410.2861
   1   2.0000     -88.573338     -2410.2030
   2   2.0000     -88.513111     -2408.5642
   3   2.0000     -88.511239     -2408.5133
   4   2.0000     -76.911395     -2092.8655
   5   2.0000     -76.906145     -2092.7226
   6   2.0000     -18.992169      -516.8032
   7   2.0000     -18.990283      -516.7519
   8   2.0000     -18.985389      -516.6187
   9   2.0000     -18.976598      -516.3795
  10   2.0000     -10.106651      -275.0160
  11   2.0000     -10.102377      -274.8997
  12   2.0000     -10.099103      -274.8106
  13   2.0000     -10.092174      -274.6220
  14   2.0000     -10.084508      -274.4134
  15   2.0000     -10.034100      -273.0417
  16   2.0000     -10.027179      -272.8534
  17   2.0000     -10.024409      -272.7780
  18   2.0000     -10.018442      -272.6157
  19   2.0000      -7.870892      -214.1779
  20   2.0000      -7.868222      -214.1052
  21   2.0000      -7.807869      -212.4629
  22   2.0000      -7.805927      -212.4101
  23   2.0000      -6.589823      -179.3182
  24   2.0000      -6.584705      -179.1789
  25   2.0000      -5.817703      -158.3077
  26   2.0000      -5.815044      -158.2354
  27   2.0000      -5.814555      -158.2221
  28   2.0000      -5.812074      -158.1546
  29   2.0000      -5.808235      -158.0501
  30   2.0000      -5.805261      -157.9692
  31   2.0000      -5.755695      -156.6204
  32   2.0000      -5.753582      -156.5629
  33   2.0000      -5.748022      -156.4116
  34   2.0000      -5.747824      -156.4062
  35   2.0000      -5.746418      -156.3680
  36   2.0000      -5.745726      -156.3491
  37   2.0000      -4.735671      -128.8642
  38   2.0000      -4.734864      -128.8422
  39   2.0000      -4.733125      -128.7949
  40   2.0000      -4.730152      -128.7140
  41   2.0000      -4.729520      -128.6968
  42   2.0000      -4.728575      -128.6711
  43   2.0000      -1.050962       -28.5981
  44   2.0000      -1.041069       -28.3289
  45   2.0000      -1.009168       -27.4609
  46   2.0000      -0.999488       -27.1974
  47   2.0000      -0.799757       -21.7625
  48   2.0000      -0.758079       -20.6284
  49   2.0000      -0.746188       -20.3048
  50   2.0000      -0.735454       -20.0127
  51   2.0000      -0.724144       -19.7050
  52   2.0000      -0.708598       -19.2819
  53   2.0000      -0.680809       -18.5258
  54   2.0000      -0.660095       -17.9621
  55   2.0000      -0.624500       -16.9935
  56   2.0000      -0.615311       -16.7435
  57   2.0000      -0.606395       -16.5009
  58   2.0000      -0.597221       -16.2512
  59   2.0000      -0.587013       -15.9734
  60   2.0000      -0.533441       -14.5157
  61   2.0000      -0.519845       -14.1457
  62   2.0000      -0.497093       -13.5266
  63   2.0000      -0.484915       -13.1952
  64   2.0000      -0.467758       -12.7283
  65   2.0000      -0.463564       -12.6142
  66   2.0000      -0.455753       -12.4017
  67   2.0000      -0.452156       -12.3038
  68   2.0000      -0.444613       -12.0985
  69   2.0000      -0.435623       -11.8539
  70   2.0000      -0.425638       -11.5822
  71   2.0000      -0.406951       -11.0737
  72   2.0000      -0.402795       -10.9606
  73   2.0000      -0.397218       -10.8088
  74   2.0000      -0.397061       -10.8046
  75   2.0000      -0.383401       -10.4329
  76   2.0000      -0.377499       -10.2723
  77   2.0000      -0.367857       -10.0099
  78   2.0000      -0.366084        -9.9617
  79   2.0000      -0.363116        -9.8809
  80   2.0000      -0.360198        -9.8015
  81   2.0000      -0.357933        -9.7399
  82   2.0000      -0.351677        -9.5696
  83   2.0000      -0.347079        -9.4445
  84   2.0000      -0.339075        -9.2267
  85   2.0000      -0.328248        -8.9321
  86   2.0000      -0.321160        -8.7392
  87   2.0000      -0.319431        -8.6922
  88   2.0000      -0.312312        -8.4984
  89   2.0000      -0.304512        -8.2862
  90   2.0000      -0.294774        -8.0212
  91   2.0000      -0.286608        -7.7990
  92   2.0000      -0.277081        -7.5398
  93   2.0000      -0.274720        -7.4755
  94   2.0000      -0.270325        -7.3559
  95   2.0000      -0.247163        -6.7256
  96   2.0000      -0.232090        -6.3155
  97   2.0000      -0.225446        -6.1347
  98   2.0000      -0.214163        -5.8277
  99   2.0000      -0.204043        -5.5523
 100   2.0000      -0.194916        -5.3039
 101   0.0000      -0.043210        -1.1758
 102   0.0000      -0.031687        -0.8622
 103   0.0000      -0.007880        -0.2144
 104   0.0000       0.013021         0.3543
 105   0.0000       0.016854         0.4586

MULLIKEN ATOMIC CHARGES
-----------------------
   0 C :   -0.448862
   1 C :   -0.156908
   2 O :   -0.313304
   3 P :    0.654859
   4 S :   -0.466167
   5 O :   -0.255263
   6 C :   -0.125431
   7 C :   -0.471756
   8 S :   -0.116043
   9 C :   -0.224355
  10 S :   -0.172490
  11 P :    0.695323
  12 S :   -0.417250
  13 O :   -0.256868
  14 C :   -0.135120
  15 C :   -0.442977
  16 O :   -0.307533
  17 C :   -0.161940
  18 C :   -0.439875
  19 H :    0.153036
  20 H :    0.174305
  21 H :    0.146192
  22 H :    0.175060
  23 H :    0.145400
  24 H :    0.146149
  25 H :    0.175163
  26 H :    0.145456
  27 H :    0.142181
  28 H :    0.178134
  29 H :    0.196086
  30 H :    0.219181
  31 H :    0.152768
  32 H :    0.159816
  33 H :    0.165558
  34 H :    0.142835
  35 H :    0.165802
  36 H :    0.173218
  37 H :    0.149134
  38 H :    0.159069
  39 H :    0.147547
  40 H :    0.149867
Sum of atomic charges:    0.0000000

LOEWDIN ATOMIC CHARGES
----------------------
   0 C :   -0.408162
   1 C :    0.017032
   2 O :   -0.666919
   3 P :    0.366514
   4 S :   -0.129095
   5 O :   -0.677205
   6 C :    0.017043
   7 C :   -0.390107
   8 S :    0.176178
   9 C :   -0.411994
  10 S :    0.123999
  11 P :    0.376307
  12 S :   -0.065826
  13 O :   -0.644764
  14 C :    0.030223
  15 C :   -0.405409
  16 O :   -0.681430
  17 C :    0.018860
  18 C :   -0.385782
  19 H :    0.159338
  20 H :    0.164443
  21 H :    0.158225
  22 H :    0.180514
  23 H :    0.177981
  24 H :    0.170680
  25 H :    0.183000
  26 H :    0.156715
  27 H :    0.157588
  28 H :    0.169725
  29 H :    0.180371
  30 H :    0.203691
  31 H :    0.181349
  32 H :    0.178820
  33 H :    0.165238
  34 H :    0.156570
  35 H :    0.162501
  36 H :    0.182040
  37 H :    0.171165
  38 H :    0.162128
  39 H :    0.160407
  40 H :    0.158048

  Mayer bond orders larger than 0.100000
B(  0-C ,  1-C ) :   0.9203 B(  0-C , 19-H ) :   0.9682 B(  0-C , 20-H ) :   0.9652
B(  0-C , 21-H ) :   0.9598 B(  1-C ,  2-O ) :   0.8273 B(  1-C , 22-H ) :   0.9666
B(  1-C , 23-H ) :   0.9594 B(  2-O ,  3-P ) :   1.0533 B(  3-P ,  4-S ) :   1.7541
B(  3-P ,  5-O ) :   1.1820 B(  3-P ,  8-S ) :   1.1329 B(  5-O ,  6-C ) :   0.7662
B(  6-C ,  7-C ) :   0.9348 B(  6-C , 24-H ) :   0.9452 B(  6-C , 25-H ) :   0.9485
B(  7-C , 26-H ) :   0.9735 B(  7-C , 27-H ) :   0.9667 B(  7-C , 28-H ) :   0.9689
B(  8-S ,  9-C ) :   0.8929 B(  9-C , 10-S ) :   0.9190 B(  9-C , 29-H ) :   0.9134
B(  9-C , 30-H ) :   0.9042 B( 10-S , 11-P ) :   0.9681 B( 11-P , 12-S ) :   1.8425
B( 11-P , 13-O ) :   1.1361 B( 11-P , 16-O ) :   1.0647 B( 13-O , 14-C ) :   0.7307
B( 14-C , 15-C ) :   0.9460 B( 14-C , 31-H ) :   0.9623 B( 14-C , 32-H ) :   0.9725
B( 15-C , 33-H ) :   0.9662 B( 15-C , 34-H ) :   0.9624 B( 15-C , 35-H ) :   0.9611
B( 16-O , 17-C ) :   0.7896 B( 17-C , 18-C ) :   0.9567 B( 17-C , 36-H ) :   0.9494
B( 17-C , 37-H ) :   0.9420 B( 18-C , 38-H ) :   0.9712 B( 18-C , 39-H ) :   0.9642
B( 18-C , 40-H ) :   0.9718

Dispersion correction           -0.022167757
FINAL SINGLE POINT ENERGY     -2932.458842184015

DIPOLE MOMENT
-------------

Method             : SCF
Type of density    : Electron Density
Multiplicity       :   1
Irrep              :   0
Energy             : -2932.4832237309383345 Eh
Relativity type    :
Basis              : AO
                                X                 Y                 Z
Electronic contribution:      2.755846901       0.286716509     -11.504030416
Nuclear contribution   :     -3.126878327      -1.293709333      12.587420026
                        -----------------------------------------
Total Dipole Moment    :     -0.371031427      -1.006992824       1.083389610
                        -----------------------------------------
Magnitude (a.u.)       :      1.524936692
Magnitude (Debye)      :      3.876081033

Rotational constants in cm-1:             0.012804             0.005272             0.005087
Rotational constants in MHz :           383.846252           158.058910           152.504576

                             ****ORCA TERMINATED NORMALLY****
TOTAL RUN TIME: 0 days 0 hours 1 minutes 23 seconds 274 msec
