                         Program Version 6.0.0  -   RELEASE  -
|  1> ! r2scan-3c def2/J RI DEFGRID2 scfconv6 printgap
|  2> %output
|  3>     printlevel normal
|  4> end
|  5> %cpcm
|  6>     smd true
|  7>     smdsolvent "water"
|  8> end
|  9> * xyz 0 1
| 10> C 4.7663952268 -1.2243502534 -1.0212126853
| 11> C 4.6949459336 0.1851084987 -0.4704304188
| 12> O 3.5192022762 0.3935715628 0.3313849641
| 13> P 2.0528577243 0.4273126169 -0.2902342124
| 14> S 1.9737392572 1.3100177143 -2.045038832
| 15> O 1.2551409753 1.0857194914 0.9105211631
| 16> C 1.3474685996 2.5038108571 1.1667567122
| 17> C 0.4890547597 2.8103310332 2.3748991779
| 18> S 1.3900752401 -1.5530092308 -0.1545309937
| 19> C 0.1154694259 -1.5682442865 -1.462930548
| 20> S -1.5353880721 -1.9316388447 -0.8311193686
| 21> P -1.9303665175 -0.0814764648 0.143803477
| 22> S -1.4023078343 1.5126863372 -0.8624627965
| 23> O -1.3223262335 -0.1250873184 1.5926090113
| 24> C -1.6795705638 -1.111635356 2.5997133332
| 25> C -0.5966393786 -2.1627724121 2.732709618
| 26> O -3.4871652011 -0.2011650693 0.4414967327
| 27> C -4.4598739891 -0.1282764486 -0.620914436
| 28> C -5.8149686503 0.1264649311 0.0070903046
| 29> H 4.6502869756 -1.9498638196 -0.2201641324
| 30> H 3.9740093704 -1.3764266334 -1.7526917419
| 31> H 5.7258801331 -1.3704498356 -1.5067112307
| 32> H 4.6897602836 0.9164445434 -1.2850993275
| 33> H 5.5178622244 0.3945119837 0.2142816542
| 34> H 2.3970461902 2.7570015399 1.339835894
| 35> H 0.9909597367 3.0344122432 0.2768081372
| 36> H 0.846957185 2.253800745 3.2359626933
| 37> H 0.5326492753 3.8745129164 2.5823048818
| 38> H -0.5401375749 2.5244422667 2.1716779019
| 39> H 0.3554141477 -2.3711031021 -2.1549622557
| 40> H 0.1178607289 -0.5975891147 -1.9665828903
| 41> H -1.7809053869 -0.5295563372 3.5169845792
| 42> H -2.6406988462 -1.5560468982 2.3373340141
| 43> H 0.3684185738 -1.6874607856 2.8887661371
| 44> H -0.8253219164 -2.7962457774 3.583872641
| 45> H -0.5375497868 -2.7781637295 1.8382732361
| 46> H -4.1725320163 0.6808787914 -1.3003640798
| 47> H -4.4410555333 -1.07643922 -1.1645614974
| 48> H -5.8017397846 1.0642038714 0.5554592355
| 49> H -6.564228077 0.1798939624 -0.7757567611
| 50> H -6.0655223569 -0.6789816093 0.6910018869
| 51> *
| 52>
| 53>                          ****END OF INPUT****

CARTESIAN COORDINATES (ANGSTROEM)
---------------------------------
  C      4.766395   -1.224350   -1.021213
  C      4.694946    0.185108   -0.470430
  O      3.519202    0.393572    0.331385
  P      2.052858    0.427313   -0.290234
  S      1.973739    1.310018   -2.045039
  O      1.255141    1.085719    0.910521
  C      1.347469    2.503811    1.166757
  C      0.489055    2.810331    2.374899
  S      1.390075   -1.553009   -0.154531
  C      0.115469   -1.568244   -1.462931
  S     -1.535388   -1.931639   -0.831119
  P     -1.930367   -0.081476    0.143803
  S     -1.402308    1.512686   -0.862463
  O     -1.322326   -0.125087    1.592609
  C     -1.679571   -1.111635    2.599713
  C     -0.596639   -2.162772    2.732710
  O     -3.487165   -0.201165    0.441497
  C     -4.459874   -0.128276   -0.620914
  C     -5.814969    0.126465    0.007090
  H      4.650287   -1.949864   -0.220164
  H      3.974009   -1.376427   -1.752692
  H      5.725880   -1.370450   -1.506711
  H      4.689760    0.916445   -1.285099
  H      5.517862    0.394512    0.214282
  H      2.397046    2.757002    1.339836
  H      0.990960    3.034412    0.276808
  H      0.846957    2.253801    3.235963
  H      0.532649    3.874513    2.582305
  H     -0.540138    2.524442    2.171678
  H      0.355414   -2.371103   -2.154962
  H      0.117861   -0.597589   -1.966583
  H     -1.780905   -0.529556    3.516985
  H     -2.640699   -1.556047    2.337334
  H      0.368419   -1.687461    2.888766
  H     -0.825322   -2.796246    3.583873
  H     -0.537550   -2.778164    1.838273
  H     -4.172532    0.680879   -1.300364
  H     -4.441056   -1.076439   -1.164561
  H     -5.801740    1.064204    0.555459
  H     -6.564228    0.179894   -0.775757
  H     -6.065522   -0.678982    0.691002

 Total Charge           Charge          ....    0
 Multiplicity           Mult            ....    1
 Number of Electrons    NEL             ....  202
 Basis Dimension        Dim             ....  539

ORBITAL ENERGIES
----------------

  NO   OCC          E(Eh)            E(eV)
   0   2.0000     -88.579183     -2410.3621
   1   2.0000     -88.578206     -2410.3355
   2   2.0000     -88.523305     -2408.8416
   3   2.0000     -88.523099     -2408.8360
   4   2.0000     -76.917517     -2093.0321
   5   2.0000     -76.915759     -2092.9842
   6   2.0000     -18.994349      -516.8625
   7   2.0000     -18.993657      -516.8437
   8   2.0000     -18.992006      -516.7988
   9   2.0000     -18.986872      -516.6590
  10   2.0000     -10.105933      -274.9964
  11   2.0000     -10.092246      -274.6240
  12   2.0000     -10.090047      -274.5641
  13   2.0000     -10.087221      -274.4872
  14   2.0000     -10.086075      -274.4561
  15   2.0000     -10.019588      -272.6469
  16   2.0000     -10.017341      -272.5857
  17   2.0000     -10.017269      -272.5837
  18   2.0000     -10.016972      -272.5757
  19   2.0000      -7.873604      -214.2516
  20   2.0000      -7.872995      -214.2351
  21   2.0000      -7.818342      -212.7479
  22   2.0000      -7.818224      -212.7447
  23   2.0000      -6.595979      -179.4857
  24   2.0000      -6.594365      -179.4418
  25   2.0000      -5.820429      -158.3819
  26   2.0000      -5.819847      -158.3661
  27   2.0000      -5.817288      -158.2964
  28   2.0000      -5.816848      -158.2845
  29   2.0000      -5.810925      -158.1233
  30   2.0000      -5.810025      -158.0988
  31   2.0000      -5.765934      -156.8990
  32   2.0000      -5.765911      -156.8984
  33   2.0000      -5.758846      -156.7062
  34   2.0000      -5.758397      -156.6940
  35   2.0000      -5.758206      -156.6887
  36   2.0000      -5.758148      -156.6872
  37   2.0000      -4.741780      -129.0304
  38   2.0000      -4.740982      -129.0087
  39   2.0000      -4.739784      -128.9761
  40   2.0000      -4.739406      -128.9658
  41   2.0000      -4.739161      -128.9591
  42   2.0000      -4.738314      -128.9361
  43   2.0000      -1.053548       -28.6685
  44   2.0000      -1.048986       -28.5444
  45   2.0000      -1.011202       -27.5162
  46   2.0000      -1.007287       -27.4097
  47   2.0000      -0.801902       -21.8209
  48   2.0000      -0.756438       -20.5837
  49   2.0000      -0.745014       -20.2729
  50   2.0000      -0.725990       -19.7552
  51   2.0000      -0.721558       -19.6346
  52   2.0000      -0.710283       -19.3278
  53   2.0000      -0.686526       -18.6813
  54   2.0000      -0.668545       -18.1920
  55   2.0000      -0.626762       -17.0551
  56   2.0000      -0.612268       -16.6607
  57   2.0000      -0.599121       -16.3029
  58   2.0000      -0.596275       -16.2255
  59   2.0000      -0.587857       -15.9964
  60   2.0000      -0.530114       -14.4251
  61   2.0000      -0.522898       -14.2288
  62   2.0000      -0.493403       -13.4262
  63   2.0000      -0.487445       -13.2640
  64   2.0000      -0.469036       -12.7631
  65   2.0000      -0.463713       -12.6183
  66   2.0000      -0.455193       -12.3864
  67   2.0000      -0.445821       -12.1314
  68   2.0000      -0.444656       -12.0997
  69   2.0000      -0.436006       -11.8643
  70   2.0000      -0.423327       -11.5193
  71   2.0000      -0.412520       -11.2253
  72   2.0000      -0.399877       -10.8812
  73   2.0000      -0.396283       -10.7834
  74   2.0000      -0.391749       -10.6600
  75   2.0000      -0.381246       -10.3742
  76   2.0000      -0.379533       -10.3276
  77   2.0000      -0.363284        -9.8855
  78   2.0000      -0.361192        -9.8285
  79   2.0000      -0.357544        -9.7293
  80   2.0000      -0.355711        -9.6794
  81   2.0000      -0.352471        -9.5912
  82   2.0000      -0.348558        -9.4848
  83   2.0000      -0.343624        -9.3505
  84   2.0000      -0.340085        -9.2542
  85   2.0000      -0.325474        -8.8566
  86   2.0000      -0.324117        -8.8197
  87   2.0000      -0.316675        -8.6172
  88   2.0000      -0.309716        -8.4278
  89   2.0000      -0.303813        -8.2672
  90   2.0000      -0.299447        -8.1484
  91   2.0000      -0.287081        -7.8119
  92   2.0000      -0.280528        -7.6336
  93   2.0000      -0.278675        -7.5831
  94   2.0000      -0.273374        -7.4389
  95   2.0000      -0.250587        -6.8188
  96   2.0000      -0.239456        -6.5159
  97   2.0000      -0.236592        -6.4380
  98   2.0000      -0.225541        -6.1373
  99   2.0000      -0.213767        -5.8169
 100   2.0000      -0.207043        -5.6339
 101   0.0000      -0.047573        -1.2945
 102   0.0000      -0.038405        -1.0451
 103   0.0000      -0.011948        -0.3251
 104   0.0000       0.008820         0.2400
 105   0.0000       0.011642         0.3168

MULLIKEN ATOMIC CHARGES
-----------------------
   0 C :   -0.482818
   1 C :   -0.155327
   2 O :   -0.339550
   3 P :    0.691283
   4 S :   -0.526520
   5 O :   -0.283246
   6 C :   -0.125793
   7 C :   -0.512600
   8 S :   -0.110832
   9 C :   -0.222957
  10 S :   -0.167737
  11 P :    0.707920
  12 S :   -0.474268
  13 O :   -0.289584
  14 C :   -0.128079
  15 C :   -0.479650
  16 O :   -0.328359
  17 C :   -0.151922
  18 C :   -0.481679
  19 H :    0.166819
  20 H :    0.171611
  21 H :    0.171078
  22 H :    0.176873
  23 H :    0.172590
  24 H :    0.169768
  25 H :    0.174174
  26 H :    0.167033
  27 H :    0.169153
  28 H :    0.169978
  29 H :    0.237705
  30 H :    0.211318
  31 H :    0.178770
  32 H :    0.178255
  33 H :    0.167679
  34 H :    0.168617
  35 H :    0.167007
  36 H :    0.173184
  37 H :    0.168530
  38 H :    0.166263
  39 H :    0.169505
  40 H :    0.165807
Sum of atomic charges:   -0.0000000

LOEWDIN ATOMIC CHARGES
----------------------
   0 C :   -0.410557
   1 C :    0.022235
   2 O :   -0.678232
   3 P :    0.371570
   4 S :   -0.167464
   5 O :   -0.696026
   6 C :    0.018395
   7 C :   -0.393774
   8 S :    0.182476
   9 C :   -0.405949
  10 S :    0.134921
  11 P :    0.378234
  12 S :   -0.107238
  13 O :   -0.665228
  14 C :    0.036791
  15 C :   -0.406659
  16 O :   -0.689587
  17 C :    0.023015
  18 C :   -0.389238
  19 H :    0.163124
  20 H :    0.161154
  21 H :    0.167368
  22 H :    0.180993
  23 H :    0.189476
  24 H :    0.179690
  25 H :    0.182046
  26 H :    0.163029
  27 H :    0.167811
  28 H :    0.164483
  29 H :    0.197130
  30 H :    0.200376
  31 H :    0.192096
  32 H :    0.186562
  33 H :    0.163693
  34 H :    0.166764
  35 H :    0.160824
  36 H :    0.181486
  37 H :    0.179063
  38 H :    0.163223
  39 H :    0.168964
  40 H :    0.162961

  Mayer bond orders larger than 0.100000
B(  0-C ,  1-C ) :   0.9102 B(  0-C , 19-H ) :   0.9657 B(  0-C , 20-H ) :   0.9651
B(  0-C , 21-H ) :   0.9545 B(  1-C ,  2-O ) :   0.8146 B(  1-C , 22-H ) :   0.9645
B(  1-C , 23-H ) :   0.9496 B(  2-O ,  3-P ) :   1.0623 B(  3-P ,  4-S ) :   1.6975
B(  3-P ,  5-O ) :   1.1801 B(  3-P ,  8-S ) :   1.1599 B(  5-O ,  6-C ) :   0.7587
B(  6-C ,  7-C ) :   0.9258 B(  6-C , 24-H ) :   0.9370 B(  6-C , 25-H ) :   0.9458
B(  7-C , 26-H ) :   0.9699 B(  7-C , 27-H ) :   0.9607 B(  7-C , 28-H ) :   0.9702
B(  8-S ,  9-C ) :   0.8863 B(  9-C , 10-S ) :   0.9126 B(  9-C , 29-H ) :   0.8972
B(  9-C , 30-H ) :   0.9090 B( 10-S , 11-P ) :   0.9937 B( 11-P , 12-S ) :   1.8081
B( 11-P , 13-O ) :   1.1397 B( 11-P , 16-O ) :   1.0727 B( 13-O , 14-C ) :   0.7207
B( 14-C , 15-C ) :   0.9341 B( 14-C , 31-H ) :   0.9521 B( 14-C , 32-H ) :   0.9629
B( 15-C , 33-H ) :   0.9668 B( 15-C , 34-H ) :   0.9570 B( 15-C , 35-H ) :   0.9615
B( 16-O , 17-C ) :   0.7816 B( 17-C , 18-C ) :   0.9546 B( 17-C , 36-H ) :   0.9464
B( 17-C , 37-H ) :   0.9333 B( 18-C , 38-H ) :   0.9692 B( 18-C , 39-H ) :   0.9584
B( 18-C , 40-H ) :   0.9686

Dispersion correction           -0.022167757
FINAL SINGLE POINT ENERGY     -2932.468255772964

DIPOLE MOMENT
-------------

Method             : SCF
Type of density    : Electron Density
Multiplicity       :   1
Irrep              :   0
Energy             : -2932.4926373198877627 Eh
Relativity type    :
Basis              : AO
                                X                 Y                 Z
Electronic contribution:      2.733506375      -0.333850686     -11.209962417
Nuclear contribution   :     -3.126878327      -1.293709333      12.587420026
                        -----------------------------------------
Total Dipole Moment    :     -0.393371952      -1.627560020       1.377457608
                        -----------------------------------------
Magnitude (a.u.)       :      2.168198001
Magnitude (Debye)      :      5.511121343

Rotational constants in cm-1:             0.012804             0.005272             0.005087
Rotational constants in MHz :           383.846252           158.058910           152.504576

                             ****ORCA TERMINATED NORMALLY****
TOTAL RUN TIME: 0 days 0 hours 1 minutes 56 seconds 852 msec
