                         Program Version 6.0.0  -   RELEASE  -
|  1> ! pbe def2-sv(p) def2/J RI DEFGRID1 loosescf d4 GCP(DFT/SV(P)) printgap
|  2> %output
|  3>     printlevel normal
|  4> end
|  5> * xyz 0 1
|  6> C 1.8047997421 -0.9322780898 -2.7586877519
|  7> C 3.189601645 -0.676452493 -2.2001249748
|  8> O 3.2859975126 -1.0215247194 -0.8070116539
|  9> P 2.5918792493 -0.1744998335 0.34447289
| 10> S 2.7058084609 1.7713620942 0.1815061056
| 11> O 3.3305741537 -0.6665862294 1.6495986492
| 12> C 3.4485437962 -2.0569424376 2.0453104986
| 13> C 4.7345933438 -2.6657346989 1.5258289251
| 14> S 0.648056222 -1.0180272017 0.5106231397
| 15> C -0.0462190416 0.3244718306 1.5351474947
| 16> S -1.8368442854 0.2235322722 1.6301092011
| 17> P -2.3138033526 0.8949067129 -0.3531753352
| 18> S -0.8366773901 1.6067556508 -1.4188892268
| 19> O -3.4348957645 1.9718114704 -0.1182350311
| 20> C -4.6117928009 1.7575361663 0.7023487083
| 21> C -5.767256314 1.2293090758 -0.1221519979
| 22> O -3.1187765937 -0.2980883114 -1.029861508
| 23> C -2.4907792394 -1.4465269469 -1.630444822
| 24> C -2.4088786171 -2.6019416475 -0.6520469361
| 25> H 1.474007882 -1.9354438377 -2.5010133256
| 26> H 1.0975299729 -0.2069817055 -2.3576719183
| 27> H 1.8291045187 -0.8254946804 -3.8383592165
| 28> H 3.4652895567 0.3760935224 -2.3183172663
| 29> H 3.937913852 -1.3120259629 -2.6762668786
| 30> H 3.4380890956 -2.0252764334 3.1362995661
| 31> H 2.574686686 -2.6037192225 1.6793503535
| 32> H 4.8314689347 -3.6736701677 1.9171688132
| 33> H 4.7258347813 -2.7011126151 0.4400935752
| 34> H 5.5846761499 -2.0716412333 1.8501141155
| 35> H 0.2524732655 1.2765174952 1.0891508499
| 36> H 0.3233812275 0.2325362603 2.5540451131
| 37> H -4.35410498 1.0712595336 1.5139045032
| 38> H -4.8329750318 2.7452796558 1.1106928619
| 39> H -5.9719604199 1.9029766569 -0.9497884207
| 40> H -5.5311543316 0.2469014756 -0.5204259448
| 41> H -6.6475982836 1.1593603258 0.5091442583
| 42> H -3.1314655268 -1.6914915765 -2.4795556427
| 43> H -1.4993735218 -1.1598731773 -1.9947912815
| 44> H -3.3902465367 -2.8061725927 -0.2336899655
| 45> H -2.0516664401 -3.4823405216 -1.1757569334
| 46> H -1.7186454482 -2.3728061155 0.1569677193
| 47> *
| 48>
| 49>                          ****END OF INPUT****

CARTESIAN COORDINATES (ANGSTROEM)
---------------------------------
  C      1.804800   -0.932278   -2.758688
  C      3.189602   -0.676452   -2.200125
  O      3.285998   -1.021525   -0.807012
  P      2.591879   -0.174500    0.344473
  S      2.705808    1.771362    0.181506
  O      3.330574   -0.666586    1.649599
  C      3.448544   -2.056942    2.045310
  C      4.734593   -2.665735    1.525829
  S      0.648056   -1.018027    0.510623
  C     -0.046219    0.324472    1.535147
  S     -1.836844    0.223532    1.630109
  P     -2.313803    0.894907   -0.353175
  S     -0.836677    1.606756   -1.418889
  O     -3.434896    1.971811   -0.118235
  C     -4.611793    1.757536    0.702349
  C     -5.767256    1.229309   -0.122152
  O     -3.118777   -0.298088   -1.029862
  C     -2.490779   -1.446527   -1.630445
  C     -2.408879   -2.601942   -0.652047
  H      1.474008   -1.935444   -2.501013
  H      1.097530   -0.206982   -2.357672
  H      1.829105   -0.825495   -3.838359
  H      3.465290    0.376094   -2.318317
  H      3.937914   -1.312026   -2.676267
  H      3.438089   -2.025276    3.136300
  H      2.574687   -2.603719    1.679350
  H      4.831469   -3.673670    1.917169
  H      4.725835   -2.701113    0.440094
  H      5.584676   -2.071641    1.850114
  H      0.252473    1.276517    1.089151
  H      0.323381    0.232536    2.554045
  H     -4.354105    1.071260    1.513905
  H     -4.832975    2.745280    1.110693
  H     -5.971960    1.902977   -0.949788
  H     -5.531154    0.246901   -0.520426
  H     -6.647598    1.159360    0.509144
  H     -3.131466   -1.691492   -2.479556
  H     -1.499374   -1.159873   -1.994791
  H     -3.390247   -2.806173   -0.233690
  H     -2.051666   -3.482341   -1.175757
  H     -1.718645   -2.372806    0.156968

 Total Charge           Charge          ....    0
 Multiplicity           Mult            ....    1
 Number of Electrons    NEL             ....  202
 Basis Dimension        Dim             ....  334

ORBITAL ENERGIES
----------------

  NO   OCC          E(Eh)            E(eV)
   0   2.0000     -88.047383     -2395.8911
   1   2.0000     -88.040384     -2395.7006
   2   2.0000     -87.984201     -2394.1718
   3   2.0000     -87.980352     -2394.0671
   4   2.0000     -76.426184     -2079.6622
   5   2.0000     -76.423043     -2079.5767
   6   2.0000     -18.793988      -511.4104
   7   2.0000     -18.793866      -511.4071
   8   2.0000     -18.792218      -511.3622
   9   2.0000     -18.788783      -511.2688
  10   2.0000      -9.961923      -271.0777
  11   2.0000      -9.954672      -270.8804
  12   2.0000      -9.953521      -270.8491
  13   2.0000      -9.952672      -270.8260
  14   2.0000      -9.951392      -270.7911
  15   2.0000      -9.889169      -269.0980
  16   2.0000      -9.885477      -268.9975
  17   2.0000      -9.885115      -268.9876
  18   2.0000      -9.879218      -268.8272
  19   2.0000      -7.692128      -209.3134
  20   2.0000      -7.684773      -209.1133
  21   2.0000      -7.628971      -207.5949
  22   2.0000      -7.625578      -207.5025
  23   2.0000      -6.423894      -174.8030
  24   2.0000      -6.420605      -174.7135
  25   2.0000      -5.719990      -155.6489
  26   2.0000      -5.716609      -155.5569
  27   2.0000      -5.712534      -155.4460
  28   2.0000      -5.709501      -155.3634
  29   2.0000      -5.709212      -155.3556
  30   2.0000      -5.701763      -155.1528
  31   2.0000      -5.658078      -153.9641
  32   2.0000      -5.654632      -153.8703
  33   2.0000      -5.649356      -153.7268
  34   2.0000      -5.649170      -153.7217
  35   2.0000      -5.646128      -153.6389
  36   2.0000      -5.645652      -153.6260
  37   2.0000      -4.646593      -126.4402
  38   2.0000      -4.645653      -126.4146
  39   2.0000      -4.644193      -126.3749
  40   2.0000      -4.643559      -126.3577
  41   2.0000      -4.642313      -126.3238
  42   2.0000      -4.640745      -126.2811
  43   2.0000      -0.989381       -26.9224
  44   2.0000      -0.986545       -26.8453
  45   2.0000      -0.946602       -25.7584
  46   2.0000      -0.944455       -25.6999
  47   2.0000      -0.762579       -20.7508
  48   2.0000      -0.722016       -19.6471
  49   2.0000      -0.712380       -19.3848
  50   2.0000      -0.692621       -18.8472
  51   2.0000      -0.688490       -18.7348
  52   2.0000      -0.675955       -18.3937
  53   2.0000      -0.648538       -17.6476
  54   2.0000      -0.634834       -17.2747
  55   2.0000      -0.596104       -16.2208
  56   2.0000      -0.591275       -16.0894
  57   2.0000      -0.577731       -15.7208
  58   2.0000      -0.573472       -15.6050
  59   2.0000      -0.558995       -15.2110
  60   2.0000      -0.503889       -13.7115
  61   2.0000      -0.498608       -13.5678
  62   2.0000      -0.481667       -13.1068
  63   2.0000      -0.474265       -12.9054
  64   2.0000      -0.450384       -12.2556
  65   2.0000      -0.447742       -12.1837
  66   2.0000      -0.445310       -12.1175
  67   2.0000      -0.439917       -11.9707
  68   2.0000      -0.430507       -11.7147
  69   2.0000      -0.424701       -11.5567
  70   2.0000      -0.407004       -11.0751
  71   2.0000      -0.396341       -10.7850
  72   2.0000      -0.392275       -10.6743
  73   2.0000      -0.386947       -10.5294
  74   2.0000      -0.384075       -10.4512
  75   2.0000      -0.369789       -10.0625
  76   2.0000      -0.363711        -9.8971
  77   2.0000      -0.357003        -9.7145
  78   2.0000      -0.355785        -9.6814
  79   2.0000      -0.353161        -9.6100
  80   2.0000      -0.351757        -9.5718
  81   2.0000      -0.345768        -9.4088
  82   2.0000      -0.345710        -9.4072
  83   2.0000      -0.341158        -9.2834
  84   2.0000      -0.332363        -9.0441
  85   2.0000      -0.320295        -8.7157
  86   2.0000      -0.313590        -8.5332
  87   2.0000      -0.299300        -8.1444
  88   2.0000      -0.294419        -8.0115
  89   2.0000      -0.291846        -7.9415
  90   2.0000      -0.288805        -7.8588
  91   2.0000      -0.278228        -7.5710
  92   2.0000      -0.269940        -7.3454
  93   2.0000      -0.262847        -7.1524
  94   2.0000      -0.260246        -7.0817
  95   2.0000      -0.233562        -6.3555
  96   2.0000      -0.220535        -6.0011
  97   2.0000      -0.206971        -5.6320
  98   2.0000      -0.200273        -5.4497
  99   2.0000      -0.196404        -5.3444
 100   2.0000      -0.190535        -5.1847
 101   0.0000      -0.047551        -1.2939
 102   0.0000      -0.032735        -0.8908
 103   0.0000      -0.013730        -0.3736
 104   0.0000       0.008931         0.2430
 105   0.0000       0.012929         0.3518

MULLIKEN ATOMIC CHARGES
-----------------------
   0 C :   -0.361183
   1 C :    0.006512
   2 O :   -0.381220
   3 P :    0.611810
   4 S :   -0.298332
   5 O :   -0.360194
   6 C :   -0.012064
   7 C :   -0.291556
   8 S :   -0.132484
   9 C :   -0.330349
  10 S :   -0.135628
  11 P :    0.599773
  12 S :   -0.278341
  13 O :   -0.352325
  14 C :   -0.023260
  15 C :   -0.291208
  16 O :   -0.378772
  17 C :   -0.013521
  18 C :   -0.304683
  19 H :    0.109040
  20 H :    0.176719
  21 H :    0.112424
  22 H :    0.113787
  23 H :    0.102181
  24 H :    0.106818
  25 H :    0.099003
  26 H :    0.107939
  27 H :    0.123110
  28 H :    0.120149
  29 H :    0.213688
  30 H :    0.179396
  31 H :    0.112217
  32 H :    0.116405
  33 H :    0.122693
  34 H :    0.124306
  35 H :    0.110575
  36 H :    0.105828
  37 H :    0.118766
  38 H :    0.109552
  39 H :    0.107965
  40 H :    0.134464
Sum of atomic charges:    0.0000000

LOEWDIN ATOMIC CHARGES
----------------------
   0 C :   -0.378552
   1 C :   -0.115278
   2 O :   -0.245389
   3 P :    0.569311
   4 S :   -0.293807
   5 O :   -0.241352
   6 C :   -0.117257
   7 C :   -0.360506
   8 S :    0.065162
   9 C :   -0.479032
  10 S :    0.066001
  11 P :    0.564209
  12 S :   -0.273857
  13 O :   -0.233720
  14 C :   -0.111660
  15 C :   -0.360656
  16 O :   -0.247223
  17 C :   -0.117696
  18 C :   -0.364984
  19 H :    0.119381
  20 H :    0.122482
  21 H :    0.131472
  22 H :    0.114360
  23 H :    0.116741
  24 H :    0.119774
  25 H :    0.100990
  26 H :    0.128599
  27 H :    0.126014
  28 H :    0.128986
  29 H :    0.124498
  30 H :    0.133469
  31 H :    0.104500
  32 H :    0.124566
  33 H :    0.130677
  34 H :    0.126148
  35 H :    0.129853
  36 H :    0.118850
  37 H :    0.110861
  38 H :    0.123867
  39 H :    0.129503
  40 H :    0.110694

  Mayer bond orders larger than 0.100000
B(  0-C ,  1-C ) :   1.1645 B(  0-C , 19-H ) :   0.9438 B(  0-C , 20-H ) :   0.9139
B(  0-C , 21-H ) :   0.9364 B(  1-C ,  2-O ) :   0.9040 B(  1-C , 22-H ) :   0.9161
B(  1-C , 23-H ) :   0.9338 B(  2-O ,  3-P ) :   1.0880 B(  3-P ,  4-S ) :   1.6595
B(  3-P ,  5-O ) :   1.1287 B(  3-P ,  8-S ) :   0.9482 B(  4-S ,  8-S ) :   0.1113
B(  5-O ,  6-C ) :   0.9005 B(  6-C ,  7-C ) :   1.1638 B(  6-C , 24-H ) :   0.9367
B(  6-C , 25-H ) :   0.9082 B(  7-C , 26-H ) :   0.9395 B(  7-C , 27-H ) :   0.9413
B(  7-C , 28-H ) :   0.9472 B(  8-S ,  9-C ) :   0.9721 B(  9-C , 10-S ) :   1.0263
B(  9-C , 29-H ) :   0.8525 B(  9-C , 30-H ) :   0.9058 B( 10-S , 11-P ) :   0.9180
B( 10-S , 12-S ) :   0.1138 B( 11-P , 12-S ) :   1.6738 B( 11-P , 13-O ) :   1.1481
B( 11-P , 16-O ) :   1.0802 B( 13-O , 14-C ) :   0.8958 B( 14-C , 15-C ) :   1.1633
B( 14-C , 31-H ) :   0.9148 B( 14-C , 32-H ) :   0.9357 B( 15-C , 33-H ) :   0.9465
B( 15-C , 34-H ) :   0.9394 B( 15-C , 35-H ) :   0.9387 B( 16-O , 17-C ) :   0.9025
B( 17-C , 18-C ) :   1.1704 B( 17-C , 36-H ) :   0.9353 B( 17-C , 37-H ) :   0.9045
B( 18-C , 38-H ) :   0.9463 B( 18-C , 39-H ) :   0.9396 B( 18-C , 40-H ) :   0.9267

Dispersion correction           -0.064601229
FINAL SINGLE POINT ENERGY     -2929.514443109248

DIPOLE MOMENT
-------------

Method             : SCF
Type of density    : Electron Density
Multiplicity       :   1
Irrep              :   0
Energy             : -2929.6348769929991249 Eh
Relativity type    :
Basis              : AO
                                X                 Y                 Z
Electronic contribution:      4.628101257      17.420788212       5.037191805
Nuclear contribution   :     -5.516047033     -19.348083831      -4.796978060
                        -----------------------------------------
Total Dipole Moment    :     -0.887945776      -1.927295618       0.240213745
                        -----------------------------------------
Magnitude (a.u.)       :      2.135560522
Magnitude (Debye)      :      5.428163465

Rotational constants in cm-1:             0.014112             0.004345             0.004313
Rotational constants in MHz :           423.058958           130.268604           129.303882

                             ****ORCA TERMINATED NORMALLY****
TOTAL RUN TIME: 0 days 0 hours 0 minutes 21 seconds 61 msec
