                         Program Version 6.0.0  -   RELEASE  -
|  1> ! wb97x-v def2-tzvp def2/J RIJCOSX DEFGRID2 scfconv7 GCP(DFT/TZ) printgap
|  2> %output
|  3>     printlevel normal
|  4> end
|  5> * xyz 0 1
|  6> C -2.525477289756628 0.7856918461094081 -0.0001298624630913357
|  7> C -1.221431044172533 0.032478903703561934 -7.987764453615192e-05
|  8> C -1.243057255206811 -1.3667176749876484 3.539961500177337e-06
|  9> C -0.06372982222580147 -2.1024675528359547 9.662257929347485e-05
| 10> C 1.1590157107495722 -1.4396176108963052 6.320471965802087e-05
| 11> C 1.2133830808105324 -0.04378559736228641 -3.8125636709681945e-05
| 12> C 0.01720894968762802 0.7020869165330583 -8.823018453512979e-05
| 13> C 0.09813928296155036 2.2040118360629593 0.0001841341752661107
| 14> C 2.544167792745697 0.654348927042685 -0.00014173274747689206
| 15> H -2.621351583211811 1.4302066602252594 -0.8809938621247225
| 16> H -3.3673808048337897 0.08915556293460888 9.270257310834296e-06
| 17> H -2.6212650312090866 1.4305098668020173 0.8805179164731102
| 18> H -2.200846296114502 -1.8801679526030661 2.729681958410918e-05
| 19> H -0.0973595713331772 -3.1879683560946477 0.00020605256185240246
| 20> H 2.0860751294031967 -2.0068265740493207 0.00014232655164506385
| 21> H 0.647505882984781 2.5674591372169258 -0.8764216650247875
| 22> H -0.8847175227319892 2.674412512184303 -0.0022414200680237802
| 23> H 0.6430252950556129 2.5672791658442713 0.8796989470864034
| 24> H 3.362547311028735 -0.06951682830492871 0.0008903717896805617
| 25> H 2.6587530090338554 1.299013365878574 -0.8795136531772316
| 26> H 2.658030595298707 1.3007994334004656 0.8779969477323061
| 27> *
| 28>
| 29>                          ****END OF INPUT****

CARTESIAN COORDINATES (ANGSTROEM)
---------------------------------
  C     -2.525477    0.785692   -0.000130
  C     -1.221431    0.032479   -0.000080
  C     -1.243057   -1.366718    0.000004
  C     -0.063730   -2.102468    0.000097
  C      1.159016   -1.439618    0.000063
  C      1.213383   -0.043786   -0.000038
  C      0.017209    0.702087   -0.000088
  C      0.098139    2.204012    0.000184
  C      2.544168    0.654349   -0.000142
  H     -2.621352    1.430207   -0.880994
  H     -3.367381    0.089156    0.000009
  H     -2.621265    1.430510    0.880518
  H     -2.200846   -1.880168    0.000027
  H     -0.097360   -3.187968    0.000206
  H      2.086075   -2.006827    0.000142
  H      0.647506    2.567459   -0.876422
  H     -0.884718    2.674413   -0.002241
  H      0.643025    2.567279    0.879699
  H      3.362547   -0.069517    0.000890
  H      2.658753    1.299013   -0.879514
  H      2.658031    1.300799    0.877997

 Total Charge           Charge          ....    0
 Multiplicity           Mult            ....    1
 Number of Electrons    NEL             ....   66
 Basis Dimension        Dim             ....  351

ORBITAL ENERGIES
----------------

  NO   OCC          E(Eh)            E(eV)
   0   2.0000     -12.053551      -327.9938
   1   2.0000     -12.052555      -327.9667
   2   2.0000     -12.050225      -327.9033
   3   2.0000     -12.042036      -327.6805
   4   2.0000     -12.040840      -327.6479
   5   2.0000     -12.040744      -327.6453
   6   2.0000     -12.040337      -327.6342
   7   2.0000     -12.039165      -327.6023
   8   2.0000     -12.038219      -327.5766
   9   2.0000      -1.382146       -37.6101
  10   2.0000      -1.297395       -35.3039
  11   2.0000      -1.291279       -35.1375
  12   2.0000      -1.218215       -33.1493
  13   2.0000      -1.184090       -32.2207
  14   2.0000      -1.166803       -31.7503
  15   2.0000      -1.071347       -29.1528
  16   2.0000      -1.066034       -29.0083
  17   2.0000      -0.959259       -26.1028
  18   2.0000      -0.939347       -25.5609
  19   2.0000      -0.898595       -24.4520
  20   2.0000      -0.862489       -23.4695
  21   2.0000      -0.861076       -23.4311
  22   2.0000      -0.850866       -23.1532
  23   2.0000      -0.834405       -22.7053
  24   2.0000      -0.831101       -22.6154
  25   2.0000      -0.831030       -22.6135
  26   2.0000      -0.819072       -22.2881
  27   2.0000      -0.808977       -22.0134
  28   2.0000      -0.795374       -21.6432
  29   2.0000      -0.794197       -21.6112
  30   2.0000      -0.743512       -20.2320
  31   2.0000      -0.623405       -16.9637
  32   2.0000      -0.622083       -16.9277
  33   0.0000      -0.233649        -6.3579
  34   0.0000      -0.230614        -6.2753
  35   0.0000      -0.069128        -1.8811
  36   0.0000      -0.060138        -1.6364
  37   0.0000      -0.023407        -0.6369

MULLIKEN ATOMIC CHARGES
-----------------------
   0 C :   -0.401448
   1 C :    0.172938
   2 C :   -0.216917
   3 C :   -0.110269
   4 C :   -0.219032
   5 C :    0.128411
   6 C :   -0.047326
   7 C :   -0.379198
   8 C :   -0.346999
   9 H :    0.129641
  10 H :    0.116810
  11 H :    0.129697
  12 H :    0.103361
  13 H :    0.111222
  14 H :    0.104056
  15 H :    0.122033
  16 H :    0.127512
  17 H :    0.122270
  18 H :    0.116439
  19 H :    0.118478
  20 H :    0.118323
Sum of atomic charges:   -0.0000000

LOEWDIN ATOMIC CHARGES
----------------------
   0 C :   -0.256238
   1 C :   -0.142525
   2 C :   -0.126363
   3 C :   -0.145675
   4 C :   -0.126287
   5 C :   -0.142144
   6 C :   -0.116901
   7 C :   -0.246908
   8 C :   -0.249419
   9 H :    0.125294
  10 H :    0.124241
  11 H :    0.125300
  12 H :    0.141114
  13 H :    0.140190
  14 H :    0.141144
  15 H :    0.127545
  16 H :    0.124724
  17 H :    0.127577
  18 H :    0.124035
  19 H :    0.125650
  20 H :    0.125647

  Mayer bond orders larger than 0.100000
B(  0-C ,  1-C ) :   0.8937 B(  0-C ,  9-H ) :   0.9858 B(  0-C , 10-H ) :   0.9882
B(  0-C , 11-H ) :   0.9858 B(  1-C ,  2-C ) :   1.4179 B(  1-C ,  6-C ) :   1.3751
B(  2-C ,  3-C ) :   1.4313 B(  2-C , 12-H ) :   0.9740 B(  3-C ,  4-C ) :   1.4183
B(  3-C , 13-H ) :   0.9826 B(  4-C ,  5-C ) :   1.4283 B(  4-C , 14-H ) :   0.9748
B(  5-C ,  6-C ) :   1.3533 B(  5-C ,  8-C ) :   0.9285 B(  6-C ,  7-C ) :   0.9193
B(  7-C , 15-H ) :   0.9843 B(  7-C , 16-H ) :   0.9930 B(  7-C , 17-H ) :   0.9846
B(  8-C , 18-H ) :   0.9883 B(  8-C , 19-H ) :   0.9792 B(  8-C , 20-H ) :   0.9790

FINAL SINGLE POINT ENERGY      -350.206659019015

DIPOLE MOMENT
-------------

Method             : SCF
Type of density    : Electron Density
Multiplicity       :   1
Irrep              :   0
Energy             :  -350.2195805634149792 Eh
Relativity type    :
Basis              : AO
                                X                 Y                 Z
Electronic contribution:     -0.232458416      -5.608898315      -0.000321286
Nuclear contribution   :      0.246426672       5.889160493       0.000415383
                        -----------------------------------------
Total Dipole Moment    :      0.013968257       0.280262178       0.000094096
                        -----------------------------------------
Magnitude (a.u.)       :      0.280610066
Magnitude (Debye)      :      0.713254105

Rotational constants in cm-1:             0.073982             0.057865             0.033065
Rotational constants in MHz :          2217.928634          1734.761157           991.258591

                             ****ORCA TERMINATED NORMALLY****
TOTAL RUN TIME: 0 days 0 hours 3 minutes 49 seconds 981 msec
