                         Program Version 6.0.0  -   RELEASE  -
|  1> ! wb97x-v def2-tzvp def2/J RIJCOSX DEFGRID2 scfconv7 GCP(DFT/TZ) printgap
|  2> %output
|  3>     printlevel normal
|  4> end
|  5> %cpcm
|  6>     smd true
|  7>     smdsolvent "water"
|  8> end
|  9> * xyz 0 1
| 10> C -2.525477289756628 0.7856918461094081 -0.0001298624630913357
| 11> C -1.221431044172533 0.032478903703561934 -7.987764453615192e-05
| 12> C -1.243057255206811 -1.3667176749876484 3.539961500177337e-06
| 13> C -0.06372982222580147 -2.1024675528359547 9.662257929347485e-05
| 14> C 1.1590157107495722 -1.4396176108963052 6.320471965802087e-05
| 15> C 1.2133830808105324 -0.04378559736228641 -3.8125636709681945e-05
| 16> C 0.01720894968762802 0.7020869165330583 -8.823018453512979e-05
| 17> C 0.09813928296155036 2.2040118360629593 0.0001841341752661107
| 18> C 2.544167792745697 0.654348927042685 -0.00014173274747689206
| 19> H -2.621351583211811 1.4302066602252594 -0.8809938621247225
| 20> H -3.3673808048337897 0.08915556293460888 9.270257310834296e-06
| 21> H -2.6212650312090866 1.4305098668020173 0.8805179164731102
| 22> H -2.200846296114502 -1.8801679526030661 2.729681958410918e-05
| 23> H -0.0973595713331772 -3.1879683560946477 0.00020605256185240246
| 24> H 2.0860751294031967 -2.0068265740493207 0.00014232655164506385
| 25> H 0.647505882984781 2.5674591372169258 -0.8764216650247875
| 26> H -0.8847175227319892 2.674412512184303 -0.0022414200680237802
| 27> H 0.6430252950556129 2.5672791658442713 0.8796989470864034
| 28> H 3.362547311028735 -0.06951682830492871 0.0008903717896805617
| 29> H 2.6587530090338554 1.299013365878574 -0.8795136531772316
| 30> H 2.658030595298707 1.3007994334004656 0.8779969477323061
| 31> *
| 32>
| 33>                          ****END OF INPUT****

CARTESIAN COORDINATES (ANGSTROEM)
---------------------------------
  C     -2.525477    0.785692   -0.000130
  C     -1.221431    0.032479   -0.000080
  C     -1.243057   -1.366718    0.000004
  C     -0.063730   -2.102468    0.000097
  C      1.159016   -1.439618    0.000063
  C      1.213383   -0.043786   -0.000038
  C      0.017209    0.702087   -0.000088
  C      0.098139    2.204012    0.000184
  C      2.544168    0.654349   -0.000142
  H     -2.621352    1.430207   -0.880994
  H     -3.367381    0.089156    0.000009
  H     -2.621265    1.430510    0.880518
  H     -2.200846   -1.880168    0.000027
  H     -0.097360   -3.187968    0.000206
  H      2.086075   -2.006827    0.000142
  H      0.647506    2.567459   -0.876422
  H     -0.884718    2.674413   -0.002241
  H      0.643025    2.567279    0.879699
  H      3.362547   -0.069517    0.000890
  H      2.658753    1.299013   -0.879514
  H      2.658031    1.300799    0.877997

 Total Charge           Charge          ....    0
 Multiplicity           Mult            ....    1
 Number of Electrons    NEL             ....   66
 Basis Dimension        Dim             ....  351

ORBITAL ENERGIES
----------------

  NO   OCC          E(Eh)            E(eV)
   0   2.0000     -12.053167      -327.9833
   1   2.0000     -12.052154      -327.9558
   2   2.0000     -12.049512      -327.8839
   3   2.0000     -12.041780      -327.6735
   4   2.0000     -12.038429      -327.5823
   5   2.0000     -12.037604      -327.5599
   6   2.0000     -12.031682      -327.3987
   7   2.0000     -12.031509      -327.3940
   8   2.0000     -12.030222      -327.3590
   9   2.0000      -1.382553       -37.6212
  10   2.0000      -1.295519       -35.2529
  11   2.0000      -1.290137       -35.1064
  12   2.0000      -1.211699       -32.9720
  13   2.0000      -1.180391       -32.1201
  14   2.0000      -1.161554       -31.6075
  15   2.0000      -1.069183       -29.0940
  16   2.0000      -1.063470       -28.9385
  17   2.0000      -0.958111       -26.0715
  18   2.0000      -0.936755       -25.4904
  19   2.0000      -0.894050       -24.3283
  20   2.0000      -0.859118       -23.3778
  21   2.0000      -0.857910       -23.3449
  22   2.0000      -0.844150       -22.9705
  23   2.0000      -0.827081       -22.5060
  24   2.0000      -0.824098       -22.4248
  25   2.0000      -0.822851       -22.3909
  26   2.0000      -0.809818       -22.0363
  27   2.0000      -0.799707       -21.7611
  28   2.0000      -0.790508       -21.5108
  29   2.0000      -0.789211       -21.4755
  30   2.0000      -0.744350       -20.2548
  31   2.0000      -0.624850       -17.0030
  32   2.0000      -0.623149       -16.9568
  33   0.0000      -0.234741        -6.3876
  34   0.0000      -0.231951        -6.3117
  35   0.0000      -0.069259        -1.8846
  36   0.0000      -0.054899        -1.4939
  37   0.0000      -0.012818        -0.3488

MULLIKEN ATOMIC CHARGES
-----------------------
   0 C :   -0.424178
   1 C :    0.139625
   2 C :   -0.270660
   3 C :   -0.155221
   4 C :   -0.271904
   5 C :    0.103252
   6 C :   -0.060349
   7 C :   -0.419344
   8 C :   -0.389209
   9 H :    0.147163
  10 H :    0.141069
  11 H :    0.147188
  12 H :    0.149372
  13 H :    0.155259
  14 H :    0.149716
  15 H :    0.143005
  16 H :    0.149678
  17 H :    0.143175
  18 H :    0.140821
  19 H :    0.140844
  20 H :    0.140700
Sum of atomic charges:   -0.0000000

LOEWDIN ATOMIC CHARGES
----------------------
   0 C :   -0.257812
   1 C :   -0.151541
   2 C :   -0.140877
   3 C :   -0.162840
   4 C :   -0.140525
   5 C :   -0.150237
   6 C :   -0.122280
   7 C :   -0.248184
   8 C :   -0.252212
   9 H :    0.130668
  10 H :    0.128888
  11 H :    0.130667
  12 H :    0.150279
  13 H :    0.148489
  14 H :    0.150306
  15 H :    0.133055
  16 H :    0.129388
  17 H :    0.133085
  18 H :    0.128729
  19 H :    0.131483
  20 H :    0.131472

  Mayer bond orders larger than 0.100000
B(  0-C ,  1-C ) :   0.9168 B(  0-C ,  9-H ) :   0.9782 B(  0-C , 10-H ) :   0.9833
B(  0-C , 11-H ) :   0.9781 B(  1-C ,  2-C ) :   1.3960 B(  1-C ,  6-C ) :   1.3547
B(  2-C ,  3-C ) :   1.4072 B(  2-C , 12-H ) :   0.9824 B(  3-C ,  4-C ) :   1.3944
B(  3-C , 13-H ) :   0.9871 B(  4-C ,  5-C ) :   1.4072 B(  4-C , 14-H ) :   0.9833
B(  5-C ,  6-C ) :   1.3334 B(  5-C ,  8-C ) :   0.9414 B(  6-C ,  7-C ) :   0.9387
B(  7-C , 15-H ) :   0.9780 B(  7-C , 16-H ) :   0.9870 B(  7-C , 17-H ) :   0.9781
B(  8-C , 18-H ) :   0.9830 B(  8-C , 19-H ) :   0.9735 B(  8-C , 20-H ) :   0.9733

FINAL SINGLE POINT ENERGY      -350.207848237206

DIPOLE MOMENT
-------------

Method             : SCF
Type of density    : Electron Density
Multiplicity       :   1
Irrep              :   0
Energy             :  -350.2207697816060090 Eh
Relativity type    :
Basis              : AO
                                X                 Y                 Z
Electronic contribution:     -0.216348085      -5.420400887      -0.000320099
Nuclear contribution   :      0.246426672       5.889160493       0.000415383
                        -----------------------------------------
Total Dipole Moment    :      0.030078587       0.468759606       0.000095284
                        -----------------------------------------
Magnitude (a.u.)       :      0.469723641
Magnitude (Debye)      :      1.193942610

Rotational constants in cm-1:             0.073982             0.057865             0.033065
Rotational constants in MHz :          2217.928634          1734.761157           991.258591

                             ****ORCA TERMINATED NORMALLY****
TOTAL RUN TIME: 0 days 0 hours 3 minutes 39 seconds 9 msec
