                         Program Version 6.0.1  -  RELEASE   -
|  1> ! pbe def2-sv(p) def2/J RI DEFGRID1 loosescf d4 GCP(DFT/SV(P)) printgap
|  2> %output
|  3>     printlevel normal
|  4> end
|  5> * xyz 0 1
|  6> C 4.9492148564 0.4725318296 -1.6578851207
|  7> C 4.6476217787 -0.7467457052 -0.8039724992
|  8> O 3.2664408213 -1.1135401515 -0.9931698781
|  9> C 2.4890398834 -1.275692472 0.0547588765
| 10> O 2.8521777319 -1.2170179199 1.2078480466
| 11> C 1.0545034809 -1.5449064557 -0.3704756977
| 12> C 0.5027210917 -0.3353065176 -1.1338926791
| 13> H 1.1015722692 -0.1572928681 -2.0296295421
| 14> C 0.5112150294 0.8910013884 -0.2475515775
| 15> O -0.5171147071 1.3927578288 0.1723428561
| 16> O 1.7086814781 1.3130552043 0.0219949823
| 17> C 1.8718707095 2.3903793851 0.9777999456
| 18> C 3.2254360943 2.23151997 1.6418274537
| 19> S -1.2076835562 -0.6022754498 -1.7044468305
| 20> P -2.3315971692 -0.231646185 0.0481078352
| 21> S -1.7581172917 -0.6566591433 1.8884368771
| 22> O -3.2151493703 1.0934268487 -0.1027396715
| 23> C -3.0669421242 2.2999019046 0.6440806714
| 24> O -3.4279797767 -1.290639075 -0.4673845001
| 25> C -4.6056767233 -1.5754648049 0.2897231824
| 26> H 5.9825577406 0.7679126365 -1.509484611
| 27> H 4.7901326858 0.2415579932 -2.7068228774
| 28> H 4.295760978 1.2941408527 -1.3774074382
| 29> H 4.8129917998 -0.551250896 0.2588416334
| 30> H 5.2469096838 -1.6054300939 -1.1151849773
| 31> H 0.4579660397 -1.745070551 0.5222572504
| 32> H 1.0287583135 -2.4122919559 -1.029831624
| 33> H 1.7963337543 3.3315079734 0.4270359823
| 34> H 1.0557328094 2.3299090255 1.7030299201
| 35> H 3.3015093005 1.244157843 2.0913929881
| 36> H 4.0230474468 2.3511137913 0.9151838145
| 37> H 3.3316769472 2.9837927022 2.4160876662
| 38> H -2.6203277921 2.0876850127 1.6165696861
| 39> H -4.0711050311 2.7009370942 0.7645446465
| 40> H -2.4353959875 2.9937781038 0.0933795073
| 41> H -4.3473900678 -1.735063314 1.3390891479
| 42> H -5.0201719863 -2.4837404137 -0.140424639
| 43> H -5.3141587129 -0.7520213744 0.2046151887
| 44> *
| 45>
| 46>                          ****END OF INPUT****

CARTESIAN COORDINATES (ANGSTROEM)
---------------------------------
  C      4.949215    0.472532   -1.657885
  C      4.647622   -0.746746   -0.803972
  O      3.266441   -1.113540   -0.993170
  C      2.489040   -1.275692    0.054759
  O      2.852178   -1.217018    1.207848
  C      1.054503   -1.544906   -0.370476
  C      0.502721   -0.335307   -1.133893
  H      1.101572   -0.157293   -2.029630
  C      0.511215    0.891001   -0.247552
  O     -0.517115    1.392758    0.172343
  O      1.708681    1.313055    0.021995
  C      1.871871    2.390379    0.977800
  C      3.225436    2.231520    1.641827
  S     -1.207684   -0.602275   -1.704447
  P     -2.331597   -0.231646    0.048108
  S     -1.758117   -0.656659    1.888437
  O     -3.215149    1.093427   -0.102740
  C     -3.066942    2.299902    0.644081
  O     -3.427980   -1.290639   -0.467385
  C     -4.605677   -1.575465    0.289723
  H      5.982558    0.767913   -1.509485
  H      4.790133    0.241558   -2.706823
  H      4.295761    1.294141   -1.377407
  H      4.812992   -0.551251    0.258842
  H      5.246910   -1.605430   -1.115185
  H      0.457966   -1.745071    0.522257
  H      1.028758   -2.412292   -1.029832
  H      1.796334    3.331508    0.427036
  H      1.055733    2.329909    1.703030
  H      3.301509    1.244158    2.091393
  H      4.023047    2.351114    0.915184
  H      3.331677    2.983793    2.416088
  H     -2.620328    2.087685    1.616570
  H     -4.071105    2.700937    0.764545
  H     -2.435396    2.993778    0.093380
  H     -4.347390   -1.735063    1.339089
  H     -5.020172   -2.483740   -0.140425
  H     -5.314159   -0.752021    0.204615

 Total Charge           Charge          ....    0
 Multiplicity           Mult            ....    1
 Number of Electrons    NEL             ....  174
 Basis Dimension        Dim             ....  316

ORBITAL ENERGIES
----------------

  NO   OCC          E(Eh)            E(eV)
   0   2.0000     -88.033550     -2395.5147
   1   2.0000     -87.967747     -2393.7241
   2   2.0000     -76.416417     -2079.3964
   3   2.0000     -18.834099      -512.5019
   4   2.0000     -18.807816      -511.7867
   5   2.0000     -18.778353      -510.9850
   6   2.0000     -18.769642      -510.7479
   7   2.0000     -18.766897      -510.6732
   8   2.0000     -18.741094      -509.9711
   9   2.0000     -10.037495      -273.1341
  10   2.0000     -10.013531      -272.4820
  11   2.0000      -9.964548      -271.1491
  12   2.0000      -9.955396      -270.9001
  13   2.0000      -9.953562      -270.8502
  14   2.0000      -9.931130      -270.2398
  15   2.0000      -9.927219      -270.1334
  16   2.0000      -9.908250      -269.6172
  17   2.0000      -9.896497      -269.2974
  18   2.0000      -9.896031      -269.2847
  19   2.0000      -7.678859      -208.9524
  20   2.0000      -7.612761      -207.1538
  21   2.0000      -6.411861      -174.4756
  22   2.0000      -5.707177      -155.3002
  23   2.0000      -5.703515      -155.2005
  24   2.0000      -5.695138      -154.9726
  25   2.0000      -5.641949      -153.5253
  26   2.0000      -5.633697      -153.3007
  27   2.0000      -5.632335      -153.2636
  28   2.0000      -4.634571      -126.1131
  29   2.0000      -4.633849      -126.0934
  30   2.0000      -4.632486      -126.0563
  31   2.0000      -1.044028       -28.4094
  32   2.0000      -1.015286       -27.6273
  33   2.0000      -0.967010       -26.3137
  34   2.0000      -0.947358       -25.7789
  35   2.0000      -0.921441       -25.0737
  36   2.0000      -0.918846       -25.0031
  37   2.0000      -0.771086       -20.9823
  38   2.0000      -0.722824       -19.6690
  39   2.0000      -0.717333       -19.5196
  40   2.0000      -0.688325       -18.7303
  41   2.0000      -0.652413       -17.7530
  42   2.0000      -0.626428       -17.0460
  43   2.0000      -0.616370       -16.7723
  44   2.0000      -0.613413       -16.6918
  45   2.0000      -0.594437       -16.1755
  46   2.0000      -0.565833       -15.3971
  47   2.0000      -0.527390       -14.3510
  48   2.0000      -0.513171       -13.9641
  49   2.0000      -0.503256       -13.6943
  50   2.0000      -0.487894       -13.2763
  51   2.0000      -0.472377       -12.8540
  52   2.0000      -0.466260       -12.6876
  53   2.0000      -0.456219       -12.4144
  54   2.0000      -0.452967       -12.3259
  55   2.0000      -0.438474       -11.9315
  56   2.0000      -0.417380       -11.3575
  57   2.0000      -0.415321       -11.3015
  58   2.0000      -0.409164       -11.1339
  59   2.0000      -0.406850       -11.0709
  60   2.0000      -0.399142       -10.8612
  61   2.0000      -0.390888       -10.6366
  62   2.0000      -0.389617       -10.6020
  63   2.0000      -0.382359       -10.4045
  64   2.0000      -0.377341       -10.2680
  65   2.0000      -0.369851       -10.0642
  66   2.0000      -0.365627        -9.9492
  67   2.0000      -0.363913        -9.9026
  68   2.0000      -0.350732        -9.5439
  69   2.0000      -0.348660        -9.4875
  70   2.0000      -0.340274        -9.2593
  71   2.0000      -0.334254        -9.0955
  72   2.0000      -0.330507        -8.9935
  73   2.0000      -0.316405        -8.6098
  74   2.0000      -0.307112        -8.3570
  75   2.0000      -0.299044        -8.1374
  76   2.0000      -0.291398        -7.9293
  77   2.0000      -0.289165        -7.8686
  78   2.0000      -0.274108        -7.4589
  79   2.0000      -0.263692        -7.1754
  80   2.0000      -0.260662        -7.0930
  81   2.0000      -0.256527        -6.9804
  82   2.0000      -0.245120        -6.6701
  83   2.0000      -0.228417        -6.2155
  84   2.0000      -0.209462        -5.6998
  85   2.0000      -0.188149        -5.1198
  86   2.0000      -0.180583        -4.9139
  87   0.0000      -0.052003        -1.4151
  88   0.0000      -0.041283        -1.1234
  89   0.0000      -0.024940        -0.6786
  90   0.0000       0.013079         0.3559
  91   0.0000       0.022203         0.6042

MULLIKEN ATOMIC CHARGES
-----------------------
   0 C :   -0.299347
   1 C :   -0.027254
   2 O :   -0.240701
   3 C :    0.097590
   4 O :   -0.190020
   5 C :   -0.038143
   6 C :   -0.341112
   7 H :    0.153824
   8 C :    0.237745
   9 O :   -0.199685
  10 O :   -0.216983
  11 C :   -0.030482
  12 C :   -0.311532
  13 S :   -0.055611
  14 P :    0.648265
  15 S :   -0.349383
  16 O :   -0.391660
  17 C :   -0.083726
  18 O :   -0.396059
  19 C :   -0.094553
  20 H :    0.113818
  21 H :    0.115283
  22 H :    0.118637
  23 H :    0.119327
  24 H :    0.109125
  25 H :    0.126559
  26 H :    0.123227
  27 H :    0.110865
  28 H :    0.130924
  29 H :    0.154135
  30 H :    0.117416
  31 H :    0.116612
  32 H :    0.113732
  33 H :    0.113973
  34 H :    0.109454
  35 H :    0.111522
  36 H :    0.118755
  37 H :    0.105461
Sum of atomic charges:    0.0000000

LOEWDIN ATOMIC CHARGES
----------------------
   0 C :   -0.354102
   1 C :   -0.110117
   2 O :   -0.061885
   3 C :    0.021803
   4 O :   -0.159619
   5 C :   -0.246690
   6 C :   -0.268398
   7 H :    0.147703
   8 C :    0.035238
   9 O :   -0.146260
  10 O :   -0.026869
  11 C :   -0.100936
  12 C :   -0.356208
  13 S :    0.125052
  14 P :    0.588452
  15 S :   -0.345559
  16 O :   -0.253437
  17 C :   -0.212557
  18 O :   -0.272823
  19 C :   -0.216394
  20 H :    0.130810
  21 H :    0.126139
  22 H :    0.122385
  23 H :    0.121029
  24 H :    0.119588
  25 H :    0.136944
  26 H :    0.144427
  27 H :    0.119758
  28 H :    0.128371
  29 H :    0.139882
  30 H :    0.123524
  31 H :    0.134049
  32 H :    0.107923
  33 H :    0.114682
  34 H :    0.110141
  35 H :    0.106885
  36 H :    0.119035
  37 H :    0.108034

  Mayer bond orders larger than 0.100000
B(  0-C ,  1-C ) :   1.1679 B(  0-C , 20-H ) :   0.9447 B(  0-C , 21-H ) :   0.9474
B(  0-C , 22-H ) :   0.9402 B(  1-C ,  2-O ) :   0.9081 B(  1-C , 23-H ) :   0.9068
B(  1-C , 24-H ) :   0.9356 B(  2-O ,  3-C ) :   1.1974 B(  3-C ,  4-O ) :   2.0584
B(  3-C ,  5-C ) :   1.0072 B(  5-C ,  6-C ) :   1.0191 B(  5-C , 25-H ) :   0.8760
B(  5-C , 26-H ) :   0.8891 B(  6-C ,  7-H ) :   0.8712 B(  6-C ,  8-C ) :   0.9107
B(  6-C , 13-S ) :   1.0454 B(  8-C ,  9-O ) :   1.9015 B(  8-C , 10-O ) :   1.2739
B(  9-O , 14-P ) :   0.1442 B( 10-O , 11-C ) :   0.8744 B( 11-C , 12-C ) :   1.1637
B( 11-C , 27-H ) :   0.9361 B( 11-C , 28-H ) :   0.9187 B( 12-C , 29-H ) :   0.9336
B( 12-C , 30-H ) :   0.9449 B( 12-C , 31-H ) :   0.9393 B( 13-S , 14-P ) :   0.9292
B( 13-S , 15-S ) :   0.1091 B( 14-P , 15-S ) :   1.5544 B( 14-P , 16-O ) :   1.0887
B( 14-P , 18-O ) :   1.0667 B( 16-O , 17-C ) :   0.9335 B( 17-C , 32-H ) :   0.9341
B( 17-C , 33-H ) :   0.9544 B( 17-C , 34-H ) :   0.9536 B( 18-O , 19-C ) :   0.9430
B( 19-C , 35-H ) :   0.9320 B( 19-C , 36-H ) :   0.9610 B( 19-C , 37-H ) :   0.9512

Dispersion correction           -0.052540081
FINAL SINGLE POINT ENERGY     -1979.009956387038

DIPOLE MOMENT
-------------

Method             : SCF
Type of density    : Electron Density
Multiplicity       :   1
Irrep              :   0
Energy             : -1979.1422889732225485 Eh
Relativity type    :
Basis              : AO
                                X                 Y                 Z
Electronic contribution:    -17.276225609      -9.166299242      -2.990092477
Nuclear contribution   :     18.518599713      10.457426602       2.241482208
                        -----------------------------------------
Total Dipole Moment    :      1.242374104       1.291127360      -0.748610269
                        -----------------------------------------
Magnitude (a.u.)       :      1.941885838
Magnitude (Debye)      :      4.935881540

Rotational constants in cm-1:             0.018234             0.005985             0.005445
Rotational constants in MHz :           546.638754           179.424988           163.233638

                             ****ORCA TERMINATED NORMALLY****
TOTAL RUN TIME: 0 days 0 hours 0 minutes 44 seconds 373 msec
