                         Program Version 6.0.0  -   RELEASE  -
|  1> ! pbe def2-sv(p) def2/J RI DEFGRID1 loosescf d4 GCP(DFT/SV(P)) printgap
|  2> %output
|  3>     printlevel normal
|  4> end
|  5> * xyz 0 1
|  6> C 5.0561047205 -1.314581266 -1.1045569771
|  7> C 4.7426985389 0.0489647524 -1.6805230504
|  8> O 3.3175573992 0.2709985444 -1.8443604629
|  9> P 2.2594437587 0.3256182221 -0.686527039
| 10> S 0.65211675 1.3040775193 -1.2380676872
| 11> O 3.0853358412 1.0257568121 0.4829379187
| 12> C 2.496884886 1.4554646522 1.7233233733
| 13> C 2.7682614038 0.4494319179 2.8254082014
| 14> S 1.9571025909 -1.7094852222 -0.1285913088
| 15> C 0.3284549039 -1.6740112166 0.6580259111
| 16> S -1.0815922357 -1.7318598391 -0.511441116
| 17> P -2.1749094715 -0.0440393624 0.1335378367
| 18> S -1.4451383991 0.9550626304 1.6589676205
| 19> O -3.6226097391 -0.644938281 0.4201299151
| 20> C -3.8779706554 -1.4548844037 1.5836694686
| 21> C -5.3762395014 -1.6522584908 1.6941284863
| 22> O -2.4652927189 0.7149747557 -1.2185253987
| 23> C -2.7200342382 2.1313974362 -1.2748611023
| 24> C -4.0510654287 2.4834480295 -0.645325684
| 25> H 6.1310473972 -1.4657146015 -1.1212067395
| 26> H 4.7042630535 -1.3841817033 -0.0776165988
| 27> H 4.5759474107 -2.0939797024 -1.6908470177
| 28> H 5.1237351299 0.1547947787 -2.69737836
| 29> H 5.1392961905 0.84506061 -1.0483725851
| 30> H 2.9721817849 2.4138485688 1.9415008838
| 31> H 1.4231874659 1.6206809572 1.5817057456
| 32> H 2.3295229174 0.8147661646 3.7483548309
| 33> H 2.3297736209 -0.516037569 2.5856504187
| 34> H 3.8389871267 0.3246592367 2.9587367565
| 35> H 0.2146010473 -0.7799024323 1.2771019309
| 36> H 0.2905363131 -2.5788324194 1.2591521079
| 37> H -3.3585096747 -2.4097401819 1.4582873227
| 38> H -3.4732558188 -0.9391511614 2.4611863188
| 39> H -5.8722214366 -0.6936691349 1.8162195341
| 40> H -5.7527285428 -2.1305498065 0.7946019371
| 41> H -5.5902172755 -2.2793609475 2.55322755
| 42> H -1.8936738459 2.652042276 -0.7793135456
| 43> H -2.6962280038 2.3566858991 -2.3418679334
| 44> H -4.8468722699 1.9078511884 -1.1107081996
| 45> H -4.027042921 2.2553132952 0.4198594862
| 46> H -4.2419305812 3.5438556207 -0.7763486857
| 47> *
| 48>
| 49>                          ****END OF INPUT****

CARTESIAN COORDINATES (ANGSTROEM)
---------------------------------
  C      5.056105   -1.314581   -1.104557
  C      4.742699    0.048965   -1.680523
  O      3.317557    0.270999   -1.844360
  P      2.259444    0.325618   -0.686527
  S      0.652117    1.304078   -1.238068
  O      3.085336    1.025757    0.482938
  C      2.496885    1.455465    1.723323
  C      2.768261    0.449432    2.825408
  S      1.957103   -1.709485   -0.128591
  C      0.328455   -1.674011    0.658026
  S     -1.081592   -1.731860   -0.511441
  P     -2.174909   -0.044039    0.133538
  S     -1.445138    0.955063    1.658968
  O     -3.622610   -0.644938    0.420130
  C     -3.877971   -1.454884    1.583669
  C     -5.376240   -1.652258    1.694128
  O     -2.465293    0.714975   -1.218525
  C     -2.720034    2.131397   -1.274861
  C     -4.051065    2.483448   -0.645326
  H      6.131047   -1.465715   -1.121207
  H      4.704263   -1.384182   -0.077617
  H      4.575947   -2.093980   -1.690847
  H      5.123735    0.154795   -2.697378
  H      5.139296    0.845061   -1.048373
  H      2.972182    2.413849    1.941501
  H      1.423187    1.620681    1.581706
  H      2.329523    0.814766    3.748355
  H      2.329774   -0.516038    2.585650
  H      3.838987    0.324659    2.958737
  H      0.214601   -0.779902    1.277102
  H      0.290536   -2.578832    1.259152
  H     -3.358510   -2.409740    1.458287
  H     -3.473256   -0.939151    2.461186
  H     -5.872221   -0.693669    1.816220
  H     -5.752729   -2.130550    0.794602
  H     -5.590217   -2.279361    2.553228
  H     -1.893674    2.652042   -0.779314
  H     -2.696228    2.356686   -2.341868
  H     -4.846872    1.907851   -1.110708
  H     -4.027043    2.255313    0.419859
  H     -4.241931    3.543856   -0.776349

 Total Charge           Charge          ....    0
 Multiplicity           Mult            ....    1
 Number of Electrons    NEL             ....  202
 Basis Dimension        Dim             ....  334

ORBITAL ENERGIES
----------------

  NO   OCC          E(Eh)            E(eV)
   0   2.0000     -88.041975     -2395.7439
   1   2.0000     -88.036982     -2395.6081
   2   2.0000     -87.987694     -2394.2669
   3   2.0000     -87.974882     -2393.9182
   4   2.0000     -76.423365     -2079.5855
   5   2.0000     -76.422449     -2079.5606
   6   2.0000     -18.791089      -511.3315
   7   2.0000     -18.788054      -511.2489
   8   2.0000     -18.785025      -511.1665
   9   2.0000     -18.784423      -511.1501
  10   2.0000      -9.957758      -270.9644
  11   2.0000      -9.954937      -270.8876
  12   2.0000      -9.948820      -270.7211
  13   2.0000      -9.947997      -270.6988
  14   2.0000      -9.945806      -270.6391
  15   2.0000      -9.891138      -269.1515
  16   2.0000      -9.885719      -269.0041
  17   2.0000      -9.885147      -268.9885
  18   2.0000      -9.878205      -268.7996
  19   2.0000      -7.686701      -209.1658
  20   2.0000      -7.682249      -209.0446
  21   2.0000      -7.632366      -207.6872
  22   2.0000      -7.619805      -207.3454
  23   2.0000      -6.420671      -174.7153
  24   2.0000      -6.419723      -174.6895
  25   2.0000      -5.714673      -155.5042
  26   2.0000      -5.710973      -155.4035
  27   2.0000      -5.710110      -155.3800
  28   2.0000      -5.706931      -155.2935
  29   2.0000      -5.703875      -155.2103
  30   2.0000      -5.699046      -155.0789
  31   2.0000      -5.661037      -154.0446
  32   2.0000      -5.653452      -153.8382
  33   2.0000      -5.652273      -153.8062
  34   2.0000      -5.648838      -153.7127
  35   2.0000      -5.640467      -153.4849
  36   2.0000      -5.639826      -153.4675
  37   2.0000      -4.642883      -126.3393
  38   2.0000      -4.642724      -126.3349
  39   2.0000      -4.642328      -126.3242
  40   2.0000      -4.641595      -126.3042
  41   2.0000      -4.641429      -126.2997
  42   2.0000      -4.639875      -126.2574
  43   2.0000      -0.986208       -26.8361
  44   2.0000      -0.981970       -26.7208
  45   2.0000      -0.941767       -25.6268
  46   2.0000      -0.939271       -25.5589
  47   2.0000      -0.757066       -20.6008
  48   2.0000      -0.719542       -19.5797
  49   2.0000      -0.710032       -19.3210
  50   2.0000      -0.691077       -18.8052
  51   2.0000      -0.683864       -18.6089
  52   2.0000      -0.673686       -18.3319
  53   2.0000      -0.649227       -17.6664
  54   2.0000      -0.631245       -17.1770
  55   2.0000      -0.598150       -16.2765
  56   2.0000      -0.588993       -16.0273
  57   2.0000      -0.577378       -15.7112
  58   2.0000      -0.562253       -15.2997
  59   2.0000      -0.557841       -15.1796
  60   2.0000      -0.500951       -13.6316
  61   2.0000      -0.496431       -13.5086
  62   2.0000      -0.474364       -12.9081
  63   2.0000      -0.471643       -12.8341
  64   2.0000      -0.454588       -12.3700
  65   2.0000      -0.445660       -12.1270
  66   2.0000      -0.440884       -11.9971
  67   2.0000      -0.430344       -11.7103
  68   2.0000      -0.425497       -11.5784
  69   2.0000      -0.421028       -11.4567
  70   2.0000      -0.410907       -11.1814
  71   2.0000      -0.392354       -10.6765
  72   2.0000      -0.391639       -10.6570
  73   2.0000      -0.383368       -10.4320
  74   2.0000      -0.381631       -10.3847
  75   2.0000      -0.370784       -10.0896
  76   2.0000      -0.366326        -9.9682
  77   2.0000      -0.360110        -9.7991
  78   2.0000      -0.354390        -9.6434
  79   2.0000      -0.350274        -9.5314
  80   2.0000      -0.343978        -9.3601
  81   2.0000      -0.343109        -9.3365
  82   2.0000      -0.339381        -9.2350
  83   2.0000      -0.335212        -9.1216
  84   2.0000      -0.331598        -9.0232
  85   2.0000      -0.314262        -8.5515
  86   2.0000      -0.308207        -8.3867
  87   2.0000      -0.297835        -8.1045
  88   2.0000      -0.296720        -8.0742
  89   2.0000      -0.291079        -7.9207
  90   2.0000      -0.280542        -7.6339
  91   2.0000      -0.274494        -7.4694
  92   2.0000      -0.269643        -7.3374
  93   2.0000      -0.259078        -7.0499
  94   2.0000      -0.253588        -6.9005
  95   2.0000      -0.231720        -6.3054
  96   2.0000      -0.221865        -6.0373
  97   2.0000      -0.213216        -5.8019
  98   2.0000      -0.203204        -5.5295
  99   2.0000      -0.185691        -5.0529
 100   2.0000      -0.182879        -4.9764
 101   0.0000      -0.038147        -1.0380
 102   0.0000      -0.028936        -0.7874
 103   0.0000      -0.015958        -0.4342
 104   0.0000       0.004485         0.1220
 105   0.0000       0.021071         0.5734

MULLIKEN ATOMIC CHARGES
-----------------------
   0 C :   -0.336250
   1 C :    0.006136
   2 O :   -0.359672
   3 P :    0.614345
   4 S :   -0.309229
   5 O :   -0.386556
   6 C :   -0.025179
   7 C :   -0.297438
   8 S :   -0.123401
   9 C :   -0.357230
  10 S :   -0.067207
  11 P :    0.626443
  12 S :   -0.332145
  13 O :   -0.372388
  14 C :   -0.007989
  15 C :   -0.278686
  16 O :   -0.360316
  17 C :   -0.008581
  18 C :   -0.302513
  19 H :    0.118251
  20 H :    0.131073
  21 H :    0.131238
  22 H :    0.112528
  23 H :    0.112460
  24 H :    0.105025
  25 H :    0.129507
  26 H :    0.113475
  27 H :    0.120363
  28 H :    0.110659
  29 H :    0.197805
  30 H :    0.177723
  31 H :    0.092580
  32 H :    0.099131
  33 H :    0.117983
  34 H :    0.117645
  35 H :    0.109373
  36 H :    0.122828
  37 H :    0.109282
  38 H :    0.116047
  39 H :    0.122411
  40 H :    0.110467
Sum of atomic charges:   -0.0000000

LOEWDIN ATOMIC CHARGES
----------------------
   0 C :   -0.374359
   1 C :   -0.107579
   2 O :   -0.233282
   3 P :    0.561993
   4 S :   -0.302462
   5 O :   -0.251956
   6 C :   -0.121473
   7 C :   -0.360030
   8 S :    0.072851
   9 C :   -0.484145
  10 S :    0.087516
  11 P :    0.580006
  12 S :   -0.311366
  13 O :   -0.250041
  14 C :   -0.124898
  15 C :   -0.350059
  16 O :   -0.229651
  17 C :   -0.115179
  18 C :   -0.365306
  19 H :    0.134130
  20 H :    0.119223
  21 H :    0.129230
  22 H :    0.123572
  23 H :    0.116132
  24 H :    0.119002
  25 H :    0.108496
  26 H :    0.131849
  27 H :    0.118689
  28 H :    0.123705
  29 H :    0.117305
  30 H :    0.134938
  31 H :    0.103646
  32 H :    0.104693
  33 H :    0.127424
  34 H :    0.127498
  35 H :    0.129478
  36 H :    0.111123
  37 H :    0.121712
  38 H :    0.126209
  39 H :    0.121351
  40 H :    0.130014

  Mayer bond orders larger than 0.100000
B(  0-C ,  1-C ) :   1.1713 B(  0-C , 19-H ) :   0.9347 B(  0-C , 20-H ) :   0.9318
B(  0-C , 21-H ) :   0.9410 B(  1-C ,  2-O ) :   0.8958 B(  1-C , 22-H ) :   0.9341
B(  1-C , 23-H ) :   0.9264 B(  2-O ,  3-P ) :   1.1504 B(  3-P ,  4-S ) :   1.6812
B(  3-P ,  5-O ) :   1.0618 B(  3-P ,  8-S ) :   0.9388 B(  4-S ,  8-S ) :   0.1134
B(  5-O ,  6-C ) :   0.9067 B(  6-C ,  7-C ) :   1.1658 B(  6-C , 24-H ) :   0.9348
B(  6-C , 25-H ) :   0.8966 B(  7-C , 26-H ) :   0.9407 B(  7-C , 27-H ) :   0.9372
B(  7-C , 28-H ) :   0.9470 B(  8-S ,  9-C ) :   0.9920 B(  9-C , 10-S ) :   1.0015
B(  9-C , 29-H ) :   0.8432 B(  9-C , 30-H ) :   0.9098 B( 10-S , 11-P ) :   0.9664
B( 10-S , 12-S ) :   0.1180 B( 11-P , 12-S ) :   1.5635 B( 11-P , 13-O ) :   1.0962
B( 11-P , 16-O ) :   1.1535 B( 12-S , 29-H ) :   0.1216 B( 13-O , 14-C ) :   0.9139
B( 14-C , 15-C ) :   1.1608 B( 14-C , 31-H ) :   0.9209 B( 14-C , 32-H ) :   0.9113
B( 15-C , 33-H ) :   0.9521 B( 15-C , 34-H ) :   0.9505 B( 15-C , 35-H ) :   0.9424
B( 16-O , 17-C ) :   0.8971 B( 17-C , 18-C ) :   1.1634 B( 17-C , 36-H ) :   0.9153
B( 17-C , 37-H ) :   0.9350 B( 18-C , 38-H ) :   0.9455 B( 18-C , 39-H ) :   0.9351
B( 18-C , 40-H ) :   0.9388

Dispersion correction           -0.065513046
FINAL SINGLE POINT ENERGY     -2929.514596460459

DIPOLE MOMENT
-------------

Method             : SCF
Type of density    : Electron Density
Multiplicity       :   1
Irrep              :   0
Energy             : -2929.6334098093020657 Eh
Relativity type    :
Basis              : AO
                                X                 Y                 Z
Electronic contribution:      3.113158159      -1.730884918     -11.992273523
Nuclear contribution   :     -2.587180473       1.321245625      12.863510243
                        -----------------------------------------
Total Dipole Moment    :      0.525977686      -0.409639293       0.871236719
                        -----------------------------------------
Magnitude (a.u.)       :      1.097046169
Magnitude (Debye)      :      2.788469759

Rotational constants in cm-1:             0.013967             0.004599             0.004382
Rotational constants in MHz :           418.732122           137.886398           131.366489

                             ****ORCA TERMINATED NORMALLY****
TOTAL RUN TIME: 0 days 0 hours 0 minutes 20 seconds 741 msec
