                         Program Version 6.0.0  -   RELEASE  -
|  1> ! pbe def2-sv(p) def2/J RI DEFGRID1 loosescf d4 GCP(DFT/SV(P)) printgap
|  2> %output
|  3>     printlevel normal
|  4> end
|  5> * xyz 0 1
|  6> C 2.5810570178 -2.7140129627 -2.1009229615
|  7> C 3.2425337864 -1.380377536 -1.8138788656
|  8> O 2.9661435419 -0.9602453835 -0.4623475415
|  9> P 2.104086422 0.3030318362 -0.0572467817
| 10> S 1.3060582826 1.2377066181 -1.5920710704
| 11> O 3.1970792163 1.1407289566 0.7339024137
| 12> C 2.9275884653 2.0804583189 1.7880437554
| 13> C 1.9660995281 3.173932428 1.3692723994
| 14> S 0.9373292027 -0.4782798121 1.5383105046
| 15> C 0.2268129445 -1.9234280223 0.7036507787
| 16> S -0.7073157731 -1.5264397752 -0.8045095807
| 17> P -2.0892525725 -0.1445064885 -0.0022564956
| 18> S -1.6192341942 1.6955699284 0.507020106
| 19> O -2.6700849404 -1.0417521345 1.1630468293
| 20> C -3.1491898789 -0.5304916153 2.426291358
| 21> C -2.2820164602 -1.060076292 3.5514479814
| 22> O -3.2691388444 -0.2027674393 -1.068577989
| 23> C -3.3423423435 0.6866786728 -2.1938613061
| 24> C -2.2531647541 0.4031494972 -3.2087418635
| 25> H 1.4971198178 -2.6130020707 -2.0788447008
| 26> H 2.8814699243 -3.0470852151 -3.0890115022
| 27> H 2.8912666294 -3.453126739 -1.3673650782
| 28> H 2.887199419 -0.608872556 -2.5052420061
| 29> H 4.3296951316 -1.4537548459 -1.8745387219
| 30> H 2.5355711704 1.5296768355 2.6485447904
| 31> H 3.9124375338 2.4864314395 2.026345794
| 32> H 2.325950049 3.6724633397 0.4720331519
| 33> H 0.980500701 2.7575304555 1.1580209025
| 34> H 1.870931197 3.8996941007 2.1703973422
| 35> H -0.4342554663 -2.3948046299 1.427634771
| 36> H 1.0250043069 -2.5977090669 0.4010542214
| 37> H -3.1294506656 0.5637330108 2.3984337453
| 38> H -4.1799194362 -0.8773999123 2.5141817301
| 39> H -1.2590339121 -0.7054183222 3.4356531058
| 40> H -2.6747957348 -0.7031451882 4.4978248746
| 41> H -2.2860657962 -2.1464620007 3.5501431626
| 42> H -4.336123269 0.5073335559 -2.6064176176
| 43> H -3.2698205593 1.7168348732 -1.8290871229
| 44> H -1.2753218254 0.6468610965 -2.7905170129
| 45> H -2.262167881 -0.6472269518 -3.4895727552
| 46> H -2.411926547 1.0150144054 -4.0907970631
| 47> *
| 48>
| 49>                          ****END OF INPUT****

CARTESIAN COORDINATES (ANGSTROEM)
---------------------------------
  C      2.581057   -2.714013   -2.100923
  C      3.242534   -1.380378   -1.813879
  O      2.966144   -0.960245   -0.462348
  P      2.104086    0.303032   -0.057247
  S      1.306058    1.237707   -1.592071
  O      3.197079    1.140729    0.733902
  C      2.927588    2.080458    1.788044
  C      1.966100    3.173932    1.369272
  S      0.937329   -0.478280    1.538311
  C      0.226813   -1.923428    0.703651
  S     -0.707316   -1.526440   -0.804510
  P     -2.089253   -0.144506   -0.002256
  S     -1.619234    1.695570    0.507020
  O     -2.670085   -1.041752    1.163047
  C     -3.149190   -0.530492    2.426291
  C     -2.282016   -1.060076    3.551448
  O     -3.269139   -0.202767   -1.068578
  C     -3.342342    0.686679   -2.193861
  C     -2.253165    0.403149   -3.208742
  H      1.497120   -2.613002   -2.078845
  H      2.881470   -3.047085   -3.089012
  H      2.891267   -3.453127   -1.367365
  H      2.887199   -0.608873   -2.505242
  H      4.329695   -1.453755   -1.874539
  H      2.535571    1.529677    2.648545
  H      3.912438    2.486431    2.026346
  H      2.325950    3.672463    0.472033
  H      0.980501    2.757530    1.158021
  H      1.870931    3.899694    2.170397
  H     -0.434255   -2.394805    1.427635
  H      1.025004   -2.597709    0.401054
  H     -3.129451    0.563733    2.398434
  H     -4.179919   -0.877400    2.514182
  H     -1.259034   -0.705418    3.435653
  H     -2.674796   -0.703145    4.497825
  H     -2.286066   -2.146462    3.550143
  H     -4.336123    0.507334   -2.606418
  H     -3.269821    1.716835   -1.829087
  H     -1.275322    0.646861   -2.790517
  H     -2.262168   -0.647227   -3.489573
  H     -2.411927    1.015014   -4.090797

 Total Charge           Charge          ....    0
 Multiplicity           Mult            ....    1
 Number of Electrons    NEL             ....  202
 Basis Dimension        Dim             ....  334

ORBITAL ENERGIES
----------------

  NO   OCC          E(Eh)            E(eV)
   0   2.0000     -88.042426     -2395.7562
   1   2.0000     -88.041793     -2395.7390
   2   2.0000     -87.980674     -2394.0759
   3   2.0000     -87.977133     -2393.9795
   4   2.0000     -76.423704     -2079.5947
   5   2.0000     -76.423543     -2079.5903
   6   2.0000     -18.790739      -511.3220
   7   2.0000     -18.788839      -511.2703
   8   2.0000     -18.785704      -511.1850
   9   2.0000     -18.784625      -511.1556
  10   2.0000      -9.962739      -271.0999
  11   2.0000      -9.952476      -270.8206
  12   2.0000      -9.951037      -270.7815
  13   2.0000      -9.948684      -270.7174
  14   2.0000      -9.945303      -270.6255
  15   2.0000      -9.888183      -269.0711
  16   2.0000      -9.887568      -269.0544
  17   2.0000      -9.876393      -268.7503
  18   2.0000      -9.874049      -268.6865
  19   2.0000      -7.687116      -209.1770
  20   2.0000      -7.686540      -209.1614
  21   2.0000      -7.625252      -207.4937
  22   2.0000      -7.621831      -207.4006
  23   2.0000      -6.421025      -174.7250
  24   2.0000      -6.420549      -174.7120
  25   2.0000      -5.715143      -155.5169
  26   2.0000      -5.714682      -155.5044
  27   2.0000      -5.711660      -155.4222
  28   2.0000      -5.711123      -155.4076
  29   2.0000      -5.703932      -155.2119
  30   2.0000      -5.703183      -155.1915
  31   2.0000      -5.654166      -153.8577
  32   2.0000      -5.650810      -153.7663
  33   2.0000      -5.645845      -153.6312
  34   2.0000      -5.645485      -153.6215
  35   2.0000      -5.642388      -153.5372
  36   2.0000      -5.642021      -153.5272
  37   2.0000      -4.643632      -126.3597
  38   2.0000      -4.643165      -126.3469
  39   2.0000      -4.642871      -126.3389
  40   2.0000      -4.642696      -126.3342
  41   2.0000      -4.641371      -126.2981
  42   2.0000      -4.640655      -126.2787
  43   2.0000      -0.983036       -26.7498
  44   2.0000      -0.982168       -26.7262
  45   2.0000      -0.942976       -25.6597
  46   2.0000      -0.941547       -25.6208
  47   2.0000      -0.764734       -20.8095
  48   2.0000      -0.719631       -19.5822
  49   2.0000      -0.709569       -19.3084
  50   2.0000      -0.682743       -18.5784
  51   2.0000      -0.682234       -18.5645
  52   2.0000      -0.670088       -18.2340
  53   2.0000      -0.650007       -17.6876
  54   2.0000      -0.635342       -17.2885
  55   2.0000      -0.596291       -16.2259
  56   2.0000      -0.589275       -16.0350
  57   2.0000      -0.571650       -15.5554
  58   2.0000      -0.569065       -15.4850
  59   2.0000      -0.564066       -15.3490
  60   2.0000      -0.498205       -13.5569
  61   2.0000      -0.496757       -13.5175
  62   2.0000      -0.469070       -12.7640
  63   2.0000      -0.468006       -12.7351
  64   2.0000      -0.461421       -12.5559
  65   2.0000      -0.438525       -11.9329
  66   2.0000      -0.435809       -11.8590
  67   2.0000      -0.431734       -11.7481
  68   2.0000      -0.426666       -11.6102
  69   2.0000      -0.415388       -11.3033
  70   2.0000      -0.411430       -11.1956
  71   2.0000      -0.397446       -10.8151
  72   2.0000      -0.390165       -10.6169
  73   2.0000      -0.386531       -10.5181
  74   2.0000      -0.380602       -10.3567
  75   2.0000      -0.377928       -10.2839
  76   2.0000      -0.368271       -10.0212
  77   2.0000      -0.358603        -9.7581
  78   2.0000      -0.353065        -9.6074
  79   2.0000      -0.348344        -9.4789
  80   2.0000      -0.343118        -9.3367
  81   2.0000      -0.339699        -9.2437
  82   2.0000      -0.338630        -9.2146
  83   2.0000      -0.337064        -9.1720
  84   2.0000      -0.329454        -8.9649
  85   2.0000      -0.321642        -8.7523
  86   2.0000      -0.304585        -8.2882
  87   2.0000      -0.295300        -8.0355
  88   2.0000      -0.290481        -7.9044
  89   2.0000      -0.283953        -7.7267
  90   2.0000      -0.279562        -7.6073
  91   2.0000      -0.275923        -7.5082
  92   2.0000      -0.269390        -7.3305
  93   2.0000      -0.258000        -7.0205
  94   2.0000      -0.252976        -6.8838
  95   2.0000      -0.250307        -6.8112
  96   2.0000      -0.220042        -5.9876
  97   2.0000      -0.207663        -5.6508
  98   2.0000      -0.188976        -5.1423
  99   2.0000      -0.183429        -4.9913
 100   2.0000      -0.182696        -4.9714
 101   0.0000      -0.053597        -1.4584
 102   0.0000      -0.032112        -0.8738
 103   0.0000      -0.012397        -0.3373
 104   0.0000      -0.008770        -0.2387
 105   0.0000       0.021192         0.5767

MULLIKEN ATOMIC CHARGES
-----------------------
   0 C :   -0.316202
   1 C :   -0.003395
   2 O :   -0.370563
   3 P :    0.613253
   4 S :   -0.299209
   5 O :   -0.364567
   6 C :   -0.016179
   7 C :   -0.327989
   8 S :   -0.125163
   9 C :   -0.346354
  10 S :   -0.101821
  11 P :    0.621553
  12 S :   -0.306008
  13 O :   -0.376353
  14 C :   -0.001958
  15 C :   -0.310762
  16 O :   -0.367563
  17 C :    0.001901
  18 C :   -0.348495
  19 H :    0.131351
  20 H :    0.114113
  21 H :    0.117753
  22 H :    0.113372
  23 H :    0.104777
  24 H :    0.112776
  25 H :    0.108450
  26 H :    0.123940
  27 H :    0.155548
  28 H :    0.106908
  29 H :    0.192174
  30 H :    0.190700
  31 H :    0.110355
  32 H :    0.106293
  33 H :    0.128586
  34 H :    0.113542
  35 H :    0.116544
  36 H :    0.102436
  37 H :    0.110592
  38 H :    0.157639
  39 H :    0.115483
  40 H :    0.112543
Sum of atomic charges:   -0.0000000

LOEWDIN ATOMIC CHARGES
----------------------
   0 C :   -0.361772
   1 C :   -0.119411
   2 O :   -0.242901
   3 P :    0.567573
   4 S :   -0.296290
   5 O :   -0.243742
   6 C :   -0.115655
   7 C :   -0.372948
   8 S :    0.076440
   9 C :   -0.470434
  10 S :    0.093688
  11 P :    0.569003
  12 S :   -0.298847
  13 O :   -0.244795
  14 C :   -0.117397
  15 C :   -0.360168
  16 O :   -0.245160
  17 C :   -0.119924
  18 C :   -0.375697
  19 H :    0.117739
  20 H :    0.132941
  21 H :    0.123319
  22 H :    0.107191
  23 H :    0.117722
  24 H :    0.105852
  25 H :    0.121088
  26 H :    0.129614
  27 H :    0.122317
  28 H :    0.128376
  29 H :    0.133855
  30 H :    0.132913
  31 H :    0.107467
  32 H :    0.117788
  33 H :    0.120614
  34 H :    0.132148
  35 H :    0.123178
  36 H :    0.117278
  37 H :    0.109881
  38 H :    0.122896
  39 H :    0.122525
  40 H :    0.131736

  Mayer bond orders larger than 0.100000
B(  0-C ,  1-C ) :   1.1669 B(  0-C , 19-H ) :   0.9327 B(  0-C , 20-H ) :   0.9379
B(  0-C , 21-H ) :   0.9433 B(  1-C ,  2-O ) :   0.9070 B(  1-C , 22-H ) :   0.8943
B(  1-C , 23-H ) :   0.9326 B(  2-O ,  3-P ) :   1.1122 B(  3-P ,  4-S ) :   1.6427
B(  3-P ,  5-O ) :   1.1222 B(  3-P ,  8-S ) :   0.9268 B(  4-S ,  8-S ) :   0.1138
B(  5-O ,  6-C ) :   0.9205 B(  6-C ,  7-C ) :   1.1622 B(  6-C , 24-H ) :   0.9220
B(  6-C , 25-H ) :   0.9343 B(  7-C , 26-H ) :   0.9420 B(  7-C , 27-H ) :   0.9233
B(  7-C , 28-H ) :   0.9350 B(  8-S ,  9-C ) :   1.0126 B(  9-C , 10-S ) :   1.0053
B(  9-C , 29-H ) :   0.8992 B(  9-C , 30-H ) :   0.8976 B( 10-S , 11-P ) :   0.9476
B( 10-S , 12-S ) :   0.1119 B( 11-P , 12-S ) :   1.6205 B( 11-P , 13-O ) :   1.1128
B( 11-P , 16-O ) :   1.1199 B( 13-O , 14-C ) :   0.8991 B( 14-C , 15-C ) :   1.1683
B( 14-C , 31-H ) :   0.8989 B( 14-C , 32-H ) :   0.9327 B( 15-C , 33-H ) :   0.9369
B( 15-C , 34-H ) :   0.9392 B( 15-C , 35-H ) :   0.9456 B( 16-O , 17-C ) :   0.9101
B( 17-C , 18-C ) :   1.1624 B( 17-C , 36-H ) :   0.9332 B( 17-C , 37-H ) :   0.9132
B( 18-C , 38-H ) :   0.9208 B( 18-C , 39-H ) :   0.9438 B( 18-C , 40-H ) :   0.9377

Dispersion correction           -0.069031620
FINAL SINGLE POINT ENERGY     -2929.509932638985

DIPOLE MOMENT
-------------

Method             : SCF
Type of density    : Electron Density
Multiplicity       :   1
Irrep              :   0
Energy             : -2929.6254193499639769 Eh
Relativity type    :
Basis              : AO
                                X                 Y                 Z
Electronic contribution:      0.364317037       1.623674763      -0.472803587
Nuclear contribution   :     -0.365662574      -2.485085592       0.987107059
                        -----------------------------------------
Total Dipole Moment    :     -0.001345537      -0.861410829       0.514303471
                        -----------------------------------------
Magnitude (a.u.)       :      1.003263917
Magnitude (Debye)      :      2.550094218

Rotational constants in cm-1:             0.010079             0.006373             0.005744
Rotational constants in MHz :           302.167377           191.062099           172.191792

                             ****ORCA TERMINATED NORMALLY****
TOTAL RUN TIME: 0 days 0 hours 0 minutes 21 seconds 625 msec
