                         Program Version 6.0.0  -   RELEASE  -
|  1> ! r2scan-3c def2/J RI DEFGRID2 scfconv6 printgap
|  2> %output
|  3>     printlevel normal
|  4> end
|  5> * xyz 0 1
|  6> C 3.1593127669 2.4185513074 2.2498204583
|  7> C 1.776409858 1.821135754 2.1004469007
|  8> O 1.6001587272 1.2026982628 0.8069445085
|  9> P 2.3511953118 -0.1335456757 0.404222332
| 10> S 2.6988254625 -1.3975507386 1.8661607039
| 11> O 3.6396932786 0.4265262982 -0.3357136586
| 12> C 4.7877590257 -0.3952181931 -0.6093406907
| 13> C 4.4874702533 -1.4764159435 -1.6272803047
| 14> S 1.0857307957 -0.7930879527 -1.1593586534
| 15> C -0.0595149275 -1.7114789258 -0.0946370697
| 16> S -1.1429143512 -0.6296222853 0.8627597271
| 17> P -2.3750784993 -0.0071701269 -0.7701795691
| 18> S -2.6355508426 -1.3554063194 -2.1640020699
| 19> O -1.788689109 1.3217077224 -1.3681373228
| 20> C -1.2015467359 2.4467090077 -0.6676122378
| 21> C -2.0196987532 2.9067823758 0.5190595288
| 22> O -3.7073645454 0.4719864645 -0.0528997765
| 23> C -4.6440242426 -0.4815269111 0.4878378289
| 24> C -5.9795138809 0.2161127176 0.6481846258
| 25> H 3.217779236 2.9612714996 3.1880208529
| 26> H 3.9068058092 1.6261673155 2.2526759948
| 27> H 3.3680635013 3.0947308727 1.424956476
| 28> H 0.9977455019 2.5840172562 2.1355136287
| 29> H 1.5915363958 1.0663842371 2.8711763005
| 30> H 5.5332954454 0.3102975126 -0.9782839361
| 31> H 5.1266632331 -0.8397336908 0.3319857187
| 32> H 3.7836657589 -2.196183454 -1.2104247711
| 33> H 4.0514224119 -1.0425543566 -2.5238935256
| 34> H 5.4060239084 -1.9932590952 -1.8861618665
| 35> H 0.5068079838 -2.3094110405 0.6197556129
| 36> H -0.6655939223 -2.3358890306 -0.752052969
| 37> H -0.1911609566 2.1598270773 -0.3650201943
| 38> H -1.1463568789 3.2145426897 -1.4411473004
| 39> H -2.0318355006 2.1404144512 1.2922393098
| 40> H -1.5767859916 3.8122893891 0.9231685001
| 41> H -3.0417109929 3.113788921 0.2125981804
| 42> H -4.7157628526 -1.3303572688 -0.2006704914
| 43> H -4.2563416968 -0.831386268 1.4482933633
| 44> H -6.3328232017 0.5693941924 -0.316489226
| 45> H -6.6994383418 -0.4845536077 1.058043767
| 46> H -5.8791943119 1.0635503118 1.3197623785
| 47> *
| 48>
| 49>                          ****END OF INPUT****

CARTESIAN COORDINATES (ANGSTROEM)
---------------------------------
  C      3.159313    2.418551    2.249820
  C      1.776410    1.821136    2.100447
  O      1.600159    1.202698    0.806945
  P      2.351195   -0.133546    0.404222
  S      2.698825   -1.397551    1.866161
  O      3.639693    0.426526   -0.335714
  C      4.787759   -0.395218   -0.609341
  C      4.487470   -1.476416   -1.627280
  S      1.085731   -0.793088   -1.159359
  C     -0.059515   -1.711479   -0.094637
  S     -1.142914   -0.629622    0.862760
  P     -2.375078   -0.007170   -0.770180
  S     -2.635551   -1.355406   -2.164002
  O     -1.788689    1.321708   -1.368137
  C     -1.201547    2.446709   -0.667612
  C     -2.019699    2.906782    0.519060
  O     -3.707365    0.471986   -0.052900
  C     -4.644024   -0.481527    0.487838
  C     -5.979514    0.216113    0.648185
  H      3.217779    2.961271    3.188021
  H      3.906806    1.626167    2.252676
  H      3.368064    3.094731    1.424956
  H      0.997746    2.584017    2.135514
  H      1.591536    1.066384    2.871176
  H      5.533295    0.310298   -0.978284
  H      5.126663   -0.839734    0.331986
  H      3.783666   -2.196183   -1.210425
  H      4.051422   -1.042554   -2.523894
  H      5.406024   -1.993259   -1.886162
  H      0.506808   -2.309411    0.619756
  H     -0.665594   -2.335889   -0.752053
  H     -0.191161    2.159827   -0.365020
  H     -1.146357    3.214543   -1.441147
  H     -2.031836    2.140414    1.292239
  H     -1.576786    3.812289    0.923169
  H     -3.041711    3.113789    0.212598
  H     -4.715763   -1.330357   -0.200670
  H     -4.256342   -0.831386    1.448293
  H     -6.332823    0.569394   -0.316489
  H     -6.699438   -0.484554    1.058044
  H     -5.879194    1.063550    1.319762

 Total Charge           Charge          ....    0
 Multiplicity           Mult            ....    1
 Number of Electrons    NEL             ....  202
 Basis Dimension        Dim             ....  539

ORBITAL ENERGIES
----------------

  NO   OCC          E(Eh)            E(eV)
   0   2.0000     -88.576106     -2410.2784
   1   2.0000     -88.573959     -2410.2199
   2   2.0000     -88.526312     -2408.9234
   3   2.0000     -88.514498     -2408.6019
   4   2.0000     -76.917561     -2093.0332
   5   2.0000     -76.912136     -2092.8856
   6   2.0000     -18.997829      -516.9572
   7   2.0000     -18.995009      -516.8805
   8   2.0000     -18.992145      -516.8025
   9   2.0000     -18.989258      -516.7240
  10   2.0000     -10.103088      -274.9190
  11   2.0000     -10.102425      -274.9010
  12   2.0000     -10.101549      -274.8771
  13   2.0000     -10.099238      -274.8142
  14   2.0000     -10.097913      -274.7782
  15   2.0000     -10.034258      -273.0460
  16   2.0000     -10.034096      -273.0416
  17   2.0000     -10.033057      -273.0134
  18   2.0000     -10.030559      -272.9454
  19   2.0000      -7.870195      -214.1589
  20   2.0000      -7.868190      -214.1043
  21   2.0000      -7.821065      -212.8220
  22   2.0000      -7.809416      -212.5050
  23   2.0000      -6.596267      -179.4936
  24   2.0000      -6.590492      -179.3364
  25   2.0000      -5.817050      -158.2900
  26   2.0000      -5.814973      -158.2334
  27   2.0000      -5.814136      -158.2107
  28   2.0000      -5.812010      -158.1528
  29   2.0000      -5.807299      -158.0246
  30   2.0000      -5.805474      -157.9750
  31   2.0000      -5.768612      -156.9719
  32   2.0000      -5.761394      -156.7755
  33   2.0000      -5.761122      -156.7681
  34   2.0000      -5.757100      -156.6587
  35   2.0000      -5.749647      -156.4559
  36   2.0000      -5.749400      -156.4491
  37   2.0000      -4.741675      -129.0275
  38   2.0000      -4.741135      -129.0128
  39   2.0000      -4.740101      -128.9847
  40   2.0000      -4.736159      -128.8774
  41   2.0000      -4.735622      -128.8628
  42   2.0000      -4.733901      -128.8160
  43   2.0000      -1.055126       -28.7114
  44   2.0000      -1.049037       -28.5457
  45   2.0000      -1.016669       -27.6650
  46   2.0000      -1.009798       -27.4780
  47   2.0000      -0.801607       -21.8128
  48   2.0000      -0.760615       -20.6974
  49   2.0000      -0.752274       -20.4704
  50   2.0000      -0.736986       -20.0544
  51   2.0000      -0.735556       -20.0155
  52   2.0000      -0.713024       -19.4024
  53   2.0000      -0.686023       -18.6676
  54   2.0000      -0.668418       -18.1886
  55   2.0000      -0.636415       -17.3177
  56   2.0000      -0.626198       -17.0397
  57   2.0000      -0.610116       -16.6021
  58   2.0000      -0.601972       -16.3805
  59   2.0000      -0.593281       -16.1440
  60   2.0000      -0.529537       -14.4094
  61   2.0000      -0.520507       -14.1637
  62   2.0000      -0.497648       -13.5417
  63   2.0000      -0.493331       -13.4242
  64   2.0000      -0.479365       -13.0442
  65   2.0000      -0.466045       -12.6817
  66   2.0000      -0.462038       -12.5727
  67   2.0000      -0.453585       -12.3427
  68   2.0000      -0.449694       -12.2368
  69   2.0000      -0.436212       -11.8699
  70   2.0000      -0.428690       -11.6652
  71   2.0000      -0.418783       -11.3957
  72   2.0000      -0.414524       -11.2798
  73   2.0000      -0.406860       -11.0712
  74   2.0000      -0.392875       -10.6907
  75   2.0000      -0.389503       -10.5989
  76   2.0000      -0.383469       -10.4347
  77   2.0000      -0.377540       -10.2734
  78   2.0000      -0.374801       -10.1989
  79   2.0000      -0.367845       -10.0096
  80   2.0000      -0.366406        -9.9704
  81   2.0000      -0.365120        -9.9354
  82   2.0000      -0.360595        -9.8123
  83   2.0000      -0.356506        -9.7010
  84   2.0000      -0.350553        -9.5390
  85   2.0000      -0.335092        -9.1183
  86   2.0000      -0.325302        -8.8519
  87   2.0000      -0.314179        -8.5492
  88   2.0000      -0.313431        -8.5289
  89   2.0000      -0.305590        -8.3155
  90   2.0000      -0.304092        -8.2748
  91   2.0000      -0.294202        -8.0056
  92   2.0000      -0.286600        -7.7988
  93   2.0000      -0.281343        -7.6557
  94   2.0000      -0.272894        -7.4258
  95   2.0000      -0.248022        -6.7490
  96   2.0000      -0.231668        -6.3040
  97   2.0000      -0.228932        -6.2296
  98   2.0000      -0.219499        -5.9729
  99   2.0000      -0.213486        -5.8092
 100   2.0000      -0.210748        -5.7348
 101   0.0000      -0.046185        -1.2567
 102   0.0000      -0.026138        -0.7113
 103   0.0000      -0.001573        -0.0428
 104   0.0000       0.002020         0.0550
 105   0.0000       0.015300         0.4163

MULLIKEN ATOMIC CHARGES
-----------------------
   0 C :   -0.439587
   1 C :   -0.156028
   2 O :   -0.274892
   3 P :    0.681461
   4 S :   -0.487084
   5 O :   -0.308844
   6 C :   -0.148976
   7 C :   -0.452689
   8 S :   -0.099743
   9 C :   -0.245206
  10 S :   -0.181347
  11 P :    0.679809
  12 S :   -0.468392
  13 O :   -0.257154
  14 C :   -0.148984
  15 C :   -0.456296
  16 O :   -0.263602
  17 C :   -0.157796
  18 C :   -0.441956
  19 H :    0.148055
  20 H :    0.167335
  21 H :    0.156046
  22 H :    0.149073
  23 H :    0.176359
  24 H :    0.149135
  25 H :    0.170185
  26 H :    0.177939
  27 H :    0.158351
  28 H :    0.148778
  29 H :    0.213745
  30 H :    0.221405
  31 H :    0.184366
  32 H :    0.150582
  33 H :    0.162338
  34 H :    0.148779
  35 H :    0.163222
  36 H :    0.172936
  37 H :    0.151467
  38 H :    0.160234
  39 H :    0.147097
  40 H :    0.149878
Sum of atomic charges:    0.0000000

LOEWDIN ATOMIC CHARGES
----------------------
   0 C :   -0.397786
   1 C :    0.017891
   2 O :   -0.697107
   3 P :    0.379399
   4 S :   -0.134001
   5 O :   -0.660397
   6 C :    0.020560
   7 C :   -0.405949
   8 S :    0.179823
   9 C :   -0.426457
  10 S :    0.138179
  11 P :    0.381346
  12 S :   -0.113443
  13 O :   -0.644437
  14 C :    0.027430
  15 C :   -0.404469
  16 O :   -0.674100
  17 C :    0.018261
  18 C :   -0.385923
  19 H :    0.159891
  20 H :    0.165209
  21 H :    0.161185
  22 H :    0.178562
  23 H :    0.182295
  24 H :    0.180048
  25 H :    0.179233
  26 H :    0.166275
  27 H :    0.161451
  28 H :    0.160001
  29 H :    0.191720
  30 H :    0.194721
  31 H :    0.196478
  32 H :    0.182257
  33 H :    0.162575
  34 H :    0.159002
  35 H :    0.166003
  36 H :    0.182231
  37 H :    0.171570
  38 H :    0.162309
  39 H :    0.160275
  40 H :    0.157890

  Mayer bond orders larger than 0.100000
B(  0-C ,  1-C ) :   0.9252 B(  0-C , 19-H ) :   0.9622 B(  0-C , 20-H ) :   0.9585
B(  0-C , 21-H ) :   0.9723 B(  1-C ,  2-O ) :   0.7889 B(  1-C , 22-H ) :   0.9630
B(  1-C , 23-H ) :   0.9609 B(  2-O ,  3-P ) :   1.1295 B(  3-P ,  4-S ) :   1.7387
B(  3-P ,  5-O ) :   1.0713 B(  3-P ,  8-S ) :   1.1048 B(  5-O ,  6-C ) :   0.8115
B(  6-C ,  7-C ) :   0.9239 B(  6-C , 24-H ) :   0.9577 B(  6-C , 25-H ) :   0.9659
B(  7-C , 26-H ) :   0.9611 B(  7-C , 27-H ) :   0.9681 B(  7-C , 28-H ) :   0.9581
B(  8-S ,  9-C ) :   0.9166 B(  9-C , 10-S ) :   0.9114 B(  9-C , 29-H ) :   0.9055
B(  9-C , 30-H ) :   0.8995 B( 10-S , 11-P ) :   0.9681 B( 11-P , 12-S ) :   1.8019
B( 11-P , 13-O ) :   1.2038 B( 11-P , 16-O ) :   1.0574 B( 13-O , 14-C ) :   0.8074
B( 14-C , 15-C ) :   0.9030 B( 14-C , 31-H ) :   0.9514 B( 14-C , 32-H ) :   0.9616
B( 15-C , 33-H ) :   0.9656 B( 15-C , 34-H ) :   0.9589 B( 15-C , 35-H ) :   0.9641
B( 16-O , 17-C ) :   0.7768 B( 17-C , 18-C ) :   0.9549 B( 17-C , 36-H ) :   0.9511
B( 17-C , 37-H ) :   0.9423 B( 18-C , 38-H ) :   0.9717 B( 18-C , 39-H ) :   0.9643
B( 18-C , 40-H ) :   0.9722

Dispersion correction           -0.021438247
FINAL SINGLE POINT ENERGY     -2932.463588116005

DIPOLE MOMENT
-------------

Method             : SCF
Type of density    : Electron Density
Multiplicity       :   1
Irrep              :   0
Energy             : -2932.4887034449320709 Eh
Relativity type    :
Basis              : AO
                                X                 Y                 Z
Electronic contribution:     -0.493131866     -12.442059441      -8.197193086
Nuclear contribution   :      0.911263466      13.763204689       9.152735918
                        -----------------------------------------
Total Dipole Moment    :      0.418131600       1.321145248       0.955542832
                        -----------------------------------------
Magnitude (a.u.)       :      1.683247131
Magnitude (Debye)      :      4.278474191

Rotational constants in cm-1:             0.013646             0.004641             0.004181
Rotational constants in MHz :           409.088956           139.129769           125.339017

                             ****ORCA TERMINATED NORMALLY****
TOTAL RUN TIME: 0 days 0 hours 1 minutes 19 seconds 655 msec
