                         Program Version 6.0.0  -   RELEASE  -
|  1> ! r2scan-3c def2/J RI DEFGRID2 scfconv6 printgap
|  2> %output
|  3>     printlevel normal
|  4> end
|  5> %cpcm
|  6>     smd true
|  7>     smdsolvent "water"
|  8> end
|  9> * xyz 0 1
| 10> C 3.1593127669 2.4185513074 2.2498204583
| 11> C 1.776409858 1.821135754 2.1004469007
| 12> O 1.6001587272 1.2026982628 0.8069445085
| 13> P 2.3511953118 -0.1335456757 0.404222332
| 14> S 2.6988254625 -1.3975507386 1.8661607039
| 15> O 3.6396932786 0.4265262982 -0.3357136586
| 16> C 4.7877590257 -0.3952181931 -0.6093406907
| 17> C 4.4874702533 -1.4764159435 -1.6272803047
| 18> S 1.0857307957 -0.7930879527 -1.1593586534
| 19> C -0.0595149275 -1.7114789258 -0.0946370697
| 20> S -1.1429143512 -0.6296222853 0.8627597271
| 21> P -2.3750784993 -0.0071701269 -0.7701795691
| 22> S -2.6355508426 -1.3554063194 -2.1640020699
| 23> O -1.788689109 1.3217077224 -1.3681373228
| 24> C -1.2015467359 2.4467090077 -0.6676122378
| 25> C -2.0196987532 2.9067823758 0.5190595288
| 26> O -3.7073645454 0.4719864645 -0.0528997765
| 27> C -4.6440242426 -0.4815269111 0.4878378289
| 28> C -5.9795138809 0.2161127176 0.6481846258
| 29> H 3.217779236 2.9612714996 3.1880208529
| 30> H 3.9068058092 1.6261673155 2.2526759948
| 31> H 3.3680635013 3.0947308727 1.424956476
| 32> H 0.9977455019 2.5840172562 2.1355136287
| 33> H 1.5915363958 1.0663842371 2.8711763005
| 34> H 5.5332954454 0.3102975126 -0.9782839361
| 35> H 5.1266632331 -0.8397336908 0.3319857187
| 36> H 3.7836657589 -2.196183454 -1.2104247711
| 37> H 4.0514224119 -1.0425543566 -2.5238935256
| 38> H 5.4060239084 -1.9932590952 -1.8861618665
| 39> H 0.5068079838 -2.3094110405 0.6197556129
| 40> H -0.6655939223 -2.3358890306 -0.752052969
| 41> H -0.1911609566 2.1598270773 -0.3650201943
| 42> H -1.1463568789 3.2145426897 -1.4411473004
| 43> H -2.0318355006 2.1404144512 1.2922393098
| 44> H -1.5767859916 3.8122893891 0.9231685001
| 45> H -3.0417109929 3.113788921 0.2125981804
| 46> H -4.7157628526 -1.3303572688 -0.2006704914
| 47> H -4.2563416968 -0.831386268 1.4482933633
| 48> H -6.3328232017 0.5693941924 -0.316489226
| 49> H -6.6994383418 -0.4845536077 1.058043767
| 50> H -5.8791943119 1.0635503118 1.3197623785
| 51> *
| 52>
| 53>                          ****END OF INPUT****

CARTESIAN COORDINATES (ANGSTROEM)
---------------------------------
  C      3.159313    2.418551    2.249820
  C      1.776410    1.821136    2.100447
  O      1.600159    1.202698    0.806945
  P      2.351195   -0.133546    0.404222
  S      2.698825   -1.397551    1.866161
  O      3.639693    0.426526   -0.335714
  C      4.787759   -0.395218   -0.609341
  C      4.487470   -1.476416   -1.627280
  S      1.085731   -0.793088   -1.159359
  C     -0.059515   -1.711479   -0.094637
  S     -1.142914   -0.629622    0.862760
  P     -2.375078   -0.007170   -0.770180
  S     -2.635551   -1.355406   -2.164002
  O     -1.788689    1.321708   -1.368137
  C     -1.201547    2.446709   -0.667612
  C     -2.019699    2.906782    0.519060
  O     -3.707365    0.471986   -0.052900
  C     -4.644024   -0.481527    0.487838
  C     -5.979514    0.216113    0.648185
  H      3.217779    2.961271    3.188021
  H      3.906806    1.626167    2.252676
  H      3.368064    3.094731    1.424956
  H      0.997746    2.584017    2.135514
  H      1.591536    1.066384    2.871176
  H      5.533295    0.310298   -0.978284
  H      5.126663   -0.839734    0.331986
  H      3.783666   -2.196183   -1.210425
  H      4.051422   -1.042554   -2.523894
  H      5.406024   -1.993259   -1.886162
  H      0.506808   -2.309411    0.619756
  H     -0.665594   -2.335889   -0.752053
  H     -0.191161    2.159827   -0.365020
  H     -1.146357    3.214543   -1.441147
  H     -2.031836    2.140414    1.292239
  H     -1.576786    3.812289    0.923169
  H     -3.041711    3.113789    0.212598
  H     -4.715763   -1.330357   -0.200670
  H     -4.256342   -0.831386    1.448293
  H     -6.332823    0.569394   -0.316489
  H     -6.699438   -0.484554    1.058044
  H     -5.879194    1.063550    1.319762

 Total Charge           Charge          ....    0
 Multiplicity           Mult            ....    1
 Number of Electrons    NEL             ....  202
 Basis Dimension        Dim             ....  539

ORBITAL ENERGIES
----------------

  NO   OCC          E(Eh)            E(eV)
   0   2.0000     -88.580162     -2410.3887
   1   2.0000     -88.579013     -2410.3575
   2   2.0000     -88.530449     -2409.0360
   3   2.0000     -88.527951     -2408.9680
   4   2.0000     -76.920987     -2093.1265
   5   2.0000     -76.919814     -2093.0946
   6   2.0000     -18.997415      -516.9459
   7   2.0000     -18.996181      -516.9124
   8   2.0000     -18.995963      -516.9064
   9   2.0000     -18.992804      -516.8205
  10   2.0000     -10.103314      -274.9252
  11   2.0000     -10.091534      -274.6046
  12   2.0000     -10.090556      -274.5780
  13   2.0000     -10.090349      -274.5724
  14   2.0000     -10.089462      -274.5482
  15   2.0000     -10.020879      -272.6820
  16   2.0000     -10.019765      -272.6517
  17   2.0000     -10.019065      -272.6326
  18   2.0000     -10.018970      -272.6300
  19   2.0000      -7.874383      -214.2729
  20   2.0000      -7.873195      -214.2405
  21   2.0000      -7.825469      -212.9418
  22   2.0000      -7.823237      -212.8811
  23   2.0000      -6.599401      -179.5788
  24   2.0000      -6.598534      -179.5552
  25   2.0000      -5.821193      -158.4027
  26   2.0000      -5.820005      -158.3704
  27   2.0000      -5.818318      -158.3245
  28   2.0000      -5.817032      -158.2895
  29   2.0000      -5.811531      -158.1398
  30   2.0000      -5.810445      -158.1103
  31   2.0000      -5.772973      -157.0906
  32   2.0000      -5.770791      -157.0312
  33   2.0000      -5.765791      -156.8951
  34   2.0000      -5.765527      -156.8880
  35   2.0000      -5.763478      -156.8322
  36   2.0000      -5.763270      -156.8265
  37   2.0000      -4.745028      -129.1188
  38   2.0000      -4.744466      -129.1035
  39   2.0000      -4.743859      -129.0870
  40   2.0000      -4.743401      -129.0745
  41   2.0000      -4.742950      -129.0622
  42   2.0000      -4.742485      -129.0496
  43   2.0000      -1.054156       -28.6851
  44   2.0000      -1.053460       -28.6661
  45   2.0000      -1.014414       -27.6036
  46   2.0000      -1.014016       -27.5928
  47   2.0000      -0.804859       -21.9013
  48   2.0000      -0.757260       -20.6061
  49   2.0000      -0.745502       -20.2861
  50   2.0000      -0.728085       -19.8122
  51   2.0000      -0.724105       -19.7039
  52   2.0000      -0.711472       -19.3601
  53   2.0000      -0.689034       -18.7496
  54   2.0000      -0.674779       -18.3617
  55   2.0000      -0.632605       -17.2141
  56   2.0000      -0.624314       -16.9884
  57   2.0000      -0.599908       -16.3243
  58   2.0000      -0.595656       -16.2086
  59   2.0000      -0.592505       -16.1229
  60   2.0000      -0.527481       -14.3535
  61   2.0000      -0.514787       -14.0081
  62   2.0000      -0.493205       -13.4208
  63   2.0000      -0.489506       -13.3201
  64   2.0000      -0.478307       -13.0154
  65   2.0000      -0.461365       -12.5544
  66   2.0000      -0.455090       -12.3836
  67   2.0000      -0.447903       -12.1881
  68   2.0000      -0.445150       -12.1132
  69   2.0000      -0.433544       -11.7973
  70   2.0000      -0.425687       -11.5835
  71   2.0000      -0.414494       -11.2790
  72   2.0000      -0.405732       -11.0405
  73   2.0000      -0.404053       -10.9949
  74   2.0000      -0.391034       -10.6406
  75   2.0000      -0.387302       -10.5390
  76   2.0000      -0.383555       -10.4371
  77   2.0000      -0.372237       -10.1291
  78   2.0000      -0.365924        -9.9573
  79   2.0000      -0.358557        -9.7568
  80   2.0000      -0.357291        -9.7224
  81   2.0000      -0.353987        -9.6325
  82   2.0000      -0.351846        -9.5742
  83   2.0000      -0.348454        -9.4819
  84   2.0000      -0.345237        -9.3944
  85   2.0000      -0.330339        -8.9890
  86   2.0000      -0.319760        -8.7011
  87   2.0000      -0.312905        -8.5146
  88   2.0000      -0.306140        -8.3305
  89   2.0000      -0.305041        -8.3006
  90   2.0000      -0.299330        -8.1452
  91   2.0000      -0.290738        -7.9114
  92   2.0000      -0.285649        -7.7729
  93   2.0000      -0.279784        -7.6133
  94   2.0000      -0.275809        -7.5052
  95   2.0000      -0.251979        -6.8567
  96   2.0000      -0.238158        -6.4806
  97   2.0000      -0.235680        -6.4132
  98   2.0000      -0.226854        -6.1730
  99   2.0000      -0.225075        -6.1246
 100   2.0000      -0.221832        -6.0364
 101   0.0000      -0.052205        -1.4206
 102   0.0000      -0.032927        -0.8960
 103   0.0000      -0.005068        -0.1379
 104   0.0000      -0.003411        -0.0928
 105   0.0000       0.014284         0.3887

MULLIKEN ATOMIC CHARGES
-----------------------
   0 C :   -0.484227
   1 C :   -0.149987
   2 O :   -0.294959
   3 P :    0.722453
   4 S :   -0.529704
   5 O :   -0.332454
   6 C :   -0.150067
   7 C :   -0.489397
   8 S :   -0.126559
   9 C :   -0.251201
  10 S :   -0.176363
  11 P :    0.686638
  12 S :   -0.523915
  13 O :   -0.293219
  14 C :   -0.143961
  15 C :   -0.480873
  16 O :   -0.283146
  17 C :   -0.145452
  18 C :   -0.482465
  19 H :    0.172449
  20 H :    0.168043
  21 H :    0.170126
  22 H :    0.180167
  23 H :    0.177830
  24 H :    0.176326
  25 H :    0.178095
  26 H :    0.173191
  27 H :    0.170009
  28 H :    0.173497
  29 H :    0.233680
  30 H :    0.234603
  31 H :    0.185292
  32 H :    0.175647
  33 H :    0.166113
  34 H :    0.177636
  35 H :    0.170067
  36 H :    0.172872
  37 H :    0.170943
  38 H :    0.166593
  39 H :    0.169743
  40 H :    0.165938
Sum of atomic charges:    0.0000000

LOEWDIN ATOMIC CHARGES
----------------------
   0 C :   -0.401500
   1 C :    0.023755
   2 O :   -0.702074
   3 P :    0.385364
   4 S :   -0.159198
   5 O :   -0.670468
   6 C :    0.026323
   7 C :   -0.409710
   8 S :    0.163201
   9 C :   -0.422271
  10 S :    0.145401
  11 P :    0.382062
  12 S :   -0.158052
  13 O :   -0.667501
  14 C :    0.033473
  15 C :   -0.402649
  16 O :   -0.682437
  17 C :    0.023404
  18 C :   -0.388959
  19 H :    0.168964
  20 H :    0.162748
  21 H :    0.164506
  22 H :    0.191225
  23 H :    0.182510
  24 H :    0.191538
  25 H :    0.181839
  26 H :    0.161822
  27 H :    0.163731
  28 H :    0.168881
  29 H :    0.197580
  30 H :    0.198181
  31 H :    0.197431
  32 H :    0.192718
  33 H :    0.162898
  34 H :    0.171203
  35 H :    0.166875
  36 H :    0.182047
  37 H :    0.179862
  38 H :    0.163142
  39 H :    0.169144
  40 H :    0.162991

  Mayer bond orders larger than 0.100000
B(  0-C ,  1-C ) :   0.9135 B(  0-C , 19-H ) :   0.9561 B(  0-C , 20-H ) :   0.9584
B(  0-C , 21-H ) :   0.9716 B(  1-C ,  2-O ) :   0.7768 B(  1-C , 22-H ) :   0.9520
B(  1-C , 23-H ) :   0.9579 B(  2-O ,  3-P ) :   1.1443 B(  3-P ,  4-S ) :   1.7023
B(  3-P ,  5-O ) :   1.0803 B(  3-P ,  8-S ) :   1.1047 B(  5-O ,  6-C ) :   0.8001
B(  6-C ,  7-C ) :   0.9090 B(  6-C , 24-H ) :   0.9482 B(  6-C , 25-H ) :   0.9649
B(  7-C , 26-H ) :   0.9629 B(  7-C , 27-H ) :   0.9657 B(  7-C , 28-H ) :   0.9529
B(  8-S ,  9-C ) :   0.9041 B(  9-C , 10-S ) :   0.9005 B(  9-C , 29-H ) :   0.9018
B(  9-C , 30-H ) :   0.8967 B( 10-S , 11-P ) :   0.9886 B( 11-P , 12-S ) :   1.7811
B( 11-P , 13-O ) :   1.2063 B( 11-P , 16-O ) :   1.0668 B( 13-O , 14-C ) :   0.7977
B( 14-C , 15-C ) :   0.9022 B( 14-C , 31-H ) :   0.9439 B( 14-C , 32-H ) :   0.9502
B( 15-C , 33-H ) :   0.9613 B( 15-C , 34-H ) :   0.9498 B( 15-C , 35-H ) :   0.9649
B( 16-O , 17-C ) :   0.7680 B( 17-C , 18-C ) :   0.9531 B( 17-C , 36-H ) :   0.9489
B( 17-C , 37-H ) :   0.9328 B( 18-C , 38-H ) :   0.9698 B( 18-C , 39-H ) :   0.9583
B( 18-C , 40-H ) :   0.9685

Dispersion correction           -0.021438247
FINAL SINGLE POINT ENERGY     -2932.472811146958

DIPOLE MOMENT
-------------

Method             : SCF
Type of density    : Electron Density
Multiplicity       :   1
Irrep              :   0
Energy             : -2932.4979264758844693 Eh
Relativity type    :
Basis              : AO
                                X                 Y                 Z
Electronic contribution:     -0.317252435     -12.007051446      -7.627945664
Nuclear contribution   :      0.911263466      13.763204689       9.152735918
                        -----------------------------------------
Total Dipole Moment    :      0.594011030       1.756153243       1.524790254
                        -----------------------------------------
Magnitude (a.u.)       :      2.400397600
Magnitude (Debye)      :      6.101325818

Rotational constants in cm-1:             0.013646             0.004641             0.004181
Rotational constants in MHz :           409.088956           139.129769           125.339017

                             ****ORCA TERMINATED NORMALLY****
TOTAL RUN TIME: 0 days 0 hours 1 minutes 54 seconds 504 msec
