                         Program Version 6.0.0  -   RELEASE  -
|  1> ! r2scan-3c def2/J RI DEFGRID2 scfconv6 printgap
|  2> %output
|  3>     printlevel normal
|  4> end
|  5> * xyz 0 1
|  6> C 0.8657930536 1.382555458 -0.5957963841
|  7> C 1.5920156968 0.1560927879 -0.0221808232
|  8> H 2.5612527252 0.0690676582 -0.5244967168
|  9> C 0.7655362113 -1.1151377962 -0.31714192
| 10> H 1.1929182494 -1.9365479289 0.2675088507
| 11> C -0.6875950924 -0.9113840239 0.1503846279
| 12> H -1.3046954874 -1.7514525825 -0.202769618
| 13> C -1.2486268902 0.3763326872 -0.4745962962
| 14> H -1.2499505905 0.2592514338 -1.5779421402
| 15> O -0.463049575 1.4913997937 -0.1250049533
| 16> O -2.5247389226 0.5712845421 0.0242797554
| 17> O -0.7087159163 -0.8341930251 1.5527514696
| 18> O 0.7818813367 -1.3758713066 -1.7024256643
| 19> O 1.8751338493 0.2854525573 1.3459316428
| 20> H 0.8654543519 1.3086367622 -1.6912523753
| 21> H 1.362751947 2.297747767 -0.2750505637
| 22> H -2.8091335327 1.4791621137 -0.1632992015
| 23> H -1.5873410862 -0.5203242507 1.8212232227
| 24> H 1.0907097342 -2.274610245 -1.8770615129
| 25> H 1.0404206821 0.2065228438 1.8399309092
| 26> *
| 27>
| 28>                          ****END OF INPUT****

CARTESIAN COORDINATES (ANGSTROEM)
---------------------------------
  C      0.865793    1.382555   -0.595796
  C      1.592016    0.156093   -0.022181
  H      2.561253    0.069068   -0.524497
  C      0.765536   -1.115138   -0.317142
  H      1.192918   -1.936548    0.267509
  C     -0.687595   -0.911384    0.150385
  H     -1.304695   -1.751453   -0.202770
  C     -1.248627    0.376333   -0.474596
  H     -1.249951    0.259251   -1.577942
  O     -0.463050    1.491400   -0.125005
  O     -2.524739    0.571285    0.024280
  O     -0.708716   -0.834193    1.552751
  O      0.781881   -1.375871   -1.702426
  O      1.875134    0.285453    1.345932
  H      0.865454    1.308637   -1.691252
  H      1.362752    2.297748   -0.275051
  H     -2.809134    1.479162   -0.163299
  H     -1.587341   -0.520324    1.821223
  H      1.090710   -2.274610   -1.877062
  H      1.040421    0.206523    1.839931

 Total Charge           Charge          ....    0
 Multiplicity           Mult            ....    1
 Number of Electrons    NEL             ....   80
 Basis Dimension        Dim             ....  265

ORBITAL ENERGIES
----------------

  NO   OCC          E(Eh)            E(eV)
   0   2.0000     -18.975406      -516.3471
   1   2.0000     -18.969963      -516.1989
   2   2.0000     -18.967255      -516.1252
   3   2.0000     -18.964260      -516.0438
   4   2.0000     -18.937377      -515.3122
   5   2.0000     -10.136871      -275.8383
   6   2.0000     -10.095785      -274.7203
   7   2.0000     -10.091623      -274.6070
   8   2.0000     -10.081785      -274.3393
   9   2.0000     -10.076933      -274.2073
  10   2.0000      -1.054204       -28.6863
  11   2.0000      -1.012030       -27.5387
  12   2.0000      -1.000841       -27.2343
  13   2.0000      -0.988860       -26.9083
  14   2.0000      -0.973405       -26.4877
  15   2.0000      -0.744555       -20.2604
  16   2.0000      -0.715856       -19.4794
  17   2.0000      -0.629852       -17.1391
  18   2.0000      -0.612850       -16.6765
  19   2.0000      -0.551409       -15.0046
  20   2.0000      -0.519238       -14.1292
  21   2.0000      -0.505714       -13.7612
  22   2.0000      -0.496257       -13.5038
  23   2.0000      -0.477984       -13.0066
  24   2.0000      -0.455262       -12.3883
  25   2.0000      -0.438322       -11.9273
  26   2.0000      -0.417510       -11.3610
  27   2.0000      -0.400815       -10.9067
  28   2.0000      -0.390152       -10.6166
  29   2.0000      -0.378698       -10.3049
  30   2.0000      -0.346152        -9.4193
  31   2.0000      -0.332425        -9.0457
  32   2.0000      -0.327200        -8.9036
  33   2.0000      -0.308614        -8.3978
  34   2.0000      -0.298135        -8.1127
  35   2.0000      -0.281180        -7.6513
  36   2.0000      -0.272958        -7.4276
  37   2.0000      -0.250324        -6.8117
  38   2.0000      -0.236182        -6.4268
  39   2.0000      -0.213680        -5.8145
  40   0.0000       0.026176         0.7123
  41   0.0000       0.051745         1.4081
  42   0.0000       0.080567         2.1923
  43   0.0000       0.094672         2.5762
  44   0.0000       0.101434         2.7602

MULLIKEN ATOMIC CHARGES
-----------------------
   0 C :   -0.251875
   1 C :   -0.013576
   2 H :    0.153401
   3 C :   -0.075364
   4 H :    0.136700
   5 C :    0.062324
   6 H :    0.148995
   7 C :   -0.033316
   8 H :    0.147109
   9 O :   -0.214972
  10 O :   -0.412159
  11 O :   -0.431595
  12 O :   -0.408843
  13 O :   -0.407213
  14 H :    0.159629
  15 H :    0.159762
  16 H :    0.311852
  17 H :    0.316985
  18 H :    0.315876
  19 H :    0.336280
Sum of atomic charges:    0.0000000

LOEWDIN ATOMIC CHARGES
----------------------
   0 C :    0.044642
   1 C :    0.092018
   2 H :    0.194451
   3 C :    0.118734
   4 H :    0.187993
   5 C :    0.121077
   6 H :    0.183757
   7 C :    0.287092
   8 H :    0.188607
   9 O :   -0.684507
  10 O :   -0.509772
  11 O :   -0.573325
  12 O :   -0.585002
  13 O :   -0.571001
  14 H :    0.177865
  15 H :    0.192881
  16 H :    0.286318
  17 H :    0.287849
  18 H :    0.274423
  19 H :    0.285900

  Mayer bond orders larger than 0.100000
B(  0-C ,  1-C ) :   0.8936 B(  0-C ,  9-O ) :   0.9223 B(  0-C , 14-H ) :   0.9796
B(  0-C , 15-H ) :   0.9512 B(  1-C ,  2-H ) :   0.9542 B(  1-C ,  3-C ) :   0.9498
B(  1-C , 13-O ) :   0.9825 B(  3-C ,  4-H ) :   0.9513 B(  3-C ,  5-C ) :   0.9134
B(  3-C , 12-O ) :   1.0030 B(  5-C ,  6-H ) :   0.9273 B(  5-C ,  7-C ) :   0.9051
B(  5-C , 11-O ) :   0.9072 B(  7-C ,  8-H ) :   0.9820 B(  7-C ,  9-O ) :   0.9301
B(  7-C , 10-O ) :   1.0660 B( 10-O , 16-H ) :   0.8793 B( 11-O , 17-H ) :   0.8712
B( 12-O , 18-H ) :   0.8897 B( 13-O , 19-H ) :   0.8383

Dispersion correction           -0.006436711
FINAL SINGLE POINT ENERGY      -572.561551319716

DIPOLE MOMENT
-------------

Method             : SCF
Type of density    : Electron Density
Multiplicity       :   1
Irrep              :   0
Energy             :  -572.5721547879359150 Eh
Relativity type    :
Basis              : AO
                                X                 Y                 Z
Electronic contribution:     -1.527864952       0.432162413       1.526181085
Nuclear contribution   :      1.075117238      -0.807169810      -2.219625853
                        -----------------------------------------
Total Dipole Moment    :     -0.452747713      -0.375007396      -0.693444768
                        -----------------------------------------
Magnitude (a.u.)       :      0.909107631
Magnitude (Debye)      :      2.310767958

Rotational constants in cm-1:             0.058468             0.040527             0.038498
Rotational constants in MHz :          1752.817765          1214.974577          1154.145330

                             ****ORCA TERMINATED NORMALLY****
TOTAL RUN TIME: 0 days 0 hours 0 minutes 45 seconds 591 msec
