                         Program Version 6.0.0  -   RELEASE  -
|  1> ! r2scan-3c def2/J RI DEFGRID2 scfconv6 printgap
|  2> %output
|  3>     printlevel normal
|  4> end
|  5> %cpcm
|  6>     smd true
|  7>     smdsolvent "water"
|  8> end
|  9> * xyz 0 1
| 10> C 0.8657930536 1.382555458 -0.5957963841
| 11> C 1.5920156968 0.1560927879 -0.0221808232
| 12> H 2.5612527252 0.0690676582 -0.5244967168
| 13> C 0.7655362113 -1.1151377962 -0.31714192
| 14> H 1.1929182494 -1.9365479289 0.2675088507
| 15> C -0.6875950924 -0.9113840239 0.1503846279
| 16> H -1.3046954874 -1.7514525825 -0.202769618
| 17> C -1.2486268902 0.3763326872 -0.4745962962
| 18> H -1.2499505905 0.2592514338 -1.5779421402
| 19> O -0.463049575 1.4913997937 -0.1250049533
| 20> O -2.5247389226 0.5712845421 0.0242797554
| 21> O -0.7087159163 -0.8341930251 1.5527514696
| 22> O 0.7818813367 -1.3758713066 -1.7024256643
| 23> O 1.8751338493 0.2854525573 1.3459316428
| 24> H 0.8654543519 1.3086367622 -1.6912523753
| 25> H 1.362751947 2.297747767 -0.2750505637
| 26> H -2.8091335327 1.4791621137 -0.1632992015
| 27> H -1.5873410862 -0.5203242507 1.8212232227
| 28> H 1.0907097342 -2.274610245 -1.8770615129
| 29> H 1.0404206821 0.2065228438 1.8399309092
| 30> *
| 31>
| 32>                          ****END OF INPUT****

CARTESIAN COORDINATES (ANGSTROEM)
---------------------------------
  C      0.865793    1.382555   -0.595796
  C      1.592016    0.156093   -0.022181
  H      2.561253    0.069068   -0.524497
  C      0.765536   -1.115138   -0.317142
  H      1.192918   -1.936548    0.267509
  C     -0.687595   -0.911384    0.150385
  H     -1.304695   -1.751453   -0.202770
  C     -1.248627    0.376333   -0.474596
  H     -1.249951    0.259251   -1.577942
  O     -0.463050    1.491400   -0.125005
  O     -2.524739    0.571285    0.024280
  O     -0.708716   -0.834193    1.552751
  O      0.781881   -1.375871   -1.702426
  O      1.875134    0.285453    1.345932
  H      0.865454    1.308637   -1.691252
  H      1.362752    2.297748   -0.275051
  H     -2.809134    1.479162   -0.163299
  H     -1.587341   -0.520324    1.821223
  H      1.090710   -2.274610   -1.877062
  H      1.040421    0.206523    1.839931

 Total Charge           Charge          ....    0
 Multiplicity           Mult            ....    1
 Number of Electrons    NEL             ....   80
 Basis Dimension        Dim             ....  265

ORBITAL ENERGIES
----------------

  NO   OCC          E(Eh)            E(eV)
   0   2.0000     -18.969830      -516.1953
   1   2.0000     -18.968320      -516.1542
   2   2.0000     -18.965728      -516.0837
   3   2.0000     -18.961770      -515.9760
   4   2.0000     -18.952824      -515.7326
   5   2.0000     -10.132699      -275.7248
   6   2.0000     -10.089151      -274.5398
   7   2.0000     -10.085298      -274.4349
   8   2.0000     -10.082104      -274.3480
   9   2.0000     -10.075097      -274.1573
  10   2.0000      -1.053010       -28.6539
  11   2.0000      -1.007712       -27.4212
  12   2.0000      -0.997542       -27.1445
  13   2.0000      -0.992247       -27.0004
  14   2.0000      -0.979147       -26.6439
  15   2.0000      -0.740731       -20.1563
  16   2.0000      -0.714334       -19.4380
  17   2.0000      -0.624859       -17.0033
  18   2.0000      -0.611955       -16.6521
  19   2.0000      -0.548940       -14.9374
  20   2.0000      -0.514730       -14.0065
  21   2.0000      -0.502177       -13.6649
  22   2.0000      -0.493437       -13.4271
  23   2.0000      -0.474327       -12.9071
  24   2.0000      -0.451736       -12.2924
  25   2.0000      -0.438500       -11.9322
  26   2.0000      -0.418056       -11.3759
  27   2.0000      -0.398144       -10.8340
  28   2.0000      -0.389904       -10.6098
  29   2.0000      -0.380109       -10.3433
  30   2.0000      -0.349259        -9.5038
  31   2.0000      -0.333602        -9.0778
  32   2.0000      -0.328975        -8.9519
  33   2.0000      -0.309481        -8.4214
  34   2.0000      -0.299338        -8.1454
  35   2.0000      -0.284780        -7.7493
  36   2.0000      -0.273269        -7.4360
  37   2.0000      -0.252414        -6.8685
  38   2.0000      -0.237554        -6.4642
  39   2.0000      -0.218687        -5.9508
  40   0.0000       0.040526         1.1028
  41   0.0000       0.068002         1.8504
  42   0.0000       0.092154         2.5076
  43   0.0000       0.105757         2.8778
  44   0.0000       0.106471         2.8972

MULLIKEN ATOMIC CHARGES
-----------------------
   0 C :   -0.264269
   1 C :   -0.018450
   2 H :    0.176400
   3 C :   -0.082452
   4 H :    0.173926
   5 C :    0.056146
   6 H :    0.172424
   7 C :   -0.035732
   8 H :    0.165181
   9 O :   -0.258743
  10 O :   -0.457944
  11 O :   -0.478591
  12 O :   -0.466981
  13 O :   -0.481049
  14 H :    0.179779
  15 H :    0.177161
  16 H :    0.357847
  17 H :    0.352012
  18 H :    0.367211
  19 H :    0.366125
Sum of atomic charges:    0.0000000

LOEWDIN ATOMIC CHARGES
----------------------
   0 C :    0.045437
   1 C :    0.089271
   2 H :    0.202977
   3 C :    0.122757
   4 H :    0.197054
   5 C :    0.120337
   6 H :    0.192829
   7 C :    0.288396
   8 H :    0.196496
   9 O :   -0.708775
  10 O :   -0.521273
  11 O :   -0.589394
  12 O :   -0.598725
  13 O :   -0.608702
  14 H :    0.186975
  15 H :    0.197860
  16 H :    0.302228
  17 H :    0.298742
  18 H :    0.293953
  19 H :    0.291555

  Mayer bond orders larger than 0.100000
B(  0-C ,  1-C ) :   0.8818 B(  0-C ,  9-O ) :   0.9071 B(  0-C , 14-H ) :   0.9748
B(  0-C , 15-H ) :   0.9475 B(  1-C ,  2-H ) :   0.9575 B(  1-C ,  3-C ) :   0.9254
B(  1-C , 13-O ) :   0.9485 B(  3-C ,  4-H ) :   0.9710 B(  3-C ,  5-C ) :   0.8914
B(  3-C , 12-O ) :   0.9914 B(  5-C ,  6-H ) :   0.9301 B(  5-C ,  7-C ) :   0.8915
B(  5-C , 11-O ) :   0.9021 B(  7-C ,  8-H ) :   0.9854 B(  7-C ,  9-O ) :   0.9235
B(  7-C , 10-O ) :   1.0667 B( 10-O , 16-H ) :   0.8554 B( 11-O , 17-H ) :   0.8542
B( 12-O , 18-H ) :   0.8595 B( 13-O , 19-H ) :   0.8213

Dispersion correction           -0.006436711
FINAL SINGLE POINT ENERGY      -572.586524064847

DIPOLE MOMENT
-------------

Method             : SCF
Type of density    : Electron Density
Multiplicity       :   1
Irrep              :   0
Energy             :  -572.5971275330664412 Eh
Relativity type    :
Basis              : AO
                                X                 Y                 Z
Electronic contribution:     -1.653524951       0.250806476       1.221538918
Nuclear contribution   :      1.075117238      -0.807169810      -2.219625853
                        -----------------------------------------
Total Dipole Moment    :     -0.578407712      -0.556363334      -0.998086934
                        -----------------------------------------
Magnitude (a.u.)       :      1.280731498
Magnitude (Debye)      :      3.255360759

Rotational constants in cm-1:             0.058468             0.040527             0.038498
Rotational constants in MHz :          1752.817765          1214.974577          1154.145330

                             ****ORCA TERMINATED NORMALLY****
TOTAL RUN TIME: 0 days 0 hours 0 minutes 51 seconds 173 msec
