                         Program Version 6.0.0  -   RELEASE  -
|  1> ! r2scan-3c def2/J RI DEFGRID2 scfconv6 printgap
|  2> %output
|  3>     printlevel normal
|  4> end
|  5> * xyz 0 1
|  6> C 0.6172590879 1.6958017732 -0.0268874657
|  7> C 1.3967492954 0.3997032519 -0.2603882407
|  8> H 1.5913587005 0.2779606844 -1.3378752225
|  9> C 0.5450411591 -0.790064708 0.2067502318
| 10> H 0.3627268883 -0.6862784076 1.284041447
| 11> C -0.8029373564 -0.7461181277 -0.5343041841
| 12> H -0.619201377 -0.8415360828 -1.6113415912
| 13> C -1.4645484948 0.6254351385 -0.2799051536
| 14> H -2.3643862794 0.7170881011 -0.9082958115
| 15> O -0.6393753136 1.6715365466 -0.6873632241
| 16> O -1.7983905267 0.7720790076 1.0717363769
| 17> O -1.7029086554 -1.7276622366 -0.0749210295
| 18> O 1.2677768501 -1.971806605 -0.0694199565
| 19> O 2.6057809766 0.4790644801 0.4486340215
| 20> H 1.1546568043 2.5453955879 -0.4454444277
| 21> H 0.480051882 1.8436392514 1.0497670142
| 22> H -2.3287245762 0.0032164605 1.3345982647
| 23> H -1.5073061682 -2.5768014852 -0.4943277223
| 24> H 0.9403624895 -2.6935543864 0.4844091626
| 25> H 3.0561476568 -0.376971198 0.3750116165
| 26> *
| 27>
| 28>                          ****END OF INPUT****

CARTESIAN COORDINATES (ANGSTROEM)
---------------------------------
  C      0.617259    1.695802   -0.026887
  C      1.396749    0.399703   -0.260388
  H      1.591359    0.277961   -1.337875
  C      0.545041   -0.790065    0.206750
  H      0.362727   -0.686278    1.284041
  C     -0.802937   -0.746118   -0.534304
  H     -0.619201   -0.841536   -1.611342
  C     -1.464548    0.625435   -0.279905
  H     -2.364386    0.717088   -0.908296
  O     -0.639375    1.671537   -0.687363
  O     -1.798391    0.772079    1.071736
  O     -1.702909   -1.727662   -0.074921
  O      1.267777   -1.971807   -0.069420
  O      2.605781    0.479064    0.448634
  H      1.154657    2.545396   -0.445444
  H      0.480052    1.843639    1.049767
  H     -2.328725    0.003216    1.334598
  H     -1.507306   -2.576801   -0.494328
  H      0.940362   -2.693554    0.484409
  H      3.056148   -0.376971    0.375012

 Total Charge           Charge          ....    0
 Multiplicity           Mult            ....    1
 Number of Electrons    NEL             ....   80
 Basis Dimension        Dim             ....  265

ORBITAL ENERGIES
----------------

  NO   OCC          E(Eh)            E(eV)
   0   2.0000     -18.978611      -516.4343
   1   2.0000     -18.973228      -516.2878
   2   2.0000     -18.968567      -516.1609
   3   2.0000     -18.958902      -515.8980
   4   2.0000     -18.953898      -515.7618
   5   2.0000     -10.136493      -275.8280
   6   2.0000     -10.094044      -274.6729
   7   2.0000     -10.090090      -274.5653
   8   2.0000     -10.087982      -274.5080
   9   2.0000     -10.078194      -274.2416
  10   2.0000      -1.047465       -28.5030
  11   2.0000      -1.019689       -27.7472
  12   2.0000      -1.008130       -27.4326
  13   2.0000      -0.988032       -26.8857
  14   2.0000      -0.975712       -26.5505
  15   2.0000      -0.751597       -20.4520
  16   2.0000      -0.722955       -19.6726
  17   2.0000      -0.622475       -16.9384
  18   2.0000      -0.608918       -16.5695
  19   2.0000      -0.550759       -14.9869
  20   2.0000      -0.517044       -14.0695
  21   2.0000      -0.515108       -14.0168
  22   2.0000      -0.493337       -13.4244
  23   2.0000      -0.488426       -13.2907
  24   2.0000      -0.454729       -12.3738
  25   2.0000      -0.439987       -11.9727
  26   2.0000      -0.433776       -11.8037
  27   2.0000      -0.393948       -10.7199
  28   2.0000      -0.390222       -10.6185
  29   2.0000      -0.372376       -10.1329
  30   2.0000      -0.354390        -9.6434
  31   2.0000      -0.330788        -9.0012
  32   2.0000      -0.329453        -8.9649
  33   2.0000      -0.308767        -8.4020
  34   2.0000      -0.298037        -8.1100
  35   2.0000      -0.290972        -7.9178
  36   2.0000      -0.265886        -7.2351
  37   2.0000      -0.250111        -6.8059
  38   2.0000      -0.240211        -6.5365
  39   2.0000      -0.226362        -6.1596
  40   0.0000       0.017473         0.4755
  41   0.0000       0.050662         1.3786
  42   0.0000       0.070804         1.9267
  43   0.0000       0.077755         2.1158
  44   0.0000       0.093331         2.5397

MULLIKEN ATOMIC CHARGES
-----------------------
   0 C :   -0.262679
   1 C :   -0.027076
   2 H :    0.154247
   3 C :    0.024662
   4 H :    0.170351
   5 C :   -0.037223
   6 H :    0.159485
   7 C :    0.021356
   8 H :    0.142396
   9 O :   -0.208224
  10 O :   -0.409893
  11 O :   -0.439584
  12 O :   -0.436821
  13 O :   -0.417213
  14 H :    0.152607
  15 H :    0.177216
  16 H :    0.319845
  17 H :    0.301896
  18 H :    0.304247
  19 H :    0.310405
Sum of atomic charges:    0.0000000

LOEWDIN ATOMIC CHARGES
----------------------
   0 C :    0.063763
   1 C :    0.106774
   2 H :    0.176656
   3 C :    0.096900
   4 H :    0.190828
   5 C :    0.106465
   6 H :    0.185764
   7 C :    0.295576
   8 H :    0.196163
   9 O :   -0.654532
  10 O :   -0.518723
  11 O :   -0.585442
  12 O :   -0.583814
  13 O :   -0.574914
  14 H :    0.190814
  15 H :    0.188219
  16 H :    0.287934
  17 H :    0.276796
  18 H :    0.273193
  19 H :    0.281578

  Mayer bond orders larger than 0.100000
B(  0-C ,  1-C ) :   0.9081 B(  0-C ,  9-O ) :   0.9093 B(  0-C , 14-H ) :   0.9397
B(  0-C , 15-H ) :   0.9755 B(  1-C ,  2-H ) :   0.9784 B(  1-C ,  3-C ) :   0.9025
B(  1-C , 13-O ) :   0.9166 B(  3-C ,  4-H ) :   0.9744 B(  3-C ,  5-C ) :   0.8276
B(  3-C , 12-O ) :   0.9502 B(  5-C ,  6-H ) :   0.9778 B(  5-C ,  7-C ) :   0.9106
B(  5-C , 11-O ) :   0.9089 B(  7-C ,  8-H ) :   0.9525 B(  7-C ,  9-O ) :   1.0444
B(  7-C , 10-O ) :   0.9617 B( 10-O , 16-H ) :   0.8693 B( 11-O , 17-H ) :   0.8941
B( 12-O , 18-H ) :   0.8914 B( 13-O , 19-H ) :   0.8776

Dispersion correction           -0.006282753
FINAL SINGLE POINT ENERGY      -572.560261268457

DIPOLE MOMENT
-------------

Method             : SCF
Type of density    : Electron Density
Multiplicity       :   1
Irrep              :   0
Energy             :  -572.5702831766935788 Eh
Relativity type    :
Basis              : AO
                                X                 Y                 Z
Electronic contribution:     -0.892131438       0.219143091       0.091425920
Nuclear contribution   :      0.714386547      -1.688807178      -0.242594520
                        -----------------------------------------
Total Dipole Moment    :     -0.177744892      -1.469664087      -0.151168600
                        -----------------------------------------
Magnitude (a.u.)       :      1.488071813
Magnitude (Debye)      :      3.782377958

Rotational constants in cm-1:             0.057197             0.044581             0.028985
Rotational constants in MHz :          1714.727562          1336.503469           868.938774

                             ****ORCA TERMINATED NORMALLY****
TOTAL RUN TIME: 0 days 0 hours 0 minutes 36 seconds 162 msec
