                         Program Version 6.0.0  -   RELEASE  -
|  1> ! r2scan-3c def2/J RI DEFGRID2 scfconv6 printgap
|  2> %output
|  3>     printlevel normal
|  4> end
|  5> %cpcm
|  6>     smd true
|  7>     smdsolvent "water"
|  8> end
|  9> * xyz 0 1
| 10> C 0.6172590879 1.6958017732 -0.0268874657
| 11> C 1.3967492954 0.3997032519 -0.2603882407
| 12> H 1.5913587005 0.2779606844 -1.3378752225
| 13> C 0.5450411591 -0.790064708 0.2067502318
| 14> H 0.3627268883 -0.6862784076 1.284041447
| 15> C -0.8029373564 -0.7461181277 -0.5343041841
| 16> H -0.619201377 -0.8415360828 -1.6113415912
| 17> C -1.4645484948 0.6254351385 -0.2799051536
| 18> H -2.3643862794 0.7170881011 -0.9082958115
| 19> O -0.6393753136 1.6715365466 -0.6873632241
| 20> O -1.7983905267 0.7720790076 1.0717363769
| 21> O -1.7029086554 -1.7276622366 -0.0749210295
| 22> O 1.2677768501 -1.971806605 -0.0694199565
| 23> O 2.6057809766 0.4790644801 0.4486340215
| 24> H 1.1546568043 2.5453955879 -0.4454444277
| 25> H 0.480051882 1.8436392514 1.0497670142
| 26> H -2.3287245762 0.0032164605 1.3345982647
| 27> H -1.5073061682 -2.5768014852 -0.4943277223
| 28> H 0.9403624895 -2.6935543864 0.4844091626
| 29> H 3.0561476568 -0.376971198 0.3750116165
| 30> *
| 31>
| 32>                          ****END OF INPUT****

CARTESIAN COORDINATES (ANGSTROEM)
---------------------------------
  C      0.617259    1.695802   -0.026887
  C      1.396749    0.399703   -0.260388
  H      1.591359    0.277961   -1.337875
  C      0.545041   -0.790065    0.206750
  H      0.362727   -0.686278    1.284041
  C     -0.802937   -0.746118   -0.534304
  H     -0.619201   -0.841536   -1.611342
  C     -1.464548    0.625435   -0.279905
  H     -2.364386    0.717088   -0.908296
  O     -0.639375    1.671537   -0.687363
  O     -1.798391    0.772079    1.071736
  O     -1.702909   -1.727662   -0.074921
  O      1.267777   -1.971807   -0.069420
  O      2.605781    0.479064    0.448634
  H      1.154657    2.545396   -0.445444
  H      0.480052    1.843639    1.049767
  H     -2.328725    0.003216    1.334598
  H     -1.507306   -2.576801   -0.494328
  H      0.940362   -2.693554    0.484409
  H      3.056148   -0.376971    0.375012

 Total Charge           Charge          ....    0
 Multiplicity           Mult            ....    1
 Number of Electrons    NEL             ....   80
 Basis Dimension        Dim             ....  265

ORBITAL ENERGIES
----------------

  NO   OCC          E(Eh)            E(eV)
   0   2.0000     -18.977248      -516.3972
   1   2.0000     -18.963261      -516.0166
   2   2.0000     -18.962170      -515.9869
   3   2.0000     -18.960393      -515.9385
   4   2.0000     -18.959490      -515.9139
   5   2.0000     -10.134830      -275.7827
   6   2.0000     -10.085340      -274.4361
   7   2.0000     -10.083859      -274.3958
   8   2.0000     -10.081513      -274.3319
   9   2.0000     -10.079265      -274.2708
  10   2.0000      -1.051139       -28.6029
  11   2.0000      -1.010207       -27.4891
  12   2.0000      -1.001404       -27.2496
  13   2.0000      -0.983924       -26.7739
  14   2.0000      -0.978540       -26.6274
  15   2.0000      -0.745928       -20.2977
  16   2.0000      -0.721344       -19.6288
  17   2.0000      -0.615601       -16.7514
  18   2.0000      -0.607194       -16.5226
  19   2.0000      -0.548919       -14.9368
  20   2.0000      -0.508986       -13.8502
  21   2.0000      -0.504467       -13.7272
  22   2.0000      -0.489958       -13.3324
  23   2.0000      -0.485401       -13.2084
  24   2.0000      -0.452176       -12.3043
  25   2.0000      -0.439027       -11.9465
  26   2.0000      -0.429264       -11.6809
  27   2.0000      -0.392344       -10.6762
  28   2.0000      -0.389295       -10.5933
  29   2.0000      -0.372877       -10.1465
  30   2.0000      -0.349741        -9.5169
  31   2.0000      -0.334746        -9.1089
  32   2.0000      -0.329300        -8.9607
  33   2.0000      -0.308785        -8.4025
  34   2.0000      -0.299657        -8.1541
  35   2.0000      -0.281803        -7.6682
  36   2.0000      -0.264841        -7.2067
  37   2.0000      -0.255188        -6.9440
  38   2.0000      -0.243745        -6.6326
  39   2.0000      -0.222518        -6.0550
  40   0.0000       0.036638         0.9970
  41   0.0000       0.066672         1.8142
  42   0.0000       0.085062         2.3146
  43   0.0000       0.094295         2.5659
  44   0.0000       0.106113         2.8875

MULLIKEN ATOMIC CHARGES
-----------------------
   0 C :   -0.276130
   1 C :   -0.004057
   2 H :    0.172103
   3 C :    0.008973
   4 H :    0.183017
   5 C :   -0.055418
   6 H :    0.187809
   7 C :    0.032935
   8 H :    0.161784
   9 O :   -0.263543
  10 O :   -0.465826
  11 O :   -0.485939
  12 O :   -0.486623
  13 O :   -0.487223
  14 H :    0.174479
  15 H :    0.183086
  16 H :    0.360604
  17 H :    0.352535
  18 H :    0.355568
  19 H :    0.351866
Sum of atomic charges:    0.0000000

LOEWDIN ATOMIC CHARGES
----------------------
   0 C :    0.058440
   1 C :    0.105461
   2 H :    0.185320
   3 C :    0.098610
   4 H :    0.194452
   5 C :    0.112393
   6 H :    0.195842
   7 C :    0.292667
   8 H :    0.205182
   9 O :   -0.685161
  10 O :   -0.543534
  11 O :   -0.592252
  12 O :   -0.594842
  13 O :   -0.604755
  14 H :    0.197473
  15 H :    0.188586
  16 H :    0.302221
  17 H :    0.295892
  18 H :    0.292696
  19 H :    0.295309

  Mayer bond orders larger than 0.100000
B(  0-C ,  1-C ) :   0.8985 B(  0-C ,  9-O ) :   0.9058 B(  0-C , 14-H ) :   0.9332
B(  0-C , 15-H ) :   0.9749 B(  1-C ,  2-H ) :   0.9690 B(  1-C ,  3-C ) :   0.9027
B(  1-C , 13-O ) :   0.8990 B(  3-C ,  4-H ) :   0.9675 B(  3-C ,  5-C ) :   0.8485
B(  3-C , 12-O ) :   0.9505 B(  5-C ,  6-H ) :   0.9758 B(  5-C ,  7-C ) :   0.9157
B(  5-C , 11-O ) :   0.9074 B(  7-C ,  8-H ) :   0.9408 B(  7-C ,  9-O ) :   1.0266
B(  7-C , 10-O ) :   0.9536 B( 10-O , 16-H ) :   0.8496 B( 11-O , 17-H ) :   0.8682
B( 12-O , 18-H ) :   0.8642 B( 13-O , 19-H ) :   0.8571

Dispersion correction           -0.006282753
FINAL SINGLE POINT ENERGY      -572.588010657471

DIPOLE MOMENT
-------------

Method             : SCF
Type of density    : Electron Density
Multiplicity       :   1
Irrep              :   0
Energy             :  -572.5980325657077401 Eh
Relativity type    :
Basis              : AO
                                X                 Y                 Z
Electronic contribution:     -0.964585579      -0.394811772      -0.028854795
Nuclear contribution   :      0.714386547      -1.688807178      -0.242594520
                        -----------------------------------------
Total Dipole Moment    :     -0.250199032      -2.083618951      -0.271449314
                        -----------------------------------------
Magnitude (a.u.)       :      2.116069993
Magnitude (Debye)      :      5.378622477

Rotational constants in cm-1:             0.057197             0.044581             0.028985
Rotational constants in MHz :          1714.727562          1336.503469           868.938774

                             ****ORCA TERMINATED NORMALLY****
TOTAL RUN TIME: 0 days 0 hours 0 minutes 47 seconds 965 msec
