                         Program Version 6.0.0  -   RELEASE  -
|  1> ! pbe def2-sv(p) def2/J RI DEFGRID1 loosescf d4 GCP(DFT/SV(P)) printgap
|  2> %output
|  3>     printlevel normal
|  4> end
|  5> * xyz 0 1
|  6> C 5.3824229758 -0.0485170284 -1.573871612
|  7> C 5.0104040365 -0.4764973091 -0.1697949097
|  8> O 3.6391356718 -0.918774912 -0.0711285649
|  9> P 2.3735041116 -0.0297470886 -0.4080761415
| 10> S 1.8999728077 0.1883286859 -2.3039472481
| 11> O 2.7370160715 1.3130599422 0.3625574108
| 12> C 1.9850848472 2.5342477243 0.2654504128
| 13> C 1.1316409398 2.7310830597 1.5021886023
| 14> S 0.979430396 -1.0810081009 0.7768680052
| 15> C -0.0883518238 -1.7788785919 -0.5353051338
| 16> S -1.7994551451 -1.9082502682 0.0035528877
| 17> P -2.1712054901 0.1710937819 0.3104228204
| 18> S -1.3216768123 1.4133116772 -0.9435555793
| 19> O -1.7456204472 0.4860244809 1.7947374471
| 20> C -1.8652670253 -0.3938732402 2.939830939
| 21> C -3.2743114451 -0.905015474 3.1437890656
| 22> O -3.7551574298 0.2762361104 0.3713895601
| 23> C -4.5684834076 0.478074923 -0.7960020792
| 24> C -4.5324209865 -0.7093518427 -1.7366920381
| 25> H 4.8028113644 0.8261364452 -1.8666963069
| 26> H 6.438948267 0.1980604899 -1.608291796
| 27> H 5.1750206382 -0.8482105623 -2.2811146211
| 28> H 5.1584340497 0.3397957158 0.5404370791
| 29> H 5.5792852811 -1.3528081525 0.1455022827
| 30> H 2.7355834493 3.3221527373 0.1752850228
| 31> H 1.3710848075 2.5129237214 -0.6413457668
| 32> H 1.7475449657 2.6635825819 2.3944518535
| 33> H 0.6622764922 3.7084877157 1.4555649532
| 34> H 0.3513132428 1.9741780264 1.5519076136
| 35> H 0.2397726764 -2.7893586958 -0.7655081956
| 36> H -0.016398853 -1.1289341441 -1.4128320279
| 37> H -1.1585109347 -1.2181206404 2.8054948554
| 38> H -1.5401271974 0.2359605851 3.7690995512
| 39> H -3.9713542477 -0.0732861223 3.2015295452
| 40> H -3.5647731865 -1.5518396447 2.3184978445
| 41> H -3.3128608636 -1.4726019845 4.0683745374
| 42> H -5.5681839727 0.6396560654 -0.3903585455
| 43> H -4.2238788499 1.3831152251 -1.3065317916
| 44> H -5.2632150174 -0.5634863779 -2.5257329807
| 45> H -3.5447816255 -0.7994721424 -2.1866831151
| 46> H -4.7581621043 -1.626579659 -1.1989984486
| 47> *
| 48>
| 49>                          ****END OF INPUT****

CARTESIAN COORDINATES (ANGSTROEM)
---------------------------------
  C      5.382423   -0.048517   -1.573872
  C      5.010404   -0.476497   -0.169795
  O      3.639136   -0.918775   -0.071129
  P      2.373504   -0.029747   -0.408076
  S      1.899973    0.188329   -2.303947
  O      2.737016    1.313060    0.362557
  C      1.985085    2.534248    0.265450
  C      1.131641    2.731083    1.502189
  S      0.979430   -1.081008    0.776868
  C     -0.088352   -1.778879   -0.535305
  S     -1.799455   -1.908250    0.003553
  P     -2.171205    0.171094    0.310423
  S     -1.321677    1.413312   -0.943556
  O     -1.745620    0.486024    1.794737
  C     -1.865267   -0.393873    2.939831
  C     -3.274311   -0.905015    3.143789
  O     -3.755157    0.276236    0.371390
  C     -4.568483    0.478075   -0.796002
  C     -4.532421   -0.709352   -1.736692
  H      4.802811    0.826136   -1.866696
  H      6.438948    0.198060   -1.608292
  H      5.175021   -0.848211   -2.281115
  H      5.158434    0.339796    0.540437
  H      5.579285   -1.352808    0.145502
  H      2.735583    3.322153    0.175285
  H      1.371085    2.512924   -0.641346
  H      1.747545    2.663583    2.394452
  H      0.662276    3.708488    1.455565
  H      0.351313    1.974178    1.551908
  H      0.239773   -2.789359   -0.765508
  H     -0.016399   -1.128934   -1.412832
  H     -1.158511   -1.218121    2.805495
  H     -1.540127    0.235961    3.769100
  H     -3.971354   -0.073286    3.201530
  H     -3.564773   -1.551840    2.318498
  H     -3.312861   -1.472602    4.068375
  H     -5.568184    0.639656   -0.390359
  H     -4.223879    1.383115   -1.306532
  H     -5.263215   -0.563486   -2.525733
  H     -3.544782   -0.799472   -2.186683
  H     -4.758162   -1.626580   -1.198998

 Total Charge           Charge          ....    0
 Multiplicity           Mult            ....    1
 Number of Electrons    NEL             ....  202
 Basis Dimension        Dim             ....  334

ORBITAL ENERGIES
----------------

  NO   OCC          E(Eh)            E(eV)
   0   2.0000     -88.048486     -2395.9211
   1   2.0000     -88.038244     -2395.6424
   2   2.0000     -87.981959     -2394.1108
   3   2.0000     -87.980252     -2394.0644
   4   2.0000     -76.427767     -2079.7053
   5   2.0000     -76.421627     -2079.5382
   6   2.0000     -18.794568      -511.4262
   7   2.0000     -18.792967      -511.3826
   8   2.0000     -18.789004      -511.2748
   9   2.0000     -18.783095      -511.1140
  10   2.0000      -9.956924      -270.9417
  11   2.0000      -9.953478      -270.8479
  12   2.0000      -9.951455      -270.7928
  13   2.0000      -9.950754      -270.7738
  14   2.0000      -9.941226      -270.5145
  15   2.0000      -9.889173      -269.0981
  16   2.0000      -9.884591      -268.9734
  17   2.0000      -9.879257      -268.8283
  18   2.0000      -9.869633      -268.5664
  19   2.0000      -7.693093      -209.3397
  20   2.0000      -7.683116      -209.0682
  21   2.0000      -7.626867      -207.5376
  22   2.0000      -7.625267      -207.4941
  23   2.0000      -6.424727      -174.8257
  24   2.0000      -6.419026      -174.6706
  25   2.0000      -5.720986      -155.6759
  26   2.0000      -5.717441      -155.5795
  27   2.0000      -5.711016      -155.4046
  28   2.0000      -5.710292      -155.3849
  29   2.0000      -5.707746      -155.3157
  30   2.0000      -5.699957      -155.1037
  31   2.0000      -5.655836      -153.9031
  32   2.0000      -5.654107      -153.8561
  33   2.0000      -5.647350      -153.6722
  34   2.0000      -5.647080      -153.6649
  35   2.0000      -5.645981      -153.6350
  36   2.0000      -5.645398      -153.6191
  37   2.0000      -4.647481      -126.4644
  38   2.0000      -4.646645      -126.4416
  39   2.0000      -4.644958      -126.3957
  40   2.0000      -4.641875      -126.3118
  41   2.0000      -4.640557      -126.2760
  42   2.0000      -4.639490      -126.2469
  43   2.0000      -0.988495       -26.8983
  44   2.0000      -0.982019       -26.7221
  45   2.0000      -0.947312       -25.7777
  46   2.0000      -0.937562       -25.5124
  47   2.0000      -0.762081       -20.7373
  48   2.0000      -0.720147       -19.5962
  49   2.0000      -0.708993       -19.2927
  50   2.0000      -0.691537       -18.8177
  51   2.0000      -0.680673       -18.5221
  52   2.0000      -0.673281       -18.3209
  53   2.0000      -0.649621       -17.6771
  54   2.0000      -0.631101       -17.1731
  55   2.0000      -0.598736       -16.2924
  56   2.0000      -0.588994       -16.0273
  57   2.0000      -0.577702       -15.7201
  58   2.0000      -0.568115       -15.4592
  59   2.0000      -0.558714       -15.2034
  60   2.0000      -0.496613       -13.5135
  61   2.0000      -0.490485       -13.3468
  62   2.0000      -0.473279       -12.8786
  63   2.0000      -0.467391       -12.7184
  64   2.0000      -0.451756       -12.2929
  65   2.0000      -0.448786       -12.2121
  66   2.0000      -0.443304       -12.0629
  67   2.0000      -0.434306       -11.8181
  68   2.0000      -0.419535       -11.4161
  69   2.0000      -0.413273       -11.2457
  70   2.0000      -0.409339       -11.1387
  71   2.0000      -0.404812       -11.0155
  72   2.0000      -0.399388       -10.8679
  73   2.0000      -0.381575       -10.3832
  74   2.0000      -0.380003       -10.3404
  75   2.0000      -0.369046       -10.0423
  76   2.0000      -0.363684        -9.8963
  77   2.0000      -0.357345        -9.7238
  78   2.0000      -0.354114        -9.6359
  79   2.0000      -0.347872        -9.4661
  80   2.0000      -0.344698        -9.3797
  81   2.0000      -0.341891        -9.3033
  82   2.0000      -0.338457        -9.2099
  83   2.0000      -0.333519        -9.0755
  84   2.0000      -0.326756        -8.8915
  85   2.0000      -0.314424        -8.5559
  86   2.0000      -0.310215        -8.4414
  87   2.0000      -0.295727        -8.0471
  88   2.0000      -0.292702        -7.9648
  89   2.0000      -0.286193        -7.7877
  90   2.0000      -0.283248        -7.7076
  91   2.0000      -0.275892        -7.5074
  92   2.0000      -0.269693        -7.3387
  93   2.0000      -0.263306        -7.1649
  94   2.0000      -0.256002        -6.9662
  95   2.0000      -0.234142        -6.3713
  96   2.0000      -0.222373        -6.0511
  97   2.0000      -0.208997        -5.6871
  98   2.0000      -0.199069        -5.4169
  99   2.0000      -0.194000        -5.2790
 100   2.0000      -0.185861        -5.0575
 101   0.0000      -0.044564        -1.2127
 102   0.0000      -0.032057        -0.8723
 103   0.0000      -0.009593        -0.2610
 104   0.0000       0.011558         0.3145
 105   0.0000       0.016323         0.4442

MULLIKEN ATOMIC CHARGES
-----------------------
   0 C :   -0.314984
   1 C :    0.002437
   2 O :   -0.373663
   3 P :    0.639204
   4 S :   -0.314961
   5 O :   -0.385113
   6 C :   -0.011416
   7 C :   -0.308556
   8 S :   -0.117068
   9 C :   -0.340972
  10 S :   -0.118515
  11 P :    0.598039
  12 S :   -0.304263
  13 O :   -0.351727
  14 C :   -0.003443
  15 C :   -0.304977
  16 O :   -0.372117
  17 C :   -0.000360
  18 C :   -0.320284
  19 H :    0.129161
  20 H :    0.107743
  21 H :    0.123000
  22 H :    0.107160
  23 H :    0.105267
  24 H :    0.096418
  25 H :    0.122863
  26 H :    0.100450
  27 H :    0.105848
  28 H :    0.145043
  29 H :    0.182362
  30 H :    0.215141
  31 H :    0.113865
  32 H :    0.110093
  33 H :    0.122622
  34 H :    0.119268
  35 H :    0.114487
  36 H :    0.104541
  37 H :    0.114507
  38 H :    0.114797
  39 H :    0.132453
  40 H :    0.115652
Sum of atomic charges:   -0.0000000

LOEWDIN ATOMIC CHARGES
----------------------
   0 C :   -0.367844
   1 C :   -0.110028
   2 O :   -0.248857
   3 P :    0.568499
   4 S :   -0.297552
   5 O :   -0.244881
   6 C :   -0.118118
   7 C :   -0.366363
   8 S :    0.074983
   9 C :   -0.479157
  10 S :    0.080259
  11 P :    0.569909
  12 S :   -0.296252
  13 O :   -0.230233
  14 C :   -0.115036
  15 C :   -0.366173
  16 O :   -0.242537
  17 C :   -0.117712
  18 C :   -0.370865
  19 H :    0.122460
  20 H :    0.127909
  21 H :    0.129154
  22 H :    0.112347
  23 H :    0.119503
  24 H :    0.113390
  25 H :    0.108515
  26 H :    0.118934
  27 H :    0.129557
  28 H :    0.122914
  29 H :    0.135504
  30 H :    0.123224
  31 H :    0.104123
  32 H :    0.122851
  33 H :    0.129106
  34 H :    0.116985
  35 H :    0.131995
  36 H :    0.118535
  37 H :    0.113327
  38 H :    0.131977
  39 H :    0.123185
  40 H :    0.122458

  Mayer bond orders larger than 0.100000
B(  0-C ,  1-C ) :   1.1663 B(  0-C , 19-H ) :   0.9357 B(  0-C , 20-H ) :   0.9358
B(  0-C , 21-H ) :   0.9452 B(  1-C ,  2-O ) :   0.9118 B(  1-C , 22-H ) :   0.9294
B(  1-C , 23-H ) :   0.9359 B(  2-O ,  3-P ) :   1.1243 B(  3-P ,  4-S ) :   1.6345
B(  3-P ,  5-O ) :   1.0978 B(  3-P ,  8-S ) :   0.9505 B(  4-S ,  8-S ) :   0.1247
B(  5-O ,  6-C ) :   0.8974 B(  6-C ,  7-C ) :   1.1723 B(  6-C , 24-H ) :   0.9344
B(  6-C , 25-H ) :   0.9022 B(  7-C , 26-H ) :   0.9462 B(  7-C , 27-H ) :   0.9404
B(  7-C , 28-H ) :   0.9251 B(  8-S ,  9-C ) :   0.9938 B(  9-C , 10-S ) :   1.0062
B(  9-C , 29-H ) :   0.9086 B(  9-C , 30-H ) :   0.8423 B( 10-S , 11-P ) :   0.9304
B( 10-S , 12-S ) :   0.1072 B( 11-P , 12-S ) :   1.6379 B( 11-P , 13-O ) :   1.1279
B( 11-P , 16-O ) :   1.0945 B( 13-O , 14-C ) :   0.8964 B( 14-C , 15-C ) :   1.1712
B( 14-C , 31-H ) :   0.9138 B( 14-C , 32-H ) :   0.9333 B( 15-C , 33-H ) :   0.9427
B( 15-C , 34-H ) :   0.9376 B( 15-C , 35-H ) :   0.9362 B( 16-O , 17-C ) :   0.9054
B( 17-C , 18-C ) :   1.1656 B( 17-C , 36-H ) :   0.9340 B( 17-C , 37-H ) :   0.9158
B( 18-C , 38-H ) :   0.9374 B( 18-C , 39-H ) :   0.9348 B( 18-C , 40-H ) :   0.9447

Dispersion correction           -0.066846531
FINAL SINGLE POINT ENERGY     -2929.518392240943

DIPOLE MOMENT
-------------

Method             : SCF
Type of density    : Electron Density
Multiplicity       :   1
Irrep              :   0
Energy             : -2929.6372728427227230 Eh
Relativity type    :
Basis              : AO
                                X                 Y                 Z
Electronic contribution:      2.340718080      -4.354425108      -4.978273932
Nuclear contribution   :     -2.656491066       4.039586163       6.051182609
                        -----------------------------------------
Total Dipole Moment    :     -0.315772986      -0.314838945       1.072908678
                        -----------------------------------------
Magnitude (a.u.)       :      1.161881737
Magnitude (Debye)      :      2.953268675

Rotational constants in cm-1:             0.014025             0.004750             0.004624
Rotational constants in MHz :           420.448316           142.393631           138.615611

                             ****ORCA TERMINATED NORMALLY****
TOTAL RUN TIME: 0 days 0 hours 0 minutes 21 seconds 307 msec
