                         Program Version 6.0.0  -   RELEASE  -
|  1> ! pbe def2-sv(p) def2/J RI DEFGRID1 loosescf d4 GCP(DFT/SV(P)) printgap
|  2> %output
|  3>     printlevel normal
|  4> end
|  5> * xyz 0 1
|  6> C 0.6089788797 1.6950948824 -0.0349114329
|  7> C 1.4173127189 0.4036801009 -0.2421573893
|  8> H 1.6750751138 0.2841364012 -1.3038327038
|  9> C 0.5669979212 -0.8053634278 0.1657310602
| 10> H 0.4383966558 -0.7779766133 1.2568081568
| 11> C -0.8135021384 -0.7520543811 -0.5109918916
| 12> H -0.6695680932 -0.9156425644 -1.5860375736
| 13> C -1.4721358247 0.6287598513 -0.2975068044
| 14> H -2.3642459539 0.7291123198 -0.9382415833
| 15> O -0.6322785064 1.6585832849 -0.7226991775
| 16> O -1.8313482495 0.7984882594 1.0436794364
| 17> O -1.6047930458 -1.7611880495 0.0729883231
| 18> O 1.2513795778 -1.9725415261 -0.2176447538
| 19> O 2.5712084723 0.4014852199 0.5616314603
| 20> H 1.1332780266 2.5573587364 -0.4461840318
| 21> H 0.4400062874 1.8415771603 1.0384357425
| 22> H -2.0396688696 -0.0772674122 1.413405536
| 23> H -2.3554765276 -1.9762220414 -0.4984890501
| 24> H 0.7582006912 -2.7410431542 0.1056218091
| 25> H 3.2200952159 1.0243393101 0.2057741951
| 26> *
| 27>
| 28>                          ****END OF INPUT****

CARTESIAN COORDINATES (ANGSTROEM)
---------------------------------
  C      0.608979    1.695095   -0.034911
  C      1.417313    0.403680   -0.242157
  H      1.675075    0.284136   -1.303833
  C      0.566998   -0.805363    0.165731
  H      0.438397   -0.777977    1.256808
  C     -0.813502   -0.752054   -0.510992
  H     -0.669568   -0.915643   -1.586038
  C     -1.472136    0.628760   -0.297507
  H     -2.364246    0.729112   -0.938242
  O     -0.632279    1.658583   -0.722699
  O     -1.831348    0.798488    1.043679
  O     -1.604793   -1.761188    0.072988
  O      1.251380   -1.972542   -0.217645
  O      2.571208    0.401485    0.561631
  H      1.133278    2.557359   -0.446184
  H      0.440006    1.841577    1.038436
  H     -2.039669   -0.077267    1.413406
  H     -2.355477   -1.976222   -0.498489
  H      0.758201   -2.741043    0.105622
  H      3.220095    1.024339    0.205774

 Total Charge           Charge          ....    0
 Multiplicity           Mult            ....    1
 Number of Electrons    NEL             ....   80
 Basis Dimension        Dim             ....  160

ORBITAL ENERGIES
----------------

  NO   OCC          E(Eh)            E(eV)
   0   2.0000     -18.782261      -511.0913
   1   2.0000     -18.765137      -510.6253
   2   2.0000     -18.752915      -510.2928
   3   2.0000     -18.749617      -510.2030
   4   2.0000     -18.743970      -510.0494
   5   2.0000      -9.982427      -271.6356
   6   2.0000      -9.947136      -270.6753
   7   2.0000      -9.941561      -270.5236
   8   2.0000      -9.940730      -270.5010
   9   2.0000      -9.927626      -270.1444
  10   2.0000      -0.979599       -26.6562
  11   2.0000      -0.952657       -25.9231
  12   2.0000      -0.933773       -25.4093
  13   2.0000      -0.913914       -24.8689
  14   2.0000      -0.906086       -24.6559
  15   2.0000      -0.701316       -19.0838
  16   2.0000      -0.676111       -18.3979
  17   2.0000      -0.592589       -16.1252
  18   2.0000      -0.569268       -15.4906
  19   2.0000      -0.517097       -14.0709
  20   2.0000      -0.499502       -13.5921
  21   2.0000      -0.482157       -13.1202
  22   2.0000      -0.473254       -12.8779
  23   2.0000      -0.457346       -12.4450
  24   2.0000      -0.451534       -12.2869
  25   2.0000      -0.422648       -11.5008
  26   2.0000      -0.389028       -10.5860
  27   2.0000      -0.373671       -10.1681
  28   2.0000      -0.365267        -9.9394
  29   2.0000      -0.345683        -9.4065
  30   2.0000      -0.326301        -8.8791
  31   2.0000      -0.305568        -8.3149
  32   2.0000      -0.303490        -8.2584
  33   2.0000      -0.284213        -7.7338
  34   2.0000      -0.266066        -7.2400
  35   2.0000      -0.264321        -7.1925
  36   2.0000      -0.243064        -6.6141
  37   2.0000      -0.229352        -6.2410
  38   2.0000      -0.218361        -5.9419
  39   2.0000      -0.197566        -5.3760
  40   0.0000       0.002345         0.0638
  41   0.0000       0.025563         0.6956
  42   0.0000       0.040411         1.0996
  43   0.0000       0.051145         1.3917
  44   0.0000       0.066308         1.8043

MULLIKEN ATOMIC CHARGES
-----------------------
   0 C :    0.077005
   1 C :    0.003744
   2 H :    0.061875
   3 C :    0.078595
   4 H :    0.057856
   5 C :   -0.032105
   6 H :    0.070937
   7 C :    0.197232
   8 H :    0.048900
   9 O :   -0.304541
  10 O :   -0.407478
  11 O :   -0.418511
  12 O :   -0.409671
  13 O :   -0.404780
  14 H :    0.082741
  15 H :    0.081545
  16 H :    0.302261
  17 H :    0.312713
  18 H :    0.300277
  19 H :    0.301403
Sum of atomic charges:    0.0000000

LOEWDIN ATOMIC CHARGES
----------------------
   0 C :   -0.129702
   1 C :   -0.074672
   2 H :    0.104243
   3 C :   -0.063045
   4 H :    0.108009
   5 C :   -0.106916
   6 H :    0.110991
   7 C :   -0.003724
   8 H :    0.088562
   9 O :   -0.141361
  10 O :   -0.320702
  11 O :   -0.316585
  12 O :   -0.317133
  13 O :   -0.312252
  14 H :    0.112521
  15 H :    0.111647
  16 H :    0.280715
  17 H :    0.295350
  18 H :    0.285210
  19 H :    0.288846

  Mayer bond orders larger than 0.100000
B(  0-C ,  1-C ) :   1.0458 B(  0-C ,  9-O ) :   0.9911 B(  0-C , 14-H ) :   0.9285
B(  0-C , 15-H ) :   0.8882 B(  1-C ,  2-H ) :   0.8820 B(  1-C ,  3-C ) :   1.0216
B(  1-C , 13-O ) :   1.0870 B(  3-C ,  4-H ) :   0.8815 B(  3-C ,  5-C ) :   0.9824
B(  3-C , 12-O ) :   1.0944 B(  5-C ,  6-H ) :   0.8797 B(  5-C ,  7-C ) :   0.9863
B(  5-C , 11-O ) :   1.0509 B(  7-C ,  8-H ) :   0.8989 B(  7-C ,  9-O ) :   1.0882
B(  7-C , 10-O ) :   1.0719 B( 10-O , 16-H ) :   0.8153 B( 11-O , 17-H ) :   0.8448
B( 12-O , 18-H ) :   0.8433 B( 13-O , 19-H ) :   0.8500

Dispersion correction           -0.019120314
FINAL SINGLE POINT ENERGY      -571.414325758283

DIPOLE MOMENT
-------------

Method             : SCF
Type of density    : Electron Density
Multiplicity       :   1
Irrep              :   0
Energy             :  -571.5222697029345227 Eh
Relativity type    :
Basis              : AO
                                X                 Y                 Z
Electronic contribution:     -0.648276469      -0.473260009       0.206992610
Nuclear contribution   :      0.217853100      -0.061400953      -0.695265276
                        -----------------------------------------
Total Dipole Moment    :     -0.430423369      -0.534660962      -0.488272666
                        -----------------------------------------
Magnitude (a.u.)       :      0.842340084
Magnitude (Debye)      :      2.141058341

Rotational constants in cm-1:             0.056881             0.044697             0.029111
Rotational constants in MHz :          1705.258552          1339.973046           872.727249

                             ****ORCA TERMINATED NORMALLY****
TOTAL RUN TIME: 0 days 0 hours 0 minutes 11 seconds 633 msec
