                         Program Version 6.0.0  -   RELEASE  -
|  1> ! pbe def2-sv(p) def2/J RI DEFGRID1 loosescf d4 GCP(DFT/SV(P)) printgap
|  2> %output
|  3>     printlevel normal
|  4> end
|  5> * xyz 0 1
|  6> C 3.2281659052 -0.7958924006 -2.5391734822
|  7> C 3.224801733 0.672796626 -2.1744215237
|  8> O 2.1752313501 1.0061289711 -1.2345649346
|  9> P 2.0402876693 0.4513729402 0.2308588028
| 10> S 0.9520199327 1.5988154948 1.3827994601
| 11> O 3.5756055978 0.37339595 0.6627917081
| 12> C 4.0129176314 0.3339921902 2.0306932188
| 13> C 3.6136371686 -0.9471007345 2.7346840833
| 14> S 1.4141569316 -1.5884850058 0.1065956951
| 15> C 0.076099264 -1.61168845 1.3332973862
| 16> S -1.5566503718 -2.0137217525 0.6395159014
| 17> P -2.0451806753 -0.2064261987 -0.3020695236
| 18> S -0.8577780579 0.5175816093 -1.6955479274
| 19> O -2.314097889 0.7069504309 0.9576751239
| 20> C -2.5885847138 2.1198218938 0.8301185937
| 21> C -2.4775906148 2.7366994194 2.2077115961
| 22> O -3.5182024819 -0.4769622027 -0.8345632589
| 23> C -3.7953618866 -1.0761796008 -2.1159368624
| 24> C -5.0916173292 -0.4935885346 -2.643260401
| 25> H 3.4884652447 -1.4014756298 -1.6721817322
| 26> H 2.244380644 -1.095306787 -2.8935879674
| 27> H 3.9588518117 -0.9659382969 -3.3237156357
| 28> H 2.9882397004 1.2996233536 -3.0356883391
| 29> H 4.1800810557 0.9742497304 -1.7397572374
| 30> H 5.0972638888 0.4293220876 1.9559965393
| 31> H 3.5986390299 1.2037292226 2.5504379292
| 32> H 4.0997649063 -0.9854640061 3.7042459547
| 33> H 2.5352338571 -0.9707992997 2.8818349321
| 34> H 3.9109019334 -1.8117587014 2.1470385227
| 35> H 0.0261617329 -0.6353140241 1.8235924291
| 36> H 0.2850342432 -2.4091703095 2.0414450726
| 37> H -1.8600611598 2.5543086203 0.1367471986
| 38> H -3.5927564847 2.2319712025 0.4145361209
| 39> H -2.7301270231 3.7900721791 2.1470557123
| 40> H -3.1564703374 2.2367743022 2.8919777305
| 41> H -1.4595355269 2.6326952757 2.5758793971
| 42> H -2.95866829 -0.8633859474 -2.7902047529
| 43> H -3.8744528931 -2.1552084072 -1.9649880032
| 44> H -5.8910744177 -0.6625885812 -1.9276360544
| 45> H -4.9835750653 0.5753597004 -2.806749014
| 46> H -5.3407319745 -0.9751296808 -3.5830887074
| 47> *
| 48>
| 49>                          ****END OF INPUT****

CARTESIAN COORDINATES (ANGSTROEM)
---------------------------------
  C      3.228166   -0.795892   -2.539173
  C      3.224802    0.672797   -2.174422
  O      2.175231    1.006129   -1.234565
  P      2.040288    0.451373    0.230859
  S      0.952020    1.598815    1.382799
  O      3.575606    0.373396    0.662792
  C      4.012918    0.333992    2.030693
  C      3.613637   -0.947101    2.734684
  S      1.414157   -1.588485    0.106596
  C      0.076099   -1.611688    1.333297
  S     -1.556650   -2.013722    0.639516
  P     -2.045181   -0.206426   -0.302070
  S     -0.857778    0.517582   -1.695548
  O     -2.314098    0.706950    0.957675
  C     -2.588585    2.119822    0.830119
  C     -2.477591    2.736699    2.207712
  O     -3.518202   -0.476962   -0.834563
  C     -3.795362   -1.076180   -2.115937
  C     -5.091617   -0.493589   -2.643260
  H      3.488465   -1.401476   -1.672182
  H      2.244381   -1.095307   -2.893588
  H      3.958852   -0.965938   -3.323716
  H      2.988240    1.299623   -3.035688
  H      4.180081    0.974250   -1.739757
  H      5.097264    0.429322    1.955997
  H      3.598639    1.203729    2.550438
  H      4.099765   -0.985464    3.704246
  H      2.535234   -0.970799    2.881835
  H      3.910902   -1.811759    2.147039
  H      0.026162   -0.635314    1.823592
  H      0.285034   -2.409170    2.041445
  H     -1.860061    2.554309    0.136747
  H     -3.592756    2.231971    0.414536
  H     -2.730127    3.790072    2.147056
  H     -3.156470    2.236774    2.891978
  H     -1.459536    2.632695    2.575879
  H     -2.958668   -0.863386   -2.790205
  H     -3.874453   -2.155208   -1.964988
  H     -5.891074   -0.662589   -1.927636
  H     -4.983575    0.575360   -2.806749
  H     -5.340732   -0.975130   -3.583089

 Total Charge           Charge          ....    0
 Multiplicity           Mult            ....    1
 Number of Electrons    NEL             ....  202
 Basis Dimension        Dim             ....  334

ORBITAL ENERGIES
----------------

  NO   OCC          E(Eh)            E(eV)
   0   2.0000     -88.037427     -2395.6202
   1   2.0000     -88.036445     -2395.5934
   2   2.0000     -87.983779     -2394.1603
   3   2.0000     -87.973766     -2393.8879
   4   2.0000     -76.424640     -2079.6202
   5   2.0000     -76.415713     -2079.3773
   6   2.0000     -18.787594      -511.2364
   7   2.0000     -18.786684      -511.2117
   8   2.0000     -18.783431      -511.1231
   9   2.0000     -18.780224      -511.0359
  10   2.0000      -9.953985      -270.8617
  11   2.0000      -9.952400      -270.8186
  12   2.0000      -9.952370      -270.8178
  13   2.0000      -9.946134      -270.6481
  14   2.0000      -9.940381      -270.4915
  15   2.0000      -9.886279      -269.0193
  16   2.0000      -9.885988      -269.0114
  17   2.0000      -9.883569      -268.9456
  18   2.0000      -9.875481      -268.7255
  19   2.0000      -7.682389      -209.0484
  20   2.0000      -7.682011      -209.0382
  21   2.0000      -7.628757      -207.5890
  22   2.0000      -7.618486      -207.3095
  23   2.0000      -6.421615      -174.7410
  24   2.0000      -6.413638      -174.5240
  25   2.0000      -5.710235      -155.3834
  26   2.0000      -5.710021      -155.3776
  27   2.0000      -5.706865      -155.2917
  28   2.0000      -5.706596      -155.2844
  29   2.0000      -5.699274      -155.0851
  30   2.0000      -5.698873      -155.0742
  31   2.0000      -5.657649      -153.9525
  32   2.0000      -5.649415      -153.7284
  33   2.0000      -5.648813      -153.7120
  34   2.0000      -5.647284      -153.6704
  35   2.0000      -5.639032      -153.4458
  36   2.0000      -5.638875      -153.4416
  37   2.0000      -4.644543      -126.3844
  38   2.0000      -4.643038      -126.3435
  39   2.0000      -4.642176      -126.3200
  40   2.0000      -4.636219      -126.1579
  41   2.0000      -4.635427      -126.1364
  42   2.0000      -4.633976      -126.0969
  43   2.0000      -0.984528       -26.7904
  44   2.0000      -0.977610       -26.6021
  45   2.0000      -0.939423       -25.5630
  46   2.0000      -0.936048       -25.4712
  47   2.0000      -0.757143       -20.6029
  48   2.0000      -0.717985       -19.5374
  49   2.0000      -0.707152       -19.2426
  50   2.0000      -0.689650       -18.7663
  51   2.0000      -0.682192       -18.5634
  52   2.0000      -0.672018       -18.2866
  53   2.0000      -0.645476       -17.5643
  54   2.0000      -0.627950       -17.0874
  55   2.0000      -0.596921       -16.2431
  56   2.0000      -0.581866       -15.8334
  57   2.0000      -0.578547       -15.7431
  58   2.0000      -0.562525       -15.3071
  59   2.0000      -0.553241       -15.0545
  60   2.0000      -0.500205       -13.6113
  61   2.0000      -0.493599       -13.4315
  62   2.0000      -0.474088       -12.9006
  63   2.0000      -0.467286       -12.7155
  64   2.0000      -0.449893       -12.2422
  65   2.0000      -0.445148       -12.1131
  66   2.0000      -0.437007       -11.8916
  67   2.0000      -0.431305       -11.7364
  68   2.0000      -0.424837       -11.5604
  69   2.0000      -0.423492       -11.5238
  70   2.0000      -0.402420       -10.9504
  71   2.0000      -0.398494       -10.8436
  72   2.0000      -0.386722       -10.5232
  73   2.0000      -0.381775       -10.3886
  74   2.0000      -0.374761       -10.1978
  75   2.0000      -0.368142       -10.0177
  76   2.0000      -0.361409        -9.8344
  77   2.0000      -0.354720        -9.6524
  78   2.0000      -0.351597        -9.5674
  79   2.0000      -0.350953        -9.5499
  80   2.0000      -0.344616        -9.3775
  81   2.0000      -0.340822        -9.2743
  82   2.0000      -0.336868        -9.1667
  83   2.0000      -0.333015        -9.0618
  84   2.0000      -0.325818        -8.8660
  85   2.0000      -0.310075        -8.4376
  86   2.0000      -0.307082        -8.3561
  87   2.0000      -0.295135        -8.0310
  88   2.0000      -0.292398        -7.9566
  89   2.0000      -0.291945        -7.9442
  90   2.0000      -0.282095        -7.6762
  91   2.0000      -0.270026        -7.3478
  92   2.0000      -0.263255        -7.1635
  93   2.0000      -0.257843        -7.0163
  94   2.0000      -0.253129        -6.8880
  95   2.0000      -0.233521        -6.3544
  96   2.0000      -0.219450        -5.9715
  97   2.0000      -0.203741        -5.5441
  98   2.0000      -0.200075        -5.4443
  99   2.0000      -0.186040        -5.0624
 100   2.0000      -0.182384        -4.9629
 101   0.0000      -0.035317        -0.9610
 102   0.0000      -0.031091        -0.8460
 103   0.0000      -0.008606        -0.2342
 104   0.0000       0.007113         0.1936
 105   0.0000       0.014517         0.3950

MULLIKEN ATOMIC CHARGES
-----------------------
   0 C :   -0.334900
   1 C :    0.007559
   2 O :   -0.350907
   3 P :    0.631270
   4 S :   -0.318853
   5 O :   -0.388562
   6 C :    0.005300
   7 C :   -0.320678
   8 S :   -0.100576
   9 C :   -0.361057
  10 S :   -0.088213
  11 P :    0.616937
  12 S :   -0.325345
  13 O :   -0.368718
  14 C :   -0.003247
  15 C :   -0.286590
  16 O :   -0.384158
  17 C :   -0.006335
  18 C :   -0.284146
  19 H :    0.126314
  20 H :    0.139728
  21 H :    0.115327
  22 H :    0.112216
  23 H :    0.108685
  24 H :    0.102137
  25 H :    0.110555
  26 H :    0.112254
  27 H :    0.123732
  28 H :    0.119133
  29 H :    0.202039
  30 H :    0.182328
  31 H :    0.115179
  32 H :    0.097199
  33 H :    0.106322
  34 H :    0.111385
  35 H :    0.130816
  36 H :    0.103242
  37 H :    0.099857
  38 H :    0.115557
  39 H :    0.117282
  40 H :    0.109929
Sum of atomic charges:   -0.0000000

LOEWDIN ATOMIC CHARGES
----------------------
   0 C :   -0.371381
   1 C :   -0.106798
   2 O :   -0.225389
   3 P :    0.580059
   4 S :   -0.294463
   5 O :   -0.254802
   6 C :   -0.116524
   7 C :   -0.369960
   8 S :    0.078209
   9 C :   -0.484687
  10 S :    0.078129
  11 P :    0.560158
  12 S :   -0.317605
  13 O :   -0.240360
  14 C :   -0.116948
  15 C :   -0.352466
  16 O :   -0.252294
  17 C :   -0.121167
  18 C :   -0.351983
  19 H :    0.116162
  20 H :    0.133545
  21 H :    0.132512
  22 H :    0.124152
  23 H :    0.113505
  24 H :    0.117507
  25 H :    0.110780
  26 H :    0.130458
  27 H :    0.120024
  28 H :    0.124396
  29 H :    0.123319
  30 H :    0.135746
  31 H :    0.111623
  32 H :    0.109088
  33 H :    0.128763
  34 H :    0.124850
  35 H :    0.124442
  36 H :    0.105166
  37 H :    0.111133
  38 H :    0.125973
  39 H :    0.127318
  40 H :    0.129810

  Mayer bond orders larger than 0.100000
B(  0-C ,  1-C ) :   1.1707 B(  0-C , 19-H ) :   0.9320 B(  0-C , 20-H ) :   0.9400
B(  0-C , 21-H ) :   0.9354 B(  1-C ,  2-O ) :   0.9009 B(  1-C , 22-H ) :   0.9324
B(  1-C , 23-H ) :   0.9262 B(  2-O ,  3-P ) :   1.1458 B(  3-P ,  4-S ) :   1.6036
B(  3-P ,  5-O ) :   1.0559 B(  3-P ,  8-S ) :   0.9440 B(  4-S ,  8-S ) :   0.1163
B(  4-S , 29-H ) :   0.1116 B(  5-O ,  6-C ) :   0.9191 B(  6-C ,  7-C ) :   1.1645
B(  6-C , 24-H ) :   0.9346 B(  6-C , 25-H ) :   0.9165 B(  7-C , 26-H ) :   0.9367
B(  7-C , 27-H ) :   0.9377 B(  7-C , 28-H ) :   0.9420 B(  8-S ,  9-C ) :   1.0043
B(  9-C , 10-S ) :   0.9951 B(  9-C , 29-H ) :   0.8446 B(  9-C , 30-H ) :   0.9082
B( 10-S , 11-P ) :   0.9778 B( 10-S , 12-S ) :   0.1172 B( 11-P , 12-S ) :   1.6388
B( 11-P , 13-O ) :   1.1322 B( 11-P , 16-O ) :   1.0961 B( 13-O , 14-C ) :   0.8912
B( 14-C , 15-C ) :   1.1652 B( 14-C , 31-H ) :   0.9099 B( 14-C , 32-H ) :   0.9305
B( 15-C , 33-H ) :   0.9413 B( 15-C , 34-H ) :   0.9491 B( 15-C , 35-H ) :   0.9448
B( 16-O , 17-C ) :   0.9090 B( 17-C , 18-C ) :   1.1617 B( 17-C , 36-H ) :   0.8996
B( 17-C , 37-H ) :   0.9329 B( 18-C , 38-H ) :   0.9510 B( 18-C , 39-H ) :   0.9508
B( 18-C , 40-H ) :   0.9419

Dispersion correction           -0.066305060
FINAL SINGLE POINT ENERGY     -2929.515123074193

DIPOLE MOMENT
-------------

Method             : SCF
Type of density    : Electron Density
Multiplicity       :   1
Irrep              :   0
Energy             : -2929.6331115340062752 Eh
Relativity type    :
Basis              : AO
                                X                 Y                 Z
Electronic contribution:      0.000067124      -3.103815654       0.382643318
Nuclear contribution   :      0.535159259       2.659279762      -0.393510288
                        -----------------------------------------
Total Dipole Moment    :      0.535226383      -0.444535892      -0.010866971
                        -----------------------------------------
Magnitude (a.u.)       :      0.695843036
Magnitude (Debye)      :      1.768692438

Rotational constants in cm-1:             0.011933             0.005300             0.004868
Rotational constants in MHz :           357.744752           158.875047           145.948092

                             ****ORCA TERMINATED NORMALLY****
TOTAL RUN TIME: 0 days 0 hours 0 minutes 21 seconds 267 msec
