                         Program Version 6.0.0  -   RELEASE  -
|  1> ! r2scan-3c def2/J RI DEFGRID2 scfconv6 printgap
|  2> %output
|  3>     printlevel normal
|  4> end
|  5> * xyz 0 1
|  6> C -0.6500854723 -0.998545715 -0.3844351824
|  7> C 0.6495787027 -0.9981374154 0.3845862456
|  8> Cl 1.6661829231 0.4182087598 -0.0657506155
|  9> Cl -1.665993411 0.4184452328 0.0656760019
| 10> H -1.2293343732 -1.886709718 -0.1378620001
| 11> H -0.4828801068 -0.9318619717 -1.4576996289
| 12> H 0.4824446424 -0.9305768403 1.4578085538
| 13> H 1.2291427322 -1.8863097236 0.1385774183
| 14> *
| 15>
| 16>                          ****END OF INPUT****

CARTESIAN COORDINATES (ANGSTROEM)
---------------------------------
  C     -0.650085   -0.998546   -0.384435
  C      0.649579   -0.998137    0.384586
  Cl     1.666183    0.418209   -0.065751
  Cl    -1.665993    0.418445    0.065676
  H     -1.229334   -1.886710   -0.137862
  H     -0.482880   -0.931862   -1.457700
  H      0.482445   -0.930577    1.457809
  H      1.229143   -1.886310    0.138577

 Total Charge           Charge          ....    0
 Multiplicity           Mult            ....    1
 Number of Electrons    NEL             ....   50
 Basis Dimension        Dim             ....  112

ORBITAL ENERGIES
----------------

  NO   OCC          E(Eh)            E(eV)
   0   2.0000    -101.210186     -2754.0692
   1   2.0000    -101.210172     -2754.0688
   2   2.0000     -10.114287      -275.2237
   3   2.0000     -10.114138      -275.2197
   4   2.0000      -9.365958      -254.8607
   5   2.0000      -9.365945      -254.8603
   6   2.0000      -7.112497      -193.5409
   7   2.0000      -7.112484      -193.5405
   8   2.0000      -7.101943      -193.2537
   9   2.0000      -7.101930      -193.2533
  10   2.0000      -7.101770      -193.2490
  11   2.0000      -7.101757      -193.2486
  12   2.0000      -0.853074       -23.2133
  13   2.0000      -0.800928       -21.7944
  14   2.0000      -0.700119       -19.0512
  15   2.0000      -0.595249       -16.1975
  16   2.0000      -0.469334       -12.7712
  17   2.0000      -0.458018       -12.4633
  18   2.0000      -0.417404       -11.3581
  19   2.0000      -0.380570       -10.3558
  20   2.0000      -0.373730       -10.1697
  21   2.0000      -0.284449        -7.7402
  22   2.0000      -0.281341        -7.6557
  23   2.0000      -0.273518        -7.4428
  24   2.0000      -0.269366        -7.3298
  25   0.0000      -0.020007        -0.5444
  26   0.0000       0.006992         0.1903
  27   0.0000       0.085770         2.3339
  28   0.0000       0.107742         2.9318
  29   0.0000       0.138642         3.7726

MULLIKEN ATOMIC CHARGES
-----------------------
   0 C :   -0.158165
   1 C :   -0.158210
   2 Cl:   -0.176258
   3 Cl:   -0.176225
   4 H :    0.162870
   5 H :    0.171567
   6 H :    0.171574
   7 H :    0.162848
Sum of atomic charges:   -0.0000000

LOEWDIN ATOMIC CHARGES
----------------------
   0 C :   -0.342672
   1 C :   -0.342761
   2 Cl:    0.011508
   3 Cl:    0.011538
   4 H :    0.164483
   5 H :    0.166714
   6 H :    0.166718
   7 H :    0.164472

  Mayer bond orders larger than 0.100000
B(  0-C ,  1-C ) :   0.9565 B(  0-C ,  3-Cl) :   0.9898 B(  0-C ,  4-H ) :   0.9402
B(  0-C ,  5-H ) :   0.9540 B(  1-C ,  2-Cl) :   0.9898 B(  1-C ,  6-H ) :   0.9540
B(  1-C ,  7-H ) :   0.9402

Dispersion correction           -0.001880681
FINAL SINGLE POINT ENERGY      -998.946224138934

DIPOLE MOMENT
-------------

Method             : SCF
Type of density    : Electron Density
Multiplicity       :   1
Irrep              :   0
Energy             :  -998.9527206809570998 Eh
Relativity type    :
Basis              : AO
                                X                 Y                 Z
Electronic contribution:      0.000571136       5.256651630      -0.000742416
Nuclear contribution   :     -0.000842698      -6.410008515       0.000873525
                        -----------------------------------------
Total Dipole Moment    :     -0.000271563      -1.153356885       0.000131109
                        -----------------------------------------
Magnitude (a.u.)       :      1.153356925
Magnitude (Debye)      :      2.931600324

Rotational constants in cm-1:             0.315366             0.077094             0.065912
Rotational constants in MHz :          9454.444017          2311.206806          1976.005763

                             ****ORCA TERMINATED NORMALLY****
TOTAL RUN TIME: 0 days 0 hours 0 minutes 39 seconds 344 msec
