                         Program Version 6.0.0  -   RELEASE  -
|  1> ! r2scan-3c def2/J RI DEFGRID2 scfconv6 printgap
|  2> %output
|  3>     printlevel normal
|  4> end
|  5> %cpcm
|  6>     smd true
|  7>     smdsolvent "water"
|  8> end
|  9> * xyz 0 1
| 10> C -0.6500854723 -0.998545715 -0.3844351824
| 11> C 0.6495787027 -0.9981374154 0.3845862456
| 12> Cl 1.6661829231 0.4182087598 -0.0657506155
| 13> Cl -1.665993411 0.4184452328 0.0656760019
| 14> H -1.2293343732 -1.886709718 -0.1378620001
| 15> H -0.4828801068 -0.9318619717 -1.4576996289
| 16> H 0.4824446424 -0.9305768403 1.4578085538
| 17> H 1.2291427322 -1.8863097236 0.1385774183
| 18> *
| 19>
| 20>                          ****END OF INPUT****

CARTESIAN COORDINATES (ANGSTROEM)
---------------------------------
  C     -0.650085   -0.998546   -0.384435
  C      0.649579   -0.998137    0.384586
  Cl     1.666183    0.418209   -0.065751
  Cl    -1.665993    0.418445    0.065676
  H     -1.229334   -1.886710   -0.137862
  H     -0.482880   -0.931862   -1.457700
  H      0.482445   -0.930577    1.457809
  H      1.229143   -1.886310    0.138577

 Total Charge           Charge          ....    0
 Multiplicity           Mult            ....    1
 Number of Electrons    NEL             ....   50
 Basis Dimension        Dim             ....  112

ORBITAL ENERGIES
----------------

  NO   OCC          E(Eh)            E(eV)
   0   2.0000    -101.206018     -2753.9558
   1   2.0000    -101.206009     -2753.9555
   2   2.0000     -10.095633      -274.7161
   3   2.0000     -10.095485      -274.7121
   4   2.0000      -9.362148      -254.7570
   5   2.0000      -9.362140      -254.7568
   6   2.0000      -7.108224      -193.4246
   7   2.0000      -7.108216      -193.4244
   8   2.0000      -7.098314      -193.1549
   9   2.0000      -7.098306      -193.1547
  10   2.0000      -7.098188      -193.1515
  11   2.0000      -7.098180      -193.1513
  12   2.0000      -0.842736       -22.9320
  13   2.0000      -0.795460       -21.6456
  14   2.0000      -0.687115       -18.6974
  15   2.0000      -0.577989       -15.7279
  16   2.0000      -0.451113       -12.2754
  17   2.0000      -0.441114       -12.0033
  18   2.0000      -0.403329       -10.9751
  19   2.0000      -0.366825        -9.9818
  20   2.0000      -0.362161        -9.8549
  21   2.0000      -0.282345        -7.6830
  22   2.0000      -0.276822        -7.5327
  23   2.0000      -0.269423        -7.3314
  24   2.0000      -0.266557        -7.2534
  25   0.0000      -0.008715        -0.2372
  26   0.0000       0.017827         0.4851
  27   0.0000       0.107761         2.9323
  28   0.0000       0.125931         3.4268
  29   0.0000       0.159543         4.3414

MULLIKEN ATOMIC CHARGES
-----------------------
   0 C :   -0.166160
   1 C :   -0.166165
   2 Cl:   -0.230953
   3 Cl:   -0.230927
   4 H :    0.201397
   5 H :    0.195743
   6 H :    0.195718
   7 H :    0.201347
Sum of atomic charges:   -0.0000000

LOEWDIN ATOMIC CHARGES
----------------------
   0 C :   -0.331182
   1 C :   -0.331274
   2 Cl:   -0.025162
   3 Cl:   -0.025136
   4 H :    0.181014
   5 H :    0.175379
   6 H :    0.175367
   7 H :    0.180994

  Mayer bond orders larger than 0.100000
B(  0-C ,  1-C ) :   0.9592 B(  0-C ,  3-Cl) :   0.9445 B(  0-C ,  4-H ) :   0.9329
B(  0-C ,  5-H ) :   0.9466 B(  1-C ,  2-Cl) :   0.9445 B(  1-C ,  6-H ) :   0.9467
B(  1-C ,  7-H ) :   0.9329

Dispersion correction           -0.001880681
FINAL SINGLE POINT ENERGY      -998.953202826396

DIPOLE MOMENT
-------------

Method             : SCF
Type of density    : Electron Density
Multiplicity       :   1
Irrep              :   0
Energy             :  -998.9596993684191375 Eh
Relativity type    :
Basis              : AO
                                X                 Y                 Z
Electronic contribution:      0.000498737       4.787688965      -0.000715402
Nuclear contribution   :     -0.000842698      -6.410008515       0.000873525
                        -----------------------------------------
Total Dipole Moment    :     -0.000343961      -1.622319550       0.000158124
                        -----------------------------------------
Magnitude (a.u.)       :      1.622319595
Magnitude (Debye)      :      4.123608701

Rotational constants in cm-1:             0.315366             0.077094             0.065912
Rotational constants in MHz :          9454.444017          2311.206806          1976.005763

                             ****ORCA TERMINATED NORMALLY****
TOTAL RUN TIME: 0 days 0 hours 0 minutes 36 seconds 790 msec
