                         Program Version 6.0.0  -   RELEASE  -
|  1> ! pbe def2-sv(p) def2/J RI DEFGRID1 loosescf d4 GCP(DFT/SV(P)) printgap
|  2> %output
|  3>     printlevel normal
|  4> end
|  5> * xyz 0 1
|  6> C 3.0490832528 -0.1129287545 -2.8691102339
|  7> C 1.7914664067 -0.8056484933 -2.3890506895
|  8> O 1.8930711235 -1.2289284187 -1.0155447287
|  9> P 2.1297143072 -0.24297761 0.1996576673
| 10> S 1.296061233 1.5353730956 0.0852876469
| 11> O 3.7147695508 -0.2191688635 0.2925423291
| 12> C 4.4350621877 0.7512896435 1.071453252
| 13> C 4.2227482242 0.5615665467 2.5595124975
| 14> S 1.5376277355 -1.5015556182 1.7766942931
| 15> C -0.2329367159 -1.1264794713 1.7819025167
| 16> S -1.0794169649 -1.6246170592 0.2404443641
| 17> P -2.062798699 0.1793453085 -0.2502910247
| 18> S -2.2230023103 1.5478984437 1.1481773803
| 19> O -3.4542817437 -0.3122935737 -0.8463245254
| 20> C -4.6285639184 -0.4781341367 -0.0347170312
| 21> C -4.483815206 -1.6067385662 0.9658905696
| 22> O -1.3001272258 0.5659206763 -1.5867616173
| 23> C -1.3650220579 1.8945788064 -2.1459379111
| 24> C -2.7681373134 2.2760838263 -2.5651742278
| 25> H 3.9145312553 -0.7475840178 -2.696779114
| 26> H 2.9609684799 0.1008184087 -3.9297980017
| 27> H 3.1854474902 0.8235004775 -2.3285024044
| 28> H 1.6065854059 -1.7354836234 -2.9291457733
| 29> H 0.9211163755 -0.148831369 -2.4811481016
| 30> H 5.4764546378 0.5913919118 0.7890749036
| 31> H 4.1134231328 1.7510642091 0.7618509307
| 32> H 3.1915124811 0.7943916958 2.8221250083
| 33> H 4.4310493911 -0.4670977164 2.84252855
| 34> H 4.8830792022 1.2284867903 3.1045900953
| 35> H -0.3914253057 -0.0550326012 1.9335259531
| 36> H -0.6494326556 -1.7027685839 2.6040265735
| 37> H -4.8260712776 0.466623195 0.4820486606
| 38> H -5.4195046153 -0.6796133938 -0.7583368162
| 39> H -3.738876065 -1.3431921056 1.7156927832
| 40> H -5.4360307454 -1.7722896833 1.4595137636
| 41> H -4.1712786462 -2.5193955375 0.4648056302
| 42> H -0.9694718543 2.596601393 -1.4039813708
| 43> H -0.6865741036 1.8520645633 -2.9996937713
| 44> H -2.7390042634 3.2327041016 -3.0774405772
| 45> H -3.1800713038 1.519200138 -3.2277355661
| 46> H -3.4074386475 2.3650380526 -1.6876251665
| 47> *
| 48>
| 49>                          ****END OF INPUT****

CARTESIAN COORDINATES (ANGSTROEM)
---------------------------------
  C      3.049083   -0.112929   -2.869110
  C      1.791466   -0.805648   -2.389051
  O      1.893071   -1.228928   -1.015545
  P      2.129714   -0.242978    0.199658
  S      1.296061    1.535373    0.085288
  O      3.714770   -0.219169    0.292542
  C      4.435062    0.751290    1.071453
  C      4.222748    0.561567    2.559512
  S      1.537628   -1.501556    1.776694
  C     -0.232937   -1.126479    1.781903
  S     -1.079417   -1.624617    0.240444
  P     -2.062799    0.179345   -0.250291
  S     -2.223002    1.547898    1.148177
  O     -3.454282   -0.312294   -0.846325
  C     -4.628564   -0.478134   -0.034717
  C     -4.483815   -1.606739    0.965891
  O     -1.300127    0.565921   -1.586762
  C     -1.365022    1.894579   -2.145938
  C     -2.768137    2.276084   -2.565174
  H      3.914531   -0.747584   -2.696779
  H      2.960968    0.100818   -3.929798
  H      3.185447    0.823500   -2.328502
  H      1.606585   -1.735484   -2.929146
  H      0.921116   -0.148831   -2.481148
  H      5.476455    0.591392    0.789075
  H      4.113423    1.751064    0.761851
  H      3.191512    0.794392    2.822125
  H      4.431049   -0.467098    2.842529
  H      4.883079    1.228487    3.104590
  H     -0.391425   -0.055033    1.933526
  H     -0.649433   -1.702769    2.604027
  H     -4.826071    0.466623    0.482049
  H     -5.419505   -0.679613   -0.758337
  H     -3.738876   -1.343192    1.715693
  H     -5.436031   -1.772290    1.459514
  H     -4.171279   -2.519396    0.464806
  H     -0.969472    2.596601   -1.403981
  H     -0.686574    1.852065   -2.999694
  H     -2.739004    3.232704   -3.077441
  H     -3.180071    1.519200   -3.227736
  H     -3.407439    2.365038   -1.687625

 Total Charge           Charge          ....    0
 Multiplicity           Mult            ....    1
 Number of Electrons    NEL             ....  202
 Basis Dimension        Dim             ....  334

ORBITAL ENERGIES
----------------

  NO   OCC          E(Eh)            E(eV)
   0   2.0000     -88.041610     -2395.7340
   1   2.0000     -88.039901     -2395.6875
   2   2.0000     -87.986767     -2394.2417
   3   2.0000     -87.984103     -2394.1692
   4   2.0000     -76.424153     -2079.6069
   5   2.0000     -76.423985     -2079.6024
   6   2.0000     -18.792283      -511.3640
   7   2.0000     -18.789400      -511.2856
   8   2.0000     -18.786258      -511.2001
   9   2.0000     -18.784080      -511.1408
  10   2.0000      -9.953487      -270.8481
  11   2.0000      -9.951463      -270.7931
  12   2.0000      -9.950213      -270.7591
  13   2.0000      -9.946885      -270.6685
  14   2.0000      -9.946186      -270.6495
  15   2.0000      -9.883066      -268.9319
  16   2.0000      -9.882498      -268.9164
  17   2.0000      -9.880673      -268.8668
  18   2.0000      -9.880511      -268.8624
  19   2.0000      -7.687230      -209.1802
  20   2.0000      -7.684841      -209.1152
  21   2.0000      -7.631656      -207.6679
  22   2.0000      -7.628679      -207.5869
  23   2.0000      -6.421593      -174.7404
  24   2.0000      -6.421365      -174.7342
  25   2.0000      -5.715173      -155.5178
  26   2.0000      -5.712742      -155.4516
  27   2.0000      -5.711679      -155.4227
  28   2.0000      -5.709509      -155.3636
  29   2.0000      -5.704090      -155.2162
  30   2.0000      -5.701603      -155.1485
  31   2.0000      -5.660495      -154.0299
  32   2.0000      -5.657461      -153.9473
  33   2.0000      -5.652499      -153.8123
  34   2.0000      -5.651683      -153.7901
  35   2.0000      -5.649385      -153.7276
  36   2.0000      -5.648936      -153.7154
  37   2.0000      -4.643857      -126.3658
  38   2.0000      -4.643774      -126.3635
  39   2.0000      -4.643218      -126.3484
  40   2.0000      -4.643122      -126.3458
  41   2.0000      -4.642477      -126.3282
  42   2.0000      -4.642014      -126.3156
  43   2.0000      -0.984069       -26.7779
  44   2.0000      -0.983394       -26.7595
  45   2.0000      -0.942458       -25.6456
  46   2.0000      -0.941249       -25.6127
  47   2.0000      -0.760864       -20.7042
  48   2.0000      -0.718975       -19.5643
  49   2.0000      -0.705125       -19.1874
  50   2.0000      -0.685565       -18.6552
  51   2.0000      -0.684073       -18.6146
  52   2.0000      -0.673196       -18.3186
  53   2.0000      -0.651569       -17.7301
  54   2.0000      -0.634157       -17.2563
  55   2.0000      -0.603744       -16.4287
  56   2.0000      -0.593282       -16.1440
  57   2.0000      -0.570932       -15.5358
  58   2.0000      -0.569429       -15.4949
  59   2.0000      -0.558459       -15.1964
  60   2.0000      -0.492470       -13.4008
  61   2.0000      -0.486623       -13.2417
  62   2.0000      -0.468991       -12.7619
  63   2.0000      -0.468469       -12.7477
  64   2.0000      -0.447553       -12.1785
  65   2.0000      -0.445299       -12.1172
  66   2.0000      -0.438178       -11.9234
  67   2.0000      -0.436809       -11.8862
  68   2.0000      -0.426161       -11.5964
  69   2.0000      -0.415305       -11.3010
  70   2.0000      -0.409470       -11.1422
  71   2.0000      -0.395626       -10.7655
  72   2.0000      -0.390334       -10.6215
  73   2.0000      -0.387932       -10.5562
  74   2.0000      -0.379785       -10.3345
  75   2.0000      -0.379398       -10.3239
  76   2.0000      -0.372013       -10.1230
  77   2.0000      -0.353031        -9.6065
  78   2.0000      -0.351503        -9.5649
  79   2.0000      -0.347086        -9.4447
  80   2.0000      -0.345478        -9.4009
  81   2.0000      -0.341171        -9.2837
  82   2.0000      -0.338981        -9.2242
  83   2.0000      -0.335103        -9.1186
  84   2.0000      -0.332326        -9.0431
  85   2.0000      -0.313208        -8.5228
  86   2.0000      -0.309926        -8.4335
  87   2.0000      -0.293764        -7.9937
  88   2.0000      -0.292798        -7.9674
  89   2.0000      -0.282132        -7.6772
  90   2.0000      -0.279017        -7.5924
  91   2.0000      -0.271225        -7.3804
  92   2.0000      -0.268942        -7.3183
  93   2.0000      -0.263243        -7.1632
  94   2.0000      -0.260553        -7.0900
  95   2.0000      -0.230432        -6.2704
  96   2.0000      -0.219583        -5.9751
  97   2.0000      -0.215490        -5.8638
  98   2.0000      -0.203579        -5.5397
  99   2.0000      -0.196979        -5.3601
 100   2.0000      -0.189752        -5.1634
 101   0.0000      -0.039373        -1.0714
 102   0.0000      -0.032233        -0.8771
 103   0.0000      -0.008583        -0.2336
 104   0.0000       0.015288         0.4160
 105   0.0000       0.023319         0.6345

MULLIKEN ATOMIC CHARGES
-----------------------
   0 C :   -0.312557
   1 C :   -0.017487
   2 O :   -0.359771
   3 P :    0.610237
   4 S :   -0.327589
   5 O :   -0.371358
   6 C :   -0.002569
   7 C :   -0.318334
   8 S :   -0.081335
   9 C :   -0.362202
  10 S :   -0.083159
  11 P :    0.615070
  12 S :   -0.317523
  13 O :   -0.373857
  14 C :   -0.001665
  15 C :   -0.310222
  16 O :   -0.362860
  17 C :   -0.007399
  18 C :   -0.299275
  19 H :    0.116318
  20 H :    0.108666
  21 H :    0.120522
  22 H :    0.103738
  23 H :    0.135430
  24 H :    0.104827
  25 H :    0.109894
  26 H :    0.129754
  27 H :    0.118471
  28 H :    0.113483
  29 H :    0.209302
  30 H :    0.181172
  31 H :    0.108537
  32 H :    0.103767
  33 H :    0.118633
  34 H :    0.111281
  35 H :    0.119397
  36 H :    0.122464
  37 H :    0.100716
  38 H :    0.110186
  39 H :    0.114794
  40 H :    0.122503
Sum of atomic charges:   -0.0000000

LOEWDIN ATOMIC CHARGES
----------------------
   0 C :   -0.368012
   1 C :   -0.115638
   2 O :   -0.237194
   3 P :    0.567613
   4 S :   -0.310339
   5 O :   -0.243242
   6 C :   -0.119308
   7 C :   -0.369874
   8 S :    0.093652
   9 C :   -0.479182
  10 S :    0.089731
  11 P :    0.575937
  12 S :   -0.306224
  13 O :   -0.246057
  14 C :   -0.119645
  15 C :   -0.369156
  16 O :   -0.238179
  17 C :   -0.117729
  18 C :   -0.366331
  19 H :    0.125782
  20 H :    0.128534
  21 H :    0.120286
  22 H :    0.119815
  23 H :    0.116134
  24 H :    0.118566
  25 H :    0.110110
  26 H :    0.122380
  27 H :    0.124304
  28 H :    0.131342
  29 H :    0.124866
  30 H :    0.135050
  31 H :    0.108993
  32 H :    0.117994
  33 H :    0.118761
  34 H :    0.129811
  35 H :    0.124489
  36 H :    0.110934
  37 H :    0.114187
  38 H :    0.129962
  39 H :    0.125367
  40 H :    0.121506

  Mayer bond orders larger than 0.100000
B(  0-C ,  1-C ) :   1.1610 B(  0-C , 19-H ) :   0.9443 B(  0-C , 20-H ) :   0.9387
B(  0-C , 21-H ) :   0.9338 B(  1-C ,  2-O ) :   0.9025 B(  1-C , 22-H ) :   0.9348
B(  1-C , 23-H ) :   0.9112 B(  2-O ,  3-P ) :   1.1355 B(  3-P ,  4-S ) :   1.6015
B(  3-P ,  5-O ) :   1.1044 B(  3-P ,  8-S ) :   0.9589 B(  4-S ,  8-S ) :   0.1095
B(  5-O ,  6-C ) :   0.9084 B(  6-C ,  7-C ) :   1.1668 B(  6-C , 24-H ) :   0.9338
B(  6-C , 25-H ) :   0.9146 B(  7-C , 26-H ) :   0.9353 B(  7-C , 27-H ) :   0.9446
B(  7-C , 28-H ) :   0.9379 B(  8-S ,  9-C ) :   1.0046 B(  9-C , 10-S ) :   0.9952
B(  9-C , 29-H ) :   0.8507 B(  9-C , 30-H ) :   0.9111 B( 10-S , 11-P ) :   0.9678
B( 10-S , 12-S ) :   0.1187 B( 11-P , 12-S ) :   1.5866 B( 11-P , 13-O ) :   1.0971
B( 11-P , 16-O ) :   1.1250 B( 13-O , 14-C ) :   0.9144 B( 14-C , 15-C ) :   1.1668
B( 14-C , 31-H ) :   0.9154 B( 14-C , 32-H ) :   0.9341 B( 15-C , 33-H ) :   0.9378
B( 15-C , 34-H ) :   0.9378 B( 15-C , 35-H ) :   0.9431 B( 16-O , 17-C ) :   0.9015
B( 17-C , 18-C ) :   1.1639 B( 17-C , 36-H ) :   0.9166 B( 17-C , 37-H ) :   0.9311
B( 18-C , 38-H ) :   0.9379 B( 18-C , 39-H ) :   0.9443 B( 18-C , 40-H ) :   0.9349

Dispersion correction           -0.068306110
FINAL SINGLE POINT ENERGY     -2929.522417243588

DIPOLE MOMENT
-------------

Method             : SCF
Type of density    : Electron Density
Multiplicity       :   1
Irrep              :   0
Energy             : -2929.6400700970475555 Eh
Relativity type    :
Basis              : AO
                                X                 Y                 Z
Electronic contribution:      0.962418760      -6.042773503       7.552826969
Nuclear contribution   :     -0.907030332       5.810723368      -8.107963137
                        -----------------------------------------
Total Dipole Moment    :      0.055388428      -0.232050134      -0.555136169
                        -----------------------------------------
Magnitude (a.u.)       :      0.604227862
Magnitude (Debye)      :      1.535825170

Rotational constants in cm-1:             0.012714             0.005437             0.004862
Rotational constants in MHz :           381.168488           162.990790           145.744438

                             ****ORCA TERMINATED NORMALLY****
TOTAL RUN TIME: 0 days 0 hours 0 minutes 21 seconds 144 msec
