                         Program Version 6.0.0  -   RELEASE  -
|  1> ! pbe def2-sv(p) def2/J RI DEFGRID1 loosescf d4 GCP(DFT/SV(P)) printgap
|  2> %output
|  3>     printlevel normal
|  4> end
|  5> * xyz 0 1
|  6> C 4.4366970385 0.6894962631 -2.1555708677
|  7> C 3.1791779827 -0.1141125154 -2.410434247
|  8> O 2.7326188152 -0.7936941822 -1.2184860978
|  9> P 2.1132208986 -0.0244782506 0.0160145462
| 10> S 1.197763953 1.6658118956 -0.4108277484
| 11> O 3.3686184651 0.1970232234 0.9653818151
| 12> C 3.3398896241 1.0972250193 2.0849839405
| 13> C 2.400401543 0.6164505499 3.1722518607
| 14> S 1.1530997905 -1.6630328922 0.9431585746
| 15> C 0.1766689118 -2.3180777746 -0.452330472
| 16> S -0.575432481 -1.0535021649 -1.5096312852
| 17> P -1.978640496 -0.2191319538 -0.1572385805
| 18> S -1.4822364001 0.416094876 1.6332515545
| 19> O -2.9829862095 -1.4432263996 -0.153678661
| 20> C -3.9945064579 -1.6113690442 0.8603354669
| 21> C -5.1096287037 -0.5986432283 0.709206664
| 22> O -2.7040228762 0.8371680322 -1.0918312654
| 23> C -2.3926866461 2.2442183304 -1.147625794
| 24> C -3.340892386 3.0337166124 -0.2662435334
| 25> H 4.7954756764 1.1047368522 -3.0920372383
| 26> H 4.219985942 1.5047686741 -1.466242714
| 27> H 5.2047529775 0.0563206663 -1.7194314681
| 28> H 3.3490623293 -0.9219734362 -3.1230314114
| 29> H 2.3690973201 0.5312789062 -2.7652834315
| 30> H 4.3751855142 1.1241177668 2.427181182
| 31> H 3.0374424236 2.087275895 1.7274093967
| 32> H 2.6447519737 -0.4029393875 3.4608911441
| 33> H 2.4812385805 1.2676805847 4.0365393145
| 34> H 1.3694926496 0.6386299433 2.8149719186
| 35> H -0.5973922082 -2.9451594866 -0.0144723041
| 36> H 0.8311621804 -2.8958485491 -1.1010542407
| 37> H -4.3495185301 -2.6317146535 0.7094457677
| 38> H -3.5195922517 -1.5196708075 1.84266146
| 39> H -5.5088214712 -0.6287510298 -0.3012168013
| 40> H -5.899547565 -0.823042047 1.4190920769
| 41> H -4.7276563081 0.4014350846 0.9076522995
| 42> H -1.354505154 2.4068018218 -0.845916619
| 43> H -2.5085213382 2.5102907102 -2.1997105175
| 44> H -3.1943648768 2.7619239554 0.7772704904
| 45> H -3.1342547856 4.0924271109 -0.3845398785
| 46> H -4.3708112735 2.8324342644 -0.5482587126
| 47> *
| 48>
| 49>                          ****END OF INPUT****

CARTESIAN COORDINATES (ANGSTROEM)
---------------------------------
  C      4.436697    0.689496   -2.155571
  C      3.179178   -0.114113   -2.410434
  O      2.732619   -0.793694   -1.218486
  P      2.113221   -0.024478    0.016015
  S      1.197764    1.665812   -0.410828
  O      3.368618    0.197023    0.965382
  C      3.339890    1.097225    2.084984
  C      2.400402    0.616451    3.172252
  S      1.153100   -1.663033    0.943159
  C      0.176669   -2.318078   -0.452330
  S     -0.575432   -1.053502   -1.509631
  P     -1.978640   -0.219132   -0.157239
  S     -1.482236    0.416095    1.633252
  O     -2.982986   -1.443226   -0.153679
  C     -3.994506   -1.611369    0.860335
  C     -5.109629   -0.598643    0.709207
  O     -2.704023    0.837168   -1.091831
  C     -2.392687    2.244218   -1.147626
  C     -3.340892    3.033717   -0.266244
  H      4.795476    1.104737   -3.092037
  H      4.219986    1.504769   -1.466243
  H      5.204753    0.056321   -1.719431
  H      3.349062   -0.921973   -3.123031
  H      2.369097    0.531279   -2.765283
  H      4.375186    1.124118    2.427181
  H      3.037442    2.087276    1.727409
  H      2.644752   -0.402939    3.460891
  H      2.481239    1.267681    4.036539
  H      1.369493    0.638630    2.814972
  H     -0.597392   -2.945159   -0.014472
  H      0.831162   -2.895849   -1.101054
  H     -4.349519   -2.631715    0.709446
  H     -3.519592   -1.519671    1.842661
  H     -5.508821   -0.628751   -0.301217
  H     -5.899548   -0.823042    1.419092
  H     -4.727656    0.401435    0.907652
  H     -1.354505    2.406802   -0.845917
  H     -2.508521    2.510291   -2.199711
  H     -3.194365    2.761924    0.777270
  H     -3.134255    4.092427   -0.384540
  H     -4.370811    2.832434   -0.548259

 Total Charge           Charge          ....    0
 Multiplicity           Mult            ....    1
 Number of Electrons    NEL             ....  202
 Basis Dimension        Dim             ....  334

ORBITAL ENERGIES
----------------

  NO   OCC          E(Eh)            E(eV)
   0   2.0000     -88.038259     -2395.6428
   1   2.0000     -88.033867     -2395.5233
   2   2.0000     -87.981385     -2394.0952
   3   2.0000     -87.979342     -2394.0396
   4   2.0000     -76.422881     -2079.5723
   5   2.0000     -76.422420     -2079.5598
   6   2.0000     -18.788978      -511.2741
   7   2.0000     -18.788444      -511.2595
   8   2.0000     -18.787211      -511.2260
   9   2.0000     -18.787066      -511.2220
  10   2.0000      -9.957025      -270.9444
  11   2.0000      -9.948491      -270.7122
  12   2.0000      -9.948393      -270.7095
  13   2.0000      -9.946255      -270.6513
  14   2.0000      -9.946253      -270.6513
  15   2.0000      -9.882251      -268.9097
  16   2.0000      -9.880705      -268.8676
  17   2.0000      -9.877670      -268.7851
  18   2.0000      -9.877309      -268.7753
  19   2.0000      -7.683332      -209.0741
  20   2.0000      -7.679172      -208.9609
  21   2.0000      -7.626004      -207.5141
  22   2.0000      -7.623947      -207.4581
  23   2.0000      -6.420086      -174.6994
  24   2.0000      -6.419572      -174.6854
  25   2.0000      -5.711369      -155.4143
  26   2.0000      -5.707965      -155.3216
  27   2.0000      -5.707379      -155.3057
  28   2.0000      -5.703774      -155.2076
  29   2.0000      -5.699946      -155.1034
  30   2.0000      -5.695641      -154.9863
  31   2.0000      -5.654920      -153.8782
  32   2.0000      -5.652841      -153.8216
  33   2.0000      -5.646542      -153.6502
  34   2.0000      -5.646294      -153.6435
  35   2.0000      -5.644604      -153.5975
  36   2.0000      -5.644143      -153.5849
  37   2.0000      -4.642619      -126.3321
  38   2.0000      -4.642226      -126.3214
  39   2.0000      -4.641860      -126.3114
  40   2.0000      -4.641408      -126.2991
  41   2.0000      -4.640625      -126.2778
  42   2.0000      -4.639966      -126.2599
  43   2.0000      -0.983035       -26.7498
  44   2.0000      -0.982194       -26.7269
  45   2.0000      -0.943392       -25.6710
  46   2.0000      -0.942148       -25.6372
  47   2.0000      -0.759931       -20.6788
  48   2.0000      -0.716655       -19.5012
  49   2.0000      -0.703597       -19.1458
  50   2.0000      -0.683244       -18.5920
  51   2.0000      -0.682330       -18.5671
  52   2.0000      -0.664542       -18.0831
  53   2.0000      -0.650563       -17.7027
  54   2.0000      -0.634943       -17.2777
  55   2.0000      -0.597833       -16.2679
  56   2.0000      -0.589057       -16.0291
  57   2.0000      -0.569003       -15.4834
  58   2.0000      -0.565500       -15.3880
  59   2.0000      -0.561005       -15.2657
  60   2.0000      -0.498431       -13.5630
  61   2.0000      -0.487116       -13.2551
  62   2.0000      -0.473403       -12.8820
  63   2.0000      -0.468463       -12.7475
  64   2.0000      -0.452703       -12.3187
  65   2.0000      -0.439017       -11.9463
  66   2.0000      -0.434537       -11.8244
  67   2.0000      -0.431117       -11.7313
  68   2.0000      -0.421922       -11.4811
  69   2.0000      -0.412187       -11.2162
  70   2.0000      -0.402075       -10.9410
  71   2.0000      -0.393382       -10.7045
  72   2.0000      -0.390168       -10.6170
  73   2.0000      -0.388552       -10.5730
  74   2.0000      -0.380569       -10.3558
  75   2.0000      -0.372738       -10.1427
  76   2.0000      -0.367616       -10.0033
  77   2.0000      -0.353904        -9.6302
  78   2.0000      -0.350521        -9.5382
  79   2.0000      -0.348002        -9.4696
  80   2.0000      -0.344508        -9.3745
  81   2.0000      -0.343253        -9.3404
  82   2.0000      -0.337357        -9.1799
  83   2.0000      -0.333624        -9.0784
  84   2.0000      -0.327375        -8.9083
  85   2.0000      -0.318958        -8.6793
  86   2.0000      -0.304946        -8.2980
  87   2.0000      -0.292032        -7.9466
  88   2.0000      -0.290856        -7.9146
  89   2.0000      -0.279536        -7.6066
  90   2.0000      -0.279246        -7.5987
  91   2.0000      -0.272347        -7.4109
  92   2.0000      -0.266835        -7.2610
  93   2.0000      -0.258880        -7.0445
  94   2.0000      -0.257227        -6.9995
  95   2.0000      -0.245504        -6.6805
  96   2.0000      -0.220428        -5.9982
  97   2.0000      -0.210783        -5.7357
  98   2.0000      -0.186447        -5.0735
  99   2.0000      -0.184666        -5.0250
 100   2.0000      -0.181158        -4.9295
 101   0.0000      -0.048288        -1.3140
 102   0.0000      -0.028541        -0.7766
 103   0.0000      -0.009244        -0.2515
 104   0.0000       0.005502         0.1497
 105   0.0000       0.024233         0.6594

MULLIKEN ATOMIC CHARGES
-----------------------
   0 C :   -0.304602
   1 C :   -0.002113
   2 O :   -0.373002
   3 P :    0.624948
   4 S :   -0.332779
   5 O :   -0.370088
   6 C :   -0.000434
   7 C :   -0.341914
   8 S :   -0.092786
   9 C :   -0.318303
  10 S :   -0.095057
  11 P :    0.623830
  12 S :   -0.307655
  13 O :   -0.372155
  14 C :   -0.004896
  15 C :   -0.315041
  16 O :   -0.378900
  17 C :   -0.021154
  18 C :   -0.299741
  19 H :    0.110141
  20 H :    0.122720
  21 H :    0.116310
  22 H :    0.100710
  23 H :    0.111710
  24 H :    0.102562
  25 H :    0.109212
  26 H :    0.119117
  27 H :    0.112773
  28 H :    0.153744
  29 H :    0.178792
  30 H :    0.187067
  31 H :    0.101705
  32 H :    0.109027
  33 H :    0.117361
  34 H :    0.110661
  35 H :    0.130082
  36 H :    0.134670
  37 H :    0.102899
  38 H :    0.129408
  39 H :    0.108802
  40 H :    0.112369
Sum of atomic charges:   -0.0000000

LOEWDIN ATOMIC CHARGES
----------------------
   0 C :   -0.364488
   1 C :   -0.118467
   2 O :   -0.242838
   3 P :    0.573158
   4 S :   -0.316567
   5 O :   -0.243640
   6 C :   -0.120965
   7 C :   -0.373969
   8 S :    0.085782
   9 C :   -0.468809
  10 S :    0.090276
  11 P :    0.569069
  12 S :   -0.304851
  13 O :   -0.245021
  14 C :   -0.120760
  15 C :   -0.364640
  16 O :   -0.245407
  17 C :   -0.116019
  18 C :   -0.362373
  19 H :    0.129486
  20 H :    0.123053
  21 H :    0.126399
  22 H :    0.116574
  23 H :    0.110395
  24 H :    0.117412
  25 H :    0.108924
  26 H :    0.123882
  27 H :    0.131614
  28 H :    0.125537
  29 H :    0.132480
  30 H :    0.135502
  31 H :    0.116681
  32 H :    0.108433
  33 H :    0.126659
  34 H :    0.129887
  35 H :    0.124563
  36 H :    0.109419
  37 H :    0.117495
  38 H :    0.124158
  39 H :    0.129498
  40 H :    0.122476

  Mayer bond orders larger than 0.100000
B(  0-C ,  1-C ) :   1.1663 B(  0-C , 19-H ) :   0.9394 B(  0-C , 20-H ) :   0.9356
B(  0-C , 21-H ) :   0.9461 B(  1-C ,  2-O ) :   0.9029 B(  1-C , 22-H ) :   0.9344
B(  1-C , 23-H ) :   0.9142 B(  2-O ,  3-P ) :   1.1155 B(  3-P ,  4-S ) :   1.5750
B(  3-P ,  5-O ) :   1.1090 B(  3-P ,  8-S ) :   0.9767 B(  4-S ,  8-S ) :   0.1159
B(  5-O ,  6-C ) :   0.9082 B(  6-C ,  7-C ) :   1.1649 B(  6-C , 24-H ) :   0.9328
B(  6-C , 25-H ) :   0.9128 B(  7-C , 26-H ) :   0.9431 B(  7-C , 27-H ) :   0.9376
B(  7-C , 28-H ) :   0.9258 B(  8-S ,  9-C ) :   0.9852 B(  9-C , 10-S ) :   1.0127
B(  9-C , 29-H ) :   0.9055 B(  9-C , 30-H ) :   0.9085 B( 10-S , 11-P ) :   0.9397
B( 10-S , 12-S ) :   0.1195 B( 11-P , 12-S ) :   1.6262 B( 11-P , 13-O ) :   1.1097
B( 11-P , 16-O ) :   1.1213 B( 13-O , 14-C ) :   0.9091 B( 14-C , 15-C ) :   1.1653
B( 14-C , 31-H ) :   0.9342 B( 14-C , 32-H ) :   0.9114 B( 15-C , 33-H ) :   0.9464
B( 15-C , 34-H ) :   0.9385 B( 15-C , 35-H ) :   0.9336 B( 16-O , 17-C ) :   0.8927
B( 17-C , 18-C ) :   1.1705 B( 17-C , 36-H ) :   0.9044 B( 17-C , 37-H ) :   0.9355
B( 18-C , 38-H ) :   0.9322 B( 18-C , 39-H ) :   0.9390 B( 18-C , 40-H ) :   0.9440

Dispersion correction           -0.068423017
FINAL SINGLE POINT ENERGY     -2929.513913047972

DIPOLE MOMENT
-------------

Method             : SCF
Type of density    : Electron Density
Multiplicity       :   1
Irrep              :   0
Energy             : -2929.6293299747326273 Eh
Relativity type    :
Basis              : AO
                                X                 Y                 Z
Electronic contribution:      4.262527211     -10.349560962      -2.802897988
Nuclear contribution   :     -4.332494801      10.116897270       2.488522534
                        -----------------------------------------
Total Dipole Moment    :     -0.069967590      -0.232663693      -0.314375454
                        -----------------------------------------
Magnitude (a.u.)       :      0.397315723
Magnitude (Debye)      :      1.009896310

Rotational constants in cm-1:             0.012673             0.005246             0.005209
Rotational constants in MHz :           379.932127           157.262585           156.173158

                             ****ORCA TERMINATED NORMALLY****
TOTAL RUN TIME: 0 days 0 hours 0 minutes 21 seconds 297 msec
