                         Program Version 6.0.0  -   RELEASE  -
|  1> ! pbe def2-sv(p) def2/J RI DEFGRID1 loosescf d4 GCP(DFT/SV(P)) printgap
|  2> %output
|  3>     printlevel normal
|  4> end
|  5> * xyz 0 1
|  6> C 4.2431046873 -2.3480216699 -0.5516952132
|  7> C 4.1663595067 -0.9075728969 -1.0207751143
|  8> O 3.4937913019 -0.0824773767 -0.0574528537
|  9> P 1.9467860131 0.3019772485 -0.1208913979
| 10> S 1.3313603167 0.6621831345 -1.9476483602
| 11> O 1.9004539481 1.4396163268 0.9691023992
| 12> C 1.9926256395 2.8395492433 0.6391989476
| 13> C 3.3458790501 3.1977683668 0.0628951526
| 14> S 0.9573658263 -1.2000217578 1.0052165262
| 15> C 0.2974467307 -2.2218417944 -0.3381455009
| 16> S -1.2198403605 -1.6040213476 -1.1651861991
| 17> P -2.0294214739 -0.2564542637 0.2320235132
| 18> S -1.2482147181 1.5228461868 0.5521121436
| 19> O -2.1473281949 -1.2124573244 1.4860004931
| 20> C -2.2396935767 -0.7167134896 2.8362631602
| 21> C -3.5837292809 -0.0715912111 3.1000401983
| 22> O -3.537324684 -0.1614595301 -0.2645290089
| 23> C -3.9853326479 0.8285153031 -1.20375156
| 24> C -3.404184818 0.6024715329 -2.5848652784
| 25> H 4.8257466755 -2.9233978823 -1.2639660409
| 26> H 4.719997468 -2.3936334264 0.423485959
| 27> H 3.2494800026 -2.7828973619 -0.4710122714
| 28> H 3.6483958436 -0.8210267212 -1.9825520615
| 29> H 5.1637594074 -0.4725431598 -1.1083804419
| 30> H 1.1859059913 3.0824870136 -0.0603475936
| 31> H 1.8058996478 3.3405003835 1.5901841886
| 32> H 3.3993792429 4.2718249637 -0.0844482842
| 33> H 4.1355736865 2.8822949399 0.7398308438
| 34> H 3.4823176022 2.7005602793 -0.8970085974
| 35> H 0.0629334209 -3.184289861 0.1103812991
| 36> H 1.0349361278 -2.3230845327 -1.1334712228
| 37> H -2.0828764893 -1.6038366667 3.4509397184
| 38> H -1.4249664282 -0.0034132669 3.001500517
| 39> H -3.653317761 0.2035237847 4.1476848908
| 40> H -3.6881105727 0.8249727575 2.4898393017
| 41> H -4.3852738123 -0.7613871268 2.8498698325
| 42> H -5.0709457114 0.7229731102 -1.1994602056
| 43> H -3.7038379891 1.8174869541 -0.8262583656
| 44> H -3.6070177775 -0.411750327 -2.9196832437
| 45> H -3.8410647731 1.3097580033 -3.2824992564
| 46> H -2.3237818428 0.7514993433 -2.5642366339
| 47> *
| 48>
| 49>                          ****END OF INPUT****

CARTESIAN COORDINATES (ANGSTROEM)
---------------------------------
  C      4.243105   -2.348022   -0.551695
  C      4.166360   -0.907573   -1.020775
  O      3.493791   -0.082477   -0.057453
  P      1.946786    0.301977   -0.120891
  S      1.331360    0.662183   -1.947648
  O      1.900454    1.439616    0.969102
  C      1.992626    2.839549    0.639199
  C      3.345879    3.197768    0.062895
  S      0.957366   -1.200022    1.005217
  C      0.297447   -2.221842   -0.338146
  S     -1.219840   -1.604021   -1.165186
  P     -2.029421   -0.256454    0.232024
  S     -1.248215    1.522846    0.552112
  O     -2.147328   -1.212457    1.486000
  C     -2.239694   -0.716713    2.836263
  C     -3.583729   -0.071591    3.100040
  O     -3.537325   -0.161460   -0.264529
  C     -3.985333    0.828515   -1.203752
  C     -3.404185    0.602472   -2.584865
  H      4.825747   -2.923398   -1.263966
  H      4.719997   -2.393633    0.423486
  H      3.249480   -2.782897   -0.471012
  H      3.648396   -0.821027   -1.982552
  H      5.163759   -0.472543   -1.108380
  H      1.185906    3.082487   -0.060348
  H      1.805900    3.340500    1.590184
  H      3.399379    4.271825   -0.084448
  H      4.135574    2.882295    0.739831
  H      3.482318    2.700560   -0.897009
  H      0.062933   -3.184290    0.110381
  H      1.034936   -2.323085   -1.133471
  H     -2.082876   -1.603837    3.450940
  H     -1.424966   -0.003413    3.001501
  H     -3.653318    0.203524    4.147685
  H     -3.688111    0.824973    2.489839
  H     -4.385274   -0.761387    2.849870
  H     -5.070946    0.722973   -1.199460
  H     -3.703838    1.817487   -0.826258
  H     -3.607018   -0.411750   -2.919683
  H     -3.841065    1.309758   -3.282499
  H     -2.323782    0.751499   -2.564237

 Total Charge           Charge          ....    0
 Multiplicity           Mult            ....    1
 Number of Electrons    NEL             ....  202
 Basis Dimension        Dim             ....  334

ORBITAL ENERGIES
----------------

  NO   OCC          E(Eh)            E(eV)
   0   2.0000     -88.044044     -2395.8002
   1   2.0000     -88.033036     -2395.5007
   2   2.0000     -87.985506     -2394.2073
   3   2.0000     -87.977989     -2394.0028
   4   2.0000     -76.423925     -2079.6007
   5   2.0000     -76.420533     -2079.5084
   6   2.0000     -18.786375      -511.2032
   7   2.0000     -18.785182      -511.1708
   8   2.0000     -18.784565      -511.1540
   9   2.0000     -18.784151      -511.1427
  10   2.0000      -9.960083      -271.0276
  11   2.0000      -9.950105      -270.7561
  12   2.0000      -9.947375      -270.6818
  13   2.0000      -9.945837      -270.6400
  14   2.0000      -9.945174      -270.6219
  15   2.0000      -9.887997      -269.0661
  16   2.0000      -9.879447      -268.8334
  17   2.0000      -9.878693      -268.8129
  18   2.0000      -9.877465      -268.7795
  19   2.0000      -7.688518      -209.2152
  20   2.0000      -7.678373      -208.9392
  21   2.0000      -7.630353      -207.6325
  22   2.0000      -7.622609      -207.4217
  23   2.0000      -6.421017      -174.7248
  24   2.0000      -6.417612      -174.6321
  25   2.0000      -5.716518      -155.5544
  26   2.0000      -5.713116      -155.4618
  27   2.0000      -5.706624      -155.2851
  28   2.0000      -5.705269      -155.2483
  29   2.0000      -5.702873      -155.1831
  30   2.0000      -5.694920      -154.9667
  31   2.0000      -5.659199      -153.9946
  32   2.0000      -5.651476      -153.7845
  33   2.0000      -5.651427      -153.7831
  34   2.0000      -5.650109      -153.7473
  35   2.0000      -5.643226      -153.5600
  36   2.0000      -5.642920      -153.5517
  37   2.0000      -4.643248      -126.3492
  38   2.0000      -4.642806      -126.3372
  39   2.0000      -4.641815      -126.3102
  40   2.0000      -4.640184      -126.2658
  41   2.0000      -4.639481      -126.2467
  42   2.0000      -4.638069      -126.2083
  43   2.0000      -0.982316       -26.7302
  44   2.0000      -0.980396       -26.6779
  45   2.0000      -0.940497       -25.5922
  46   2.0000      -0.939828       -25.5740
  47   2.0000      -0.759693       -20.6723
  48   2.0000      -0.716603       -19.4998
  49   2.0000      -0.704596       -19.1730
  50   2.0000      -0.685357       -18.6495
  51   2.0000      -0.680739       -18.5239
  52   2.0000      -0.667715       -18.1694
  53   2.0000      -0.650122       -17.6907
  54   2.0000      -0.634600       -17.2683
  55   2.0000      -0.600741       -16.3470
  56   2.0000      -0.589816       -16.0497
  57   2.0000      -0.569265       -15.4905
  58   2.0000      -0.566855       -15.4249
  59   2.0000      -0.561091       -15.2681
  60   2.0000      -0.495086       -13.4720
  61   2.0000      -0.486708       -13.2440
  62   2.0000      -0.471296       -12.8246
  63   2.0000      -0.467008       -12.7079
  64   2.0000      -0.454290       -12.3618
  65   2.0000      -0.438628       -11.9357
  66   2.0000      -0.434599       -11.8260
  67   2.0000      -0.432425       -11.7669
  68   2.0000      -0.424826       -11.5601
  69   2.0000      -0.412911       -11.2359
  70   2.0000      -0.398347       -10.8396
  71   2.0000      -0.393328       -10.7030
  72   2.0000      -0.389368       -10.5952
  73   2.0000      -0.388206       -10.5636
  74   2.0000      -0.383433       -10.4337
  75   2.0000      -0.372974       -10.1491
  76   2.0000      -0.370165       -10.0727
  77   2.0000      -0.357366        -9.7244
  78   2.0000      -0.350516        -9.5380
  79   2.0000      -0.348799        -9.4913
  80   2.0000      -0.344395        -9.3715
  81   2.0000      -0.341947        -9.3049
  82   2.0000      -0.337862        -9.1937
  83   2.0000      -0.334659        -9.1065
  84   2.0000      -0.326661        -8.8889
  85   2.0000      -0.319117        -8.6836
  86   2.0000      -0.307206        -8.3595
  87   2.0000      -0.290567        -7.9067
  88   2.0000      -0.288848        -7.8600
  89   2.0000      -0.282415        -7.6849
  90   2.0000      -0.276324        -7.5191
  91   2.0000      -0.270715        -7.3665
  92   2.0000      -0.266964        -7.2644
  93   2.0000      -0.259884        -7.0718
  94   2.0000      -0.255700        -6.9580
  95   2.0000      -0.236924        -6.4470
  96   2.0000      -0.217817        -5.9271
  97   2.0000      -0.212331        -5.7778
  98   2.0000      -0.190896        -5.1946
  99   2.0000      -0.188890        -5.1400
 100   2.0000      -0.184633        -5.0241
 101   0.0000      -0.049705        -1.3525
 102   0.0000      -0.028746        -0.7822
 103   0.0000      -0.014010        -0.3812
 104   0.0000       0.012590         0.3426
 105   0.0000       0.019472         0.5299

MULLIKEN ATOMIC CHARGES
-----------------------
   0 C :   -0.299428
   1 C :   -0.007228
   2 O :   -0.368902
   3 P :    0.622418
   4 S :   -0.304740
   5 O :   -0.367592
   6 C :   -0.001218
   7 C :   -0.304420
   8 S :   -0.096085
   9 C :   -0.318440
  10 S :   -0.091867
  11 P :    0.616094
  12 S :   -0.330858
  13 O :   -0.370666
  14 C :   -0.002203
  15 C :   -0.301831
  16 O :   -0.370107
  17 C :   -0.001073
  18 C :   -0.331492
  19 H :    0.110998
  20 H :    0.118416
  21 H :    0.114939
  22 H :    0.101096
  23 H :    0.103533
  24 H :    0.121799
  25 H :    0.105436
  26 H :    0.110664
  27 H :    0.115138
  28 H :    0.122771
  29 H :    0.184098
  30 H :    0.177133
  31 H :    0.099944
  32 H :    0.113168
  33 H :    0.109178
  34 H :    0.121546
  35 H :    0.115233
  36 H :    0.102242
  37 H :    0.108334
  38 H :    0.119124
  39 H :    0.112346
  40 H :    0.142499
Sum of atomic charges:   -0.0000000

LOEWDIN ATOMIC CHARGES
----------------------
   0 C :   -0.359104
   1 C :   -0.123094
   2 O :   -0.249511
   3 P :    0.570431
   4 S :   -0.303070
   5 O :   -0.233720
   6 C :   -0.112981
   7 C :   -0.365999
   8 S :    0.098688
   9 C :   -0.468899
  10 S :    0.082547
  11 P :    0.564879
  12 S :   -0.314065
  13 O :   -0.242897
  14 C :   -0.118821
  15 C :   -0.364295
  16 O :   -0.244480
  17 C :   -0.121840
  18 C :   -0.372632
  19 H :    0.129762
  20 H :    0.128446
  21 H :    0.118079
  22 H :    0.102495
  23 H :    0.117930
  24 H :    0.112440
  25 H :    0.120090
  26 H :    0.130038
  27 H :    0.125735
  28 H :    0.121794
  29 H :    0.136377
  30 H :    0.124838
  31 H :    0.116520
  32 H :    0.110065
  33 H :    0.128886
  34 H :    0.122614
  35 H :    0.125886
  36 H :    0.117304
  37 H :    0.108084
  38 H :    0.123889
  39 H :    0.130996
  40 H :    0.126599

  Mayer bond orders larger than 0.100000
B(  0-C ,  1-C ) :   1.1627 B(  0-C , 19-H ) :   0.9406 B(  0-C , 20-H ) :   0.9457
B(  0-C , 21-H ) :   0.9417 B(  1-C ,  2-O ) :   0.9238 B(  1-C , 22-H ) :   0.9030
B(  1-C , 23-H ) :   0.9341 B(  2-O ,  3-P ) :   1.0869 B(  3-P ,  4-S ) :   1.6221
B(  3-P ,  5-O ) :   1.1435 B(  3-P ,  8-S ) :   0.9201 B(  4-S ,  8-S ) :   0.1120
B(  5-O ,  6-C ) :   0.8972 B(  6-C ,  7-C ) :   1.1636 B(  6-C , 24-H ) :   0.9167
B(  6-C , 25-H ) :   0.9360 B(  7-C , 26-H ) :   0.9385 B(  7-C , 27-H ) :   0.9451
B(  7-C , 28-H ) :   0.9345 B(  8-S ,  9-C ) :   1.0254 B(  9-C , 10-S ) :   0.9704
B(  9-C , 29-H ) :   0.9097 B(  9-C , 30-H ) :   0.8924 B( 10-S , 11-P ) :   0.9928
B( 10-S , 12-S ) :   0.1137 B( 11-P , 12-S ) :   1.5845 B( 11-P , 13-O ) :   1.1158
B( 11-P , 16-O ) :   1.1030 B( 13-O , 14-C ) :   0.9020 B( 14-C , 15-C ) :   1.1658
B( 14-C , 31-H ) :   0.9350 B( 14-C , 32-H ) :   0.9141 B( 15-C , 33-H ) :   0.9399
B( 15-C , 34-H ) :   0.9359 B( 15-C , 35-H ) :   0.9462 B( 16-O , 17-C ) :   0.9108
B( 17-C , 18-C ) :   1.1653 B( 17-C , 36-H ) :   0.9328 B( 17-C , 37-H ) :   0.9123
B( 18-C , 38-H ) :   0.9434 B( 18-C , 39-H ) :   0.9380 B( 18-C , 40-H ) :   0.9312

Dispersion correction           -0.068783091
FINAL SINGLE POINT ENERGY     -2929.515033801456

DIPOLE MOMENT
-------------

Method             : SCF
Type of density    : Electron Density
Multiplicity       :   1
Irrep              :   0
Energy             : -2929.6298695456925998 Eh
Relativity type    :
Basis              : AO
                                X                 Y                 Z
Electronic contribution:     -2.489978151      -4.318826227      -0.592060103
Nuclear contribution   :      2.826506973       3.942292157       0.925243979
                        -----------------------------------------
Total Dipole Moment    :      0.336528821      -0.376534069       0.333183876
                        -----------------------------------------
Magnitude (a.u.)       :      0.605013263
Magnitude (Debye)      :      1.537821502

Rotational constants in cm-1:             0.011903             0.005494             0.005336
Rotational constants in MHz :           356.843922           164.712509           159.969329

                             ****ORCA TERMINATED NORMALLY****
TOTAL RUN TIME: 0 days 0 hours 0 minutes 21 seconds 245 msec
