                         Program Version 6.0.0  -   RELEASE  -
|  1> ! r2scan-3c def2/J RI DEFGRID2 scfconv6 printgap
|  2> %output
|  3>     printlevel normal
|  4> end
|  5> * xyz 0 1
|  6> C 5.1336807089 -0.0818493446 -1.4506940583
|  7> C 4.4833443267 1.0319377133 -0.6543968859
|  8> O 3.5482654483 0.5156277093 0.3117614011
|  9> P 2.0099848197 0.2926759417 -0.0131286418
| 10> S 1.1346578877 1.782359527 -0.9313540616
| 11> O 1.3906709165 0.0201732088 1.4079463674
| 12> C 1.8229966963 -1.0406586521 2.2983915361
| 13> C 2.8553038319 -0.5331063845 3.2828990027
| 14> S 1.9693437846 -1.5632498163 -1.0489156107
| 15> C 0.2188710789 -1.5658935709 -1.4870172606
| 16> S -0.8751414309 -1.8036658931 -0.0442483111
| 17> P -2.0087170305 -0.0329934182 -0.1038452402
| 18> S -2.2460940065 0.7988501787 -1.8675997385
| 19> O -1.3670876867 0.8293493337 1.0546104183
| 20> C -1.5976335911 2.2461412839 1.1839762796
| 21> C -3.0445583807 2.5573784652 1.4980893136
| 22> O -3.363799061 -0.5002679862 0.5845538933
| 23> C -4.3463795539 -1.2710668584 -0.1348763936
| 24> C -5.6578900826 -1.1767754932 0.6182671954
| 25> H 5.5863867318 -0.8056312387 -0.77911511
| 26> H 4.399160618 -0.5913612761 -2.0697910681
| 27> H 5.9010478819 0.3434709112 -2.0895388007
| 28> H 3.9592010821 1.7372419364 -1.3075527196
| 29> H 5.2187218853 1.5713299372 -0.0547839389
| 30> H 0.9065545269 -1.356257906 2.8013272845
| 31> H 2.2168776788 -1.8672264145 1.7002626856
| 32> H 3.754504563 -0.220662001 2.7591626573
| 33> H 2.4594163238 0.3138776576 3.8365487304
| 34> H 3.1020955578 -1.3310191241 3.9763286829
| 35> H 0.0765619304 -2.4092328596 -2.1576918667
| 36> H -0.0474184483 -0.624290712 -1.9758146551
| 37> H -0.9268145647 2.5418695798 1.9921698543
| 38> H -1.2822463565 2.7342383052 0.2554305101
| 39> H -3.1490973426 3.621499601 1.6854000952
| 40> H -3.6719447804 2.2835123565 0.6504607978
| 41> H -3.3670597387 1.9980021772 2.3723820283
| 42> H -4.4327187071 -0.8648193813 -1.1484664267
| 43> H -3.9928958246 -2.3041547951 -0.1929984531
| 44> H -5.5284147424 -1.5432794251 1.6323248627
| 45> H -5.9956433534 -0.1450187593 0.6567215207
| 46> H -6.403447488 -1.7787053784 0.1093926488
| 47> *
| 48>
| 49>                          ****END OF INPUT****

CARTESIAN COORDINATES (ANGSTROEM)
---------------------------------
  C      5.133681   -0.081849   -1.450694
  C      4.483344    1.031938   -0.654397
  O      3.548265    0.515628    0.311761
  P      2.009985    0.292676   -0.013129
  S      1.134658    1.782360   -0.931354
  O      1.390671    0.020173    1.407946
  C      1.822997   -1.040659    2.298392
  C      2.855304   -0.533106    3.282899
  S      1.969344   -1.563250   -1.048916
  C      0.218871   -1.565894   -1.487017
  S     -0.875141   -1.803666   -0.044248
  P     -2.008717   -0.032993   -0.103845
  S     -2.246094    0.798850   -1.867600
  O     -1.367088    0.829349    1.054610
  C     -1.597634    2.246141    1.183976
  C     -3.044558    2.557378    1.498089
  O     -3.363799   -0.500268    0.584554
  C     -4.346380   -1.271067   -0.134876
  C     -5.657890   -1.176775    0.618267
  H      5.586387   -0.805631   -0.779115
  H      4.399161   -0.591361   -2.069791
  H      5.901048    0.343471   -2.089539
  H      3.959201    1.737242   -1.307553
  H      5.218722    1.571330   -0.054784
  H      0.906555   -1.356258    2.801327
  H      2.216878   -1.867226    1.700263
  H      3.754505   -0.220662    2.759163
  H      2.459416    0.313878    3.836549
  H      3.102096   -1.331019    3.976329
  H      0.076562   -2.409233   -2.157692
  H     -0.047418   -0.624291   -1.975815
  H     -0.926815    2.541870    1.992170
  H     -1.282246    2.734238    0.255431
  H     -3.149097    3.621500    1.685400
  H     -3.671945    2.283512    0.650461
  H     -3.367060    1.998002    2.372382
  H     -4.432719   -0.864819   -1.148466
  H     -3.992896   -2.304155   -0.192998
  H     -5.528415   -1.543279    1.632325
  H     -5.995643   -0.145019    0.656722
  H     -6.403447   -1.778705    0.109393

 Total Charge           Charge          ....    0
 Multiplicity           Mult            ....    1
 Number of Electrons    NEL             ....  202
 Basis Dimension        Dim             ....  539

ORBITAL ENERGIES
----------------

  NO   OCC          E(Eh)            E(eV)
   0   2.0000     -88.576001     -2410.2755
   1   2.0000     -88.572500     -2410.1802
   2   2.0000     -88.512953     -2408.5599
   3   2.0000     -88.512251     -2408.5408
   4   2.0000     -76.911445     -2092.8668
   5   2.0000     -76.906943     -2092.7443
   6   2.0000     -18.993916      -516.8507
   7   2.0000     -18.988182      -516.6947
   8   2.0000     -18.985367      -516.6181
   9   2.0000     -18.979770      -516.4658
  10   2.0000     -10.105021      -274.9716
  11   2.0000     -10.099497      -274.8213
  12   2.0000     -10.098531      -274.7950
  13   2.0000     -10.092743      -274.6375
  14   2.0000     -10.085206      -274.4324
  15   2.0000     -10.031388      -272.9679
  16   2.0000     -10.029860      -272.9264
  17   2.0000     -10.029752      -272.9234
  18   2.0000     -10.019889      -272.6550
  19   2.0000      -7.870591      -214.1697
  20   2.0000      -7.867078      -214.0741
  21   2.0000      -7.807807      -212.4612
  22   2.0000      -7.806974      -212.4386
  23   2.0000      -6.589855      -179.3191
  24   2.0000      -6.585465      -179.1996
  25   2.0000      -5.817395      -158.2994
  26   2.0000      -5.814212      -158.2128
  27   2.0000      -5.813873      -158.2035
  28   2.0000      -5.810946      -158.1239
  29   2.0000      -5.807942      -158.0421
  30   2.0000      -5.804208      -157.9405
  31   2.0000      -5.755602      -156.6179
  32   2.0000      -5.754635      -156.5916
  33   2.0000      -5.747925      -156.4090
  34   2.0000      -5.747811      -156.4059
  35   2.0000      -5.747469      -156.3966
  36   2.0000      -5.746757      -156.3772
  37   2.0000      -4.735702      -128.8650
  38   2.0000      -4.734916      -128.8436
  39   2.0000      -4.733141      -128.7953
  40   2.0000      -4.730767      -128.7307
  41   2.0000      -4.730338      -128.7190
  42   2.0000      -4.729421      -128.6941
  43   2.0000      -1.050135       -28.5756
  44   2.0000      -1.042341       -28.3635
  45   2.0000      -1.009657       -27.4742
  46   2.0000      -1.002144       -27.2697
  47   2.0000      -0.798711       -21.7340
  48   2.0000      -0.756725       -20.5915
  49   2.0000      -0.747691       -20.3457
  50   2.0000      -0.735019       -20.0009
  51   2.0000      -0.725862       -19.7517
  52   2.0000      -0.708501       -19.2793
  53   2.0000      -0.681831       -18.5536
  54   2.0000      -0.660995       -17.9866
  55   2.0000      -0.627917       -17.0865
  56   2.0000      -0.620448       -16.8833
  57   2.0000      -0.606726       -16.5098
  58   2.0000      -0.595076       -16.1928
  59   2.0000      -0.589574       -16.0431
  60   2.0000      -0.527385       -14.3509
  61   2.0000      -0.519256       -14.1297
  62   2.0000      -0.497404       -13.5350
  63   2.0000      -0.486861       -13.2482
  64   2.0000      -0.468814       -12.7571
  65   2.0000      -0.462333       -12.5807
  66   2.0000      -0.458070       -12.4647
  67   2.0000      -0.449320       -12.2266
  68   2.0000      -0.442830       -12.0500
  69   2.0000      -0.432515       -11.7693
  70   2.0000      -0.422764       -11.5040
  71   2.0000      -0.410940       -11.1822
  72   2.0000      -0.404752       -11.0139
  73   2.0000      -0.400449       -10.8968
  74   2.0000      -0.394838       -10.7441
  75   2.0000      -0.384699       -10.4682
  76   2.0000      -0.381517       -10.3816
  77   2.0000      -0.372754       -10.1431
  78   2.0000      -0.369451       -10.0533
  79   2.0000      -0.367787       -10.0080
  80   2.0000      -0.363043        -9.8789
  81   2.0000      -0.355305        -9.6683
  82   2.0000      -0.351743        -9.5714
  83   2.0000      -0.348419        -9.4810
  84   2.0000      -0.345340        -9.3972
  85   2.0000      -0.331271        -9.0144
  86   2.0000      -0.320648        -8.7253
  87   2.0000      -0.310931        -8.4609
  88   2.0000      -0.307749        -8.3743
  89   2.0000      -0.304888        -8.2964
  90   2.0000      -0.291284        -7.9262
  91   2.0000      -0.286375        -7.7927
  92   2.0000      -0.278418        -7.5761
  93   2.0000      -0.276163        -7.5148
  94   2.0000      -0.269832        -7.3425
  95   2.0000      -0.248837        -6.7712
  96   2.0000      -0.232869        -6.3367
  97   2.0000      -0.226418        -6.1611
  98   2.0000      -0.214516        -5.8373
  99   2.0000      -0.204048        -5.5524
 100   2.0000      -0.196462        -5.3460
 101   0.0000      -0.040108        -1.0914
 102   0.0000      -0.028714        -0.7813
 103   0.0000      -0.007197        -0.1958
 104   0.0000       0.014234         0.3873
 105   0.0000       0.021099         0.5741

MULLIKEN ATOMIC CHARGES
-----------------------
   0 C :   -0.440896
   1 C :   -0.174568
   2 O :   -0.299997
   3 P :    0.668445
   4 S :   -0.418819
   5 O :   -0.253881
   6 C :   -0.113492
   7 C :   -0.459704
   8 S :   -0.173009
   9 C :   -0.217038
  10 S :   -0.151750
  11 P :    0.670996
  12 S :   -0.468332
  13 O :   -0.269848
  14 C :   -0.151406
  15 C :   -0.451951
  16 O :   -0.279923
  17 C :   -0.159850
  18 C :   -0.442342
  19 H :    0.155057
  20 H :    0.165341
  21 H :    0.148921
  22 H :    0.177467
  23 H :    0.148946
  24 H :    0.164107
  25 H :    0.164156
  26 H :    0.164349
  27 H :    0.155977
  28 H :    0.145850
  29 H :    0.196187
  30 H :    0.219512
  31 H :    0.154148
  32 H :    0.181868
  33 H :    0.146101
  34 H :    0.168699
  35 H :    0.153986
  36 H :    0.172268
  37 H :    0.151132
  38 H :    0.152588
  39 H :    0.154882
  40 H :    0.145822
Sum of atomic charges:    0.0000000

LOEWDIN ATOMIC CHARGES
----------------------
   0 C :   -0.403113
   1 C :    0.021220
   2 O :   -0.669437
   3 P :    0.377901
   4 S :   -0.074305
   5 O :   -0.654736
   6 C :    0.016779
   7 C :   -0.394114
   8 S :    0.119002
   9 C :   -0.413373
  10 S :    0.169791
  11 P :    0.369419
  12 S :   -0.130018
  13 O :   -0.660821
  14 C :    0.014572
  15 C :   -0.401980
  16 O :   -0.671439
  17 C :    0.015476
  18 C :   -0.386810
  19 H :    0.158775
  20 H :    0.163732
  21 H :    0.160288
  22 H :    0.183113
  23 H :    0.178953
  24 H :    0.183404
  25 H :    0.177042
  26 H :    0.165962
  27 H :    0.160927
  28 H :    0.158294
  29 H :    0.180762
  30 H :    0.202862
  31 H :    0.182664
  32 H :    0.184814
  33 H :    0.158745
  34 H :    0.165118
  35 H :    0.160031
  36 H :    0.180792
  37 H :    0.171292
  38 H :    0.159284
  39 H :    0.159888
  40 H :    0.159244

  Mayer bond orders larger than 0.100000
B(  0-C ,  1-C ) :   0.9403 B(  0-C , 19-H ) :   0.9740 B(  0-C , 20-H ) :   0.9568
B(  0-C , 21-H ) :   0.9632 B(  1-C ,  2-O ) :   0.7898 B(  1-C , 22-H ) :   0.9605
B(  1-C , 23-H ) :   0.9628 B(  2-O ,  3-P ) :   1.0491 B(  3-P ,  4-S ) :   1.8507
B(  3-P ,  5-O ) :   1.1324 B(  3-P ,  8-S ) :   1.0049 B(  5-O ,  6-C ) :   0.7390
B(  6-C ,  7-C ) :   0.9352 B(  6-C , 24-H ) :   0.9620 B(  6-C , 25-H ) :   0.9634
B(  7-C , 26-H ) :   0.9662 B(  7-C , 27-H ) :   0.9741 B(  7-C , 28-H ) :   0.9663
B(  8-S ,  9-C ) :   0.9128 B(  9-C , 10-S ) :   0.8981 B(  9-C , 29-H ) :   0.9151
B(  9-C , 30-H ) :   0.9053 B( 10-S , 11-P ) :   1.0932 B( 11-P , 12-S ) :   1.7464
B( 11-P , 13-O ) :   1.1929 B( 11-P , 16-O ) :   1.0761 B( 13-O , 14-C ) :   0.8031
B( 14-C , 15-C ) :   0.9109 B( 14-C , 31-H ) :   0.9620 B( 14-C , 32-H ) :   0.9629
B( 15-C , 33-H ) :   0.9609 B( 15-C , 34-H ) :   0.9625 B( 15-C , 35-H ) :   0.9719
B( 16-O , 17-C ) :   0.7887 B( 17-C , 18-C ) :   0.9545 B( 17-C , 36-H ) :   0.9502
B( 17-C , 37-H ) :   0.9464 B( 18-C , 38-H ) :   0.9721 B( 18-C , 39-H ) :   0.9717
B( 18-C , 40-H ) :   0.9654

Dispersion correction           -0.021823022
FINAL SINGLE POINT ENERGY     -2932.459395669744

DIPOLE MOMENT
-------------

Method             : SCF
Type of density    : Electron Density
Multiplicity       :   1
Irrep              :   0
Energy             : -2932.4842439297167402 Eh
Relativity type    :
Basis              : AO
                                X                 Y                 Z
Electronic contribution:      1.677442324      -1.894209736     -11.109206953
Nuclear contribution   :     -1.139469542       1.026322738      12.136827439
                        -----------------------------------------
Total Dipole Moment    :      0.537972782      -0.867886998       1.027620486
                        -----------------------------------------
Magnitude (a.u.)       :      1.448670570
Magnitude (Debye)      :      3.682227957

Rotational constants in cm-1:             0.013552             0.004894             0.004833
Rotational constants in MHz :           406.283112           146.718265           144.900417

                             ****ORCA TERMINATED NORMALLY****
TOTAL RUN TIME: 0 days 0 hours 1 minutes 21 seconds 617 msec
