                         Program Version 6.0.0  -   RELEASE  -
|  1> ! r2scan-3c def2/J RI DEFGRID2 scfconv6 printgap
|  2> %output
|  3>     printlevel normal
|  4> end
|  5> %cpcm
|  6>     smd true
|  7>     smdsolvent "water"
|  8> end
|  9> * xyz 0 1
| 10> C 5.1336807089 -0.0818493446 -1.4506940583
| 11> C 4.4833443267 1.0319377133 -0.6543968859
| 12> O 3.5482654483 0.5156277093 0.3117614011
| 13> P 2.0099848197 0.2926759417 -0.0131286418
| 14> S 1.1346578877 1.782359527 -0.9313540616
| 15> O 1.3906709165 0.0201732088 1.4079463674
| 16> C 1.8229966963 -1.0406586521 2.2983915361
| 17> C 2.8553038319 -0.5331063845 3.2828990027
| 18> S 1.9693437846 -1.5632498163 -1.0489156107
| 19> C 0.2188710789 -1.5658935709 -1.4870172606
| 20> S -0.8751414309 -1.8036658931 -0.0442483111
| 21> P -2.0087170305 -0.0329934182 -0.1038452402
| 22> S -2.2460940065 0.7988501787 -1.8675997385
| 23> O -1.3670876867 0.8293493337 1.0546104183
| 24> C -1.5976335911 2.2461412839 1.1839762796
| 25> C -3.0445583807 2.5573784652 1.4980893136
| 26> O -3.363799061 -0.5002679862 0.5845538933
| 27> C -4.3463795539 -1.2710668584 -0.1348763936
| 28> C -5.6578900826 -1.1767754932 0.6182671954
| 29> H 5.5863867318 -0.8056312387 -0.77911511
| 30> H 4.399160618 -0.5913612761 -2.0697910681
| 31> H 5.9010478819 0.3434709112 -2.0895388007
| 32> H 3.9592010821 1.7372419364 -1.3075527196
| 33> H 5.2187218853 1.5713299372 -0.0547839389
| 34> H 0.9065545269 -1.356257906 2.8013272845
| 35> H 2.2168776788 -1.8672264145 1.7002626856
| 36> H 3.754504563 -0.220662001 2.7591626573
| 37> H 2.4594163238 0.3138776576 3.8365487304
| 38> H 3.1020955578 -1.3310191241 3.9763286829
| 39> H 0.0765619304 -2.4092328596 -2.1576918667
| 40> H -0.0474184483 -0.624290712 -1.9758146551
| 41> H -0.9268145647 2.5418695798 1.9921698543
| 42> H -1.2822463565 2.7342383052 0.2554305101
| 43> H -3.1490973426 3.621499601 1.6854000952
| 44> H -3.6719447804 2.2835123565 0.6504607978
| 45> H -3.3670597387 1.9980021772 2.3723820283
| 46> H -4.4327187071 -0.8648193813 -1.1484664267
| 47> H -3.9928958246 -2.3041547951 -0.1929984531
| 48> H -5.5284147424 -1.5432794251 1.6323248627
| 49> H -5.9956433534 -0.1450187593 0.6567215207
| 50> H -6.403447488 -1.7787053784 0.1093926488
| 51> *
| 52>
| 53>                          ****END OF INPUT****

CARTESIAN COORDINATES (ANGSTROEM)
---------------------------------
  C      5.133681   -0.081849   -1.450694
  C      4.483344    1.031938   -0.654397
  O      3.548265    0.515628    0.311761
  P      2.009985    0.292676   -0.013129
  S      1.134658    1.782360   -0.931354
  O      1.390671    0.020173    1.407946
  C      1.822997   -1.040659    2.298392
  C      2.855304   -0.533106    3.282899
  S      1.969344   -1.563250   -1.048916
  C      0.218871   -1.565894   -1.487017
  S     -0.875141   -1.803666   -0.044248
  P     -2.008717   -0.032993   -0.103845
  S     -2.246094    0.798850   -1.867600
  O     -1.367088    0.829349    1.054610
  C     -1.597634    2.246141    1.183976
  C     -3.044558    2.557378    1.498089
  O     -3.363799   -0.500268    0.584554
  C     -4.346380   -1.271067   -0.134876
  C     -5.657890   -1.176775    0.618267
  H      5.586387   -0.805631   -0.779115
  H      4.399161   -0.591361   -2.069791
  H      5.901048    0.343471   -2.089539
  H      3.959201    1.737242   -1.307553
  H      5.218722    1.571330   -0.054784
  H      0.906555   -1.356258    2.801327
  H      2.216878   -1.867226    1.700263
  H      3.754505   -0.220662    2.759163
  H      2.459416    0.313878    3.836549
  H      3.102096   -1.331019    3.976329
  H      0.076562   -2.409233   -2.157692
  H     -0.047418   -0.624291   -1.975815
  H     -0.926815    2.541870    1.992170
  H     -1.282246    2.734238    0.255431
  H     -3.149097    3.621500    1.685400
  H     -3.671945    2.283512    0.650461
  H     -3.367060    1.998002    2.372382
  H     -4.432719   -0.864819   -1.148466
  H     -3.992896   -2.304155   -0.192998
  H     -5.528415   -1.543279    1.632325
  H     -5.995643   -0.145019    0.656722
  H     -6.403447   -1.778705    0.109393

 Total Charge           Charge          ....    0
 Multiplicity           Mult            ....    1
 Number of Electrons    NEL             ....  202
 Basis Dimension        Dim             ....  539

ORBITAL ENERGIES
----------------

  NO   OCC          E(Eh)            E(eV)
   0   2.0000     -88.579302     -2410.3654
   1   2.0000     -88.578306     -2410.3383
   2   2.0000     -88.524622     -2408.8774
   3   2.0000     -88.523513     -2408.8472
   4   2.0000     -76.917954     -2093.0439
   5   2.0000     -76.917018     -2093.0185
   6   2.0000     -18.995318      -516.8889
   7   2.0000     -18.993227      -516.8320
   8   2.0000     -18.992232      -516.8049
   9   2.0000     -18.990466      -516.7568
  10   2.0000     -10.105088      -274.9734
  11   2.0000     -10.090900      -274.5874
  12   2.0000     -10.089891      -274.5599
  13   2.0000     -10.087950      -274.5071
  14   2.0000     -10.087005      -274.4814
  15   2.0000     -10.019059      -272.6324
  16   2.0000     -10.018499      -272.6172
  17   2.0000     -10.017939      -272.6020
  18   2.0000     -10.017588      -272.5924
  19   2.0000      -7.873804      -214.2571
  20   2.0000      -7.872828      -214.2306
  21   2.0000      -7.819674      -212.7841
  22   2.0000      -7.818723      -212.7583
  23   2.0000      -6.596404      -179.4973
  24   2.0000      -6.595591      -179.4752
  25   2.0000      -5.820632      -158.3874
  26   2.0000      -5.819626      -158.3601
  27   2.0000      -5.817447      -158.3008
  28   2.0000      -5.816708      -158.2807
  29   2.0000      -5.811123      -158.1287
  30   2.0000      -5.809959      -158.0970
  31   2.0000      -5.767260      -156.9351
  32   2.0000      -5.766402      -156.9118
  33   2.0000      -5.760159      -156.7419
  34   2.0000      -5.759481      -156.7234
  35   2.0000      -5.758875      -156.7069
  36   2.0000      -5.758740      -156.7033
  37   2.0000      -4.742200      -129.0418
  38   2.0000      -4.741426      -129.0208
  39   2.0000      -4.740862      -129.0054
  40   2.0000      -4.740465      -128.9946
  41   2.0000      -4.739820      -128.9771
  42   2.0000      -4.739605      -128.9712
  43   2.0000      -1.053197       -28.6590
  44   2.0000      -1.050663       -28.5900
  45   2.0000      -1.012383       -27.5483
  46   2.0000      -1.010068       -27.4853
  47   2.0000      -0.801561       -21.8116
  48   2.0000      -0.756124       -20.5752
  49   2.0000      -0.744925       -20.2704
  50   2.0000      -0.725816       -19.7505
  51   2.0000      -0.723295       -19.6819
  52   2.0000      -0.710017       -19.3205
  53   2.0000      -0.687645       -18.7118
  54   2.0000      -0.669420       -18.2158
  55   2.0000      -0.629705       -17.1351
  56   2.0000      -0.619029       -16.8446
  57   2.0000      -0.602159       -16.3856
  58   2.0000      -0.592217       -16.1150
  59   2.0000      -0.589204       -16.0331
  60   2.0000      -0.526872       -14.3369
  61   2.0000      -0.518905       -14.1201
  62   2.0000      -0.494741       -13.4626
  63   2.0000      -0.491041       -13.3619
  64   2.0000      -0.470423       -12.8009
  65   2.0000      -0.463157       -12.6032
  66   2.0000      -0.456973       -12.4349
  67   2.0000      -0.446257       -12.1433
  68   2.0000      -0.439984       -11.9726
  69   2.0000      -0.435263       -11.8441
  70   2.0000      -0.419307       -11.4099
  71   2.0000      -0.411044       -11.1851
  72   2.0000      -0.402574       -10.9546
  73   2.0000      -0.399864       -10.8809
  74   2.0000      -0.395712       -10.7679
  75   2.0000      -0.386312       -10.5121
  76   2.0000      -0.378032       -10.2868
  77   2.0000      -0.367672       -10.0049
  78   2.0000      -0.363151        -9.8819
  79   2.0000      -0.360836        -9.8188
  80   2.0000      -0.354778        -9.6540
  81   2.0000      -0.352210        -9.5841
  82   2.0000      -0.350678        -9.5424
  83   2.0000      -0.345757        -9.4085
  84   2.0000      -0.342850        -9.3294
  85   2.0000      -0.328722        -8.9450
  86   2.0000      -0.322526        -8.7764
  87   2.0000      -0.311572        -8.4783
  88   2.0000      -0.304730        -8.2921
  89   2.0000      -0.300575        -8.1791
  90   2.0000      -0.296287        -8.0624
  91   2.0000      -0.289224        -7.8702
  92   2.0000      -0.281848        -7.6695
  93   2.0000      -0.279181        -7.5969
  94   2.0000      -0.273684        -7.4473
  95   2.0000      -0.253515        -6.8985
  96   2.0000      -0.240991        -6.5577
  97   2.0000      -0.238123        -6.4796
  98   2.0000      -0.226341        -6.1591
  99   2.0000      -0.214089        -5.8257
 100   2.0000      -0.208870        -5.6836
 101   0.0000      -0.045443        -1.2366
 102   0.0000      -0.035956        -0.9784
 103   0.0000      -0.011572        -0.3149
 104   0.0000       0.007874         0.2143
 105   0.0000       0.016569         0.4509

MULLIKEN ATOMIC CHARGES
-----------------------
   0 C :   -0.473646
   1 C :   -0.162649
   2 O :   -0.320921
   3 P :    0.682456
   4 S :   -0.474818
   5 O :   -0.286247
   6 C :   -0.097455
   7 C :   -0.502650
   8 S :   -0.170341
   9 C :   -0.218504
  10 S :   -0.148582
  11 P :    0.702001
  12 S :   -0.523994
  13 O :   -0.297922
  14 C :   -0.149264
  15 C :   -0.494101
  16 O :   -0.307875
  17 C :   -0.150479
  18 C :   -0.484174
  19 H :    0.172277
  20 H :    0.160492
  21 H :    0.171629
  22 H :    0.174132
  23 H :    0.174817
  24 H :    0.180262
  25 H :    0.176253
  26 H :    0.169064
  27 H :    0.167687
  28 H :    0.170661
  29 H :    0.237902
  30 H :    0.212513
  31 H :    0.177402
  32 H :    0.180983
  33 H :    0.171687
  34 H :    0.169425
  35 H :    0.169392
  36 H :    0.172067
  37 H :    0.170415
  38 H :    0.165452
  39 H :    0.165557
  40 H :    0.169095
Sum of atomic charges:    0.0000000

LOEWDIN ATOMIC CHARGES
----------------------
   0 C :   -0.404729
   1 C :    0.026243
   2 O :   -0.675569
   3 P :    0.380061
   4 S :   -0.115074
   5 O :   -0.675955
   6 C :    0.023422
   7 C :   -0.396409
   8 S :    0.129336
   9 C :   -0.408214
  10 S :    0.174371
  11 P :    0.373083
  12 S :   -0.165477
  13 O :   -0.679500
  14 C :    0.015294
  15 C :   -0.403786
  16 O :   -0.684866
  17 C :    0.020413
  18 C :   -0.390032
  19 H :    0.164062
  20 H :    0.160679
  21 H :    0.168842
  22 H :    0.182084
  23 H :    0.189871
  24 H :    0.189989
  25 H :    0.182696
  26 H :    0.165892
  27 H :    0.163490
  28 H :    0.168482
  29 H :    0.197335
  30 H :    0.199666
  31 H :    0.190863
  32 H :    0.183563
  33 H :    0.168514
  34 H :    0.163185
  35 H :    0.164204
  36 H :    0.181160
  37 H :    0.179088
  38 H :    0.162984
  39 H :    0.162233
  40 H :    0.168508

  Mayer bond orders larger than 0.100000
B(  0-C ,  1-C ) :   0.9364 B(  0-C , 19-H ) :   0.9713 B(  0-C , 20-H ) :   0.9565
B(  0-C , 21-H ) :   0.9579 B(  1-C ,  2-O ) :   0.7802 B(  1-C , 22-H ) :   0.9576
B(  1-C , 23-H ) :   0.9529 B(  2-O ,  3-P ) :   1.0595 B(  3-P ,  4-S ) :   1.8198
B(  3-P ,  5-O ) :   1.1345 B(  3-P ,  8-S ) :   1.0246 B(  5-O ,  6-C ) :   0.7284
B(  6-C ,  7-C ) :   0.9282 B(  6-C , 24-H ) :   0.9532 B(  6-C , 25-H ) :   0.9540
B(  7-C , 26-H ) :   0.9657 B(  7-C , 27-H ) :   0.9723 B(  7-C , 28-H ) :   0.9593
B(  8-S ,  9-C ) :   0.9082 B(  9-C , 10-S ) :   0.8915 B(  9-C , 29-H ) :   0.8988
B(  9-C , 30-H ) :   0.9102 B( 10-S , 11-P ) :   1.1240 B( 11-P , 12-S ) :   1.6943
B( 11-P , 13-O ) :   1.1899 B( 11-P , 16-O ) :   1.0834 B( 13-O , 14-C ) :   0.7875
B( 14-C , 15-C ) :   0.9075 B( 14-C , 31-H ) :   0.9502 B( 14-C , 32-H ) :   0.9594
B( 15-C , 33-H ) :   0.9542 B( 15-C , 34-H ) :   0.9618 B( 15-C , 35-H ) :   0.9702
B( 16-O , 17-C ) :   0.7812 B( 17-C , 18-C ) :   0.9514 B( 17-C , 36-H ) :   0.9473
B( 17-C , 37-H ) :   0.9375 B( 18-C , 38-H ) :   0.9691 B( 18-C , 39-H ) :   0.9693
B( 18-C , 40-H ) :   0.9589

Dispersion correction           -0.021823022
FINAL SINGLE POINT ENERGY     -2932.468605547390

DIPOLE MOMENT
-------------

Method             : SCF
Type of density    : Electron Density
Multiplicity       :   1
Irrep              :   0
Energy             : -2932.4934538073630392 Eh
Relativity type    :
Basis              : AO
                                X                 Y                 Z
Electronic contribution:      1.917231595      -2.470798514     -10.866899927
Nuclear contribution   :     -1.139469542       1.026322738      12.136827439
                        -----------------------------------------
Total Dipole Moment    :      0.777762053      -1.444475776       1.269927513
                        -----------------------------------------
Magnitude (a.u.)       :      2.074642129
Magnitude (Debye)      :      5.273321215

Rotational constants in cm-1:             0.013552             0.004894             0.004833
Rotational constants in MHz :           406.283112           146.718265           144.900417

                             ****ORCA TERMINATED NORMALLY****
TOTAL RUN TIME: 0 days 0 hours 1 minutes 56 seconds 966 msec
