                         Program Version 6.0.1  -  RELEASE   -
|  1> ! pbe def2-sv(p) def2/J RI DEFGRID1 loosescf d4 GCP(DFT/SV(P)) printgap
|  2> %output
|  3>     printlevel normal
|  4> end
|  5> * xyz 0 1
|  6> C 3.554804625 -2.9472436982 0.5218527694
|  7> C 2.9530590762 -1.6190342788 0.9510353735
|  8> O 2.6939140316 -0.7757083565 -0.1876293469
|  9> C 1.5960599799 -0.9692610792 -0.8861620811
| 10> O 0.7460541645 -1.799242621 -0.6318496106
| 11> C 1.4957270765 -0.0078654132 -2.0532578433
| 12> C 0.2636111909 0.8895238525 -1.9004269837
| 13> H 0.1646995097 1.5238922144 -2.7855947756
| 14> C 0.347040276 1.7759257319 -0.6731106498
| 15> O -0.5789914304 1.8872882678 0.1106712201
| 16> O 1.492330472 2.3845518341 -0.5774042996
| 17> C 1.7601233476 3.1923173817 0.5911432177
| 18> C 2.367073103 2.3366436034 1.6902490661
| 19> S -1.3018927453 -0.0495669993 -1.8197330195
| 20> P -1.6969321054 -0.3141102687 0.2558350803
| 21> S -0.4657933826 -0.4392008171 1.7916469981
| 22> O -2.9803078637 0.5917814301 0.5113322536
| 23> C -3.0611732127 1.6699571539 1.4418138833
| 24> O -2.5636903824 -1.6586830259 0.1195475432
| 25> C -1.9947956295 -2.9514481923 -0.079173686
| 26> H 4.4562331214 -2.7786168761 -0.0609503677
| 27> H 3.8005876081 -3.5277305165 1.4047484653
| 28> H 2.8407076282 -3.5061341966 -0.0787803863
| 29> H 3.6504961442 -1.043658003 1.5594852038
| 30> H 2.0174152962 -1.765888202 1.4986066472
| 31> H 1.3852557214 -0.5907897583 -2.9678644162
| 32> H 2.394490814 0.6061965254 -2.0933618123
| 33> H 2.4613606129 3.9484073355 0.2386065853
| 34> H 0.8272761102 3.6541068585 0.9233795427
| 35> H 2.6071490004 2.9629277029 2.5426695833
| 36> H 1.6620031496 1.5687386603 2.0066682449
| 37> H 3.2711062244 1.8535693173 1.330369958
| 38> H -4.057951935 1.6216159101 1.8746180576
| 39> H -2.9111956599 2.6103747654 0.9140343188
| 40> H -2.3024443352 1.5598922513 2.219167829
| 41> H -1.5838896006 -3.0346875088 -1.0851140064
| 42> H -2.8120688102 -3.6536370731 0.0653982498
| 43> H -1.2006562126 -3.1293211512 0.6474855804
| 44> *
| 45>
| 46>                          ****END OF INPUT****

CARTESIAN COORDINATES (ANGSTROEM)
---------------------------------
  C      3.554805   -2.947244    0.521853
  C      2.953059   -1.619034    0.951035
  O      2.693914   -0.775708   -0.187629
  C      1.596060   -0.969261   -0.886162
  O      0.746054   -1.799243   -0.631850
  C      1.495727   -0.007865   -2.053258
  C      0.263611    0.889524   -1.900427
  H      0.164700    1.523892   -2.785595
  C      0.347040    1.775926   -0.673111
  O     -0.578991    1.887288    0.110671
  O      1.492330    2.384552   -0.577404
  C      1.760123    3.192317    0.591143
  C      2.367073    2.336644    1.690249
  S     -1.301893   -0.049567   -1.819733
  P     -1.696932   -0.314110    0.255835
  S     -0.465793   -0.439201    1.791647
  O     -2.980308    0.591781    0.511332
  C     -3.061173    1.669957    1.441814
  O     -2.563690   -1.658683    0.119548
  C     -1.994796   -2.951448   -0.079174
  H      4.456233   -2.778617   -0.060950
  H      3.800588   -3.527731    1.404748
  H      2.840708   -3.506134   -0.078780
  H      3.650496   -1.043658    1.559485
  H      2.017415   -1.765888    1.498607
  H      1.385256   -0.590790   -2.967864
  H      2.394491    0.606197   -2.093362
  H      2.461361    3.948407    0.238607
  H      0.827276    3.654107    0.923380
  H      2.607149    2.962928    2.542670
  H      1.662003    1.568739    2.006668
  H      3.271106    1.853569    1.330370
  H     -4.057952    1.621616    1.874618
  H     -2.911196    2.610375    0.914034
  H     -2.302444    1.559892    2.219168
  H     -1.583890   -3.034688   -1.085114
  H     -2.812069   -3.653637    0.065398
  H     -1.200656   -3.129321    0.647486

 Total Charge           Charge          ....    0
 Multiplicity           Mult            ....    1
 Number of Electrons    NEL             ....  174
 Basis Dimension        Dim             ....  316

ORBITAL ENERGIES
----------------

  NO   OCC          E(Eh)            E(eV)
   0   2.0000     -88.027147     -2395.3405
   1   2.0000     -87.966467     -2393.6892
   2   2.0000     -76.413825     -2079.3259
   3   2.0000     -18.826351      -512.2911
   4   2.0000     -18.805820      -511.7324
   5   2.0000     -18.765987      -510.6485
   6   2.0000     -18.765765      -510.6424
   7   2.0000     -18.763916      -510.5921
   8   2.0000     -18.738750      -509.9073
   9   2.0000     -10.032389      -272.9952
  10   2.0000     -10.011365      -272.4231
  11   2.0000      -9.960527      -271.0397
  12   2.0000      -9.956462      -270.9291
  13   2.0000      -9.943179      -270.5677
  14   2.0000      -9.923145      -270.0225
  15   2.0000      -9.918029      -269.8833
  16   2.0000      -9.915648      -269.8185
  17   2.0000      -9.888249      -269.0729
  18   2.0000      -9.885315      -268.9931
  19   2.0000      -7.672342      -208.7750
  20   2.0000      -7.611343      -207.1152
  21   2.0000      -6.408607      -174.3871
  22   2.0000      -5.700759      -155.1256
  23   2.0000      -5.697039      -155.0243
  24   2.0000      -5.688504      -154.7921
  25   2.0000      -5.640469      -153.4850
  26   2.0000      -5.631920      -153.2523
  27   2.0000      -5.631236      -153.2337
  28   2.0000      -4.631256      -126.0229
  29   2.0000      -4.630821      -126.0111
  30   2.0000      -4.629149      -125.9655
  31   2.0000      -1.037138       -28.2220
  32   2.0000      -1.011676       -27.5291
  33   2.0000      -0.961330       -26.1591
  34   2.0000      -0.942141       -25.6370
  35   2.0000      -0.916998       -24.9528
  36   2.0000      -0.914633       -24.8884
  37   2.0000      -0.767993       -20.8982
  38   2.0000      -0.714678       -19.4474
  39   2.0000      -0.707775       -19.2595
  40   2.0000      -0.682288       -18.5660
  41   2.0000      -0.651203       -17.7201
  42   2.0000      -0.624939       -17.0055
  43   2.0000      -0.614898       -16.7322
  44   2.0000      -0.600057       -16.3284
  45   2.0000      -0.597130       -16.2487
  46   2.0000      -0.570456       -15.5229
  47   2.0000      -0.512474       -13.9451
  48   2.0000      -0.503064       -13.6891
  49   2.0000      -0.498004       -13.5514
  50   2.0000      -0.483248       -13.1498
  51   2.0000      -0.462101       -12.5744
  52   2.0000      -0.455629       -12.3983
  53   2.0000      -0.452600       -12.3159
  54   2.0000      -0.439567       -11.9612
  55   2.0000      -0.429160       -11.6780
  56   2.0000      -0.420670       -11.4470
  57   2.0000      -0.417603       -11.3636
  58   2.0000      -0.404433       -11.0052
  59   2.0000      -0.398781       -10.8514
  60   2.0000      -0.391625       -10.6567
  61   2.0000      -0.390250       -10.6193
  62   2.0000      -0.387669       -10.5490
  63   2.0000      -0.380711       -10.3597
  64   2.0000      -0.375006       -10.2044
  65   2.0000      -0.370432       -10.0800
  66   2.0000      -0.361915        -9.8482
  67   2.0000      -0.355489        -9.6733
  68   2.0000      -0.352638        -9.5958
  69   2.0000      -0.342731        -9.3262
  70   2.0000      -0.336472        -9.1559
  71   2.0000      -0.331868        -9.0306
  72   2.0000      -0.322507        -8.7759
  73   2.0000      -0.309954        -8.4343
  74   2.0000      -0.297785        -8.1031
  75   2.0000      -0.292913        -7.9706
  76   2.0000      -0.288236        -7.8433
  77   2.0000      -0.279487        -7.6052
  78   2.0000      -0.267379        -7.2757
  79   2.0000      -0.263541        -7.1713
  80   2.0000      -0.255305        -6.9472
  81   2.0000      -0.243218        -6.6183
  82   2.0000      -0.237755        -6.4697
  83   2.0000      -0.230430        -6.2703
  84   2.0000      -0.197433        -5.3724
  85   2.0000      -0.181311        -4.9337
  86   2.0000      -0.177961        -4.8426
  87   0.0000      -0.050934        -1.3860
  88   0.0000      -0.040248        -1.0952
  89   0.0000      -0.030684        -0.8350
  90   0.0000       0.007228         0.1967
  91   0.0000       0.034302         0.9334

MULLIKEN ATOMIC CHARGES
-----------------------
   0 C :   -0.304457
   1 C :   -0.031604
   2 O :   -0.226073
   3 C :    0.090655
   4 O :   -0.191704
   5 C :   -0.023295
   6 C :   -0.323824
   7 H :    0.156862
   8 C :    0.219440
   9 O :   -0.191924
  10 O :   -0.215273
  11 C :   -0.012313
  12 C :   -0.327388
  13 S :   -0.079982
  14 P :    0.641481
  15 S :   -0.348352
  16 O :   -0.372656
  17 C :   -0.083537
  18 O :   -0.378727
  19 C :   -0.090171
  20 H :    0.108815
  21 H :    0.114047
  22 H :    0.126838
  23 H :    0.099439
  24 H :    0.135083
  25 H :    0.122337
  26 H :    0.113492
  27 H :    0.107622
  28 H :    0.115372
  29 H :    0.112473
  30 H :    0.150985
  31 H :    0.118852
  32 H :    0.114213
  33 H :    0.106256
  34 H :    0.110694
  35 H :    0.111449
  36 H :    0.112032
  37 H :    0.112842
Sum of atomic charges:   -0.0000000

LOEWDIN ATOMIC CHARGES
----------------------
   0 C :   -0.356788
   1 C :   -0.115809
   2 O :   -0.049427
   3 C :    0.023111
   4 O :   -0.164230
   5 C :   -0.248629
   6 C :   -0.262272
   7 H :    0.153113
   8 C :    0.023126
   9 O :   -0.148879
  10 O :   -0.032084
  11 C :   -0.103542
  12 C :   -0.362771
  13 S :    0.110740
  14 P :    0.596301
  15 S :   -0.321166
  16 O :   -0.246353
  17 C :   -0.211151
  18 O :   -0.256215
  19 C :   -0.215305
  20 H :    0.122125
  21 H :    0.131638
  22 H :    0.129841
  23 H :    0.115532
  24 H :    0.120744
  25 H :    0.145728
  26 H :    0.137283
  27 H :    0.120291
  28 H :    0.123000
  29 H :    0.131381
  30 H :    0.129246
  31 H :    0.125012
  32 H :    0.115115
  33 H :    0.108039
  34 H :    0.104444
  35 H :    0.106770
  36 H :    0.114481
  37 H :    0.107560

  Mayer bond orders larger than 0.100000
B(  0-C ,  1-C ) :   1.1686 B(  0-C , 20-H ) :   0.9479 B(  0-C , 21-H ) :   0.9446
B(  0-C , 22-H ) :   0.9452 B(  1-C ,  2-O ) :   0.9078 B(  1-C , 23-H ) :   0.9359
B(  1-C , 24-H ) :   0.9044 B(  2-O ,  3-C ) :   1.2413 B(  3-C ,  4-O ) :   1.9837
B(  3-C ,  5-C ) :   1.0028 B(  5-C ,  6-C ) :   1.0208 B(  5-C , 25-H ) :   0.8907
B(  5-C , 26-H ) :   0.8851 B(  6-C ,  7-H ) :   0.8721 B(  6-C ,  8-C ) :   0.9030
B(  6-C , 13-S ) :   1.0500 B(  8-C ,  9-O ) :   1.9231 B(  8-C , 10-O ) :   1.2837
B(  9-O , 14-P ) :   0.1224 B( 10-O , 11-C ) :   0.8924 B( 11-C , 12-C ) :   1.1792
B( 11-C , 27-H ) :   0.9363 B( 11-C , 28-H ) :   0.9141 B( 12-C , 29-H ) :   0.9390
B( 12-C , 30-H ) :   0.9230 B( 12-C , 31-H ) :   0.9433 B( 13-S , 14-P ) :   0.9205
B( 13-S , 15-S ) :   0.1229 B( 14-P , 15-S ) :   1.5110 B( 14-P , 16-O ) :   1.1224
B( 14-P , 18-O ) :   1.0932 B( 16-O , 17-C ) :   0.9389 B( 17-C , 32-H ) :   0.9561
B( 17-C , 33-H ) :   0.9540 B( 17-C , 34-H ) :   0.9289 B( 18-O , 19-C ) :   0.9434
B( 19-C , 35-H ) :   0.9467 B( 19-C , 36-H ) :   0.9575 B( 19-C , 37-H ) :   0.9388

Dispersion correction           -0.056666079
FINAL SINGLE POINT ENERGY     -1979.002019869006

DIPOLE MOMENT
-------------

Method             : SCF
Type of density    : Electron Density
Multiplicity       :   1
Irrep              :   0
Energy             : -1979.1309482932520041 Eh
Relativity type    :
Basis              : AO
                                X                 Y                 Z
Electronic contribution:    -15.556215009       1.637614151      -7.810204501
Nuclear contribution   :     17.189612734      -0.747308771       7.411965044
                        -----------------------------------------
Total Dipole Moment    :      1.633397725       0.890305380      -0.398239457
                        -----------------------------------------
Magnitude (a.u.)       :      1.902426467
Magnitude (Debye)      :      4.835583789

Rotational constants in cm-1:             0.012185             0.009650             0.007653
Rotational constants in MHz :           365.311166           289.285656           229.416821

                             ****ORCA TERMINATED NORMALLY****
TOTAL RUN TIME: 0 days 0 hours 1 minutes 32 seconds 329 msec
