                         Program Version 6.0.0  -   RELEASE  -
|  1> ! pbe def2-sv(p) def2/J RI DEFGRID1 loosescf d4 GCP(DFT/SV(P)) printgap
|  2> %output
|  3>     printlevel normal
|  4> end
|  5> * xyz 0 1
|  6> C 4.9678935462 1.1194939946 0.0134247918
|  7> C 3.7246012541 1.2780068093 -0.8356630662
|  8> O 2.9494275498 0.061186121 -0.8729076992
|  9> P 2.1620675739 -0.4624150738 0.3942164693
| 10> S 1.5447454374 0.8862855701 1.6831245635
| 11> O 3.1845318467 -1.5066028402 1.0195334248
| 12> C 3.0107163942 -2.0548256937 2.3360040817
| 13> C 1.8332115209 -3.0066139345 2.3927769825
| 14> S 0.7322451832 -1.6969421249 -0.5802836311
| 15> C 0.3281028936 -0.6473142563 -2.0068808592
| 16> S -0.1339221381 1.0480182851 -1.5574940259
| 17> P -2.0488743351 0.6232667915 -0.74922776
| 18> S -2.970199053 -0.9534726444 -1.4616162464
| 19> O -2.67239695 2.0369624811 -1.0773695994
| 20> C -4.0955590238 2.2498853068 -1.1895360249
| 21> C -4.7849979036 2.1954623565 0.1576171271
| 22> O -1.9037895509 0.6701252101 0.833006556
| 23> C -1.8333288938 -0.4852431319 1.6877768707
| 24> C -3.1734829529 -0.7363514096 2.3496094539
| 25> H 5.5718110463 2.0183875494 -0.0605923388
| 26> H 4.686490088 0.966220743 1.054582039
| 27> H 5.546071126 0.2634589248 -0.3240986103
| 28> H 3.9664295702 1.46670516 -1.8822997595
| 29> H 3.0889998876 2.0829104136 -0.4524923349
| 30> H 3.9537290338 -2.5638530996 2.5385277715
| 31> H 2.8728456525 -1.2274339179 3.040271311
| 32> H 0.910058119 -2.4628819387 2.1899202734
| 33> H 1.9430843247 -3.78990735 1.647456145
| 34> H 1.7722816513 -3.4513832407 3.3806902172
| 35> H -0.5106390966 -1.1370882109 -2.5038337918
| 36> H 1.1919188174 -0.5762863027 -2.6618265291
| 37> H -4.1744508589 3.2380356443 -1.6451480649
| 38> H -4.5053241681 1.49379834 -1.8671197931
| 39> H -5.8256910295 2.4812782227 0.0403454372
| 40> H -4.737424214 1.1849149599 0.5587961469
| 41> H -4.2986487483 2.8736819545 0.8540426934
| 42> H -1.5269807116 -1.3572566158 1.1014132238
| 43> H -1.0605904893 -0.2441040489 2.4215763748
| 44> H -3.9113120309 -1.0173972937 1.6008495149
| 45> H -3.0688806747 -1.5485322452 3.0615891184
| 46> H -3.5082207247 0.1571310675 2.8690131047
| 47> *
| 48>
| 49>                          ****END OF INPUT****

CARTESIAN COORDINATES (ANGSTROEM)
---------------------------------
  C      4.967894    1.119494    0.013425
  C      3.724601    1.278007   -0.835663
  O      2.949428    0.061186   -0.872908
  P      2.162068   -0.462415    0.394216
  S      1.544745    0.886286    1.683125
  O      3.184532   -1.506603    1.019533
  C      3.010716   -2.054826    2.336004
  C      1.833212   -3.006614    2.392777
  S      0.732245   -1.696942   -0.580284
  C      0.328103   -0.647314   -2.006881
  S     -0.133922    1.048018   -1.557494
  P     -2.048874    0.623267   -0.749228
  S     -2.970199   -0.953473   -1.461616
  O     -2.672397    2.036962   -1.077370
  C     -4.095559    2.249885   -1.189536
  C     -4.784998    2.195462    0.157617
  O     -1.903790    0.670125    0.833007
  C     -1.833329   -0.485243    1.687777
  C     -3.173483   -0.736351    2.349609
  H      5.571811    2.018388   -0.060592
  H      4.686490    0.966221    1.054582
  H      5.546071    0.263459   -0.324099
  H      3.966430    1.466705   -1.882300
  H      3.089000    2.082910   -0.452492
  H      3.953729   -2.563853    2.538528
  H      2.872846   -1.227434    3.040271
  H      0.910058   -2.462882    2.189920
  H      1.943084   -3.789907    1.647456
  H      1.772282   -3.451383    3.380690
  H     -0.510639   -1.137088   -2.503834
  H      1.191919   -0.576286   -2.661827
  H     -4.174451    3.238036   -1.645148
  H     -4.505324    1.493798   -1.867120
  H     -5.825691    2.481278    0.040345
  H     -4.737424    1.184915    0.558796
  H     -4.298649    2.873682    0.854043
  H     -1.526981   -1.357257    1.101413
  H     -1.060590   -0.244104    2.421576
  H     -3.911312   -1.017397    1.600850
  H     -3.068881   -1.548532    3.061589
  H     -3.508221    0.157131    2.869013

 Total Charge           Charge          ....    0
 Multiplicity           Mult            ....    1
 Number of Electrons    NEL             ....  202
 Basis Dimension        Dim             ....  334

ORBITAL ENERGIES
----------------

  NO   OCC          E(Eh)            E(eV)
   0   2.0000     -88.040550     -2395.7052
   1   2.0000     -88.036397     -2395.5922
   2   2.0000     -87.989175     -2394.3072
   3   2.0000     -87.986540     -2394.2355
   4   2.0000     -76.428226     -2079.7178
   5   2.0000     -76.423843     -2079.5985
   6   2.0000     -18.797078      -511.4945
   7   2.0000     -18.793239      -511.3900
   8   2.0000     -18.789082      -511.2769
   9   2.0000     -18.783531      -511.1259
  10   2.0000      -9.954679      -270.8806
  11   2.0000      -9.954518      -270.8762
  12   2.0000      -9.953952      -270.8608
  13   2.0000      -9.952596      -270.8239
  14   2.0000      -9.939379      -270.4643
  15   2.0000      -9.889946      -269.1191
  16   2.0000      -9.885448      -268.9967
  17   2.0000      -9.884241      -268.9639
  18   2.0000      -9.877132      -268.7704
  19   2.0000      -7.685415      -209.1308
  20   2.0000      -7.681629      -209.0278
  21   2.0000      -7.634106      -207.7346
  22   2.0000      -7.631395      -207.6608
  23   2.0000      -6.425651      -174.8508
  24   2.0000      -6.421550      -174.7393
  25   2.0000      -5.713496      -155.4721
  26   2.0000      -5.709888      -155.3739
  27   2.0000      -5.709592      -155.3659
  28   2.0000      -5.706324      -155.2770
  29   2.0000      -5.702237      -155.1658
  30   2.0000      -5.698267      -155.0577
  31   2.0000      -5.662836      -154.0936
  32   2.0000      -5.660235      -154.0228
  33   2.0000      -5.655045      -153.8816
  34   2.0000      -5.654150      -153.8572
  35   2.0000      -5.652174      -153.8035
  36   2.0000      -5.651511      -153.7854
  37   2.0000      -4.648267      -126.4858
  38   2.0000      -4.647449      -126.4635
  39   2.0000      -4.646033      -126.4250
  40   2.0000      -4.643876      -126.3663
  41   2.0000      -4.643157      -126.3467
  42   2.0000      -4.642376      -126.3255
  43   2.0000      -0.990742       -26.9595
  44   2.0000      -0.981845       -26.7174
  45   2.0000      -0.950684       -25.8694
  46   2.0000      -0.939747       -25.5718
  47   2.0000      -0.761176       -20.7126
  48   2.0000      -0.721133       -19.6230
  49   2.0000      -0.707499       -19.2520
  50   2.0000      -0.690227       -18.7820
  51   2.0000      -0.682467       -18.5709
  52   2.0000      -0.670410       -18.2428
  53   2.0000      -0.652977       -17.7684
  54   2.0000      -0.638818       -17.3831
  55   2.0000      -0.603096       -16.4111
  56   2.0000      -0.595169       -16.1954
  57   2.0000      -0.575832       -15.6692
  58   2.0000      -0.564098       -15.3499
  59   2.0000      -0.559377       -15.2214
  60   2.0000      -0.499693       -13.5973
  61   2.0000      -0.490738       -13.3537
  62   2.0000      -0.476683       -12.9712
  63   2.0000      -0.472615       -12.8605
  64   2.0000      -0.458771       -12.4838
  65   2.0000      -0.444042       -12.0830
  66   2.0000      -0.441933       -12.0256
  67   2.0000      -0.428086       -11.6488
  68   2.0000      -0.424920       -11.5627
  69   2.0000      -0.416911       -11.3447
  70   2.0000      -0.400418       -10.8959
  71   2.0000      -0.396269       -10.7830
  72   2.0000      -0.391826       -10.6621
  73   2.0000      -0.390099       -10.6151
  74   2.0000      -0.379531       -10.3276
  75   2.0000      -0.376617       -10.2483
  76   2.0000      -0.372205       -10.1282
  77   2.0000      -0.359968        -9.7952
  78   2.0000      -0.355373        -9.6702
  79   2.0000      -0.352990        -9.6053
  80   2.0000      -0.349135        -9.5004
  81   2.0000      -0.347305        -9.4507
  82   2.0000      -0.339425        -9.2362
  83   2.0000      -0.334070        -9.0905
  84   2.0000      -0.331521        -9.0211
  85   2.0000      -0.322472        -8.7749
  86   2.0000      -0.308102        -8.3839
  87   2.0000      -0.298292        -8.1169
  88   2.0000      -0.289275        -7.8716
  89   2.0000      -0.287149        -7.8137
  90   2.0000      -0.281610        -7.6630
  91   2.0000      -0.275445        -7.4953
  92   2.0000      -0.273728        -7.4485
  93   2.0000      -0.264246        -7.1905
  94   2.0000      -0.258313        -7.0290
  95   2.0000      -0.238280        -6.4839
  96   2.0000      -0.216125        -5.8811
  97   2.0000      -0.211852        -5.7648
  98   2.0000      -0.205652        -5.5961
  99   2.0000      -0.197821        -5.3830
 100   2.0000      -0.192821        -5.2469
 101   0.0000      -0.047571        -1.2945
 102   0.0000      -0.024090        -0.6555
 103   0.0000      -0.018560        -0.5051
 104   0.0000       0.009438         0.2568
 105   0.0000       0.021502         0.5851

MULLIKEN ATOMIC CHARGES
-----------------------
   0 C :   -0.305276
   1 C :   -0.006496
   2 O :   -0.373993
   3 P :    0.612366
   4 S :   -0.314221
   5 O :   -0.365484
   6 C :   -0.003415
   7 C :   -0.333408
   8 S :   -0.105954
   9 C :   -0.343645
  10 S :   -0.085440
  11 P :    0.641711
  12 S :   -0.344041
  13 O :   -0.374278
  14 C :   -0.002715
  15 C :   -0.319519
  16 O :   -0.362677
  17 C :   -0.041755
  18 C :   -0.292075
  19 H :    0.113651
  20 H :    0.123247
  21 H :    0.117621
  22 H :    0.104989
  23 H :    0.118805
  24 H :    0.107343
  25 H :    0.108703
  26 H :    0.133414
  27 H :    0.125362
  28 H :    0.117028
  29 H :    0.193433
  30 H :    0.187483
  31 H :    0.107401
  32 H :    0.112024
  33 H :    0.111768
  34 H :    0.132716
  35 H :    0.121693
  36 H :    0.122312
  37 H :    0.117154
  38 H :    0.125398
  39 H :    0.105520
  40 H :    0.113248
Sum of atomic charges:   -0.0000000

LOEWDIN ATOMIC CHARGES
----------------------
   0 C :   -0.364351
   1 C :   -0.117232
   2 O :   -0.239155
   3 P :    0.571465
   4 S :   -0.307547
   5 O :   -0.242571
   6 C :   -0.121523
   7 C :   -0.369880
   8 S :    0.084634
   9 C :   -0.478124
  10 S :    0.088412
  11 P :    0.577981
  12 S :   -0.322700
  13 O :   -0.243307
  14 C :   -0.112608
  15 C :   -0.364513
  16 O :   -0.237369
  17 C :   -0.128841
  18 C :   -0.360987
  19 H :    0.131387
  20 H :    0.123018
  21 H :    0.127077
  22 H :    0.118501
  23 H :    0.113610
  24 H :    0.119930
  25 H :    0.108323
  26 H :    0.119790
  27 H :    0.127957
  28 H :    0.133176
  29 H :    0.129231
  30 H :    0.134563
  31 H :    0.120072
  32 H :    0.111386
  33 H :    0.130660
  34 H :    0.125437
  35 H :    0.128905
  36 H :    0.100340
  37 H :    0.111503
  38 H :    0.121815
  39 H :    0.128133
  40 H :    0.123402

  Mayer bond orders larger than 0.100000
B(  0-C ,  1-C ) :   1.1653 B(  0-C , 19-H ) :   0.9388 B(  0-C , 20-H ) :   0.9354
B(  0-C , 21-H ) :   0.9458 B(  1-C ,  2-O ) :   0.8975 B(  1-C , 22-H ) :   0.9342
B(  1-C , 23-H ) :   0.9158 B(  2-O ,  3-P ) :   1.1165 B(  3-P ,  4-S ) :   1.6121
B(  3-P ,  5-O ) :   1.1030 B(  3-P ,  8-S ) :   0.9534 B(  4-S ,  8-S ) :   0.1047
B(  5-O ,  6-C ) :   0.9125 B(  6-C ,  7-C ) :   1.1631 B(  6-C , 24-H ) :   0.9322
B(  6-C , 25-H ) :   0.9114 B(  7-C , 26-H ) :   0.9304 B(  7-C , 27-H ) :   0.9433
B(  7-C , 28-H ) :   0.9383 B(  8-S ,  9-C ) :   0.9886 B(  9-C , 10-S ) :   1.0256
B(  9-C , 29-H ) :   0.8749 B(  9-C , 30-H ) :   0.9029 B( 10-S , 11-P ) :   0.9339
B( 10-S , 12-S ) :   0.1078 B( 11-P , 12-S ) :   1.5891 B( 11-P , 13-O ) :   1.1356
B( 11-P , 16-O ) :   1.1279 B( 13-O , 14-C ) :   0.9098 B( 14-C , 15-C ) :   1.1621
B( 14-C , 31-H ) :   0.9356 B( 14-C , 32-H ) :   0.9176 B( 15-C , 33-H ) :   0.9373
B( 15-C , 34-H ) :   0.9335 B( 15-C , 35-H ) :   0.9455 B( 16-O , 17-C ) :   0.8981
B( 17-C , 18-C ) :   1.1660 B( 17-C , 36-H ) :   0.8993 B( 17-C , 37-H ) :   0.9174
B( 18-C , 38-H ) :   0.9315 B( 18-C , 39-H ) :   0.9397 B( 18-C , 40-H ) :   0.9447

Dispersion correction           -0.066928804
FINAL SINGLE POINT ENERGY     -2929.523260908058

DIPOLE MOMENT
-------------

Method             : SCF
Type of density    : Electron Density
Multiplicity       :   1
Irrep              :   0
Energy             : -2929.6409938828182931 Eh
Relativity type    :
Basis              : AO
                                X                 Y                 Z
Electronic contribution:      2.087488152       1.184154936     -14.053764566
Nuclear contribution   :     -1.578131713      -1.182830317      14.407837212
                        -----------------------------------------
Total Dipole Moment    :      0.509356439       0.001324619       0.354072645
                        -----------------------------------------
Magnitude (a.u.)       :      0.620333116
Magnitude (Debye)      :      1.576761474

Rotational constants in cm-1:             0.013016             0.005094             0.004622
Rotational constants in MHz :           390.196848           152.714285           138.550823

                             ****ORCA TERMINATED NORMALLY****
TOTAL RUN TIME: 0 days 0 hours 0 minutes 21 seconds 352 msec
