                         Program Version 6.0.0  -   RELEASE  -
|  1> ! pbe def2-sv(p) def2/J RI DEFGRID1 loosescf d4 GCP(DFT/SV(P)) printgap
|  2> %output
|  3>     printlevel normal
|  4> end
|  5> * xyz 0 1
|  6> C 3.165437373 2.4981504786 0.6181146652
|  7> C 2.0770151954 1.9254867781 1.5000481676
|  8> O 2.2479593728 0.5184443222 1.7949949244
|  9> P 2.4632938172 -0.6526968773 0.7636358317
| 10> S 2.0572898844 -2.3493646593 1.6550209516
| 11> O 3.9606997778 -0.4226898432 0.2911846855
| 12> C 4.5601882371 -0.9770161589 -0.8939910866
| 13> C 4.4224440912 -2.4828499294 -0.97661023
| 14> S 1.3021098893 -0.2197504897 -0.9741893473
| 15> C -0.2143263289 -1.0148874951 -0.4080475281
| 16> S -1.1338579123 -0.0049014743 0.7893614738
| 17> P -2.7551870604 0.6394882029 -0.4539882145
| 18> S -2.8091201506 -0.1221932766 -2.2657726003
| 19> O -2.7915841343 2.2131335277 -0.3067754723
| 20> C -1.6560427501 3.0895042585 -0.4193006642
| 21> C -0.8846614381 2.8941932874 -1.709118078
| 22> O -4.069583043 0.3865898554 0.3924809035
| 23> C -4.832272974 -0.824411882 0.2709867544
| 24> C -4.1075881363 -2.0148690647 0.8683689471
| 25> H 3.036379867 3.5744732611 0.5565935333
| 26> H 4.1434544683 2.2776658986 1.037535576
| 27> H 3.1056837527 2.0774323729 -0.383608874
| 28> H 1.0946085557 2.0493243887 1.0361892547
| 29> H 2.0751100952 2.3860126788 2.4891564216
| 30> H 4.1004397145 -0.4998665108 -1.7640389145
| 31> H 5.6067103419 -0.6773727249 -0.8158108483
| 32> H 4.8145870445 -2.9502555652 -0.0763018546
| 33> H 3.374468371 -2.7617794313 -1.0775302035
| 34> H 4.9697501851 -2.8485186535 -1.83949697
| 35> H 0.0497788617 -1.9516127313 0.0855658966
| 36> H -0.8405315168 -1.1799839964 -1.2887935631
| 37> H -2.0975428608 4.0863868 -0.3673945527
| 38> H -1.0139925953 2.9297389301 0.4522066133
| 39> H -0.4230363521 1.9069620878 -1.737177534
| 40> H -1.5517066172 2.9832371781 -2.563341798
| 41> H -0.1066426875 3.6473512257 -1.7824601135
| 42> H -5.7571373682 -0.6076343988 0.8071267694
| 43> H -5.049766087 -0.9983406292 -0.788195649
| 44> H -3.2276328674 -2.2551904166 0.2723479558
| 45> H -3.7940070271 -1.7950440828 1.8860707491
| 46> H -4.769976593 -2.8745278781 0.8744592505
| 47> *
| 48>
| 49>                          ****END OF INPUT****

CARTESIAN COORDINATES (ANGSTROEM)
---------------------------------
  C      3.165437    2.498150    0.618115
  C      2.077015    1.925487    1.500048
  O      2.247959    0.518444    1.794995
  P      2.463294   -0.652697    0.763636
  S      2.057290   -2.349365    1.655021
  O      3.960700   -0.422690    0.291185
  C      4.560188   -0.977016   -0.893991
  C      4.422444   -2.482850   -0.976610
  S      1.302110   -0.219750   -0.974189
  C     -0.214326   -1.014887   -0.408048
  S     -1.133858   -0.004901    0.789361
  P     -2.755187    0.639488   -0.453988
  S     -2.809120   -0.122193   -2.265773
  O     -2.791584    2.213134   -0.306775
  C     -1.656043    3.089504   -0.419301
  C     -0.884661    2.894193   -1.709118
  O     -4.069583    0.386590    0.392481
  C     -4.832273   -0.824412    0.270987
  C     -4.107588   -2.014869    0.868369
  H      3.036380    3.574473    0.556594
  H      4.143454    2.277666    1.037536
  H      3.105684    2.077432   -0.383609
  H      1.094609    2.049324    1.036189
  H      2.075110    2.386013    2.489156
  H      4.100440   -0.499867   -1.764039
  H      5.606710   -0.677373   -0.815811
  H      4.814587   -2.950256   -0.076302
  H      3.374468   -2.761779   -1.077530
  H      4.969750   -2.848519   -1.839497
  H      0.049779   -1.951613    0.085566
  H     -0.840532   -1.179984   -1.288794
  H     -2.097543    4.086387   -0.367395
  H     -1.013993    2.929739    0.452207
  H     -0.423036    1.906962   -1.737178
  H     -1.551707    2.983237   -2.563342
  H     -0.106643    3.647351   -1.782460
  H     -5.757137   -0.607634    0.807127
  H     -5.049766   -0.998341   -0.788196
  H     -3.227633   -2.255190    0.272348
  H     -3.794007   -1.795044    1.886071
  H     -4.769977   -2.874528    0.874459

 Total Charge           Charge          ....    0
 Multiplicity           Mult            ....    1
 Number of Electrons    NEL             ....  202
 Basis Dimension        Dim             ....  334

ORBITAL ENERGIES
----------------

  NO   OCC          E(Eh)            E(eV)
   0   2.0000     -88.051672     -2396.0078
   1   2.0000     -88.048669     -2395.9261
   2   2.0000     -87.995111     -2394.4687
   3   2.0000     -87.983483     -2394.1523
   4   2.0000     -76.431455     -2079.8056
   5   2.0000     -76.429528     -2079.7532
   6   2.0000     -18.797763      -511.5131
   7   2.0000     -18.794837      -511.4335
   8   2.0000     -18.792783      -511.3776
   9   2.0000     -18.790531      -511.3163
  10   2.0000      -9.962255      -271.0868
  11   2.0000      -9.961869      -271.0762
  12   2.0000      -9.959989      -271.0251
  13   2.0000      -9.953581      -270.8507
  14   2.0000      -9.951255      -270.7874
  15   2.0000      -9.893680      -269.2207
  16   2.0000      -9.888236      -269.0726
  17   2.0000      -9.885169      -268.9891
  18   2.0000      -9.883386      -268.9406
  19   2.0000      -7.695871      -209.4153
  20   2.0000      -7.693034      -209.3381
  21   2.0000      -7.639969      -207.8941
  22   2.0000      -7.628773      -207.5895
  23   2.0000      -6.428642      -174.9323
  24   2.0000      -6.426693      -174.8792
  25   2.0000      -5.723428      -155.7424
  26   2.0000      -5.720775      -155.6702
  27   2.0000      -5.720347      -155.6585
  28   2.0000      -5.717521      -155.5817
  29   2.0000      -5.713352      -155.4682
  30   2.0000      -5.710307      -155.3853
  31   2.0000      -5.668767      -154.2550
  32   2.0000      -5.660596      -154.0327
  33   2.0000      -5.660269      -154.0238
  34   2.0000      -5.657883      -153.9588
  35   2.0000      -5.649447      -153.7293
  36   2.0000      -5.648642      -153.7074
  37   2.0000      -4.650882      -126.5569
  38   2.0000      -4.650692      -126.5518
  39   2.0000      -4.649376      -126.5160
  40   2.0000      -4.649141      -126.5096
  41   2.0000      -4.648937      -126.5040
  42   2.0000      -4.646637      -126.4414
  43   2.0000      -0.992067       -26.9955
  44   2.0000      -0.990539       -26.9539
  45   2.0000      -0.948764       -25.8172
  46   2.0000      -0.947448       -25.7814
  47   2.0000      -0.766624       -20.8609
  48   2.0000      -0.724856       -19.7243
  49   2.0000      -0.716793       -19.5049
  50   2.0000      -0.695147       -18.9159
  51   2.0000      -0.686526       -18.6813
  52   2.0000      -0.683629       -18.6025
  53   2.0000      -0.655489       -17.8368
  54   2.0000      -0.642403       -17.4807
  55   2.0000      -0.603800       -16.4302
  56   2.0000      -0.595312       -16.1993
  57   2.0000      -0.582878       -15.8609
  58   2.0000      -0.575848       -15.6696
  59   2.0000      -0.566918       -15.4266
  60   2.0000      -0.501261       -13.6400
  61   2.0000      -0.495834       -13.4923
  62   2.0000      -0.476962       -12.9788
  63   2.0000      -0.470175       -12.7941
  64   2.0000      -0.462334       -12.5807
  65   2.0000      -0.450768       -12.2660
  66   2.0000      -0.443969       -12.0810
  67   2.0000      -0.437201       -11.8968
  68   2.0000      -0.429897       -11.6981
  69   2.0000      -0.426911       -11.6168
  70   2.0000      -0.416093       -11.3225
  71   2.0000      -0.414859       -11.2889
  72   2.0000      -0.404701       -11.0125
  73   2.0000      -0.396070       -10.7776
  74   2.0000      -0.383202       -10.4274
  75   2.0000      -0.377110       -10.2617
  76   2.0000      -0.368595       -10.0300
  77   2.0000      -0.358385        -9.7522
  78   2.0000      -0.353575        -9.6213
  79   2.0000      -0.352079        -9.5805
  80   2.0000      -0.350976        -9.5505
  81   2.0000      -0.348530        -9.4840
  82   2.0000      -0.345418        -9.3993
  83   2.0000      -0.341390        -9.2897
  84   2.0000      -0.339863        -9.2482
  85   2.0000      -0.324918        -8.8415
  86   2.0000      -0.314472        -8.5572
  87   2.0000      -0.303542        -8.2598
  88   2.0000      -0.298793        -8.1306
  89   2.0000      -0.292532        -7.9602
  90   2.0000      -0.288506        -7.8506
  91   2.0000      -0.280749        -7.6396
  92   2.0000      -0.274387        -7.4664
  93   2.0000      -0.268234        -7.2990
  94   2.0000      -0.260754        -7.0955
  95   2.0000      -0.242331        -6.5941
  96   2.0000      -0.223957        -6.0942
  97   2.0000      -0.215549        -5.8654
  98   2.0000      -0.209926        -5.7124
  99   2.0000      -0.202613        -5.5134
 100   2.0000      -0.196992        -5.3604
 101   0.0000      -0.049104        -1.3362
 102   0.0000      -0.039062        -1.0629
 103   0.0000      -0.016765        -0.4562
 104   0.0000       0.000761         0.0207
 105   0.0000       0.006504         0.1770

MULLIKEN ATOMIC CHARGES
-----------------------
   0 C :   -0.310539
   1 C :   -0.028152
   2 O :   -0.353610
   3 P :    0.595886
   4 S :   -0.304152
   5 O :   -0.373883
   6 C :   -0.010913
   7 C :   -0.307452
   8 S :   -0.120870
   9 C :   -0.360403
  10 S :   -0.092997
  11 P :    0.591014
  12 S :   -0.322027
  13 O :   -0.355344
  14 C :   -0.016338
  15 C :   -0.321485
  16 O :   -0.353276
  17 C :   -0.003185
  18 C :   -0.313543
  19 H :    0.112749
  20 H :    0.126807
  21 H :    0.115373
  22 H :    0.133083
  23 H :    0.112293
  24 H :    0.110604
  25 H :    0.110391
  26 H :    0.129105
  27 H :    0.124992
  28 H :    0.111949
  29 H :    0.198093
  30 H :    0.194539
  31 H :    0.110250
  32 H :    0.122978
  33 H :    0.132028
  34 H :    0.128603
  35 H :    0.109243
  36 H :    0.107525
  37 H :    0.113793
  38 H :    0.121010
  39 H :    0.122432
  40 H :    0.113427
Sum of atomic charges:    0.0000000

LOEWDIN ATOMIC CHARGES
----------------------
   0 C :   -0.366694
   1 C :   -0.115985
   2 O :   -0.233214
   3 P :    0.567470
   4 S :   -0.303130
   5 O :   -0.240889
   6 C :   -0.114177
   7 C :   -0.368660
   8 S :    0.075487
   9 C :   -0.492942
  10 S :    0.084851
  11 P :    0.571895
  12 S :   -0.303301
  13 O :   -0.231427
  14 C :   -0.115460
  15 C :   -0.371866
  16 O :   -0.233725
  17 C :   -0.119776
  18 C :   -0.366760
  19 H :    0.130812
  20 H :    0.130352
  21 H :    0.116185
  22 H :    0.103871
  23 H :    0.124140
  24 H :    0.107320
  25 H :    0.121940
  26 H :    0.131450
  27 H :    0.121395
  28 H :    0.130480
  29 H :    0.127223
  30 H :    0.123645
  31 H :    0.123106
  32 H :    0.105961
  33 H :    0.111671
  34 H :    0.131631
  35 H :    0.129203
  36 H :    0.120093
  37 H :    0.110013
  38 H :    0.119554
  39 H :    0.127262
  40 H :    0.130991

  Mayer bond orders larger than 0.100000
B(  0-C ,  1-C ) :   1.1668 B(  0-C , 19-H ) :   0.9358 B(  0-C , 20-H ) :   0.9421
B(  0-C , 21-H ) :   0.9394 B(  1-C ,  2-O ) :   0.9022 B(  1-C , 22-H ) :   0.9010
B(  1-C , 23-H ) :   0.9344 B(  2-O ,  3-P ) :   1.1425 B(  3-P ,  4-S ) :   1.6427
B(  3-P ,  5-O ) :   1.0983 B(  3-P ,  8-S ) :   0.9267 B(  4-S ,  8-S ) :   0.1096
B(  4-S , 29-H ) :   0.1013 B(  5-O ,  6-C ) :   0.9106 B(  6-C ,  7-C ) :   1.1675
B(  6-C , 24-H ) :   0.9261 B(  6-C , 25-H ) :   0.9334 B(  7-C , 26-H ) :   0.9424
B(  7-C , 27-H ) :   0.9334 B(  7-C , 28-H ) :   0.9347 B(  8-S ,  9-C ) :   1.0102
B(  9-C , 10-S ) :   1.0058 B(  9-C , 29-H ) :   0.8583 B(  9-C , 30-H ) :   0.8463
B( 10-S , 11-P ) :   0.9347 B( 10-S , 12-S ) :   0.1255 B( 11-P , 12-S ) :   1.5913
B( 11-P , 13-O ) :   1.1340 B( 11-P , 16-O ) :   1.1323 B( 12-S , 30-H ) :   0.1199
B( 13-O , 14-C ) :   0.9142 B( 14-C , 15-C ) :   1.1646 B( 14-C , 31-H ) :   0.9297
B( 14-C , 32-H ) :   0.9189 B( 15-C , 33-H ) :   0.9236 B( 15-C , 34-H ) :   0.9409
B( 15-C , 35-H ) :   0.9356 B( 16-O , 17-C ) :   0.9134 B( 17-C , 18-C ) :   1.1614
B( 17-C , 36-H ) :   0.9336 B( 17-C , 37-H ) :   0.9145 B( 18-C , 38-H ) :   0.9403
B( 18-C , 39-H ) :   0.9442 B( 18-C , 40-H ) :   0.9389

Dispersion correction           -0.065336938
FINAL SINGLE POINT ENERGY     -2929.516278552733

DIPOLE MOMENT
-------------

Method             : SCF
Type of density    : Electron Density
Multiplicity       :   1
Irrep              :   0
Energy             : -2929.6360178937766250 Eh
Relativity type    :
Basis              : AO
                                X                 Y                 Z
Electronic contribution:     -6.945786057      -5.089030369       4.508638155
Nuclear contribution   :      7.528547727       6.245203767      -4.900043822
                        -----------------------------------------
Total Dipole Moment    :      0.582761670       1.156173398      -0.391405667
                        -----------------------------------------
Magnitude (a.u.)       :      1.352607293
Magnitude (Debye)      :      3.438054511

Rotational constants in cm-1:             0.012615             0.004624             0.004162
Rotational constants in MHz :           378.197266           138.609487           124.763867

                             ****ORCA TERMINATED NORMALLY****
TOTAL RUN TIME: 0 days 0 hours 0 minutes 21 seconds 121 msec
