                         Program Version 6.0.0  -   RELEASE  -
|  1> ! pbe def2-sv(p) def2/J RI DEFGRID1 loosescf d4 GCP(DFT/SV(P)) printgap
|  2> %output
|  3>     printlevel normal
|  4> end
|  5> * xyz 0 1
|  6> C 3.4979265075 -5.8103e-06 -1.83766e-05
|  7> C 2.8130885839 -1.2018090139 -1.37074e-05
|  8> C 1.4175679582 -1.226149272 1.7287e-06
|  9> C 0.6764892634 -2.4453952536 7.2816e-06
| 10> C -0.6764924241 -2.4453922195 9.9383e-06
| 11> C -1.4175713517 -1.2261463697 7.4947e-06
| 12> C -2.8130913949 -1.2018067118 4.8415e-06
| 13> C -3.4979273517 -2.5953e-06 -1.61653e-05
| 14> C -2.8130876305 1.2018066353 -2.07749e-05
| 15> C -1.4175723957 1.2261524203 -2.4999e-06
| 16> C -0.7076946936 2.1183e-06 4.2537e-06
| 17> C 0.7076922482 1.6178e-06 4.9458e-06
| 18> C 1.4175739101 1.2261480518 6.5664e-06
| 19> C 2.8130919785 1.2018047929 -3.0673e-06
| 20> C 0.6764931603 2.4453971363 1.61039e-05
| 21> C -0.6764876728 2.4453959502 1.22792e-05
| 22> H 4.5779833669 -5.3092e-06 -1.43696e-05
| 23> H 3.3561394734 -2.1357008102 -2.03524e-05
| 24> H 1.2285505524 -3.3743366163 1.37175e-05
| 25> H -1.2285489647 -3.3743355707 2.22618e-05
| 26> H -3.3561435202 -2.1356974518 2.7189e-06
| 27> H -4.5779876487 3.1858e-06 -2.19156e-05
| 28> H -3.3561463766 2.1356918124 -2.28167e-05
| 29> H 3.3561578219 2.1356850782 5.3713e-06
| 30> H 1.2285559098 3.3743383745 1.59925e-05
| 31> H -1.2285450626 3.3743397123 9.3549e-06
| 32> *
| 33>
| 34>                          ****END OF INPUT****

CARTESIAN COORDINATES (ANGSTROEM)
---------------------------------
  C      3.497927   -0.000006   -0.000018
  C      2.813089   -1.201809   -0.000014
  C      1.417568   -1.226149    0.000002
  C      0.676489   -2.445395    0.000007
  C     -0.676492   -2.445392    0.000010
  C     -1.417571   -1.226146    0.000007
  C     -2.813091   -1.201807    0.000005
  C     -3.497927   -0.000003   -0.000016
  C     -2.813088    1.201807   -0.000021
  C     -1.417572    1.226152   -0.000002
  C     -0.707695    0.000002    0.000004
  C      0.707692    0.000002    0.000005
  C      1.417574    1.226148    0.000007
  C      2.813092    1.201805   -0.000003
  C      0.676493    2.445397    0.000016
  C     -0.676488    2.445396    0.000012
  H      4.577983   -0.000005   -0.000014
  H      3.356139   -2.135701   -0.000020
  H      1.228551   -3.374337    0.000014
  H     -1.228549   -3.374336    0.000022
  H     -3.356144   -2.135697    0.000003
  H     -4.577988    0.000003   -0.000022
  H     -3.356146    2.135692   -0.000023
  H      3.356158    2.135685    0.000005
  H      1.228556    3.374338    0.000016
  H     -1.228545    3.374340    0.000009

 Total Charge           Charge          ....    0
 Multiplicity           Mult            ....    1
 Number of Electrons    NEL             ....  106
 Basis Dimension        Dim             ....  244

ORBITAL ENERGIES
----------------

  NO   OCC          E(Eh)            E(eV)
   0   2.0000      -9.903773      -269.4954
   1   2.0000      -9.903735      -269.4943
   2   2.0000      -9.903611      -269.4910
   3   2.0000      -9.903602      -269.4907
   4   2.0000      -9.901806      -269.4419
   5   2.0000      -9.901658      -269.4378
   6   2.0000      -9.896786      -269.3052
   7   2.0000      -9.896754      -269.3044
   8   2.0000      -9.896380      -269.2942
   9   2.0000      -9.896342      -269.2932
  10   2.0000      -9.896145      -269.2878
  11   2.0000      -9.896137      -269.2876
  12   2.0000      -9.895613      -269.2733
  13   2.0000      -9.895571      -269.2722
  14   2.0000      -9.895518      -269.2707
  15   2.0000      -9.895510      -269.2705
  16   2.0000      -0.813106       -22.1257
  17   2.0000      -0.773526       -21.0487
  18   2.0000      -0.753445       -20.5023
  19   2.0000      -0.722154       -19.6508
  20   2.0000      -0.691460       -18.8156
  21   2.0000      -0.672973       -18.3125
  22   2.0000      -0.657261       -17.8850
  23   2.0000      -0.637933       -17.3591
  24   2.0000      -0.565628       -15.3915
  25   2.0000      -0.563864       -15.3435
  26   2.0000      -0.563127       -15.3235
  27   2.0000      -0.549517       -14.9531
  28   2.0000      -0.486087       -13.2271
  29   2.0000      -0.477311       -12.9883
  30   2.0000      -0.461645       -12.5620
  31   2.0000      -0.455902       -12.4057
  32   2.0000      -0.439937       -11.9713
  33   2.0000      -0.423599       -11.5267
  34   2.0000      -0.392983       -10.6936
  35   2.0000      -0.389653       -10.6030
  36   2.0000      -0.388915       -10.5829
  37   2.0000      -0.376586       -10.2474
  38   2.0000      -0.372530       -10.1371
  39   2.0000      -0.353393        -9.6163
  40   2.0000      -0.352558        -9.5936
  41   2.0000      -0.347050        -9.4437
  42   2.0000      -0.331488        -9.0203
  43   2.0000      -0.324335        -8.8256
  44   2.0000      -0.323272        -8.7967
  45   2.0000      -0.312612        -8.5066
  46   2.0000      -0.287982        -7.8364
  47   2.0000      -0.279694        -7.6109
  48   2.0000      -0.272784        -7.4228
  49   2.0000      -0.252152        -6.8614
  50   2.0000      -0.233613        -6.3569
  51   2.0000      -0.214956        -5.8493
  52   2.0000      -0.184349        -5.0164
  53   0.0000      -0.084580        -2.3015
  54   0.0000      -0.054808        -1.4914
  55   0.0000      -0.038917        -1.0590
  56   0.0000      -0.016316        -0.4440
  57   0.0000       0.018428         0.5015

MULLIKEN ATOMIC CHARGES
-----------------------
   0 C :   -0.019780
   1 C :   -0.152028
   2 C :    0.143088
   3 C :   -0.116356
   4 C :   -0.116360
   5 C :    0.143098
   6 C :   -0.152039
   7 C :   -0.019773
   8 C :   -0.152043
   9 C :    0.143101
  10 C :    0.064278
  11 C :    0.064274
  12 C :    0.143089
  13 C :   -0.152039
  14 C :   -0.116355
  15 C :   -0.116361
  16 H :    0.052358
  17 H :    0.038249
  18 H :    0.038623
  19 H :    0.038623
  20 H :    0.038249
  21 H :    0.052358
  22 H :    0.038248
  23 H :    0.038250
  24 H :    0.038623
  25 H :    0.038624
Sum of atomic charges:    0.0000000

LOEWDIN ATOMIC CHARGES
----------------------
   0 C :   -0.122749
   1 C :   -0.115654
   2 C :   -0.025279
   3 C :   -0.110082
   4 C :   -0.110082
   5 C :   -0.025279
   6 C :   -0.115654
   7 C :   -0.122749
   8 C :   -0.115654
   9 C :   -0.025280
  10 C :    0.000833
  11 C :    0.000832
  12 C :   -0.025279
  13 C :   -0.115655
  14 C :   -0.110081
  15 C :   -0.110082
  16 H :    0.125433
  17 H :    0.124089
  18 H :    0.125167
  19 H :    0.125167
  20 H :    0.124090
  21 H :    0.125433
  22 H :    0.124089
  23 H :    0.124090
  24 H :    0.125168
  25 H :    0.125167

  Mayer bond orders larger than 0.100000
B(  0-C ,  1-C ) :   1.3442 B(  0-C , 13-C ) :   1.3442 B(  0-C , 16-H ) :   0.9604
B(  1-C ,  2-C ) :   1.3002 B(  1-C , 17-H ) :   0.9646 B(  2-C ,  3-C ) :   1.1470
B(  2-C , 11-C ) :   1.2416 B(  3-C ,  4-C ) :   1.5116 B(  3-C , 18-H ) :   0.9643
B(  4-C ,  5-C ) :   1.1470 B(  4-C , 19-H ) :   0.9643 B(  5-C ,  6-C ) :   1.3002
B(  5-C , 10-C ) :   1.2416 B(  6-C ,  7-C ) :   1.3442 B(  6-C , 20-H ) :   0.9646
B(  7-C ,  8-C ) :   1.3442 B(  7-C , 21-H ) :   0.9604 B(  8-C ,  9-C ) :   1.3002
B(  8-C , 22-H ) :   0.9646 B(  9-C , 10-C ) :   1.2416 B(  9-C , 15-C ) :   1.1470
B( 10-C , 11-C ) :   1.2516 B( 11-C , 12-C ) :   1.2416 B( 12-C , 13-C ) :   1.3002
B( 12-C , 14-C ) :   1.1470 B( 13-C , 23-H ) :   0.9646 B( 14-C , 15-C ) :   1.5116
B( 14-C , 24-H ) :   0.9643 B( 15-C , 25-H ) :   0.9643

Dispersion correction           -0.040627133
FINAL SINGLE POINT ENERGY      -614.474995730829

DIPOLE MOMENT
-------------

Method             : SCF
Type of density    : Electron Density
Multiplicity       :   1
Irrep              :   0
Energy             :  -614.5269988654239341 Eh
Relativity type    :
Basis              : AO
                                X                 Y                 Z
Electronic contribution:     -0.000013082       0.000012947       0.000012013
Nuclear contribution   :      0.000014590      -0.000016507      -0.000009417
                        -----------------------------------------
Total Dipole Moment    :      0.000001508      -0.000003560       0.000002597
                        -----------------------------------------
Magnitude (a.u.)       :      0.000004657
Magnitude (Debye)      :      0.000011838

Rotational constants in cm-1:             0.034178             0.018763             0.012113
Rotational constants in MHz :          1024.645060           562.513532           363.150044

                             ****ORCA TERMINATED NORMALLY****
TOTAL RUN TIME: 0 days 0 hours 0 minutes 20 seconds 742 msec
