                         Program Version 6.0.0  -   RELEASE  -
|  1> ! pbe def2-sv(p) def2/J RI DEFGRID1 loosescf d4 GCP(DFT/SV(P)) printgap
|  2> %output
|  3>     printlevel normal
|  4> end
|  5> * xyz 0 1
|  6> C -1.5451060244 -0.0018787372 -0.0274742205
|  7> C -0.6731353782 -1.2082972484 0.3500789434
|  8> C 0.6668661757 -1.1300824272 -0.3722587232
|  9> O 1.4329929215 0.0017263148 0.0251576963
| 10> C 0.6505056662 1.1314739049 0.3956535842
| 11> C -0.6633547491 1.206892799 -0.3734633782
| 12> H -2.20273234 0.2424922205 0.8069914294
| 13> H -2.1718879645 -0.2479590619 -0.8849059855
| 14> H -0.4838796902 -1.218962293 1.4247628751
| 15> H -1.1687657451 -2.1414341277 0.0862735756
| 16> H 1.2928095476 -1.996618148 -0.1443782165
| 17> H 0.5034722004 -1.0960382373 -1.4592179509
| 18> H 0.4488832744 1.0966636927 1.4761682293
| 19> H 1.2818993061 1.9997506204 0.1898796547
| 20> H -1.1702172212 2.138684391 -0.1268027768
| 21> H -0.4365181335 1.2185603451 -1.4408462907
| 22> *
| 23>
| 24>                          ****END OF INPUT****

CARTESIAN COORDINATES (ANGSTROEM)
---------------------------------
  C     -1.545106   -0.001879   -0.027474
  C     -0.673135   -1.208297    0.350079
  C      0.666866   -1.130082   -0.372259
  O      1.432993    0.001726    0.025158
  C      0.650506    1.131474    0.395654
  C     -0.663355    1.206893   -0.373463
  H     -2.202732    0.242492    0.806991
  H     -2.171888   -0.247959   -0.884906
  H     -0.483880   -1.218962    1.424763
  H     -1.168766   -2.141434    0.086274
  H      1.292810   -1.996618   -0.144378
  H      0.503472   -1.096038   -1.459218
  H      0.448883    1.096664    1.476168
  H      1.281899    1.999751    0.189880
  H     -1.170217    2.138684   -0.126803
  H     -0.436518    1.218560   -1.440846

 Total Charge           Charge          ....    0
 Multiplicity           Mult            ....    1
 Number of Electrons    NEL             ....   48
 Basis Dimension        Dim             ....  104

ORBITAL ENERGIES
----------------

  NO   OCC          E(Eh)            E(eV)
   0   2.0000     -18.741090      -509.9710
   1   2.0000      -9.924620      -270.0626
   2   2.0000      -9.924596      -270.0620
   3   2.0000      -9.888489      -269.0795
   4   2.0000      -9.886655      -269.0296
   5   2.0000      -9.886623      -269.0287
   6   2.0000      -0.922980       -25.1156
   7   2.0000      -0.720971       -19.6186
   8   2.0000      -0.681274       -18.5384
   9   2.0000      -0.576536       -15.6884
  10   2.0000      -0.570995       -15.5376
  11   2.0000      -0.473541       -12.8857
  12   2.0000      -0.455754       -12.4017
  13   2.0000      -0.441106       -12.0031
  14   2.0000      -0.399176       -10.8621
  15   2.0000      -0.375989       -10.2312
  16   2.0000      -0.364679        -9.9234
  17   2.0000      -0.339630        -9.2418
  18   2.0000      -0.331735        -9.0270
  19   2.0000      -0.324613        -8.8332
  20   2.0000      -0.298799        -8.1307
  21   2.0000      -0.280636        -7.6365
  22   2.0000      -0.241092        -6.5605
  23   2.0000      -0.190181        -5.1751
  24   0.0000       0.028328         0.7708
  25   0.0000       0.053300         1.4504
  26   0.0000       0.077565         2.1106
  27   0.0000       0.085215         2.3188
  28   0.0000       0.093037         2.5317

MULLIKEN ATOMIC CHARGES
-----------------------
   0 C :   -0.154946
   1 C :   -0.198577
   2 C :    0.027378
   3 O :   -0.354512
   4 C :    0.027041
   5 C :   -0.198345
   6 H :    0.086708
   7 H :    0.086716
   8 H :    0.090573
   9 H :    0.092973
  10 H :    0.088904
  11 H :    0.066779
  12 H :    0.066868
  13 H :    0.088970
  14 H :    0.092889
  15 H :    0.090583
Sum of atomic charges:   -0.0000000

LOEWDIN ATOMIC CHARGES
----------------------
   0 C :   -0.230063
   1 C :   -0.250829
   2 C :   -0.109090
   3 O :   -0.190409
   4 C :   -0.109116
   5 C :   -0.250809
   6 H :    0.118619
   7 H :    0.118617
   8 H :    0.121924
   9 H :    0.124482
  10 H :    0.111131
  11 H :    0.094002
  12 H :    0.094008
  13 H :    0.111145
  14 H :    0.124479
  15 H :    0.121909

  Mayer bond orders larger than 0.100000
B(  0-C ,  1-C ) :   1.1510 B(  0-C ,  5-C ) :   1.1509 B(  0-C ,  6-H ) :   0.9227
B(  0-C ,  7-H ) :   0.9227 B(  1-C ,  2-C ) :   1.1639 B(  1-C ,  8-H ) :   0.8992
B(  1-C ,  9-H ) :   0.9162 B(  2-C ,  3-O ) :   1.0256 B(  2-C , 10-H ) :   0.9288
B(  2-C , 11-H ) :   0.9187 B(  3-O ,  4-C ) :   1.0257 B(  4-C ,  5-C ) :   1.1639
B(  4-C , 12-H ) :   0.9187 B(  4-C , 13-H ) :   0.9288 B(  5-C , 14-H ) :   0.9162
B(  5-C , 15-H ) :   0.8992

Dispersion correction           -0.012616250
FINAL SINGLE POINT ENERGY      -271.117877076606

DIPOLE MOMENT
-------------

Method             : SCF
Type of density    : Electron Density
Multiplicity       :   1
Irrep              :   0
Energy             :  -271.1798809378478836 Eh
Relativity type    :
Basis              : AO
                                X                 Y                 Z
Electronic contribution:      3.220430100       0.003793948       0.056689352
Nuclear contribution   :     -3.831703344      -0.004534405      -0.067245060
                        -----------------------------------------
Total Dipole Moment    :     -0.611273244      -0.000740458      -0.010555708
                        -----------------------------------------
Magnitude (a.u.)       :      0.611364826
Magnitude (Debye)      :      1.553965892

Rotational constants in cm-1:             0.160149             0.145288             0.089713
Rotational constants in MHz :          4801.148048          4355.637952          2689.538550

                             ****ORCA TERMINATED NORMALLY****
TOTAL RUN TIME: 0 days 0 hours 0 minutes 23 seconds 521 msec
