                         Program Version 6.0.0  -   RELEASE  -
|  1> ! pbe def2-sv(p) def2/J RI DEFGRID1 loosescf d4 GCP(DFT/SV(P)) printgap
|  2> %output
|  3>     printlevel normal
|  4> end
|  5> * xyz 0 1
|  6> C 2.2942513797 1.8254699689 -1.3848048442
|  7> C 2.4227733186 0.3349195909 -1.6210459423
|  8> O 2.9654104352 -0.363986832 -0.4900524648
|  9> P 2.3172862629 -0.4470223179 0.9627756223
| 10> S 2.3950667929 1.1265325487 2.1188313309
| 11> O 3.1535050634 -1.6130077979 1.6118311253
| 12> C 3.2833710565 -2.9341541053 1.0309208759
| 13> C 4.5980335313 -3.0662329485 0.2899272587
| 14> S 0.381383086 -1.293449621 0.6219318458
| 15> C -0.6222115134 -0.1205930136 1.5643350426
| 16> S -1.0388638198 1.3975100007 0.6588937419
| 17> P -2.1255550269 0.5735992874 -0.9653757067
| 18> S -1.1939878018 -0.2379332668 -2.4768447161
| 19> O -2.9707048755 1.8080465944 -1.4819731382
| 20> C -3.8391981882 2.6019110469 -0.6355962346
| 21> C -3.2143649724 3.9554859158 -0.3633855168
| 22> O -3.158290246 -0.3748766858 -0.1954422518
| 23> C -3.5168413501 -1.7041239697 -0.6267024929
| 24> C -2.9920155223 -2.7399862499 0.3470934307
| 25> H 1.9624607715 2.3016892227 -2.3022353457
| 26> H 1.5649169124 2.0292306456 -0.6015968824
| 27> H 3.2500521117 2.2457342583 -1.0811735339
| 28> H 3.1342574294 0.1233339421 -2.4212169697
| 29> H 1.4528048887 -0.1032626882 -1.8782931372
| 30> H 3.2381546539 -3.6131999479 1.884233709
| 31> H 2.4327428415 -3.1187126122 0.3683719943
| 32> H 4.6312422808 -2.3740762625 -0.5472463503
| 33> H 5.424518542 -2.8442313357 0.959345661
| 34> H 4.6972971851 -4.0819987686 -0.0798267843
| 35> H -0.0636929278 0.2123006902 2.4396474974
| 36> H -1.5369241763 -0.6369531634 1.8420274949
| 37> H -4.7650543395 2.702147413 -1.2045967684
| 38> H -4.0329370625 2.0572677641 0.2912150055
| 39> H -2.9905177754 4.4561374385 -1.3011525234
| 40> H -3.9102947711 4.5600031058 0.2096132962
| 41> H -2.2911925871 3.8429826305 0.2014661444
| 42> H -4.6076486325 -1.7109879929 -0.6648680274
| 43> H -3.112648815 -1.872166589 -1.6300352411
| 44> H -3.361594615 -2.5396863633 1.3491245498
| 45> H -3.3333350586 -3.7209248944 0.0329051852
| 46> H -1.9033074727 -2.7329603208 0.3556645641
| 47> *
| 48>
| 49>                          ****END OF INPUT****

CARTESIAN COORDINATES (ANGSTROEM)
---------------------------------
  C      2.294251    1.825470   -1.384805
  C      2.422773    0.334920   -1.621046
  O      2.965410   -0.363987   -0.490052
  P      2.317286   -0.447022    0.962776
  S      2.395067    1.126533    2.118831
  O      3.153505   -1.613008    1.611831
  C      3.283371   -2.934154    1.030921
  C      4.598034   -3.066233    0.289927
  S      0.381383   -1.293450    0.621932
  C     -0.622212   -0.120593    1.564335
  S     -1.038864    1.397510    0.658894
  P     -2.125555    0.573599   -0.965376
  S     -1.193988   -0.237933   -2.476845
  O     -2.970705    1.808047   -1.481973
  C     -3.839198    2.601911   -0.635596
  C     -3.214365    3.955486   -0.363386
  O     -3.158290   -0.374877   -0.195442
  C     -3.516841   -1.704124   -0.626702
  C     -2.992016   -2.739986    0.347093
  H      1.962461    2.301689   -2.302235
  H      1.564917    2.029231   -0.601597
  H      3.250052    2.245734   -1.081174
  H      3.134257    0.123334   -2.421217
  H      1.452805   -0.103263   -1.878293
  H      3.238155   -3.613200    1.884234
  H      2.432743   -3.118713    0.368372
  H      4.631242   -2.374076   -0.547246
  H      5.424519   -2.844231    0.959346
  H      4.697297   -4.081999   -0.079827
  H     -0.063693    0.212301    2.439647
  H     -1.536924   -0.636953    1.842027
  H     -4.765054    2.702147   -1.204597
  H     -4.032937    2.057268    0.291215
  H     -2.990518    4.456137   -1.301153
  H     -3.910295    4.560003    0.209613
  H     -2.291193    3.842983    0.201466
  H     -4.607649   -1.710988   -0.664868
  H     -3.112649   -1.872167   -1.630035
  H     -3.361595   -2.539686    1.349125
  H     -3.333335   -3.720925    0.032905
  H     -1.903307   -2.732960    0.355665

 Total Charge           Charge          ....    0
 Multiplicity           Mult            ....    1
 Number of Electrons    NEL             ....  202
 Basis Dimension        Dim             ....  334

ORBITAL ENERGIES
----------------

  NO   OCC          E(Eh)            E(eV)
   0   2.0000     -88.046173     -2395.8582
   1   2.0000     -88.044389     -2395.8096
   2   2.0000     -87.986160     -2394.2251
   3   2.0000     -87.984191     -2394.1715
   4   2.0000     -76.428633     -2079.7288
   5   2.0000     -76.424919     -2079.6278
   6   2.0000     -18.797796      -511.5140
   7   2.0000     -18.793887      -511.4077
   8   2.0000     -18.788982      -511.2742
   9   2.0000     -18.787680      -511.2388
  10   2.0000      -9.959477      -271.0111
  11   2.0000      -9.958929      -270.9962
  12   2.0000      -9.957313      -270.9523
  13   2.0000      -9.956278      -270.9241
  14   2.0000      -9.940925      -270.5063
  15   2.0000      -9.892166      -269.1795
  16   2.0000      -9.889272      -269.1008
  17   2.0000      -9.885696      -269.0035
  18   2.0000      -9.868242      -268.5285
  19   2.0000      -7.690807      -209.2775
  20   2.0000      -7.688680      -209.2196
  21   2.0000      -7.631271      -207.6575
  22   2.0000      -7.629440      -207.6076
  23   2.0000      -6.426266      -174.8676
  24   2.0000      -6.422233      -174.7578
  25   2.0000      -5.718771      -155.6157
  26   2.0000      -5.716533      -155.5548
  27   2.0000      -5.715170      -155.5177
  28   2.0000      -5.713223      -155.4647
  29   2.0000      -5.707878      -155.3192
  30   2.0000      -5.705765      -155.2618
  31   2.0000      -5.660304      -154.0247
  32   2.0000      -5.658562      -153.9773
  33   2.0000      -5.651690      -153.7903
  34   2.0000      -5.651441      -153.7835
  35   2.0000      -5.650006      -153.7445
  36   2.0000      -5.649412      -153.7283
  37   2.0000      -4.649335      -126.5148
  38   2.0000      -4.647830      -126.4739
  39   2.0000      -4.646491      -126.4374
  40   2.0000      -4.644895      -126.3940
  41   2.0000      -4.644213      -126.3755
  42   2.0000      -4.642465      -126.3279
  43   2.0000      -0.987819       -26.8799
  44   2.0000      -0.984663       -26.7940
  45   2.0000      -0.948000       -25.7964
  46   2.0000      -0.940527       -25.5930
  47   2.0000      -0.764676       -20.8079
  48   2.0000      -0.723858       -19.6972
  49   2.0000      -0.712307       -19.3829
  50   2.0000      -0.696098       -18.9418
  51   2.0000      -0.683013       -18.5857
  52   2.0000      -0.673424       -18.3248
  53   2.0000      -0.651427       -17.7262
  54   2.0000      -0.640806       -17.4372
  55   2.0000      -0.594234       -16.1699
  56   2.0000      -0.584148       -15.8955
  57   2.0000      -0.578868       -15.7518
  58   2.0000      -0.573401       -15.6030
  59   2.0000      -0.565843       -15.3974
  60   2.0000      -0.510608       -13.8944
  61   2.0000      -0.499972       -13.6049
  62   2.0000      -0.482085       -13.1182
  63   2.0000      -0.468848       -12.7580
  64   2.0000      -0.459460       -12.5026
  65   2.0000      -0.447664       -12.1816
  66   2.0000      -0.443349       -12.0641
  67   2.0000      -0.437708       -11.9107
  68   2.0000      -0.428129       -11.6500
  69   2.0000      -0.417348       -11.3566
  70   2.0000      -0.404535       -11.0080
  71   2.0000      -0.399472       -10.8702
  72   2.0000      -0.393027       -10.6948
  73   2.0000      -0.383177       -10.4268
  74   2.0000      -0.382055       -10.3962
  75   2.0000      -0.378702       -10.3050
  76   2.0000      -0.365108        -9.9351
  77   2.0000      -0.360564        -9.8115
  78   2.0000      -0.354909        -9.6576
  79   2.0000      -0.354018        -9.6333
  80   2.0000      -0.353252        -9.6125
  81   2.0000      -0.344177        -9.3655
  82   2.0000      -0.340291        -9.2598
  83   2.0000      -0.335114        -9.1189
  84   2.0000      -0.329011        -8.9529
  85   2.0000      -0.320567        -8.7231
  86   2.0000      -0.314978        -8.5710
  87   2.0000      -0.306032        -8.3276
  88   2.0000      -0.292303        -7.9540
  89   2.0000      -0.286869        -7.8061
  90   2.0000      -0.285695        -7.7742
  91   2.0000      -0.274888        -7.4801
  92   2.0000      -0.273175        -7.4335
  93   2.0000      -0.269400        -7.3308
  94   2.0000      -0.256792        -6.9877
  95   2.0000      -0.244943        -6.6652
  96   2.0000      -0.220338        -5.9957
  97   2.0000      -0.204495        -5.5646
  98   2.0000      -0.201611        -5.4861
  99   2.0000      -0.200813        -5.4644
 100   2.0000      -0.194587        -5.2950
 101   0.0000      -0.050288        -1.3684
 102   0.0000      -0.029095        -0.7917
 103   0.0000      -0.011001        -0.2993
 104   0.0000      -0.004409        -0.1200
 105   0.0000       0.012529         0.3409

MULLIKEN ATOMIC CHARGES
-----------------------
   0 C :   -0.319978
   1 C :   -0.027218
   2 O :   -0.379261
   3 P :    0.614014
   4 S :   -0.305810
   5 O :   -0.354007
   6 C :   -0.016085
   7 C :   -0.286918
   8 S :   -0.125557
   9 C :   -0.347448
  10 S :   -0.087148
  11 P :    0.610141
  12 S :   -0.300335
  13 O :   -0.360671
  14 C :   -0.022132
  15 C :   -0.293678
  16 O :   -0.395015
  17 C :   -0.010645
  18 C :   -0.316624
  19 H :    0.109749
  20 H :    0.139446
  21 H :    0.113453
  22 H :    0.098444
  23 H :    0.137734
  24 H :    0.110902
  25 H :    0.104490
  26 H :    0.124661
  27 H :    0.121198
  28 H :    0.108560
  29 H :    0.193319
  30 H :    0.189745
  31 H :    0.110616
  32 H :    0.108073
  33 H :    0.122518
  34 H :    0.111870
  35 H :    0.130568
  36 H :    0.103575
  37 H :    0.116262
  38 H :    0.119169
  39 H :    0.115467
  40 H :    0.134560
Sum of atomic charges:   -0.0000000

LOEWDIN ATOMIC CHARGES
----------------------
   0 C :   -0.370428
   1 C :   -0.124948
   2 O :   -0.242322
   3 P :    0.568840
   4 S :   -0.297467
   5 O :   -0.237441
   6 C :   -0.113096
   7 C :   -0.358065
   8 S :    0.071718
   9 C :   -0.479445
  10 S :    0.098984
  11 P :    0.561824
  12 S :   -0.295830
  13 O :   -0.242154
  14 C :   -0.118650
  15 C :   -0.359134
  16 O :   -0.260072
  17 C :   -0.119482
  18 C :   -0.362657
  19 H :    0.130497
  20 H :    0.115111
  21 H :    0.124469
  22 H :    0.116559
  23 H :    0.103734
  24 H :    0.121546
  25 H :    0.103631
  26 H :    0.128175
  27 H :    0.129784
  28 H :    0.128791
  29 H :    0.131677
  30 H :    0.131558
  31 H :    0.121340
  32 H :    0.108981
  33 H :    0.130166
  34 H :    0.131099
  35 H :    0.121432
  36 H :    0.116601
  37 H :    0.109076
  38 H :    0.124065
  39 H :    0.133734
  40 H :    0.117801

  Mayer bond orders larger than 0.100000
B(  0-C ,  1-C ) :   1.1692 B(  0-C , 19-H ) :   0.9359 B(  0-C , 20-H ) :   0.9255
B(  0-C , 21-H ) :   0.9447 B(  1-C ,  2-O ) :   0.9000 B(  1-C , 22-H ) :   0.9329
B(  1-C , 23-H ) :   0.9019 B(  2-O ,  3-P ) :   1.0955 B(  3-P ,  4-S ) :   1.6511
B(  3-P ,  5-O ) :   1.1387 B(  3-P ,  8-S ) :   0.9289 B(  4-S ,  8-S ) :   0.1094
B(  5-O ,  6-C ) :   0.8954 B(  6-C ,  7-C ) :   1.1655 B(  6-C , 24-H ) :   0.9360
B(  6-C , 25-H ) :   0.9157 B(  7-C , 26-H ) :   0.9423 B(  7-C , 27-H ) :   0.9468
B(  7-C , 28-H ) :   0.9397 B(  8-S ,  9-C ) :   1.0204 B(  9-C , 10-S ) :   0.9933
B(  9-C , 29-H ) :   0.8725 B(  9-C , 30-H ) :   0.8926 B( 10-S , 11-P ) :   0.9671
B( 10-S , 12-S ) :   0.1010 B( 11-P , 12-S ) :   1.6522 B( 11-P , 13-O ) :   1.1372
B( 11-P , 16-O ) :   1.0596 B( 13-O , 14-C ) :   0.8934 B( 14-C , 15-C ) :   1.1652
B( 14-C , 31-H ) :   0.9325 B( 14-C , 32-H ) :   0.9164 B( 15-C , 33-H ) :   0.9458
B( 15-C , 34-H ) :   0.9394 B( 15-C , 35-H ) :   0.9386 B( 16-O , 17-C ) :   0.9052
B( 17-C , 18-C ) :   1.1690 B( 17-C , 36-H ) :   0.9327 B( 17-C , 37-H ) :   0.9001
B( 18-C , 38-H ) :   0.9427 B( 18-C , 39-H ) :   0.9370 B( 18-C , 40-H ) :   0.9301

Dispersion correction           -0.064969966
FINAL SINGLE POINT ENERGY     -2929.518491679910

DIPOLE MOMENT
-------------

Method             : SCF
Type of density    : Electron Density
Multiplicity       :   1
Irrep              :   0
Energy             : -2929.6383914135194573 Eh
Relativity type    :
Basis              : AO
                                X                 Y                 Z
Electronic contribution:      2.794854792       3.777863735       3.579570500
Nuclear contribution   :     -4.053122959      -4.670311024      -3.577619646
                        -----------------------------------------
Total Dipole Moment    :     -1.258268167      -0.892447289       0.001950854
                        -----------------------------------------
Magnitude (a.u.)       :      1.542629168
Magnitude (Debye)      :      3.921051733

Rotational constants in cm-1:             0.012100             0.004994             0.004508
Rotational constants in MHz :           362.752635           149.713556           135.158959

                             ****ORCA TERMINATED NORMALLY****
TOTAL RUN TIME: 0 days 0 hours 0 minutes 21 seconds 272 msec
