                         Program Version 6.0.1  -  RELEASE   -
|  1> ! r2scan-3c def2/J RI DEFGRID2 scfconv6 printgap
|  2> %output
|  3>     printlevel normal
|  4> end
|  5> * xyz 0 1
|  6> C 1.2385674825 -3.5792849647 -2.3159954328
|  7> C 2.5097599695 -2.7456516476 -2.3330665027
|  8> O 2.3517070774 -1.5821924068 -1.4996860666
|  9> C 2.7769732229 -1.6344246007 -0.252734178
| 10> O 3.3650410479 -2.571179843 0.2377212026
| 11> C 2.4700190966 -0.3541220422 0.5050060197
| 12> C 1.0812873737 0.1797131842 0.1736817457
| 13> H 0.9935974068 0.3607274043 -0.9029234481
| 14> C 0.7736891263 1.4802869223 0.8929385624
| 15> O -0.2391068558 1.6434837972 1.5421823158
| 16> O 1.7140112743 2.3676742651 0.7158037475
| 17> C 1.5098390303 3.6981264363 1.2400273532
| 18> C 0.7875748412 4.5601621674 0.2181100091
| 19> S -0.1997557567 -1.0386433274 0.6370548182
| 20> P -1.914299267 0.1077146059 0.1152030987
| 21> S -1.6741353607 1.5016928525 -1.2359456444
| 22> O -2.9017957404 -1.0636719833 -0.3765079932
| 23> C -2.6564271728 -1.7879404099 -1.5840571458
| 24> O -2.7143367461 0.5728182568 1.3934928877
| 25> C -2.9815072747 -0.3013430103 2.5059034796
| 26> H 1.364816907 -4.442382899 -2.9609289177
| 27> H 1.0301651888 -3.9181761836 -1.3034918103
| 28> H 0.3996163308 -2.9867405475 -2.6712766841
| 29> H 2.714047274 -2.3527324118 -3.3295200162
| 30> H 3.3627056401 -3.3238168496 -1.9673639232
| 31> H 3.2082872454 0.3996923654 0.2227258804
| 32> H 2.5660914824 -0.5661132061 1.5703935849
| 33> H 0.9343493544 3.6246332288 2.1664755994
| 34> H 2.5151045297 4.0689935354 1.4390044544
| 35> H 0.6572524695 5.5603672488 0.6172703706
| 36> H 1.3602121366 4.6109962605 -0.7035290484
| 37> H -0.1910960056 4.1383248245 -0.0055440598
| 38> H -1.8376362145 -2.4913741484 -1.4318349597
| 39> H -2.4133051266 -1.0965271616 -2.3928988
| 40> H -3.5800276514 -2.317478421 -1.8032887913
| 41> H -3.5380106561 -1.1746822619 2.170073143
| 42> H -3.5718425974 0.2952150972 3.1964099145
| 43> H -2.0426838999 -0.6053387161 2.9686701543
| 44> *
| 45>
| 46>                          ****END OF INPUT****

CARTESIAN COORDINATES (ANGSTROEM)
---------------------------------
  C      1.238567   -3.579285   -2.315995
  C      2.509760   -2.745652   -2.333067
  O      2.351707   -1.582192   -1.499686
  C      2.776973   -1.634425   -0.252734
  O      3.365041   -2.571180    0.237721
  C      2.470019   -0.354122    0.505006
  C      1.081287    0.179713    0.173682
  H      0.993597    0.360727   -0.902923
  C      0.773689    1.480287    0.892939
  O     -0.239107    1.643484    1.542182
  O      1.714011    2.367674    0.715804
  C      1.509839    3.698126    1.240027
  C      0.787575    4.560162    0.218110
  S     -0.199756   -1.038643    0.637055
  P     -1.914299    0.107715    0.115203
  S     -1.674135    1.501693   -1.235946
  O     -2.901796   -1.063672   -0.376508
  C     -2.656427   -1.787940   -1.584057
  O     -2.714337    0.572818    1.393493
  C     -2.981507   -0.301343    2.505903
  H      1.364817   -4.442383   -2.960929
  H      1.030165   -3.918176   -1.303492
  H      0.399616   -2.986741   -2.671277
  H      2.714047   -2.352732   -3.329520
  H      3.362706   -3.323817   -1.967364
  H      3.208287    0.399692    0.222726
  H      2.566091   -0.566113    1.570394
  H      0.934349    3.624633    2.166476
  H      2.515105    4.068994    1.439004
  H      0.657252    5.560367    0.617270
  H      1.360212    4.610996   -0.703529
  H     -0.191096    4.138325   -0.005544
  H     -1.837636   -2.491374   -1.431835
  H     -2.413305   -1.096527   -2.392899
  H     -3.580028   -2.317478   -1.803289
  H     -3.538011   -1.174682    2.170073
  H     -3.571843    0.295215    3.196410
  H     -2.042684   -0.605339    2.968670

 Total Charge           Charge          ....    0
 Multiplicity           Mult            ....    1
 Number of Electrons    NEL             ....  174
 Basis Dimension        Dim             ....  510

ORBITAL ENERGIES
----------------

  NO   OCC          E(Eh)            E(eV)
   0   2.0000     -88.574018     -2410.2216
   1   2.0000     -88.512004     -2408.5341
   2   2.0000     -76.910270     -2092.8349
   3   2.0000     -19.015199      -517.4299
   4   2.0000     -19.007777      -517.2279
   5   2.0000     -18.984988      -516.6078
   6   2.0000     -18.983166      -516.5582
   7   2.0000     -18.942108      -515.4410
   8   2.0000     -18.938281      -515.3368
   9   2.0000     -10.169444      -276.7246
  10   2.0000     -10.165747      -276.6240
  11   2.0000     -10.100612      -274.8516
  12   2.0000     -10.098340      -274.7898
  13   2.0000     -10.097571      -274.7689
  14   2.0000     -10.090797      -274.5846
  15   2.0000     -10.086542      -274.4688
  16   2.0000     -10.067653      -273.9548
  17   2.0000     -10.034803      -273.0609
  18   2.0000     -10.029455      -272.9153
  19   2.0000      -7.868200      -214.1046
  20   2.0000      -7.807021      -212.4399
  21   2.0000      -6.588038      -179.2696
  22   2.0000      -5.815021      -158.2348
  23   2.0000      -5.812148      -158.1566
  24   2.0000      -5.805307      -157.9704
  25   2.0000      -5.754931      -156.5996
  26   2.0000      -5.747350      -156.3933
  27   2.0000      -5.746663      -156.3747
  28   2.0000      -4.733721      -128.8111
  29   2.0000      -4.733227      -128.7976
  30   2.0000      -4.731521      -128.7512
  31   2.0000      -1.093207       -29.7477
  32   2.0000      -1.084606       -29.5136
  33   2.0000      -1.043051       -28.3829
  34   2.0000      -1.000790       -27.2329
  35   2.0000      -0.994286       -27.0559
  36   2.0000      -0.988145       -26.8888
  37   2.0000      -0.815114       -22.1804
  38   2.0000      -0.756964       -20.5980
  39   2.0000      -0.749721       -20.4010
  40   2.0000      -0.729431       -19.8488
  41   2.0000      -0.697447       -18.9785
  42   2.0000      -0.669610       -18.2210
  43   2.0000      -0.662051       -18.0153
  44   2.0000      -0.650786       -17.7088
  45   2.0000      -0.631023       -17.1710
  46   2.0000      -0.602334       -16.3903
  47   2.0000      -0.540151       -14.6983
  48   2.0000      -0.534346       -14.5403
  49   2.0000      -0.527790       -14.3619
  50   2.0000      -0.500712       -13.6251
  51   2.0000      -0.488401       -13.2901
  52   2.0000      -0.487216       -13.2578
  53   2.0000      -0.476144       -12.9565
  54   2.0000      -0.463046       -12.6001
  55   2.0000      -0.457928       -12.4609
  56   2.0000      -0.445152       -12.1132
  57   2.0000      -0.440400       -11.9839
  58   2.0000      -0.432371       -11.7654
  59   2.0000      -0.428918       -11.6714
  60   2.0000      -0.425994       -11.5919
  61   2.0000      -0.417586       -11.3631
  62   2.0000      -0.412102       -11.2139
  63   2.0000      -0.408712       -11.1216
  64   2.0000      -0.396709       -10.7950
  65   2.0000      -0.384294       -10.4572
  66   2.0000      -0.377938       -10.2842
  67   2.0000      -0.374242       -10.1836
  68   2.0000      -0.363964        -9.9040
  69   2.0000      -0.351933        -9.5766
  70   2.0000      -0.350527        -9.5383
  71   2.0000      -0.348543        -9.4843
  72   2.0000      -0.344898        -9.3851
  73   2.0000      -0.331099        -9.0097
  74   2.0000      -0.318689        -8.6720
  75   2.0000      -0.316307        -8.6072
  76   2.0000      -0.312480        -8.5030
  77   2.0000      -0.307497        -8.3674
  78   2.0000      -0.288009        -7.8371
  79   2.0000      -0.281628        -7.6635
  80   2.0000      -0.280168        -7.6238
  81   2.0000      -0.272203        -7.4070
  82   2.0000      -0.258991        -7.0475
  83   2.0000      -0.241761        -6.5786
  84   2.0000      -0.234615        -6.3842
  85   2.0000      -0.213407        -5.8071
  86   2.0000      -0.207839        -5.6556
  87   0.0000      -0.046636        -1.2690
  88   0.0000      -0.034901        -0.9497
  89   0.0000      -0.012280        -0.3342
  90   0.0000       0.003807         0.1036
  91   0.0000       0.022802         0.6205

MULLIKEN ATOMIC CHARGES
-----------------------
   0 C :   -0.464000
   1 C :   -0.150297
   2 O :   -0.142983
   3 C :    0.365155
   4 O :   -0.409252
   5 C :   -0.477081
   6 C :   -0.003674
   7 H :    0.249642
   8 C :    0.346977
   9 O :   -0.401752
  10 O :   -0.170682
  11 C :   -0.135368
  12 C :   -0.467168
  13 S :   -0.197210
  14 P :    0.809303
  15 S :   -0.465910
  16 O :   -0.360993
  17 C :   -0.307679
  18 O :   -0.300588
  19 C :   -0.298600
  20 H :    0.148242
  21 H :    0.169783
  22 H :    0.153952
  23 H :    0.150298
  24 H :    0.177281
  25 H :    0.204037
  26 H :    0.195617
  27 H :    0.170820
  28 H :    0.149582
  29 H :    0.147787
  30 H :    0.152455
  31 H :    0.189155
  32 H :    0.154157
  33 H :    0.176548
  34 H :    0.150780
  35 H :    0.166010
  36 H :    0.155675
  37 H :    0.169985
Sum of atomic charges:    0.0000000

LOEWDIN ATOMIC CHARGES
----------------------
   0 C :   -0.390446
   1 C :    0.033334
   2 O :   -0.601411
   3 C :    0.348453
   4 O :   -0.419552
   5 C :   -0.196201
   6 C :   -0.197803
   7 H :    0.217472
   8 C :    0.345915
   9 O :   -0.451413
  10 O :   -0.577369
  11 C :    0.036114
  12 C :   -0.387411
  13 S :    0.211648
  14 P :    0.409159
  15 S :   -0.089819
  16 O :   -0.690978
  17 C :   -0.067365
  18 O :   -0.637735
  19 C :   -0.049744
  20 H :    0.159636
  21 H :    0.165072
  22 H :    0.157737
  23 H :    0.179021
  24 H :    0.192412
  25 H :    0.201966
  26 H :    0.192361
  27 H :    0.190437
  28 H :    0.178783
  29 H :    0.159783
  30 H :    0.158264
  31 H :    0.173597
  32 H :    0.166812
  33 H :    0.176140
  34 H :    0.176027
  35 H :    0.171843
  36 H :    0.181105
  37 H :    0.174156

  Mayer bond orders larger than 0.100000
B(  0-C ,  1-C ) :   0.9439 B(  0-C , 20-H ) :   0.9644 B(  0-C , 21-H ) :   0.9687
B(  0-C , 22-H ) :   0.9704 B(  1-C ,  2-O ) :   0.7939 B(  1-C , 23-H ) :   0.9616
B(  1-C , 24-H ) :   0.9672 B(  2-O ,  3-C ) :   1.0751 B(  3-C ,  4-O ) :   1.8680
B(  3-C ,  5-C ) :   0.9654 B(  5-C ,  6-C ) :   0.8525 B(  5-C , 25-H ) :   0.9355
B(  5-C , 26-H ) :   0.9796 B(  6-C ,  7-H ) :   0.9124 B(  6-C ,  8-C ) :   0.8905
B(  6-C , 13-S ) :   0.8682 B(  8-C ,  9-O ) :   1.8284 B(  8-C , 10-O ) :   1.1328
B( 10-O , 11-C ) :   0.7890 B( 11-C , 12-C ) :   0.9461 B( 11-C , 27-H ) :   0.9663
B( 11-C , 28-H ) :   0.9611 B( 12-C , 29-H ) :   0.9646 B( 12-C , 30-H ) :   0.9724
B( 12-C , 31-H ) :   0.9597 B( 13-S , 14-P ) :   0.9667 B( 14-P , 15-S ) :   1.7770
B( 14-P , 16-O ) :   1.0042 B( 14-P , 18-O ) :   1.1926 B( 16-O , 17-C ) :   0.8386
B( 17-C , 32-H ) :   0.9547 B( 17-C , 33-H ) :   0.9595 B( 17-C , 34-H ) :   0.9686
B( 18-O , 19-C ) :   0.7959 B( 19-C , 35-H ) :   0.9635 B( 19-C , 36-H ) :   0.9649
B( 19-C , 37-H ) :   0.9582

Dispersion correction           -0.017283148
FINAL SINGLE POINT ENERGY     -1981.449466477237

DIPOLE MOMENT
-------------

Method             : SCF
Type of density    : Electron Density
Multiplicity       :   1
Irrep              :   0
Energy             : -1981.4696398810460778 Eh
Relativity type    :
Basis              : AO
                                X                 Y                 Z
Electronic contribution:     -5.050051146       2.034181318       4.743166929
Nuclear contribution   :      5.476574505      -2.198399118      -4.860701733
                        -----------------------------------------
Total Dipole Moment    :      0.426523360      -0.164217800      -0.117534804
                        -----------------------------------------
Magnitude (a.u.)       :      0.471915345
Magnitude (Debye)      :      1.199513479

Rotational constants in cm-1:             0.010679             0.008242             0.005847
Rotational constants in MHz :           320.154954           247.096982           175.282909

                             ****ORCA TERMINATED NORMALLY****
TOTAL RUN TIME: 0 days 0 hours 1 minutes 14 seconds 348 msec
