                         Program Version 6.0.1  -  RELEASE   -
|  1> ! r2scan-3c def2/J RI DEFGRID2 scfconv6 printgap
|  2> %output
|  3>     printlevel normal
|  4> end
|  5> %cpcm
|  6>     smd true
|  7>     smdsolvent "water"
|  8> end
|  9> * xyz 0 1
| 10> C 1.2385674825 -3.5792849647 -2.3159954328
| 11> C 2.5097599695 -2.7456516476 -2.3330665027
| 12> O 2.3517070774 -1.5821924068 -1.4996860666
| 13> C 2.7769732229 -1.6344246007 -0.252734178
| 14> O 3.3650410479 -2.571179843 0.2377212026
| 15> C 2.4700190966 -0.3541220422 0.5050060197
| 16> C 1.0812873737 0.1797131842 0.1736817457
| 17> H 0.9935974068 0.3607274043 -0.9029234481
| 18> C 0.7736891263 1.4802869223 0.8929385624
| 19> O -0.2391068558 1.6434837972 1.5421823158
| 20> O 1.7140112743 2.3676742651 0.7158037475
| 21> C 1.5098390303 3.6981264363 1.2400273532
| 22> C 0.7875748412 4.5601621674 0.2181100091
| 23> S -0.1997557567 -1.0386433274 0.6370548182
| 24> P -1.914299267 0.1077146059 0.1152030987
| 25> S -1.6741353607 1.5016928525 -1.2359456444
| 26> O -2.9017957404 -1.0636719833 -0.3765079932
| 27> C -2.6564271728 -1.7879404099 -1.5840571458
| 28> O -2.7143367461 0.5728182568 1.3934928877
| 29> C -2.9815072747 -0.3013430103 2.5059034796
| 30> H 1.364816907 -4.442382899 -2.9609289177
| 31> H 1.0301651888 -3.9181761836 -1.3034918103
| 32> H 0.3996163308 -2.9867405475 -2.6712766841
| 33> H 2.714047274 -2.3527324118 -3.3295200162
| 34> H 3.3627056401 -3.3238168496 -1.9673639232
| 35> H 3.2082872454 0.3996923654 0.2227258804
| 36> H 2.5660914824 -0.5661132061 1.5703935849
| 37> H 0.9343493544 3.6246332288 2.1664755994
| 38> H 2.5151045297 4.0689935354 1.4390044544
| 39> H 0.6572524695 5.5603672488 0.6172703706
| 40> H 1.3602121366 4.6109962605 -0.7035290484
| 41> H -0.1910960056 4.1383248245 -0.0055440598
| 42> H -1.8376362145 -2.4913741484 -1.4318349597
| 43> H -2.4133051266 -1.0965271616 -2.3928988
| 44> H -3.5800276514 -2.317478421 -1.8032887913
| 45> H -3.5380106561 -1.1746822619 2.170073143
| 46> H -3.5718425974 0.2952150972 3.1964099145
| 47> H -2.0426838999 -0.6053387161 2.9686701543
| 48> *
| 49>
| 50>                          ****END OF INPUT****

CARTESIAN COORDINATES (ANGSTROEM)
---------------------------------
  C      1.238567   -3.579285   -2.315995
  C      2.509760   -2.745652   -2.333067
  O      2.351707   -1.582192   -1.499686
  C      2.776973   -1.634425   -0.252734
  O      3.365041   -2.571180    0.237721
  C      2.470019   -0.354122    0.505006
  C      1.081287    0.179713    0.173682
  H      0.993597    0.360727   -0.902923
  C      0.773689    1.480287    0.892939
  O     -0.239107    1.643484    1.542182
  O      1.714011    2.367674    0.715804
  C      1.509839    3.698126    1.240027
  C      0.787575    4.560162    0.218110
  S     -0.199756   -1.038643    0.637055
  P     -1.914299    0.107715    0.115203
  S     -1.674135    1.501693   -1.235946
  O     -2.901796   -1.063672   -0.376508
  C     -2.656427   -1.787940   -1.584057
  O     -2.714337    0.572818    1.393493
  C     -2.981507   -0.301343    2.505903
  H      1.364817   -4.442383   -2.960929
  H      1.030165   -3.918176   -1.303492
  H      0.399616   -2.986741   -2.671277
  H      2.714047   -2.352732   -3.329520
  H      3.362706   -3.323817   -1.967364
  H      3.208287    0.399692    0.222726
  H      2.566091   -0.566113    1.570394
  H      0.934349    3.624633    2.166476
  H      2.515105    4.068994    1.439004
  H      0.657252    5.560367    0.617270
  H      1.360212    4.610996   -0.703529
  H     -0.191096    4.138325   -0.005544
  H     -1.837636   -2.491374   -1.431835
  H     -2.413305   -1.096527   -2.392899
  H     -3.580028   -2.317478   -1.803289
  H     -3.538011   -1.174682    2.170073
  H     -3.571843    0.295215    3.196410
  H     -2.042684   -0.605339    2.968670

 Total Charge           Charge          ....    0
 Multiplicity           Mult            ....    1
 Number of Electrons    NEL             ....  174
 Basis Dimension        Dim             ....  510

ORBITAL ENERGIES
----------------

  NO   OCC          E(Eh)            E(eV)
   0   2.0000     -88.579212     -2410.3629
   1   2.0000     -88.525813     -2408.9098
   2   2.0000     -76.920486     -2093.1128
   3   2.0000     -19.015542      -517.4392
   4   2.0000     -19.009005      -517.2613
   5   2.0000     -18.995538      -516.8949
   6   2.0000     -18.989389      -516.7276
   7   2.0000     -18.952034      -515.7111
   8   2.0000     -18.949853      -515.6517
   9   2.0000     -10.176569      -276.9185
  10   2.0000     -10.173069      -276.8233
  11   2.0000     -10.098616      -274.7973
  12   2.0000     -10.089128      -274.5391
  13   2.0000     -10.086009      -274.4543
  14   2.0000     -10.084552      -274.4146
  15   2.0000     -10.079071      -274.2655
  16   2.0000     -10.061510      -273.7876
  17   2.0000     -10.020027      -272.6588
  18   2.0000     -10.019670      -272.6491
  19   2.0000      -7.873378      -214.2455
  20   2.0000      -7.821129      -212.8237
  21   2.0000      -6.598380      -179.5510
  22   2.0000      -5.820217      -158.3761
  23   2.0000      -5.817353      -158.2982
  24   2.0000      -5.810445      -158.1103
  25   2.0000      -5.768928      -156.9805
  26   2.0000      -5.761512      -156.7787
  27   2.0000      -5.760766      -156.7584
  28   2.0000      -4.744036      -129.0918
  29   2.0000      -4.743500      -129.0772
  30   2.0000      -4.741967      -129.0355
  31   2.0000      -1.095337       -29.8056
  32   2.0000      -1.087592       -29.5949
  33   2.0000      -1.051619       -28.6160
  34   2.0000      -1.008040       -27.4302
  35   2.0000      -1.002288       -27.2736
  36   2.0000      -0.997504       -27.1435
  37   2.0000      -0.815001       -22.1773
  38   2.0000      -0.750153       -20.4127
  39   2.0000      -0.746349       -20.3092
  40   2.0000      -0.728146       -19.8139
  41   2.0000      -0.696310       -18.9476
  42   2.0000      -0.667283       -18.1577
  43   2.0000      -0.660319       -17.9682
  44   2.0000      -0.656699       -17.8697
  45   2.0000      -0.623020       -16.9532
  46   2.0000      -0.599075       -16.3017
  47   2.0000      -0.539418       -14.6783
  48   2.0000      -0.528129       -14.3711
  49   2.0000      -0.525398       -14.2968
  50   2.0000      -0.500051       -13.6071
  51   2.0000      -0.490017       -13.3340
  52   2.0000      -0.488320       -13.2879
  53   2.0000      -0.481990       -13.1156
  54   2.0000      -0.462757       -12.5923
  55   2.0000      -0.459927       -12.5152
  56   2.0000      -0.447340       -12.1727
  57   2.0000      -0.444188       -12.0870
  58   2.0000      -0.435621       -11.8539
  59   2.0000      -0.428706       -11.6657
  60   2.0000      -0.423387       -11.5209
  61   2.0000      -0.413845       -11.2613
  62   2.0000      -0.408545       -11.1171
  63   2.0000      -0.404962       -11.0196
  64   2.0000      -0.394904       -10.7459
  65   2.0000      -0.379760       -10.3338
  66   2.0000      -0.373046       -10.1511
  67   2.0000      -0.369570       -10.0565
  68   2.0000      -0.359271        -9.7763
  69   2.0000      -0.351044        -9.5524
  70   2.0000      -0.349822        -9.5191
  71   2.0000      -0.342409        -9.3174
  72   2.0000      -0.340904        -9.2765
  73   2.0000      -0.332092        -9.0367
  74   2.0000      -0.319023        -8.6811
  75   2.0000      -0.314022        -8.5450
  76   2.0000      -0.309796        -8.4300
  77   2.0000      -0.306188        -8.3318
  78   2.0000      -0.291183        -7.9235
  79   2.0000      -0.285939        -7.7808
  80   2.0000      -0.283524        -7.7151
  81   2.0000      -0.277604        -7.5540
  82   2.0000      -0.269352        -7.3294
  83   2.0000      -0.252650        -6.8750
  84   2.0000      -0.242155        -6.5894
  85   2.0000      -0.227550        -6.1919
  86   2.0000      -0.222074        -6.0429
  87   0.0000      -0.053665        -1.4603
  88   0.0000      -0.040886        -1.1126
  89   0.0000      -0.017973        -0.4891
  90   0.0000      -0.000247        -0.0067
  91   0.0000       0.015050         0.4095

MULLIKEN ATOMIC CHARGES
-----------------------
   0 C :   -0.501265
   1 C :   -0.144626
   2 O :   -0.156624
   3 C :    0.400954
   4 O :   -0.483769
   5 C :   -0.502915
   6 C :    0.015080
   7 H :    0.261154
   8 C :    0.360898
   9 O :   -0.455174
  10 O :   -0.175355
  11 C :   -0.132804
  12 C :   -0.503019
  13 S :   -0.197650
  14 P :    0.807271
  15 S :   -0.506315
  16 O :   -0.393048
  17 C :   -0.311829
  18 O :   -0.349859
  19 C :   -0.304021
  20 H :    0.171294
  21 H :    0.170958
  22 H :    0.170292
  23 H :    0.176241
  24 H :    0.177841
  25 H :    0.237508
  26 H :    0.218990
  27 H :    0.178998
  28 H :    0.179472
  29 H :    0.173426
  30 H :    0.170849
  31 H :    0.170783
  32 H :    0.174245
  33 H :    0.177269
  34 H :    0.177671
  35 H :    0.185077
  36 H :    0.182081
  37 H :    0.179920
Sum of atomic charges:    0.0000000

LOEWDIN ATOMIC CHARGES
----------------------
   0 C :   -0.393099
   1 C :    0.038903
   2 O :   -0.598797
   3 C :    0.357962
   4 O :   -0.473838
   5 C :   -0.189979
   6 C :   -0.192074
   7 H :    0.222238
   8 C :    0.354016
   9 O :   -0.493332
  10 O :   -0.571195
  11 C :    0.043192
  12 C :   -0.391885
  13 S :    0.217860
  14 P :    0.404864
  15 S :   -0.123971
  16 O :   -0.705260
  17 C :   -0.061352
  18 O :   -0.669739
  19 C :   -0.043274
  20 H :    0.168364
  21 H :    0.163380
  22 H :    0.162391
  23 H :    0.190246
  24 H :    0.192987
  25 H :    0.216923
  26 H :    0.200503
  27 H :    0.192862
  28 H :    0.192004
  29 H :    0.169219
  30 H :    0.163214
  31 H :    0.163923
  32 H :    0.175725
  33 H :    0.177056
  34 H :    0.187449
  35 H :    0.181063
  36 H :    0.191970
  37 H :    0.179481

  Mayer bond orders larger than 0.100000
B(  0-C ,  1-C ) :   0.9322 B(  0-C , 20-H ) :   0.9590 B(  0-C , 21-H ) :   0.9676
B(  0-C , 22-H ) :   0.9679 B(  1-C ,  2-O ) :   0.7796 B(  1-C , 23-H ) :   0.9525
B(  1-C , 24-H ) :   0.9629 B(  2-O ,  3-C ) :   1.1008 B(  3-C ,  4-O ) :   1.8090
B(  3-C ,  5-C ) :   0.9480 B(  5-C ,  6-C ) :   0.8530 B(  5-C , 25-H ) :   0.9158
B(  5-C , 26-H ) :   0.9825 B(  6-C ,  7-H ) :   0.8991 B(  6-C ,  8-C ) :   0.8953
B(  6-C , 13-S ) :   0.8518 B(  8-C ,  9-O ) :   1.7906 B(  8-C , 10-O ) :   1.1535
B( 10-O , 11-C ) :   0.7734 B( 11-C , 12-C ) :   0.9312 B( 11-C , 27-H ) :   0.9637
B( 11-C , 28-H ) :   0.9510 B( 12-C , 29-H ) :   0.9591 B( 12-C , 30-H ) :   0.9701
B( 12-C , 31-H ) :   0.9654 B( 13-S , 14-P ) :   0.9876 B( 14-P , 15-S ) :   1.7794
B( 14-P , 16-O ) :   1.0067 B( 14-P , 18-O ) :   1.1826 B( 16-O , 17-C ) :   0.8306
B( 17-C , 32-H ) :   0.9474 B( 17-C , 33-H ) :   0.9553 B( 17-C , 34-H ) :   0.9586
B( 18-O , 19-C ) :   0.7901 B( 19-C , 35-H ) :   0.9538 B( 19-C , 36-H ) :   0.9542
B( 19-C , 37-H ) :   0.9491

Dispersion correction           -0.017283148
FINAL SINGLE POINT ENERGY     -1981.463877583507

DIPOLE MOMENT
-------------

Method             : SCF
Type of density    : Electron Density
Multiplicity       :   1
Irrep              :   0
Energy             : -1981.4840509873156407 Eh
Relativity type    :
Basis              : AO
                                X                 Y                 Z
Electronic contribution:     -4.630003446       1.855525717       4.572658336
Nuclear contribution   :      5.476574505      -2.198399118      -4.860701733
                        -----------------------------------------
Total Dipole Moment    :      0.846571060      -0.342873400      -0.288043397
                        -----------------------------------------
Magnitude (a.u.)       :      0.957712758
Magnitude (Debye)      :      2.434312372

Rotational constants in cm-1:             0.010679             0.008242             0.005847
Rotational constants in MHz :           320.154954           247.096982           175.282909

                             ****ORCA TERMINATED NORMALLY****
TOTAL RUN TIME: 0 days 0 hours 1 minutes 57 seconds 275 msec
