                         Program Version 6.0.0  -   RELEASE  -
|  1> ! pbe def2-sv(p) def2/J RI DEFGRID1 loosescf d4 GCP(DFT/SV(P)) printgap
|  2> %output
|  3>     printlevel normal
|  4> end
|  5> * xyz 0 1
|  6> C 4.4902284603 0.4059644071 -2.4533089099
|  7> C 4.8535374478 -0.4727703946 -1.2739215094
|  8> O 3.7001372722 -1.1153089033 -0.7026776724
|  9> P 2.5577583893 -0.3029715328 0.0502230087
| 10> S 3.2179248737 1.1671087221 1.1747465521
| 11> O 1.7914720315 -1.4602367147 0.8084206129
| 12> C 2.22357812 -1.9515173842 2.1005168638
| 13> C 0.9993373955 -2.2079441308 2.9546406053
| 14> S 1.1391561837 0.1726286829 -1.4294145626
| 15> C 0.2330620626 1.3897568415 -0.4292210933
| 16> S -0.8053536916 0.6377201549 0.8474923899
| 17> P -2.5002027861 0.316231678 -0.4184800013
| 18> S -2.2131657724 -0.5925211625 -2.1245020372
| 19> O -3.0633464632 1.7745626108 -0.640971277
| 20> C -3.5047273293 2.6459665845 0.4308107536
| 21> C -4.9986023221 2.5200705958 0.6483825519
| 22> O -3.5638605139 -0.3523531514 0.5535361069
| 23> C -3.6705542442 -1.7803366162 0.6994971145
| 24> C -2.4406799283 -2.3765973141 1.3515105922
| 25> H 3.9081905576 -0.1568264988 -3.1791621808
| 26> H 3.8987882235 1.2561786164 -2.1152482209
| 27> H 5.397471359 0.7722844424 -2.9228892722
| 28> H 5.3418007348 0.1167982351 -0.4912466947
| 29> H 5.495602265 -1.3030302731 -1.5707647387
| 30> H 2.7921062793 -2.8665936114 1.922690001
| 31> H 2.8761678828 -1.2016288921 2.5608539035
| 32> H 0.3593054184 -2.9438950813 2.4773499953
| 33> H 1.3152581147 -2.5782854945 3.9244187105
| 34> H 0.4403692337 -1.2846057269 3.0854460146
| 35> H -0.3880076772 1.9583679769 -1.1188490965
| 36> H 0.9514684214 2.0316983039 0.082162824
| 37> H -2.9486062315 2.4002905602 1.3395764543
| 38> H -3.2376155438 3.6485100461 0.091410457
| 39> H -5.2471358161 1.5223473085 0.9989005217
| 40> H -5.310887975 3.2490425367 1.3896797667
| 41> H -5.5265134492 2.7065970424 -0.2828744825
| 42> H -4.5599466092 -1.9153245652 1.3165098705
| 43> H -3.8319686192 -2.2166159879 -0.291033585
| 44> H -2.2297979339 -1.8725927081 2.2914841061
| 45> H -2.6080144714 -3.4329806079 1.5362089289
| 46> H -1.5812672545 -2.2652694089 0.6904441581
| 47> *
| 48>
| 49>                          ****END OF INPUT****

CARTESIAN COORDINATES (ANGSTROEM)
---------------------------------
  C      4.490228    0.405964   -2.453309
  C      4.853537   -0.472770   -1.273922
  O      3.700137   -1.115309   -0.702678
  P      2.557758   -0.302972    0.050223
  S      3.217925    1.167109    1.174747
  O      1.791472   -1.460237    0.808421
  C      2.223578   -1.951517    2.100517
  C      0.999337   -2.207944    2.954641
  S      1.139156    0.172629   -1.429415
  C      0.233062    1.389757   -0.429221
  S     -0.805354    0.637720    0.847492
  P     -2.500203    0.316232   -0.418480
  S     -2.213166   -0.592521   -2.124502
  O     -3.063346    1.774563   -0.640971
  C     -3.504727    2.645967    0.430811
  C     -4.998602    2.520071    0.648383
  O     -3.563861   -0.352353    0.553536
  C     -3.670554   -1.780337    0.699497
  C     -2.440680   -2.376597    1.351511
  H      3.908191   -0.156826   -3.179162
  H      3.898788    1.256179   -2.115248
  H      5.397471    0.772284   -2.922889
  H      5.341801    0.116798   -0.491247
  H      5.495602   -1.303030   -1.570765
  H      2.792106   -2.866594    1.922690
  H      2.876168   -1.201629    2.560854
  H      0.359305   -2.943895    2.477350
  H      1.315258   -2.578285    3.924419
  H      0.440369   -1.284606    3.085446
  H     -0.388008    1.958368   -1.118849
  H      0.951468    2.031698    0.082163
  H     -2.948606    2.400291    1.339576
  H     -3.237616    3.648510    0.091410
  H     -5.247136    1.522347    0.998901
  H     -5.310888    3.249043    1.389680
  H     -5.526513    2.706597   -0.282874
  H     -4.559947   -1.915325    1.316510
  H     -3.831969   -2.216616   -0.291034
  H     -2.229798   -1.872593    2.291484
  H     -2.608014   -3.432981    1.536209
  H     -1.581267   -2.265269    0.690444

 Total Charge           Charge          ....    0
 Multiplicity           Mult            ....    1
 Number of Electrons    NEL             ....  202
 Basis Dimension        Dim             ....  334

ORBITAL ENERGIES
----------------

  NO   OCC          E(Eh)            E(eV)
   0   2.0000     -88.041470     -2395.7302
   1   2.0000     -88.039586     -2395.6789
   2   2.0000     -87.986751     -2394.2412
   3   2.0000     -87.984716     -2394.1858
   4   2.0000     -76.427110     -2079.6874
   5   2.0000     -76.422957     -2079.5744
   6   2.0000     -18.798564      -511.5349
   7   2.0000     -18.794437      -511.4226
   8   2.0000     -18.790699      -511.3209
   9   2.0000     -18.787371      -511.2304
  10   2.0000      -9.957211      -270.9495
  11   2.0000      -9.956423      -270.9280
  12   2.0000      -9.954738      -270.8822
  13   2.0000      -9.950575      -270.7689
  14   2.0000      -9.949457      -270.7385
  15   2.0000      -9.887430      -269.0506
  16   2.0000      -9.886528      -269.0261
  17   2.0000      -9.884165      -268.9618
  18   2.0000      -9.882117      -268.9061
  19   2.0000      -7.686180      -209.1516
  20   2.0000      -7.684754      -209.1128
  21   2.0000      -7.631719      -207.6696
  22   2.0000      -7.629905      -207.6203
  23   2.0000      -6.424603      -174.8223
  24   2.0000      -6.420998      -174.7243
  25   2.0000      -5.713832      -155.4813
  26   2.0000      -5.712579      -155.4472
  27   2.0000      -5.710842      -155.3999
  28   2.0000      -5.709456      -155.3622
  29   2.0000      -5.703258      -155.1935
  30   2.0000      -5.701546      -155.1470
  31   2.0000      -5.660334      -154.0255
  32   2.0000      -5.658953      -153.9880
  33   2.0000      -5.652457      -153.8112
  34   2.0000      -5.652070      -153.8006
  35   2.0000      -5.650524      -153.7586
  36   2.0000      -5.649951      -153.7430
  37   2.0000      -4.647686      -126.4700
  38   2.0000      -4.646306      -126.4324
  39   2.0000      -4.644636      -126.3870
  40   2.0000      -4.643521      -126.3566
  41   2.0000      -4.642614      -126.3320
  42   2.0000      -4.641535      -126.3026
  43   2.0000      -0.991455       -26.9789
  44   2.0000      -0.984018       -26.7765
  45   2.0000      -0.949528       -25.8380
  46   2.0000      -0.942669       -25.6513
  47   2.0000      -0.763464       -20.7749
  48   2.0000      -0.721899       -19.6439
  49   2.0000      -0.709887       -19.3170
  50   2.0000      -0.693294       -18.8655
  51   2.0000      -0.685232       -18.6461
  52   2.0000      -0.674744       -18.3607
  53   2.0000      -0.650316       -17.6960
  54   2.0000      -0.637927       -17.3589
  55   2.0000      -0.600383       -16.3372
  56   2.0000      -0.591164       -16.0864
  57   2.0000      -0.577995       -15.7281
  58   2.0000      -0.570402       -15.5214
  59   2.0000      -0.555620       -15.1192
  60   2.0000      -0.503374       -13.6975
  61   2.0000      -0.500566       -13.6211
  62   2.0000      -0.478569       -13.0225
  63   2.0000      -0.470760       -12.8100
  64   2.0000      -0.458427       -12.4744
  65   2.0000      -0.450086       -12.2475
  66   2.0000      -0.439689       -11.9645
  67   2.0000      -0.432304       -11.7636
  68   2.0000      -0.430699       -11.7199
  69   2.0000      -0.423196       -11.5157
  70   2.0000      -0.412247       -11.2178
  71   2.0000      -0.396123       -10.7791
  72   2.0000      -0.389106       -10.5881
  73   2.0000      -0.386063       -10.5053
  74   2.0000      -0.379963       -10.3393
  75   2.0000      -0.372905       -10.1473
  76   2.0000      -0.365634        -9.9494
  77   2.0000      -0.360363        -9.8060
  78   2.0000      -0.356364        -9.6971
  79   2.0000      -0.352417        -9.5897
  80   2.0000      -0.349436        -9.5086
  81   2.0000      -0.348268        -9.4769
  82   2.0000      -0.343696        -9.3525
  83   2.0000      -0.338472        -9.2103
  84   2.0000      -0.334915        -9.1135
  85   2.0000      -0.319756        -8.7010
  86   2.0000      -0.310346        -8.4450
  87   2.0000      -0.299673        -8.1545
  88   2.0000      -0.295820        -8.0497
  89   2.0000      -0.293661        -7.9909
  90   2.0000      -0.285414        -7.7665
  91   2.0000      -0.275264        -7.4903
  92   2.0000      -0.272476        -7.4144
  93   2.0000      -0.261731        -7.1221
  94   2.0000      -0.261375        -7.1124
  95   2.0000      -0.236369        -6.4319
  96   2.0000      -0.216865        -5.9012
  97   2.0000      -0.211221        -5.7476
  98   2.0000      -0.204551        -5.5661
  99   2.0000      -0.201617        -5.4863
 100   2.0000      -0.192964        -5.2508
 101   0.0000      -0.039947        -1.0870
 102   0.0000      -0.027689        -0.7535
 103   0.0000      -0.004951        -0.1347
 104   0.0000       0.006496         0.1768
 105   0.0000       0.014849         0.4040

MULLIKEN ATOMIC CHARGES
-----------------------
   0 C :   -0.318614
   1 C :   -0.002009
   2 O :   -0.375557
   3 P :    0.603876
   4 S :   -0.348080
   5 O :   -0.359403
   6 C :   -0.009709
   7 C :   -0.297063
   8 S :   -0.034583
   9 C :   -0.374680
  10 S :   -0.079190
  11 P :    0.585807
  12 S :   -0.302829
  13 O :   -0.361034
  14 C :   -0.011077
  15 C :   -0.291626
  16 O :   -0.381894
  17 C :    0.011605
  18 C :   -0.353185
  19 H :    0.120936
  20 H :    0.126067
  21 H :    0.112997
  22 H :    0.110801
  23 H :    0.105060
  24 H :    0.104359
  25 H :    0.104872
  26 H :    0.127537
  27 H :    0.107680
  28 H :    0.126901
  29 H :    0.189020
  30 H :    0.193672
  31 H :    0.101812
  32 H :    0.108100
  33 H :    0.122912
  34 H :    0.110128
  35 H :    0.120629
  36 H :    0.104116
  37 H :    0.115448
  38 H :    0.120805
  39 H :    0.115796
  40 H :    0.149597
Sum of atomic charges:   -0.0000000

LOEWDIN ATOMIC CHARGES
----------------------
   0 C :   -0.369910
   1 C :   -0.118931
   2 O :   -0.247004
   3 P :    0.568574
   4 S :   -0.333216
   5 O :   -0.242074
   6 C :   -0.116022
   7 C :   -0.353670
   8 S :    0.114024
   9 C :   -0.485299
  10 S :    0.080520
  11 P :    0.568526
  12 S :   -0.307519
  13 O :   -0.240826
  14 C :   -0.116697
  15 C :   -0.359575
  16 O :   -0.246340
  17 C :   -0.115757
  18 C :   -0.374355
  19 H :    0.125711
  20 H :    0.120852
  21 H :    0.131046
  22 H :    0.110337
  23 H :    0.118651
  24 H :    0.114867
  25 H :    0.106132
  26 H :    0.126763
  27 H :    0.128775
  28 H :    0.125502
  29 H :    0.134027
  30 H :    0.128380
  31 H :    0.103648
  32 H :    0.120250
  33 H :    0.126273
  34 H :    0.129785
  35 H :    0.129103
  36 H :    0.118226
  37 H :    0.114286
  38 H :    0.123361
  39 H :    0.132166
  40 H :    0.127408

  Mayer bond orders larger than 0.100000
B(  0-C ,  1-C ) :   1.1644 B(  0-C , 19-H ) :   0.9446 B(  0-C , 20-H ) :   0.9351
B(  0-C , 21-H ) :   0.9379 B(  1-C ,  2-O ) :   0.9101 B(  1-C , 22-H ) :   0.9160
B(  1-C , 23-H ) :   0.9338 B(  2-O ,  3-P ) :   1.1102 B(  3-P ,  4-S ) :   1.5788
B(  3-P ,  5-O ) :   1.1385 B(  3-P ,  8-S ) :   0.9794 B(  4-S ,  8-S ) :   0.1090
B(  5-O ,  6-C ) :   0.8987 B(  6-C ,  7-C ) :   1.1673 B(  6-C , 24-H ) :   0.9325
B(  6-C , 25-H ) :   0.9033 B(  7-C , 26-H ) :   0.9434 B(  7-C , 27-H ) :   0.9393
B(  7-C , 28-H ) :   0.9446 B(  8-S ,  9-C ) :   1.0105 B(  9-C , 10-S ) :   0.9898
B(  9-C , 29-H ) :   0.8926 B(  9-C , 30-H ) :   0.8686 B( 10-S , 11-P ) :   0.9544
B( 10-S , 12-S ) :   0.1124 B( 11-P , 12-S ) :   1.6586 B( 11-P , 13-O ) :   1.1180
B( 11-P , 16-O ) :   1.0831 B( 13-O , 14-C ) :   0.8938 B( 14-C , 15-C ) :   1.1659
B( 14-C , 31-H ) :   0.9095 B( 14-C , 32-H ) :   0.9360 B( 15-C , 33-H ) :   0.9423
B( 15-C , 34-H ) :   0.9397 B( 15-C , 35-H ) :   0.9470 B( 16-O , 17-C ) :   0.9023
B( 17-C , 18-C ) :   1.1620 B( 17-C , 36-H ) :   0.9322 B( 17-C , 37-H ) :   0.9170
B( 18-C , 38-H ) :   0.9416 B( 18-C , 39-H ) :   0.9369 B( 18-C , 40-H ) :   0.9279

Dispersion correction           -0.063903812
FINAL SINGLE POINT ENERGY     -2929.521205924998

DIPOLE MOMENT
-------------

Method             : SCF
Type of density    : Electron Density
Multiplicity       :   1
Irrep              :   0
Energy             : -2929.6414464415879593 Eh
Relativity type    :
Basis              : AO
                                X                 Y                 Z
Electronic contribution:      4.192124314       3.953424973     -10.403297638
Nuclear contribution   :     -4.510051183      -4.174021706      11.383157884
                        -----------------------------------------
Total Dipole Moment    :     -0.317926869      -0.220596734       0.979860246
                        -----------------------------------------
Magnitude (a.u.)       :      1.053502023
Magnitude (Debye)      :      2.677789336

Rotational constants in cm-1:             0.012658             0.004553             0.004218
Rotational constants in MHz :           379.489684           136.504794           126.441646

                             ****ORCA TERMINATED NORMALLY****
TOTAL RUN TIME: 0 days 0 hours 0 minutes 20 seconds 696 msec
