                         Program Version 6.0.0  -   RELEASE  -
|  1> ! r2scan-3c def2/J RI DEFGRID2 scfconv6 printgap
|  2> %output
|  3>     printlevel normal
|  4> end
|  5> * xyz 0 1
|  6> C 2.9013270871 -0.530576177 3.2227550921
|  7> C 1.5443049854 -0.7517858646 2.5901910971
|  8> O 1.3853003628 0.0370734515 1.3891523167
|  9> P 2.2115052005 -0.2777927325 0.0786510514
| 10> S 2.7409230878 -2.1478179597 -0.1992860033
| 11> O 3.4044278634 0.7615703019 0.193243919
| 12> C 4.5024126217 0.7707339719 -0.7410669231
| 13> C 5.6709766546 1.4732288068 -0.0793904165
| 14> S 0.976131456 0.5619559217 -1.4210891926
| 15> C -0.0531984623 -0.9124102068 -1.6619432153
| 16> S -1.13669347 -1.2519444079 -0.2581058288
| 17> P -2.4038160673 0.4485091778 -0.536831527
| 18> S -2.7938008413 0.879179451 -2.4019731087
| 19> O -1.7078837793 1.6391188603 0.2221536399
| 20> C -1.4344167684 1.6247050466 1.6451090315
| 21> C -2.4820829977 2.4224079639 2.3927646687
| 22> O -3.6623605589 0.1451859794 0.3828447454
| 23> C -4.7188446243 -0.750170995 -0.017646725
| 24> C -4.4918355946 -2.1475975115 0.5247122014
| 25> H 2.9539815241 -1.0706202616 4.1628299486
| 26> H 3.6807896684 -0.90093182 2.5577967774
| 27> H 3.0654993506 0.5287057642 3.4010501869
| 28> H 0.7341707529 -0.4132054773 3.2368693312
| 29> H 1.4007831179 -1.8059902398 2.3332217835
| 30> H 4.7500828034 -0.2643201431 -1.0002446437
| 31> H 4.17773751 1.2967958634 -1.6428603863
| 32> H 5.3811758907 2.4790294789 0.2103186208
| 33> H 5.9847732397 0.9276574045 0.805983046
| 34> H 6.4979708938 1.5246221099 -0.779859779
| 35> H 0.5870614849 -1.7858662767 -1.7874696998
| 36> H -0.6601091437 -0.7282285477 -2.5487273003
| 37> H -1.4041847082 0.5867726581 1.9878505741
| 38> H -0.4423347546 2.0712880384 1.7398355483
| 39> H -3.4576693633 1.9565883292 2.282251229
| 40> H -2.2175727313 2.4598441468 3.4448817064
| 41> H -2.529421545 3.433444399 1.9976965271
| 42> H -5.6244595609 -0.3071812605 0.4008250936
| 43> H -4.7863876435 -0.7489467788 -1.1101765726
| 44> H -3.591944132 -2.5844553958 0.0980602098
| 45> H -4.3861742083 -2.1157004381 1.6053664084
| 46> H -5.3436135006 -2.7686703027 0.2668508752
| 47> *
| 48>
| 49>                          ****END OF INPUT****

CARTESIAN COORDINATES (ANGSTROEM)
---------------------------------
  C      2.901327   -0.530576    3.222755
  C      1.544305   -0.751786    2.590191
  O      1.385300    0.037073    1.389152
  P      2.211505   -0.277793    0.078651
  S      2.740923   -2.147818   -0.199286
  O      3.404428    0.761570    0.193244
  C      4.502413    0.770734   -0.741067
  C      5.670977    1.473229   -0.079390
  S      0.976131    0.561956   -1.421089
  C     -0.053198   -0.912410   -1.661943
  S     -1.136693   -1.251944   -0.258106
  P     -2.403816    0.448509   -0.536832
  S     -2.793801    0.879179   -2.401973
  O     -1.707884    1.639119    0.222154
  C     -1.434417    1.624705    1.645109
  C     -2.482083    2.422408    2.392765
  O     -3.662361    0.145186    0.382845
  C     -4.718845   -0.750171   -0.017647
  C     -4.491836   -2.147598    0.524712
  H      2.953982   -1.070620    4.162830
  H      3.680790   -0.900932    2.557797
  H      3.065499    0.528706    3.401050
  H      0.734171   -0.413205    3.236869
  H      1.400783   -1.805990    2.333222
  H      4.750083   -0.264320   -1.000245
  H      4.177738    1.296796   -1.642860
  H      5.381176    2.479029    0.210319
  H      5.984773    0.927657    0.805983
  H      6.497971    1.524622   -0.779860
  H      0.587061   -1.785866   -1.787470
  H     -0.660109   -0.728229   -2.548727
  H     -1.404185    0.586773    1.987851
  H     -0.442335    2.071288    1.739836
  H     -3.457669    1.956588    2.282251
  H     -2.217573    2.459844    3.444882
  H     -2.529422    3.433444    1.997697
  H     -5.624460   -0.307181    0.400825
  H     -4.786388   -0.748947   -1.110177
  H     -3.591944   -2.584455    0.098060
  H     -4.386174   -2.115700    1.605366
  H     -5.343614   -2.768670    0.266851

 Total Charge           Charge          ....    0
 Multiplicity           Mult            ....    1
 Number of Electrons    NEL             ....  202
 Basis Dimension        Dim             ....  539

ORBITAL ENERGIES
----------------

  NO   OCC          E(Eh)            E(eV)
   0   2.0000     -88.573513     -2410.2078
   1   2.0000     -88.572747     -2410.1870
   2   2.0000     -88.522704     -2408.8252
   3   2.0000     -88.517924     -2408.6952
   4   2.0000     -76.915147     -2092.9675
   5   2.0000     -76.913094     -2092.9117
   6   2.0000     -18.996282      -516.9151
   7   2.0000     -18.995633      -516.8975
   8   2.0000     -18.994279      -516.8606
   9   2.0000     -18.989005      -516.7171
  10   2.0000     -10.102437      -274.9013
  11   2.0000     -10.101657      -274.8801
  12   2.0000     -10.101193      -274.8674
  13   2.0000     -10.100825      -274.8574
  14   2.0000     -10.099932      -274.8331
  15   2.0000     -10.035554      -273.0813
  16   2.0000     -10.032725      -273.0043
  17   2.0000     -10.032072      -272.9866
  18   2.0000     -10.030759      -272.9508
  19   2.0000      -7.867598      -214.0882
  20   2.0000      -7.867094      -214.0745
  21   2.0000      -7.817535      -212.7259
  22   2.0000      -7.812763      -212.5961
  23   2.0000      -6.593872      -179.4284
  24   2.0000      -6.591571      -179.3658
  25   2.0000      -5.814465      -158.2196
  26   2.0000      -5.813841      -158.2027
  27   2.0000      -5.811519      -158.1395
  28   2.0000      -5.810926      -158.1233
  29   2.0000      -5.804707      -157.9541
  30   2.0000      -5.804360      -157.9447
  31   2.0000      -5.765071      -156.8756
  32   2.0000      -5.760481      -156.7506
  33   2.0000      -5.757825      -156.6784
  34   2.0000      -5.757622      -156.6729
  35   2.0000      -5.752965      -156.5461
  36   2.0000      -5.752755      -156.5404
  37   2.0000      -4.739259      -128.9618
  38   2.0000      -4.738798      -128.9492
  39   2.0000      -4.737666      -128.9184
  40   2.0000      -4.737455      -128.9127
  41   2.0000      -4.736489      -128.8864
  42   2.0000      -4.734960      -128.8448
  43   2.0000      -1.053774       -28.6747
  44   2.0000      -1.052308       -28.6348
  45   2.0000      -1.015002       -27.6196
  46   2.0000      -1.010915       -27.5084
  47   2.0000      -0.800613       -21.7858
  48   2.0000      -0.760926       -20.7058
  49   2.0000      -0.752089       -20.4654
  50   2.0000      -0.736582       -20.0434
  51   2.0000      -0.736301       -20.0358
  52   2.0000      -0.710449       -19.3323
  53   2.0000      -0.684687       -18.6313
  54   2.0000      -0.667822       -18.1724
  55   2.0000      -0.633381       -17.2352
  56   2.0000      -0.624718       -16.9994
  57   2.0000      -0.607117       -16.5205
  58   2.0000      -0.603000       -16.4085
  59   2.0000      -0.592273       -16.1166
  60   2.0000      -0.533731       -14.5236
  61   2.0000      -0.525045       -14.2872
  62   2.0000      -0.501376       -13.6431
  63   2.0000      -0.499063       -13.5802
  64   2.0000      -0.477621       -12.9967
  65   2.0000      -0.468104       -12.7378
  66   2.0000      -0.458423       -12.4743
  67   2.0000      -0.453979       -12.3534
  68   2.0000      -0.448954       -12.2167
  69   2.0000      -0.432211       -11.7611
  70   2.0000      -0.423437       -11.5223
  71   2.0000      -0.416504       -11.3336
  72   2.0000      -0.408585       -11.1182
  73   2.0000      -0.401682       -10.9303
  74   2.0000      -0.398588       -10.8461
  75   2.0000      -0.389868       -10.6088
  76   2.0000      -0.382391       -10.4054
  77   2.0000      -0.378455       -10.2983
  78   2.0000      -0.375803       -10.2261
  79   2.0000      -0.370537       -10.0828
  80   2.0000      -0.365286        -9.9399
  81   2.0000      -0.363253        -9.8846
  82   2.0000      -0.360524        -9.8104
  83   2.0000      -0.356768        -9.7081
  84   2.0000      -0.348675        -9.4879
  85   2.0000      -0.337841        -9.1931
  86   2.0000      -0.326974        -8.8974
  87   2.0000      -0.317871        -8.6497
  88   2.0000      -0.311225        -8.4689
  89   2.0000      -0.308620        -8.3980
  90   2.0000      -0.304041        -8.2734
  91   2.0000      -0.294953        -8.0261
  92   2.0000      -0.286659        -7.8004
  93   2.0000      -0.280029        -7.6200
  94   2.0000      -0.272494        -7.4149
  95   2.0000      -0.246356        -6.7037
  96   2.0000      -0.232367        -6.3230
  97   2.0000      -0.226819        -6.1721
  98   2.0000      -0.217402        -5.9158
  99   2.0000      -0.214584        -5.8391
 100   2.0000      -0.211167        -5.7461
 101   0.0000      -0.044993        -1.2243
 102   0.0000      -0.022429        -0.6103
 103   0.0000      -0.000744        -0.0203
 104   0.0000       0.001001         0.0272
 105   0.0000       0.015430         0.4199

MULLIKEN ATOMIC CHARGES
-----------------------
   0 C :   -0.441796
   1 C :   -0.153767
   2 O :   -0.254204
   3 P :    0.683511
   4 S :   -0.492320
   5 O :   -0.289586
   6 C :   -0.153237
   7 C :   -0.440217
   8 S :   -0.124561
   9 C :   -0.230565
  10 S :   -0.181777
  11 P :    0.656710
  12 S :   -0.445538
  13 O :   -0.253215
  14 C :   -0.096900
  15 C :   -0.485356
  16 O :   -0.288726
  17 C :   -0.165885
  18 C :   -0.440456
  19 H :    0.148063
  20 H :    0.171218
  21 H :    0.155440
  22 H :    0.145697
  23 H :    0.177371
  24 H :    0.170888
  25 H :    0.153642
  26 H :    0.154835
  27 H :    0.154142
  28 H :    0.148059
  29 H :    0.213518
  30 H :    0.216694
  31 H :    0.154621
  32 H :    0.169554
  33 H :    0.165641
  34 H :    0.143921
  35 H :    0.160286
  36 H :    0.150460
  37 H :    0.173958
  38 H :    0.168029
  39 H :    0.153511
  40 H :    0.148341
Sum of atomic charges:    0.0000000

LOEWDIN ATOMIC CHARGES
----------------------
   0 C :   -0.399484
   1 C :    0.015839
   2 O :   -0.676882
   3 P :    0.373735
   4 S :   -0.138545
   5 O :   -0.663513
   6 C :    0.021690
   7 C :   -0.385454
   8 S :    0.179090
   9 C :   -0.424937
  10 S :    0.135757
  11 P :    0.379012
  12 S :   -0.105302
  13 O :   -0.648388
  14 C :    0.020326
  15 C :   -0.392381
  16 O :   -0.669828
  17 C :    0.022838
  18 C :   -0.402567
  19 H :    0.159970
  20 H :    0.166526
  21 H :    0.160455
  22 H :    0.177212
  23 H :    0.182445
  24 H :    0.180937
  25 H :    0.172973
  26 H :    0.160366
  27 H :    0.159742
  28 H :    0.160577
  29 H :    0.191641
  30 H :    0.192825
  31 H :    0.175617
  32 H :    0.186816
  33 H :    0.165425
  34 H :    0.157776
  35 H :    0.163036
  36 H :    0.179150
  37 H :    0.182646
  38 H :    0.164580
  39 H :    0.158051
  40 H :    0.160227

  Mayer bond orders larger than 0.100000
B(  0-C ,  1-C ) :   0.9247 B(  0-C , 19-H ) :   0.9623 B(  0-C , 20-H ) :   0.9591
B(  0-C , 21-H ) :   0.9717 B(  1-C ,  2-O ) :   0.7765 B(  1-C , 22-H ) :   0.9610
B(  1-C , 23-H ) :   0.9621 B(  2-O ,  3-P ) :   1.1449 B(  3-P ,  4-S ) :   1.7347
B(  3-P ,  5-O ) :   1.0945 B(  3-P ,  8-S ) :   1.0864 B(  5-O ,  6-C ) :   0.7769
B(  6-C ,  7-C ) :   0.9575 B(  6-C , 24-H ) :   0.9522 B(  6-C , 25-H ) :   0.9458
B(  7-C , 26-H ) :   0.9715 B(  7-C , 27-H ) :   0.9712 B(  7-C , 28-H ) :   0.9642
B(  8-S ,  9-C ) :   0.9166 B(  9-C , 10-S ) :   0.9087 B(  9-C , 29-H ) :   0.9062
B(  9-C , 30-H ) :   0.9042 B( 10-S , 11-P ) :   0.9884 B( 11-P , 12-S ) :   1.8552
B( 11-P , 13-O ) :   1.1517 B( 11-P , 16-O ) :   1.0411 B( 13-O , 14-C ) :   0.7337
B( 14-C , 15-C ) :   0.9290 B( 14-C , 31-H ) :   0.9704 B( 14-C , 32-H ) :   0.9539
B( 15-C , 33-H ) :   0.9707 B( 15-C , 34-H ) :   0.9663 B( 15-C , 35-H ) :   0.9737
B( 16-O , 17-C ) :   0.7760 B( 17-C , 18-C ) :   0.9430 B( 17-C , 36-H ) :   0.9647
B( 17-C , 37-H ) :   0.9606 B( 18-C , 38-H ) :   0.9558 B( 18-C , 39-H ) :   0.9749
B( 18-C , 40-H ) :   0.9633

Dispersion correction           -0.021133621
FINAL SINGLE POINT ENERGY     -2932.464624810554

DIPOLE MOMENT
-------------

Method             : SCF
Type of density    : Electron Density
Multiplicity       :   1
Irrep              :   0
Energy             : -2932.4899239338483312 Eh
Relativity type    :
Basis              : AO
                                X                 Y                 Z
Electronic contribution:     -4.407196030      -1.555370975     -19.163564169
Nuclear contribution   :      4.644636531       1.603571044      20.888695121
                        -----------------------------------------
Total Dipole Moment    :      0.237440501       0.048200069       1.725130952
                        -----------------------------------------
Magnitude (a.u.)       :      1.742061434
Magnitude (Debye)      :      4.427968269

Rotational constants in cm-1:             0.012922             0.004604             0.004423
Rotational constants in MHz :           387.389216           138.037461           132.600049

                             ****ORCA TERMINATED NORMALLY****
TOTAL RUN TIME: 0 days 0 hours 1 minutes 22 seconds 400 msec
