                         Program Version 6.0.0  -   RELEASE  -
|  1> ! r2scan-3c def2/J RI DEFGRID2 scfconv6 printgap
|  2> %output
|  3>     printlevel normal
|  4> end
|  5> %cpcm
|  6>     smd true
|  7>     smdsolvent "water"
|  8> end
|  9> * xyz 0 1
| 10> C 2.9013270871 -0.530576177 3.2227550921
| 11> C 1.5443049854 -0.7517858646 2.5901910971
| 12> O 1.3853003628 0.0370734515 1.3891523167
| 13> P 2.2115052005 -0.2777927325 0.0786510514
| 14> S 2.7409230878 -2.1478179597 -0.1992860033
| 15> O 3.4044278634 0.7615703019 0.193243919
| 16> C 4.5024126217 0.7707339719 -0.7410669231
| 17> C 5.6709766546 1.4732288068 -0.0793904165
| 18> S 0.976131456 0.5619559217 -1.4210891926
| 19> C -0.0531984623 -0.9124102068 -1.6619432153
| 20> S -1.13669347 -1.2519444079 -0.2581058288
| 21> P -2.4038160673 0.4485091778 -0.536831527
| 22> S -2.7938008413 0.879179451 -2.4019731087
| 23> O -1.7078837793 1.6391188603 0.2221536399
| 24> C -1.4344167684 1.6247050466 1.6451090315
| 25> C -2.4820829977 2.4224079639 2.3927646687
| 26> O -3.6623605589 0.1451859794 0.3828447454
| 27> C -4.7188446243 -0.750170995 -0.017646725
| 28> C -4.4918355946 -2.1475975115 0.5247122014
| 29> H 2.9539815241 -1.0706202616 4.1628299486
| 30> H 3.6807896684 -0.90093182 2.5577967774
| 31> H 3.0654993506 0.5287057642 3.4010501869
| 32> H 0.7341707529 -0.4132054773 3.2368693312
| 33> H 1.4007831179 -1.8059902398 2.3332217835
| 34> H 4.7500828034 -0.2643201431 -1.0002446437
| 35> H 4.17773751 1.2967958634 -1.6428603863
| 36> H 5.3811758907 2.4790294789 0.2103186208
| 37> H 5.9847732397 0.9276574045 0.805983046
| 38> H 6.4979708938 1.5246221099 -0.779859779
| 39> H 0.5870614849 -1.7858662767 -1.7874696998
| 40> H -0.6601091437 -0.7282285477 -2.5487273003
| 41> H -1.4041847082 0.5867726581 1.9878505741
| 42> H -0.4423347546 2.0712880384 1.7398355483
| 43> H -3.4576693633 1.9565883292 2.282251229
| 44> H -2.2175727313 2.4598441468 3.4448817064
| 45> H -2.529421545 3.433444399 1.9976965271
| 46> H -5.6244595609 -0.3071812605 0.4008250936
| 47> H -4.7863876435 -0.7489467788 -1.1101765726
| 48> H -3.591944132 -2.5844553958 0.0980602098
| 49> H -4.3861742083 -2.1157004381 1.6053664084
| 50> H -5.3436135006 -2.7686703027 0.2668508752
| 51> *
| 52>
| 53>                          ****END OF INPUT****

CARTESIAN COORDINATES (ANGSTROEM)
---------------------------------
  C      2.901327   -0.530576    3.222755
  C      1.544305   -0.751786    2.590191
  O      1.385300    0.037073    1.389152
  P      2.211505   -0.277793    0.078651
  S      2.740923   -2.147818   -0.199286
  O      3.404428    0.761570    0.193244
  C      4.502413    0.770734   -0.741067
  C      5.670977    1.473229   -0.079390
  S      0.976131    0.561956   -1.421089
  C     -0.053198   -0.912410   -1.661943
  S     -1.136693   -1.251944   -0.258106
  P     -2.403816    0.448509   -0.536832
  S     -2.793801    0.879179   -2.401973
  O     -1.707884    1.639119    0.222154
  C     -1.434417    1.624705    1.645109
  C     -2.482083    2.422408    2.392765
  O     -3.662361    0.145186    0.382845
  C     -4.718845   -0.750171   -0.017647
  C     -4.491836   -2.147598    0.524712
  H      2.953982   -1.070620    4.162830
  H      3.680790   -0.900932    2.557797
  H      3.065499    0.528706    3.401050
  H      0.734171   -0.413205    3.236869
  H      1.400783   -1.805990    2.333222
  H      4.750083   -0.264320   -1.000245
  H      4.177738    1.296796   -1.642860
  H      5.381176    2.479029    0.210319
  H      5.984773    0.927657    0.805983
  H      6.497971    1.524622   -0.779860
  H      0.587061   -1.785866   -1.787470
  H     -0.660109   -0.728229   -2.548727
  H     -1.404185    0.586773    1.987851
  H     -0.442335    2.071288    1.739836
  H     -3.457669    1.956588    2.282251
  H     -2.217573    2.459844    3.444882
  H     -2.529422    3.433444    1.997697
  H     -5.624460   -0.307181    0.400825
  H     -4.786388   -0.748947   -1.110177
  H     -3.591944   -2.584455    0.098060
  H     -4.386174   -2.115700    1.605366
  H     -5.343614   -2.768670    0.266851

 Total Charge           Charge          ....    0
 Multiplicity           Mult            ....    1
 Number of Electrons    NEL             ....  202
 Basis Dimension        Dim             ....  539

ORBITAL ENERGIES
----------------

  NO   OCC          E(Eh)            E(eV)
   0   2.0000     -88.579391     -2410.3678
   1   2.0000     -88.577363     -2410.3126
   2   2.0000     -88.530179     -2409.0287
   3   2.0000     -88.528972     -2408.9958
   4   2.0000     -76.920756     -2093.1202
   5   2.0000     -76.919342     -2093.0817
   6   2.0000     -18.997534      -516.9492
   7   2.0000     -18.996820      -516.9297
   8   2.0000     -18.994700      -516.8721
   9   2.0000     -18.994127      -516.8565
  10   2.0000     -10.103092      -274.9191
  11   2.0000     -10.091691      -274.6089
  12   2.0000     -10.091266      -274.5973
  13   2.0000     -10.090791      -274.5844
  14   2.0000     -10.089918      -274.5606
  15   2.0000     -10.019859      -272.6542
  16   2.0000     -10.018905      -272.6283
  17   2.0000     -10.018471      -272.6164
  18   2.0000     -10.018469      -272.6164
  19   2.0000      -7.873601      -214.2516
  20   2.0000      -7.871674      -214.1991
  21   2.0000      -7.825394      -212.9398
  22   2.0000      -7.824077      -212.9040
  23   2.0000      -6.599252      -179.5748
  24   2.0000      -6.598085      -179.5430
  25   2.0000      -5.820404      -158.3813
  26   2.0000      -5.818444      -158.3279
  27   2.0000      -5.817495      -158.3021
  28   2.0000      -5.815534      -158.2487
  29   2.0000      -5.810799      -158.1199
  30   2.0000      -5.808895      -158.0681
  31   2.0000      -5.772984      -157.0909
  32   2.0000      -5.771566      -157.0523
  33   2.0000      -5.765574      -156.8893
  34   2.0000      -5.765461      -156.8862
  35   2.0000      -5.764361      -156.8562
  36   2.0000      -5.764167      -156.8510
  37   2.0000      -4.745063      -129.1197
  38   2.0000      -4.744139      -129.0946
  39   2.0000      -4.743397      -129.0744
  40   2.0000      -4.743012      -129.0639
  41   2.0000      -4.742791      -129.0579
  42   2.0000      -4.741989      -129.0361
  43   2.0000      -1.055431       -28.7197
  44   2.0000      -1.053927       -28.6788
  45   2.0000      -1.014394       -27.6031
  46   2.0000      -1.013533       -27.5796
  47   2.0000      -0.804509       -21.8918
  48   2.0000      -0.757009       -20.5993
  49   2.0000      -0.745636       -20.2898
  50   2.0000      -0.726646       -19.7731
  51   2.0000      -0.724830       -19.7236
  52   2.0000      -0.710021       -19.3207
  53   2.0000      -0.688523       -18.7357
  54   2.0000      -0.674795       -18.3621
  55   2.0000      -0.629269       -17.1233
  56   2.0000      -0.620217       -16.8770
  57   2.0000      -0.601867       -16.3776
  58   2.0000      -0.593544       -16.1512
  59   2.0000      -0.590502       -16.0684
  60   2.0000      -0.529963       -14.4210
  61   2.0000      -0.521220       -14.1831
  62   2.0000      -0.497462       -13.5366
  63   2.0000      -0.494588       -13.4584
  64   2.0000      -0.477160       -12.9842
  65   2.0000      -0.463433       -12.6107
  66   2.0000      -0.453825       -12.3492
  67   2.0000      -0.445542       -12.1238
  68   2.0000      -0.443990       -12.0816
  69   2.0000      -0.430026       -11.7016
  70   2.0000      -0.419028       -11.4023
  71   2.0000      -0.411464       -11.1965
  72   2.0000      -0.404084       -10.9957
  73   2.0000      -0.400930       -10.9099
  74   2.0000      -0.396155       -10.7799
  75   2.0000      -0.384971       -10.4756
  76   2.0000      -0.381464       -10.3802
  77   2.0000      -0.370896       -10.0926
  78   2.0000      -0.363725        -9.8975
  79   2.0000      -0.363478        -9.8907
  80   2.0000      -0.355156        -9.6643
  81   2.0000      -0.353530        -9.6200
  82   2.0000      -0.352326        -9.5873
  83   2.0000      -0.349008        -9.4970
  84   2.0000      -0.343808        -9.3555
  85   2.0000      -0.333660        -9.0793
  86   2.0000      -0.323100        -8.7920
  87   2.0000      -0.313187        -8.5222
  88   2.0000      -0.306713        -8.3461
  89   2.0000      -0.303248        -8.2518
  90   2.0000      -0.299633        -8.1534
  91   2.0000      -0.292360        -7.9555
  92   2.0000      -0.285140        -7.7590
  93   2.0000      -0.279625        -7.6090
  94   2.0000      -0.274840        -7.4788
  95   2.0000      -0.251879        -6.8540
  96   2.0000      -0.240746        -6.5510
  97   2.0000      -0.235936        -6.4201
  98   2.0000      -0.227336        -6.1861
  99   2.0000      -0.223391        -6.0788
 100   2.0000      -0.220665        -6.0046
 101   0.0000      -0.051511        -1.4017
 102   0.0000      -0.030043        -0.8175
 103   0.0000      -0.006610        -0.1799
 104   0.0000      -0.003490        -0.0950
 105   0.0000       0.014250         0.3877

MULLIKEN ATOMIC CHARGES
-----------------------
   0 C :   -0.483851
   1 C :   -0.147248
   2 O :   -0.276605
   3 P :    0.715936
   4 S :   -0.534423
   5 O :   -0.314384
   6 C :   -0.145142
   7 C :   -0.482737
   8 S :   -0.152625
   9 C :   -0.238968
  10 S :   -0.178589
  11 P :    0.670088
  12 S :   -0.503169
  13 O :   -0.285047
  14 C :   -0.084956
  15 C :   -0.530600
  16 O :   -0.305908
  17 C :   -0.153513
  18 C :   -0.472157
  19 H :    0.173222
  20 H :    0.168392
  21 H :    0.170643
  22 H :    0.180541
  23 H :    0.177798
  24 H :    0.172484
  25 H :    0.172311
  26 H :    0.166390
  27 H :    0.166258
  28 H :    0.169863
  29 H :    0.233239
  30 H :    0.231950
  31 H :    0.176323
  32 H :    0.181140
  33 H :    0.170373
  34 H :    0.171512
  35 H :    0.168954
  36 H :    0.176285
  37 H :    0.172256
  38 H :    0.161575
  39 H :    0.171514
  40 H :    0.170874
Sum of atomic charges:    0.0000000

LOEWDIN ATOMIC CHARGES
----------------------
   0 C :   -0.402724
   1 C :    0.022251
   2 O :   -0.684334
   3 P :    0.378294
   4 S :   -0.164753
   5 O :   -0.674995
   6 C :    0.026084
   7 C :   -0.389069
   8 S :    0.160933
   9 C :   -0.421231
  10 S :    0.142315
  11 P :    0.381303
  12 S :   -0.149953
  13 O :   -0.671933
  14 C :    0.026894
  15 C :   -0.394322
  16 O :   -0.673182
  17 C :    0.028711
  18 C :   -0.403934
  19 H :    0.169355
  20 H :    0.162851
  21 H :    0.164321
  22 H :    0.191269
  23 H :    0.182589
  24 H :    0.181972
  25 H :    0.180274
  26 H :    0.163478
  27 H :    0.162678
  28 H :    0.169061
  29 H :    0.197216
  30 H :    0.196923
  31 H :    0.184391
  32 H :    0.191972
  33 H :    0.165496
  34 H :    0.169160
  35 H :    0.164431
  36 H :    0.190208
  37 H :    0.182439
  38 H :    0.161022
  39 H :    0.163763
  40 H :    0.168777

  Mayer bond orders larger than 0.100000
B(  0-C ,  1-C ) :   0.9117 B(  0-C , 19-H ) :   0.9562 B(  0-C , 20-H ) :   0.9591
B(  0-C , 21-H ) :   0.9710 B(  1-C ,  2-O ) :   0.7638 B(  1-C , 22-H ) :   0.9503
B(  1-C , 23-H ) :   0.9587 B(  2-O ,  3-P ) :   1.1561 B(  3-P ,  4-S ) :   1.7023
B(  3-P ,  5-O ) :   1.1023 B(  3-P ,  8-S ) :   1.0919 B(  5-O ,  6-C ) :   0.7693
B(  6-C ,  7-C ) :   0.9531 B(  6-C , 24-H ) :   0.9489 B(  6-C , 25-H ) :   0.9374
B(  7-C , 26-H ) :   0.9689 B(  7-C , 27-H ) :   0.9685 B(  7-C , 28-H ) :   0.9584
B(  8-S ,  9-C ) :   0.9034 B(  9-C , 10-S ) :   0.8998 B(  9-C , 29-H ) :   0.9028
B(  9-C , 30-H ) :   0.9005 B( 10-S , 11-P ) :   1.0019 B( 11-P , 12-S ) :   1.8257
B( 11-P , 13-O ) :   1.1588 B( 11-P , 16-O ) :   1.0558 B( 13-O , 14-C ) :   0.7204
B( 14-C , 15-C ) :   0.9255 B( 14-C , 31-H ) :   0.9570 B( 14-C , 32-H ) :   0.9456
B( 15-C , 33-H ) :   0.9697 B( 15-C , 34-H ) :   0.9588 B( 15-C , 35-H ) :   0.9724
B( 16-O , 17-C ) :   0.7655 B( 17-C , 18-C ) :   0.9408 B( 17-C , 36-H ) :   0.9541
B( 17-C , 37-H ) :   0.9577 B( 18-C , 38-H ) :   0.9561 B( 18-C , 39-H ) :   0.9716
B( 18-C , 40-H ) :   0.9581

Dispersion correction           -0.021133621
FINAL SINGLE POINT ENERGY     -2932.474360014493

DIPOLE MOMENT
-------------

Method             : SCF
Type of density    : Electron Density
Multiplicity       :   1
Irrep              :   0
Energy             : -2932.4996591377866935 Eh
Relativity type    :
Basis              : AO
                                X                 Y                 Z
Electronic contribution:     -4.408296012      -1.773504660     -18.481410530
Nuclear contribution   :      4.644636531       1.603571044      20.888695121
                        -----------------------------------------
Total Dipole Moment    :      0.236340519      -0.169933616       2.407284591
                        -----------------------------------------
Magnitude (a.u.)       :      2.424820277
Magnitude (Debye)      :      6.163403331

Rotational constants in cm-1:             0.012922             0.004604             0.004423
Rotational constants in MHz :           387.389216           138.037461           132.600049

                             ****ORCA TERMINATED NORMALLY****
TOTAL RUN TIME: 0 days 0 hours 1 minutes 47 seconds 283 msec
