                         Program Version 6.0.0  -   RELEASE  -
|  1> ! pbe def2-sv(p) def2/J RI DEFGRID1 loosescf d4 GCP(DFT/SV(P)) printgap
|  2> %output
|  3>     printlevel normal
|  4> end
|  5> * xyz 0 1
|  6> C 3.1403738342 -1.1870977032 -2.4520103868
|  7> C 3.2293039003 0.3157372814 -2.2955838525
|  8> O 2.234667943 0.8366379962 -1.3823524853
|  9> P 2.1160995686 0.4845624585 0.1473566754
| 10> S 1.1686805413 1.856161127 1.1738849767
| 11> O 3.6566872617 0.3364475237 0.539235947
| 12> C 4.1424233539 0.4382314436 1.8877993795
| 13> C 3.6365727614 -0.6792141045 2.7773849379
| 14> S 1.330585807 -1.4994640546 0.3043426825
| 15> C 0.0186171727 -1.233410778 1.5348925958
| 16> S -1.6333012938 -1.7893592994 1.0076091249
| 17> P -2.1970491229 -0.3120472068 -0.3870394136
| 18> S -0.8435334243 0.5039953668 -1.5596248614
| 19> O -3.106309504 0.7468465459 0.3839845125
| 20> C -2.6309430298 1.9443542215 1.0152738947
| 21> C -2.4896579766 1.7490507111 2.5119039003
| 22> O -3.2871015456 -1.199060062 -1.1068335117
| 23> C -3.7784917752 -0.8960477937 -2.4277247549
| 24> C -4.6360640472 0.352388947 -2.4419627443
| 25> H 3.3930652888 -1.6808280565 -1.5147390689
| 26> H 2.1314427204 -1.475342259 -2.7383081956
| 27> H 3.8363598349 -1.5070443515 -3.2211500413
| 28> H 2.9975481949 0.8313599163 -3.2289843021
| 29> H 4.2151417544 0.6164302189 -1.9346430013
| 30> H 5.2268390863 0.4011368893 1.7731471029
| 31> H 3.8441586261 1.4120263073 2.2886204465
| 32> H 4.1507658251 -0.6336070522 3.7320112595
| 33> H 2.5677640766 -0.561775388 2.9481776196
| 34> H 3.8188347379 -1.6456324588 2.3145585901
| 35> H 0.0035305627 -0.1675558528 1.7830674693
| 36> H 0.2436880397 -1.8423276697 2.4067549052
| 37> H -1.6790313195 2.2433177335 0.562366044
| 38> H -3.3869757207 2.6990932275 0.7899723624
| 39> H -3.4247423739 1.385601924 2.9283467198
| 40> H -1.7021069681 1.0330141254 2.7346219961
| 41> H -2.2301520721 2.6986755641 2.9685320568
| 42> H -2.9205660971 -0.782534042 -3.0984832546
| 43> H -4.3503521136 -1.7836789256 -2.7018372184
| 44> H -5.0755502607 0.476046525 -3.4268703882
| 45> H -5.4249331382 0.2733434557 -1.6987153703
| 46> H -4.0240108688 1.2242333199 -2.2147689321
| 47> *
| 48>
| 49>                          ****END OF INPUT****

CARTESIAN COORDINATES (ANGSTROEM)
---------------------------------
  C      3.140374   -1.187098   -2.452010
  C      3.229304    0.315737   -2.295584
  O      2.234668    0.836638   -1.382352
  P      2.116100    0.484562    0.147357
  S      1.168681    1.856161    1.173885
  O      3.656687    0.336448    0.539236
  C      4.142423    0.438231    1.887799
  C      3.636573   -0.679214    2.777385
  S      1.330586   -1.499464    0.304343
  C      0.018617   -1.233411    1.534893
  S     -1.633301   -1.789359    1.007609
  P     -2.197049   -0.312047   -0.387039
  S     -0.843533    0.503995   -1.559625
  O     -3.106310    0.746847    0.383985
  C     -2.630943    1.944354    1.015274
  C     -2.489658    1.749051    2.511904
  O     -3.287102   -1.199060   -1.106834
  C     -3.778492   -0.896048   -2.427725
  C     -4.636064    0.352389   -2.441963
  H      3.393065   -1.680828   -1.514739
  H      2.131443   -1.475342   -2.738308
  H      3.836360   -1.507044   -3.221150
  H      2.997548    0.831360   -3.228984
  H      4.215142    0.616430   -1.934643
  H      5.226839    0.401137    1.773147
  H      3.844159    1.412026    2.288620
  H      4.150766   -0.633607    3.732011
  H      2.567764   -0.561775    2.948178
  H      3.818835   -1.645632    2.314559
  H      0.003531   -0.167556    1.783067
  H      0.243688   -1.842328    2.406755
  H     -1.679031    2.243318    0.562366
  H     -3.386976    2.699093    0.789972
  H     -3.424742    1.385602    2.928347
  H     -1.702107    1.033014    2.734622
  H     -2.230152    2.698676    2.968532
  H     -2.920566   -0.782534   -3.098483
  H     -4.350352   -1.783679   -2.701837
  H     -5.075550    0.476047   -3.426870
  H     -5.424933    0.273343   -1.698715
  H     -4.024011    1.224233   -2.214769

 Total Charge           Charge          ....    0
 Multiplicity           Mult            ....    1
 Number of Electrons    NEL             ....  202
 Basis Dimension        Dim             ....  334

ORBITAL ENERGIES
----------------

  NO   OCC          E(Eh)            E(eV)
   0   2.0000     -88.038229     -2395.6420
   1   2.0000     -88.037361     -2395.6184
   2   2.0000     -87.986824     -2394.2432
   3   2.0000     -87.978927     -2394.0283
   4   2.0000     -76.427033     -2079.6853
   5   2.0000     -76.418166     -2079.4440
   6   2.0000     -18.790010      -511.3022
   7   2.0000     -18.789494      -511.2881
   8   2.0000     -18.782509      -511.0980
   9   2.0000     -18.779832      -511.0252
  10   2.0000      -9.955434      -270.9011
  11   2.0000      -9.953965      -270.8612
  12   2.0000      -9.953484      -270.8481
  13   2.0000      -9.947822      -270.6940
  14   2.0000      -9.941548      -270.5233
  15   2.0000      -9.887344      -269.0483
  16   2.0000      -9.887027      -269.0397
  17   2.0000      -9.879202      -268.8268
  18   2.0000      -9.878281      -268.8017
  19   2.0000      -7.682914      -209.0627
  20   2.0000      -7.682683      -209.0564
  21   2.0000      -7.631814      -207.6722
  22   2.0000      -7.623458      -207.4448
  23   2.0000      -6.423899      -174.8032
  24   2.0000      -6.415853      -174.5842
  25   2.0000      -5.710820      -155.3993
  26   2.0000      -5.710682      -155.3956
  27   2.0000      -5.707483      -155.3085
  28   2.0000      -5.707358      -155.3051
  29   2.0000      -5.699694      -155.0966
  30   2.0000      -5.699501      -155.0913
  31   2.0000      -5.660653      -154.0342
  32   2.0000      -5.652504      -153.8125
  33   2.0000      -5.652320      -153.8074
  34   2.0000      -5.651882      -153.7955
  35   2.0000      -5.644387      -153.5916
  36   2.0000      -5.643449      -153.5660
  37   2.0000      -4.646859      -126.4475
  38   2.0000      -4.645329      -126.4058
  39   2.0000      -4.644448      -126.3819
  40   2.0000      -4.638259      -126.2134
  41   2.0000      -4.637626      -126.1962
  42   2.0000      -4.636416      -126.1633
  43   2.0000      -0.986724       -26.8501
  44   2.0000      -0.978162       -26.6171
  45   2.0000      -0.941598       -25.6222
  46   2.0000      -0.936496       -25.4834
  47   2.0000      -0.756449       -20.5840
  48   2.0000      -0.718594       -19.5539
  49   2.0000      -0.707005       -19.2386
  50   2.0000      -0.691100       -18.8058
  51   2.0000      -0.681348       -18.5404
  52   2.0000      -0.673266       -18.3205
  53   2.0000      -0.648433       -17.6448
  54   2.0000      -0.631137       -17.1741
  55   2.0000      -0.600101       -16.3296
  56   2.0000      -0.590428       -16.0664
  57   2.0000      -0.580234       -15.7890
  58   2.0000      -0.564526       -15.3615
  59   2.0000      -0.556035       -15.1305
  60   2.0000      -0.495581       -13.4855
  61   2.0000      -0.488553       -13.2942
  62   2.0000      -0.468830       -12.7575
  63   2.0000      -0.468743       -12.7552
  64   2.0000      -0.452172       -12.3042
  65   2.0000      -0.448827       -12.2132
  66   2.0000      -0.442701       -12.0465
  67   2.0000      -0.430208       -11.7066
  68   2.0000      -0.426031       -11.5929
  69   2.0000      -0.421127       -11.4594
  70   2.0000      -0.400938       -10.9101
  71   2.0000      -0.391824       -10.6621
  72   2.0000      -0.390041       -10.6136
  73   2.0000      -0.386576       -10.5193
  74   2.0000      -0.381365       -10.3775
  75   2.0000      -0.371768       -10.1163
  76   2.0000      -0.366168        -9.9639
  77   2.0000      -0.355841        -9.6829
  78   2.0000      -0.352394        -9.5891
  79   2.0000      -0.351098        -9.5539
  80   2.0000      -0.344559        -9.3759
  81   2.0000      -0.342598        -9.3226
  82   2.0000      -0.338628        -9.2145
  83   2.0000      -0.333428        -9.0730
  84   2.0000      -0.328250        -8.9321
  85   2.0000      -0.312705        -8.5091
  86   2.0000      -0.310129        -8.4390
  87   2.0000      -0.296791        -8.0761
  88   2.0000      -0.294138        -8.0039
  89   2.0000      -0.285205        -7.7608
  90   2.0000      -0.279284        -7.5997
  91   2.0000      -0.273028        -7.4295
  92   2.0000      -0.266857        -7.2616
  93   2.0000      -0.260453        -7.0873
  94   2.0000      -0.253486        -6.8977
  95   2.0000      -0.230864        -6.2821
  96   2.0000      -0.220122        -5.9898
  97   2.0000      -0.211330        -5.7506
  98   2.0000      -0.200019        -5.4428
  99   2.0000      -0.187951        -5.1144
 100   2.0000      -0.185473        -5.0470
 101   0.0000      -0.038938        -1.0595
 102   0.0000      -0.034786        -0.9466
 103   0.0000      -0.015700        -0.4272
 104   0.0000       0.011989         0.3262
 105   0.0000       0.012373         0.3367

MULLIKEN ATOMIC CHARGES
-----------------------
   0 C :   -0.335480
   1 C :    0.007542
   2 O :   -0.354739
   3 P :    0.627933
   4 S :   -0.313005
   5 O :   -0.387637
   6 C :    0.005724
   7 C :   -0.321403
   8 S :   -0.093206
   9 C :   -0.385671
  10 S :   -0.085938
  11 P :    0.626096
  12 S :   -0.319543
  13 O :   -0.373843
  14 C :   -0.021292
  15 C :   -0.297072
  16 O :   -0.377956
  17 C :    0.000187
  18 C :   -0.306096
  19 H :    0.126762
  20 H :    0.139566
  21 H :    0.115975
  22 H :    0.112694
  23 H :    0.109136
  24 H :    0.102887
  25 H :    0.111585
  26 H :    0.112835
  27 H :    0.121667
  28 H :    0.120533
  29 H :    0.212551
  30 H :    0.182744
  31 H :    0.129232
  32 H :    0.099599
  33 H :    0.111987
  34 H :    0.121546
  35 H :    0.110072
  36 H :    0.109321
  37 H :    0.104418
  38 H :    0.109537
  39 H :    0.116815
  40 H :    0.123939
Sum of atomic charges:    0.0000000

LOEWDIN ATOMIC CHARGES
----------------------
   0 C :   -0.371569
   1 C :   -0.106892
   2 O :   -0.227754
   3 P :    0.583190
   4 S :   -0.296885
   5 O :   -0.253723
   6 C :   -0.116061
   7 C :   -0.370578
   8 S :    0.079841
   9 C :   -0.488434
  10 S :    0.083468
  11 P :    0.562192
  12 S :   -0.309047
  13 O :   -0.246929
  14 C :   -0.122545
  15 C :   -0.357491
  16 O :   -0.246275
  17 C :   -0.113904
  18 C :   -0.364740
  19 H :    0.116603
  20 H :    0.133476
  21 H :    0.132893
  22 H :    0.124278
  23 H :    0.113839
  24 H :    0.117848
  25 H :    0.111403
  26 H :    0.130732
  27 H :    0.119374
  28 H :    0.124570
  29 H :    0.115848
  30 H :    0.135017
  31 H :    0.108268
  32 H :    0.115890
  33 H :    0.124955
  34 H :    0.119696
  35 H :    0.130617
  36 H :    0.110210
  37 H :    0.118658
  38 H :    0.129115
  39 H :    0.126656
  40 H :    0.124189

  Mayer bond orders larger than 0.100000
B(  0-C ,  1-C ) :   1.1706 B(  0-C , 19-H ) :   0.9321 B(  0-C , 20-H ) :   0.9399
B(  0-C , 21-H ) :   0.9355 B(  1-C ,  2-O ) :   0.9003 B(  1-C , 22-H ) :   0.9324
B(  1-C , 23-H ) :   0.9265 B(  2-O ,  3-P ) :   1.1416 B(  3-P ,  4-S ) :   1.5946
B(  3-P ,  5-O ) :   1.0596 B(  3-P ,  8-S ) :   0.9483 B(  4-S ,  8-S ) :   0.1185
B(  4-S , 29-H ) :   0.1290 B(  5-O ,  6-C ) :   0.9173 B(  6-C ,  7-C ) :   1.1646
B(  6-C , 24-H ) :   0.9345 B(  6-C , 25-H ) :   0.9176 B(  7-C , 26-H ) :   0.9363
B(  7-C , 27-H ) :   0.9365 B(  7-C , 28-H ) :   0.9416 B(  8-S ,  9-C ) :   1.0028
B(  9-C , 10-S ) :   1.0012 B(  9-C , 29-H ) :   0.8254 B(  9-C , 30-H ) :   0.9056
B( 10-S , 11-P ) :   0.9523 B( 10-S , 12-S ) :   0.1165 B( 11-P , 12-S ) :   1.6275
B( 11-P , 13-O ) :   1.0930 B( 11-P , 16-O ) :   1.1263 B( 13-O , 14-C ) :   0.9129
B( 14-C , 15-C ) :   1.1675 B( 14-C , 31-H ) :   0.8997 B( 14-C , 32-H ) :   0.9337
B( 15-C , 33-H ) :   0.9447 B( 15-C , 34-H ) :   0.9392 B( 15-C , 35-H ) :   0.9400
B( 16-O , 17-C ) :   0.9098 B( 17-C , 18-C ) :   1.1639 B( 17-C , 36-H ) :   0.9158
B( 17-C , 37-H ) :   0.9355 B( 18-C , 38-H ) :   0.9386 B( 18-C , 39-H ) :   0.9463
B( 18-C , 40-H ) :   0.9377

Dispersion correction           -0.067219808
FINAL SINGLE POINT ENERGY     -2929.514645616050

DIPOLE MOMENT
-------------

Method             : SCF
Type of density    : Electron Density
Multiplicity       :   1
Irrep              :   0
Energy             : -2929.6322775120529514 Eh
Relativity type    :
Basis              : AO
                                X                 Y                 Z
Electronic contribution:     -1.485938959      -3.199641078      -1.437853692
Nuclear contribution   :      2.138277138       2.898655505       1.526076398
                        -----------------------------------------
Total Dipole Moment    :      0.652338178      -0.300985574       0.088222706
                        -----------------------------------------
Magnitude (a.u.)       :      0.723823639
Magnitude (Debye)      :      1.839813478

Rotational constants in cm-1:             0.012343             0.005341             0.004813
Rotational constants in MHz :           370.039110           160.132668           144.295075

                             ****ORCA TERMINATED NORMALLY****
TOTAL RUN TIME: 0 days 0 hours 0 minutes 21 seconds 328 msec
