                         Program Version 6.0.0  -   RELEASE  -
|  1> ! r2scan-3c def2/J RI DEFGRID2 scfconv6 printgap
|  2> %output
|  3>     printlevel normal
|  4> end
|  5> * xyz 0 1
|  6> C 2.6754493864 -2.9768311459 1.7546219337
|  7> C 1.403884983 -2.8407153729 0.9447594772
|  8> O 1.1579083213 -1.4747474478 0.5466300975
|  9> P 2.0921405731 -0.7233284071 -0.4884476928
| 10> S 2.8011024605 -1.8013053825 -1.9613518485
| 11> O 3.1937477772 -0.0819212059 0.4747890144
| 12> C 4.4520315509 0.3950186237 -0.0258863903
| 13> C 4.2962832032 1.6680136384 -0.8338319572
| 14> S 0.8096175064 0.8772046882 -1.0130564303
| 15> C 0.4511800879 1.5042904373 0.6567085364
| 16> S -0.8303274459 0.5709345382 1.5319783552
| 17> P -2.3617148758 0.8299311022 0.0782152948
| 18> S -2.4300378595 2.5645959154 -0.817881725
| 19> O -3.6817654863 0.3888875759 0.8512928031
| 20> C -4.4820330762 1.3123746925 1.6136666597
| 21> C -3.7424721198 1.8629737747 2.8153927824
| 22> O -2.1850574374 -0.3646803763 -0.9412025543
| 23> C -2.2058696792 -1.7554288914 -0.5376681937
| 24> C -1.5156944721 -2.5635644525 -1.6168572973
| 25> H 2.6640045663 -2.2839967674 2.5918315226
| 26> H 2.7552316323 -3.9933646152 2.1270483114
| 27> H 3.5397078638 -2.7621107664 1.127833684
| 28> H 0.522636953 -3.1019034488 1.5322915118
| 29> H 1.4515020866 -3.459400367 0.0431957103
| 30> H 5.0516344078 0.5565507993 0.8709968298
| 31> H 4.9017462655 -0.3924030718 -0.639354107
| 32> H 3.700242271 1.4715418673 -1.7250914985
| 33> H 3.8032705145 2.438577174 -0.2465471817
| 34> H 5.2757162622 2.022422276 -1.1387896892
| 35> H 0.1095803307 2.5285835098 0.5128664127
| 36> H 1.3474478797 1.4592612856 1.2701526007
| 37> H -4.7945529035 2.1238188337 0.9496242581
| 38> H -5.3482449378 0.7185895362 1.9090821512
| 39> H -3.3306744552 1.0529361779 3.4120672817
| 40> H -2.9294462116 2.5085406832 2.4872346643
| 41> H -4.4298795525 2.4448844223 3.4208829198
| 42> H -1.6924247181 -1.8472969182 0.4245748897
| 43> H -3.2496600844 -2.0522962673 -0.419638799
| 44> H -1.5428418762 -3.6155341828 -1.3515419982
| 45> H -2.0165778472 -2.4171737294 -2.5695289283
| 46> H -0.479021995 -2.2484293036 -1.725718125
| 47> *
| 48>
| 49>                          ****END OF INPUT****

CARTESIAN COORDINATES (ANGSTROEM)
---------------------------------
  C      2.675449   -2.976831    1.754622
  C      1.403885   -2.840715    0.944759
  O      1.157908   -1.474747    0.546630
  P      2.092141   -0.723328   -0.488448
  S      2.801102   -1.801305   -1.961352
  O      3.193748   -0.081921    0.474789
  C      4.452032    0.395019   -0.025886
  C      4.296283    1.668014   -0.833832
  S      0.809618    0.877205   -1.013056
  C      0.451180    1.504290    0.656709
  S     -0.830327    0.570935    1.531978
  P     -2.361715    0.829931    0.078215
  S     -2.430038    2.564596   -0.817882
  O     -3.681765    0.388888    0.851293
  C     -4.482033    1.312375    1.613667
  C     -3.742472    1.862974    2.815393
  O     -2.185057   -0.364680   -0.941203
  C     -2.205870   -1.755429   -0.537668
  C     -1.515694   -2.563564   -1.616857
  H      2.664005   -2.283997    2.591832
  H      2.755232   -3.993365    2.127048
  H      3.539708   -2.762111    1.127834
  H      0.522637   -3.101903    1.532292
  H      1.451502   -3.459400    0.043196
  H      5.051634    0.556551    0.870997
  H      4.901746   -0.392403   -0.639354
  H      3.700242    1.471542   -1.725091
  H      3.803271    2.438577   -0.246547
  H      5.275716    2.022422   -1.138790
  H      0.109580    2.528584    0.512866
  H      1.347448    1.459261    1.270153
  H     -4.794553    2.123819    0.949624
  H     -5.348245    0.718590    1.909082
  H     -3.330674    1.052936    3.412067
  H     -2.929446    2.508541    2.487235
  H     -4.429880    2.444884    3.420883
  H     -1.692425   -1.847297    0.424575
  H     -3.249660   -2.052296   -0.419639
  H     -1.542842   -3.615534   -1.351542
  H     -2.016578   -2.417174   -2.569529
  H     -0.479022   -2.248429   -1.725718

 Total Charge           Charge          ....    0
 Multiplicity           Mult            ....    1
 Number of Electrons    NEL             ....  202
 Basis Dimension        Dim             ....  539

ORBITAL ENERGIES
----------------

  NO   OCC          E(Eh)            E(eV)
   0   2.0000     -88.574348     -2410.2305
   1   2.0000     -88.572759     -2410.1873
   2   2.0000     -88.525222     -2408.8938
   3   2.0000     -88.519851     -2408.7476
   4   2.0000     -76.916139     -2092.9946
   5   2.0000     -76.912631     -2092.8991
   6   2.0000     -18.994828      -516.8756
   7   2.0000     -18.993837      -516.8486
   8   2.0000     -18.993333      -516.8349
   9   2.0000     -18.985455      -516.6205
  10   2.0000     -10.108989      -275.0796
  11   2.0000     -10.103837      -274.9394
  12   2.0000     -10.101143      -274.8661
  13   2.0000     -10.100210      -274.8407
  14   2.0000     -10.096289      -274.7340
  15   2.0000     -10.034156      -273.0433
  16   2.0000     -10.030707      -272.9494
  17   2.0000     -10.029780      -272.9242
  18   2.0000     -10.024887      -272.7910
  19   2.0000      -7.868258      -214.1062
  20   2.0000      -7.867403      -214.0829
  21   2.0000      -7.819776      -212.7869
  22   2.0000      -7.814563      -212.6451
  23   2.0000      -6.594625      -179.4489
  24   2.0000      -6.590998      -179.3502
  25   2.0000      -5.815657      -158.2521
  26   2.0000      -5.814275      -158.2145
  27   2.0000      -5.811863      -158.1488
  28   2.0000      -5.811232      -158.1317
  29   2.0000      -5.805156      -157.9663
  30   2.0000      -5.804485      -157.9481
  31   2.0000      -5.767381      -156.9384
  32   2.0000      -5.762263      -156.7991
  33   2.0000      -5.760143      -156.7415
  34   2.0000      -5.759769      -156.7313
  35   2.0000      -5.754832      -156.5969
  36   2.0000      -5.754536      -156.5889
  37   2.0000      -4.739981      -128.9814
  38   2.0000      -4.739707      -128.9740
  39   2.0000      -4.738340      -128.9368
  40   2.0000      -4.736858      -128.8965
  41   2.0000      -4.735883      -128.8699
  42   2.0000      -4.734492      -128.8321
  43   2.0000      -1.053519       -28.6677
  44   2.0000      -1.048715       -28.5370
  45   2.0000      -1.015060       -27.6212
  46   2.0000      -1.006820       -27.3970
  47   2.0000      -0.801416       -21.8076
  48   2.0000      -0.759369       -20.6635
  49   2.0000      -0.749795       -20.4030
  50   2.0000      -0.735258       -20.0074
  51   2.0000      -0.731993       -19.9185
  52   2.0000      -0.712558       -19.3897
  53   2.0000      -0.689789       -18.7701
  54   2.0000      -0.669440       -18.2164
  55   2.0000      -0.633881       -17.2488
  56   2.0000      -0.623510       -16.9666
  57   2.0000      -0.609731       -16.5916
  58   2.0000      -0.600381       -16.3372
  59   2.0000      -0.594201       -16.1690
  60   2.0000      -0.528768       -14.3885
  61   2.0000      -0.522015       -14.2048
  62   2.0000      -0.496734       -13.5168
  63   2.0000      -0.492534       -13.4025
  64   2.0000      -0.482420       -13.1273
  65   2.0000      -0.462781       -12.5929
  66   2.0000      -0.462067       -12.5735
  67   2.0000      -0.454627       -12.3710
  68   2.0000      -0.447017       -12.1640
  69   2.0000      -0.439756       -11.9664
  70   2.0000      -0.426676       -11.6104
  71   2.0000      -0.416064       -11.3217
  72   2.0000      -0.414265       -11.2727
  73   2.0000      -0.406335       -11.0570
  74   2.0000      -0.393893       -10.7184
  75   2.0000      -0.387338       -10.5400
  76   2.0000      -0.379839       -10.3359
  77   2.0000      -0.377537       -10.2733
  78   2.0000      -0.374524       -10.1913
  79   2.0000      -0.366997        -9.9865
  80   2.0000      -0.365332        -9.9412
  81   2.0000      -0.361053        -9.8247
  82   2.0000      -0.355405        -9.6711
  83   2.0000      -0.351883        -9.5752
  84   2.0000      -0.344382        -9.3711
  85   2.0000      -0.337104        -9.1731
  86   2.0000      -0.325497        -8.8572
  87   2.0000      -0.315111        -8.5746
  88   2.0000      -0.310907        -8.4602
  89   2.0000      -0.309903        -8.4329
  90   2.0000      -0.308704        -8.4003
  91   2.0000      -0.293123        -7.9763
  92   2.0000      -0.282280        -7.6812
  93   2.0000      -0.279200        -7.5974
  94   2.0000      -0.273484        -7.4419
  95   2.0000      -0.242366        -6.5951
  96   2.0000      -0.230174        -6.2634
  97   2.0000      -0.224195        -6.1006
  98   2.0000      -0.221831        -6.0363
  99   2.0000      -0.217179        -5.9097
 100   2.0000      -0.213016        -5.7965
 101   0.0000      -0.043788        -1.1915
 102   0.0000      -0.023474        -0.6387
 103   0.0000      -0.011241        -0.3059
 104   0.0000       0.002542         0.0692
 105   0.0000       0.007771         0.2115

MULLIKEN ATOMIC CHARGES
-----------------------
   0 C :   -0.446156
   1 C :   -0.163001
   2 O :   -0.252073
   3 P :    0.645897
   4 S :   -0.461783
   5 O :   -0.298783
   6 C :   -0.159996
   7 C :   -0.430168
   8 S :   -0.099710
   9 C :   -0.265799
  10 S :   -0.155089
  11 P :    0.657681
  12 S :   -0.437624
  13 O :   -0.290152
  14 C :   -0.164221
  15 C :   -0.447763
  16 O :   -0.261836
  17 C :   -0.110644
  18 C :   -0.463198
  19 H :    0.157740
  20 H :    0.148242
  21 H :    0.168166
  22 H :    0.152599
  23 H :    0.176949
  24 H :    0.147943
  25 H :    0.170781
  26 H :    0.175714
  27 H :    0.148292
  28 H :    0.148033
  29 H :    0.216880
  30 H :    0.199910
  31 H :    0.174918
  32 H :    0.147958
  33 H :    0.153099
  34 H :    0.179558
  35 H :    0.147842
  36 H :    0.155668
  37 H :    0.153736
  38 H :    0.141545
  39 H :    0.156389
  40 H :    0.182458
Sum of atomic charges:   -0.0000000

LOEWDIN ATOMIC CHARGES
----------------------
   0 C :   -0.397544
   1 C :    0.019022
   2 O :   -0.696621
   3 P :    0.367331
   4 S :   -0.112666
   5 O :   -0.686165
   6 C :    0.017075
   7 C :   -0.402273
   8 S :    0.197251
   9 C :   -0.414808
  10 S :    0.151439
  11 P :    0.373769
  12 S :   -0.096514
  13 O :   -0.666358
  14 C :    0.022063
  15 C :   -0.409702
  16 O :   -0.655335
  17 C :    0.021460
  18 C :   -0.388483
  19 H :    0.161764
  20 H :    0.159870
  21 H :    0.165641
  22 H :    0.179444
  23 H :    0.180936
  24 H :    0.178548
  25 H :    0.180241
  26 H :    0.167454
  27 H :    0.157298
  28 H :    0.159760
  29 H :    0.191739
  30 H :    0.189365
  31 H :    0.180292
  32 H :    0.179431
  33 H :    0.159555
  34 H :    0.166215
  35 H :    0.159216
  36 H :    0.175667
  37 H :    0.172856
  38 H :    0.158473
  39 H :    0.162915
  40 H :    0.170384

  Mayer bond orders larger than 0.100000
B(  0-C ,  1-C ) :   0.9256 B(  0-C , 19-H ) :   0.9735 B(  0-C , 20-H ) :   0.9604
B(  0-C , 21-H ) :   0.9617 B(  1-C ,  2-O ) :   0.7872 B(  1-C , 22-H ) :   0.9595
B(  1-C , 23-H ) :   0.9584 B(  2-O ,  3-P ) :   1.1204 B(  3-P ,  4-S ) :   1.8078
B(  3-P ,  5-O ) :   1.0138 B(  3-P ,  8-S ) :   1.0858 B(  5-O ,  6-C ) :   0.8098
B(  6-C ,  7-C ) :   0.9340 B(  6-C , 24-H ) :   0.9593 B(  6-C , 25-H ) :   0.9608
B(  7-C , 26-H ) :   0.9596 B(  7-C , 27-H ) :   0.9695 B(  7-C , 28-H ) :   0.9607
B(  8-S ,  9-C ) :   0.9074 B(  9-C , 10-S ) :   0.9119 B(  9-C , 29-H ) :   0.9147
B(  9-C , 30-H ) :   0.9163 B( 10-S , 11-P ) :   1.0030 B( 11-P , 12-S ) :   1.8319
B( 11-P , 13-O ) :   1.0344 B( 11-P , 16-O ) :   1.1673 B( 13-O , 14-C ) :   0.8201
B( 14-C , 15-C ) :   0.9160 B( 14-C , 31-H ) :   0.9705 B( 14-C , 32-H ) :   0.9614
B( 15-C , 33-H ) :   0.9673 B( 15-C , 34-H ) :   0.9640 B( 15-C , 35-H ) :   0.9563
B( 16-O , 17-C ) :   0.7340 B( 17-C , 18-C ) :   0.9320 B( 17-C , 36-H ) :   0.9582
B( 17-C , 37-H ) :   0.9422 B( 18-C , 38-H ) :   0.9676 B( 18-C , 39-H ) :   0.9665
B( 18-C , 40-H ) :   0.9656

Dispersion correction           -0.022081194
FINAL SINGLE POINT ENERGY     -2932.462033326854

DIPOLE MOMENT
-------------

Method             : SCF
Type of density    : Electron Density
Multiplicity       :   1
Irrep              :   0
Energy             : -2932.4863633905110873 Eh
Relativity type    :
Basis              : AO
                                X                 Y                 Z
Electronic contribution:     -4.928992982       7.817200178     -10.540550047
Nuclear contribution   :      5.189410331      -8.483095369      12.513917454
                        -----------------------------------------
Total Dipole Moment    :      0.260417349      -0.665895191       1.973367407
                        -----------------------------------------
Magnitude (a.u.)       :      2.098907459
Magnitude (Debye)      :      5.334998782

Rotational constants in cm-1:             0.012917             0.004986             0.004621
Rotational constants in MHz :           387.243795           149.465880           138.537365

                             ****ORCA TERMINATED NORMALLY****
TOTAL RUN TIME: 0 days 0 hours 1 minutes 22 seconds 624 msec
