                         Program Version 6.0.0  -   RELEASE  -
|  1> ! r2scan-3c def2/J RI DEFGRID2 scfconv6 printgap
|  2> %output
|  3>     printlevel normal
|  4> end
|  5> %cpcm
|  6>     smd true
|  7>     smdsolvent "water"
|  8> end
|  9> * xyz 0 1
| 10> C 2.6754493864 -2.9768311459 1.7546219337
| 11> C 1.403884983 -2.8407153729 0.9447594772
| 12> O 1.1579083213 -1.4747474478 0.5466300975
| 13> P 2.0921405731 -0.7233284071 -0.4884476928
| 14> S 2.8011024605 -1.8013053825 -1.9613518485
| 15> O 3.1937477772 -0.0819212059 0.4747890144
| 16> C 4.4520315509 0.3950186237 -0.0258863903
| 17> C 4.2962832032 1.6680136384 -0.8338319572
| 18> S 0.8096175064 0.8772046882 -1.0130564303
| 19> C 0.4511800879 1.5042904373 0.6567085364
| 20> S -0.8303274459 0.5709345382 1.5319783552
| 21> P -2.3617148758 0.8299311022 0.0782152948
| 22> S -2.4300378595 2.5645959154 -0.817881725
| 23> O -3.6817654863 0.3888875759 0.8512928031
| 24> C -4.4820330762 1.3123746925 1.6136666597
| 25> C -3.7424721198 1.8629737747 2.8153927824
| 26> O -2.1850574374 -0.3646803763 -0.9412025543
| 27> C -2.2058696792 -1.7554288914 -0.5376681937
| 28> C -1.5156944721 -2.5635644525 -1.6168572973
| 29> H 2.6640045663 -2.2839967674 2.5918315226
| 30> H 2.7552316323 -3.9933646152 2.1270483114
| 31> H 3.5397078638 -2.7621107664 1.127833684
| 32> H 0.522636953 -3.1019034488 1.5322915118
| 33> H 1.4515020866 -3.459400367 0.0431957103
| 34> H 5.0516344078 0.5565507993 0.8709968298
| 35> H 4.9017462655 -0.3924030718 -0.639354107
| 36> H 3.700242271 1.4715418673 -1.7250914985
| 37> H 3.8032705145 2.438577174 -0.2465471817
| 38> H 5.2757162622 2.022422276 -1.1387896892
| 39> H 0.1095803307 2.5285835098 0.5128664127
| 40> H 1.3474478797 1.4592612856 1.2701526007
| 41> H -4.7945529035 2.1238188337 0.9496242581
| 42> H -5.3482449378 0.7185895362 1.9090821512
| 43> H -3.3306744552 1.0529361779 3.4120672817
| 44> H -2.9294462116 2.5085406832 2.4872346643
| 45> H -4.4298795525 2.4448844223 3.4208829198
| 46> H -1.6924247181 -1.8472969182 0.4245748897
| 47> H -3.2496600844 -2.0522962673 -0.419638799
| 48> H -1.5428418762 -3.6155341828 -1.3515419982
| 49> H -2.0165778472 -2.4171737294 -2.5695289283
| 50> H -0.479021995 -2.2484293036 -1.725718125
| 51> *
| 52>
| 53>                          ****END OF INPUT****

CARTESIAN COORDINATES (ANGSTROEM)
---------------------------------
  C      2.675449   -2.976831    1.754622
  C      1.403885   -2.840715    0.944759
  O      1.157908   -1.474747    0.546630
  P      2.092141   -0.723328   -0.488448
  S      2.801102   -1.801305   -1.961352
  O      3.193748   -0.081921    0.474789
  C      4.452032    0.395019   -0.025886
  C      4.296283    1.668014   -0.833832
  S      0.809618    0.877205   -1.013056
  C      0.451180    1.504290    0.656709
  S     -0.830327    0.570935    1.531978
  P     -2.361715    0.829931    0.078215
  S     -2.430038    2.564596   -0.817882
  O     -3.681765    0.388888    0.851293
  C     -4.482033    1.312375    1.613667
  C     -3.742472    1.862974    2.815393
  O     -2.185057   -0.364680   -0.941203
  C     -2.205870   -1.755429   -0.537668
  C     -1.515694   -2.563564   -1.616857
  H      2.664005   -2.283997    2.591832
  H      2.755232   -3.993365    2.127048
  H      3.539708   -2.762111    1.127834
  H      0.522637   -3.101903    1.532292
  H      1.451502   -3.459400    0.043196
  H      5.051634    0.556551    0.870997
  H      4.901746   -0.392403   -0.639354
  H      3.700242    1.471542   -1.725091
  H      3.803271    2.438577   -0.246547
  H      5.275716    2.022422   -1.138790
  H      0.109580    2.528584    0.512866
  H      1.347448    1.459261    1.270153
  H     -4.794553    2.123819    0.949624
  H     -5.348245    0.718590    1.909082
  H     -3.330674    1.052936    3.412067
  H     -2.929446    2.508541    2.487235
  H     -4.429880    2.444884    3.420883
  H     -1.692425   -1.847297    0.424575
  H     -3.249660   -2.052296   -0.419639
  H     -1.542842   -3.615534   -1.351542
  H     -2.016578   -2.417174   -2.569529
  H     -0.479022   -2.248429   -1.725718

 Total Charge           Charge          ....    0
 Multiplicity           Mult            ....    1
 Number of Electrons    NEL             ....  202
 Basis Dimension        Dim             ....  539

ORBITAL ENERGIES
----------------

  NO   OCC          E(Eh)            E(eV)
   0   2.0000     -88.577165     -2410.3072
   1   2.0000     -88.574520     -2410.2352
   2   2.0000     -88.530428     -2409.0354
   3   2.0000     -88.530380     -2409.0341
   4   2.0000     -76.919171     -2093.0770
   5   2.0000     -76.918313     -2093.0537
   6   2.0000     -18.995314      -516.8888
   7   2.0000     -18.992390      -516.8092
   8   2.0000     -18.991607      -516.7879
   9   2.0000     -18.991016      -516.7718
  10   2.0000     -10.105339      -274.9802
  11   2.0000     -10.090451      -274.5751
  12   2.0000     -10.090373      -274.5730
  13   2.0000     -10.089630      -274.5528
  14   2.0000     -10.088432      -274.5202
  15   2.0000     -10.019210      -272.6366
  16   2.0000     -10.018710      -272.6230
  17   2.0000     -10.018391      -272.6143
  18   2.0000     -10.018027      -272.6044
  19   2.0000      -7.871301      -214.1890
  20   2.0000      -7.869035      -214.1273
  21   2.0000      -7.825470      -212.9419
  22   2.0000      -7.825361      -212.9389
  23   2.0000      -6.597611      -179.5301
  24   2.0000      -6.596785      -179.5077
  25   2.0000      -5.818632      -158.3330
  26   2.0000      -5.815943      -158.2598
  27   2.0000      -5.814863      -158.2305
  28   2.0000      -5.812891      -158.1768
  29   2.0000      -5.808297      -158.0518
  30   2.0000      -5.806083      -157.9915
  31   2.0000      -5.773048      -157.0926
  32   2.0000      -5.772877      -157.0880
  33   2.0000      -5.765744      -156.8939
  34   2.0000      -5.765697      -156.8926
  35   2.0000      -5.765533      -156.8881
  36   2.0000      -5.765358      -156.8834
  37   2.0000      -4.743438      -129.0755
  38   2.0000      -4.742442      -129.0484
  39   2.0000      -4.742043      -129.0375
  40   2.0000      -4.741847      -129.0322
  41   2.0000      -4.741217      -129.0151
  42   2.0000      -4.740667      -129.0001
  43   2.0000      -1.052425       -28.6379
  44   2.0000      -1.050406       -28.5830
  45   2.0000      -1.011240       -27.5172
  46   2.0000      -1.010290       -27.4914
  47   2.0000      -0.801101       -21.7991
  48   2.0000      -0.755372       -20.5547
  49   2.0000      -0.743669       -20.2363
  50   2.0000      -0.724718       -19.7206
  51   2.0000      -0.722949       -19.6724
  52   2.0000      -0.710118       -19.3233
  53   2.0000      -0.692966       -18.8566
  54   2.0000      -0.674971       -18.3669
  55   2.0000      -0.628630       -17.1059
  56   2.0000      -0.619269       -16.8512
  57   2.0000      -0.598968       -16.2988
  58   2.0000      -0.598305       -16.2807
  59   2.0000      -0.590726       -16.0745
  60   2.0000      -0.526139       -14.3170
  61   2.0000      -0.514595       -14.0028
  62   2.0000      -0.489990       -13.3333
  63   2.0000      -0.488927       -13.3044
  64   2.0000      -0.479321       -13.0430
  65   2.0000      -0.458107       -12.4657
  66   2.0000      -0.454585       -12.3699
  67   2.0000      -0.449885       -12.2420
  68   2.0000      -0.439801       -11.9676
  69   2.0000      -0.435026       -11.8377
  70   2.0000      -0.421591       -11.4721
  71   2.0000      -0.408166       -11.1067
  72   2.0000      -0.406666       -11.0660
  73   2.0000      -0.405458       -11.0331
  74   2.0000      -0.390703       -10.6316
  75   2.0000      -0.385202       -10.4819
  76   2.0000      -0.377880       -10.2826
  77   2.0000      -0.372430       -10.1343
  78   2.0000      -0.365044        -9.9334
  79   2.0000      -0.358710        -9.7610
  80   2.0000      -0.353617        -9.6224
  81   2.0000      -0.351605        -9.5676
  82   2.0000      -0.350231        -9.5303
  83   2.0000      -0.346285        -9.4229
  84   2.0000      -0.340846        -9.2749
  85   2.0000      -0.332718        -9.0537
  86   2.0000      -0.321536        -8.7494
  87   2.0000      -0.315275        -8.5791
  88   2.0000      -0.306178        -8.3315
  89   2.0000      -0.303178        -8.2499
  90   2.0000      -0.302154        -8.2220
  91   2.0000      -0.287013        -7.8100
  92   2.0000      -0.279883        -7.6160
  93   2.0000      -0.278121        -7.5680
  94   2.0000      -0.275198        -7.4885
  95   2.0000      -0.246435        -6.7058
  96   2.0000      -0.235759        -6.4153
  97   2.0000      -0.232531        -6.3275
  98   2.0000      -0.230767        -6.2795
  99   2.0000      -0.224205        -6.1009
 100   2.0000      -0.219328        -5.9682
 101   0.0000      -0.047277        -1.2865
 102   0.0000      -0.027673        -0.7530
 103   0.0000      -0.014734        -0.4009
 104   0.0000      -0.000855        -0.0233
 105   0.0000       0.007250         0.1973

MULLIKEN ATOMIC CHARGES
-----------------------
   0 C :   -0.486777
   1 C :   -0.158234
   2 O :   -0.271875
   3 P :    0.695651
   4 S :   -0.525482
   5 O :   -0.312488
   6 C :   -0.155434
   7 C :   -0.470682
   8 S :   -0.147768
   9 C :   -0.266763
  10 S :   -0.147688
  11 P :    0.665266
  12 S :   -0.495067
  13 O :   -0.311519
  14 C :   -0.157692
  15 C :   -0.484034
  16 O :   -0.292587
  17 C :   -0.104757
  18 C :   -0.506694
  19 H :    0.171029
  20 H :    0.172537
  21 H :    0.168896
  22 H :    0.182075
  23 H :    0.180376
  24 H :    0.174789
  25 H :    0.174351
  26 H :    0.166586
  27 H :    0.168506
  28 H :    0.170718
  29 H :    0.235005
  30 H :    0.237637
  31 H :    0.179542
  32 H :    0.175329
  33 H :    0.168346
  34 H :    0.174756
  35 H :    0.172544
  36 H :    0.174926
  37 H :    0.174768
  38 H :    0.172712
  39 H :    0.167823
  40 H :    0.171375
Sum of atomic charges:   -0.0000000

LOEWDIN ATOMIC CHARGES
----------------------
   0 C :   -0.401432
   1 C :    0.025700
   2 O :   -0.700583
   3 P :    0.375513
   4 S :   -0.153503
   5 O :   -0.687397
   6 C :    0.023334
   7 C :   -0.406885
   8 S :    0.170552
   9 C :   -0.403754
  10 S :    0.162256
  11 P :    0.375500
  12 S :   -0.140492
  13 O :   -0.674205
  14 C :    0.027535
  15 C :   -0.411815
  16 O :   -0.680394
  17 C :    0.027788
  18 C :   -0.393840
  19 H :    0.164781
  20 H :    0.168782
  21 H :    0.163349
  22 H :    0.191208
  23 H :    0.182393
  24 H :    0.190225
  25 H :    0.180980
  26 H :    0.161400
  27 H :    0.162878
  28 H :    0.167540
  29 H :    0.198000
  30 H :    0.203424
  31 H :    0.181433
  32 H :    0.191195
  33 H :    0.163638
  34 H :    0.161915
  35 H :    0.168329
  36 H :    0.183245
  37 H :    0.182364
  38 H :    0.170759
  39 H :    0.164128
  40 H :    0.164155

  Mayer bond orders larger than 0.100000
B(  0-C ,  1-C ) :   0.9096 B(  0-C , 19-H ) :   0.9716 B(  0-C , 20-H ) :   0.9550
B(  0-C , 21-H ) :   0.9609 B(  1-C ,  2-O ) :   0.7758 B(  1-C , 22-H ) :   0.9505
B(  1-C , 23-H ) :   0.9560 B(  2-O ,  3-P ) :   1.1384 B(  3-P ,  4-S ) :   1.7551
B(  3-P ,  5-O ) :   1.0306 B(  3-P ,  8-S ) :   1.0865 B(  5-O ,  6-C ) :   0.7975
B(  6-C ,  7-C ) :   0.9208 B(  6-C , 24-H ) :   0.9496 B(  6-C , 25-H ) :   0.9608
B(  7-C , 26-H ) :   0.9624 B(  7-C , 27-H ) :   0.9664 B(  7-C , 28-H ) :   0.9562
B(  8-S ,  9-C ) :   0.9006 B(  9-C , 10-S ) :   0.9036 B(  9-C , 29-H ) :   0.9079
B(  9-C , 30-H ) :   0.9050 B( 10-S , 11-P ) :   1.0237 B( 11-P , 12-S ) :   1.8079
B( 11-P , 13-O ) :   1.0441 B( 11-P , 16-O ) :   1.1689 B( 13-O , 14-C ) :   0.8078
B( 14-C , 15-C ) :   0.9049 B( 14-C , 31-H ) :   0.9686 B( 14-C , 32-H ) :   0.9505
B( 15-C , 33-H ) :   0.9642 B( 15-C , 34-H ) :   0.9653 B( 15-C , 35-H ) :   0.9511
B( 16-O , 17-C ) :   0.7258 B( 17-C , 18-C ) :   0.9231 B( 17-C , 36-H ) :   0.9486
B( 17-C , 37-H ) :   0.9336 B( 18-C , 38-H ) :   0.9600 B( 18-C , 39-H ) :   0.9661
B( 18-C , 40-H ) :   0.9691

Dispersion correction           -0.022081194
FINAL SINGLE POINT ENERGY     -2932.473011795279

DIPOLE MOMENT
-------------

Method             : SCF
Type of density    : Electron Density
Multiplicity       :   1
Irrep              :   0
Energy             : -2932.4973418589356697 Eh
Relativity type    :
Basis              : AO
                                X                 Y                 Z
Electronic contribution:     -4.839836163       7.559007675      -9.490816490
Nuclear contribution   :      5.189410331      -8.483095369      12.513917454
                        -----------------------------------------
Total Dipole Moment    :      0.349574168      -0.924087693       3.023100963
                        -----------------------------------------
Magnitude (a.u.)       :      3.180452735
Magnitude (Debye)      :      8.084068401

Rotational constants in cm-1:             0.012917             0.004986             0.004621
Rotational constants in MHz :           387.243795           149.465880           138.537365

                             ****ORCA TERMINATED NORMALLY****
TOTAL RUN TIME: 0 days 0 hours 1 minutes 52 seconds 783 msec
