                         Program Version 6.0.0  -   RELEASE  -
|  1> ! pbe def2-sv(p) def2/J RI DEFGRID1 loosescf d4 GCP(DFT/SV(P)) printgap
|  2> %output
|  3>     printlevel normal
|  4> end
|  5> * xyz 0 1
|  6> C 0.8085584164 1.3250460336 -1.011930996
|  7> C 1.4400013278 0.3308965743 -0.0291419458
|  8> H 2.4475175001 0.0849335303 -0.3803040006
|  9> C 0.6159897147 -0.9846749588 0.0439740498
| 10> H 0.5766808997 -1.2887459203 1.0963551945
| 11> C -0.8213398279 -0.7589989879 -0.4640331127
| 12> H -0.8408516219 -0.8201362376 -1.5580656284
| 13> C -1.2899353538 0.6502833972 -0.0637946256
| 14> H -2.3279899572 0.7943723521 -0.395325669
| 15> O -0.5436530646 1.655262009 -0.6942561907
| 16> O -1.2075660734 0.7544913526 1.333726639
| 17> O -1.7214613172 -1.7376085148 -0.0254176085
| 18> O 1.2496008804 -2.0546468479 -0.6093078613
| 19> O 1.6226057057 0.9029423705 1.2413912187
| 20> H 0.8491989212 0.9181954638 -2.028884437
| 21> H 1.3507161337 2.2716934933 -0.9806113525
| 22> H -1.675790244 1.5478441151 1.6347342165
| 23> H -1.7689950565 -1.7202031433 0.9425544958
| 24> H 1.2014915785 -1.9419222197 -1.5690157343
| 25> H 0.7432795869 1.0626436143 1.62973494
| 26> *
| 27>
| 28>                          ****END OF INPUT****

CARTESIAN COORDINATES (ANGSTROEM)
---------------------------------
  C      0.808558    1.325046   -1.011931
  C      1.440001    0.330897   -0.029142
  H      2.447518    0.084934   -0.380304
  C      0.615990   -0.984675    0.043974
  H      0.576681   -1.288746    1.096355
  C     -0.821340   -0.758999   -0.464033
  H     -0.840852   -0.820136   -1.558066
  C     -1.289935    0.650283   -0.063795
  H     -2.327990    0.794372   -0.395326
  O     -0.543653    1.655262   -0.694256
  O     -1.207566    0.754491    1.333727
  O     -1.721461   -1.737609   -0.025418
  O      1.249601   -2.054647   -0.609308
  O      1.622606    0.902942    1.241391
  H      0.849199    0.918195   -2.028884
  H      1.350716    2.271693   -0.980611
  H     -1.675790    1.547844    1.634734
  H     -1.768995   -1.720203    0.942554
  H      1.201492   -1.941922   -1.569016
  H      0.743280    1.062644    1.629735

 Total Charge           Charge          ....    0
 Multiplicity           Mult            ....    1
 Number of Electrons    NEL             ....   80
 Basis Dimension        Dim             ....  160

ORBITAL ENERGIES
----------------

  NO   OCC          E(Eh)            E(eV)
   0   2.0000     -18.793834      -511.4062
   1   2.0000     -18.772974      -510.8386
   2   2.0000     -18.755092      -510.3520
   3   2.0000     -18.751074      -510.2427
   4   2.0000     -18.735601      -509.8216
   5   2.0000      -9.996941      -272.0306
   6   2.0000      -9.951917      -270.8054
   7   2.0000      -9.941573      -270.5240
   8   2.0000      -9.939402      -270.4649
   9   2.0000      -9.938444      -270.4388
  10   2.0000      -0.995211       -27.0811
  11   2.0000      -0.940546       -25.5935
  12   2.0000      -0.932692       -25.3798
  13   2.0000      -0.922494       -25.1023
  14   2.0000      -0.911764       -24.8103
  15   2.0000      -0.698113       -18.9966
  16   2.0000      -0.683607       -18.6019
  17   2.0000      -0.596683       -16.2366
  18   2.0000      -0.590089       -16.0571
  19   2.0000      -0.548702       -14.9309
  20   2.0000      -0.505017       -13.7422
  21   2.0000      -0.493327       -13.4241
  22   2.0000      -0.463754       -12.6194
  23   2.0000      -0.440588       -11.9890
  24   2.0000      -0.430451       -11.7132
  25   2.0000      -0.419923       -11.4267
  26   2.0000      -0.410629       -11.1738
  27   2.0000      -0.387757       -10.5514
  28   2.0000      -0.378460       -10.2984
  29   2.0000      -0.354193        -9.6381
  30   2.0000      -0.339060        -9.2263
  31   2.0000      -0.314175        -8.5491
  32   2.0000      -0.293582        -7.9888
  33   2.0000      -0.287938        -7.8352
  34   2.0000      -0.280169        -7.6238
  35   2.0000      -0.267295        -7.2735
  36   2.0000      -0.252499        -6.8708
  37   2.0000      -0.230754        -6.2791
  38   2.0000      -0.218330        -5.9411
  39   2.0000      -0.195817        -5.3285
  40   0.0000       0.004334         0.1179
  41   0.0000       0.016619         0.4522
  42   0.0000       0.043487         1.1833
  43   0.0000       0.059443         1.6175
  44   0.0000       0.062352         1.6967

MULLIKEN ATOMIC CHARGES
-----------------------
   0 C :    0.057458
   1 C :    0.022165
   2 H :    0.074301
   3 C :    0.066523
   4 H :    0.065054
   5 C :    0.048679
   6 H :    0.065456
   7 C :    0.137182
   8 H :    0.078188
   9 O :   -0.313711
  10 O :   -0.411942
  11 O :   -0.410697
  12 O :   -0.409846
  13 O :   -0.438899
  14 H :    0.064922
  15 H :    0.099920
  16 H :    0.319072
  17 H :    0.301725
  18 H :    0.293753
  19 H :    0.290697
Sum of atomic charges:   -0.0000000

LOEWDIN ATOMIC CHARGES
----------------------
   0 C :   -0.121306
   1 C :   -0.088248
   2 H :    0.122006
   3 C :   -0.076124
   4 H :    0.119782
   5 C :   -0.088494
   6 H :    0.119092
   7 C :   -0.019239
   8 H :    0.104956
   9 O :   -0.161275
  10 O :   -0.309864
  11 O :   -0.307009
  12 O :   -0.309210
  13 O :   -0.327993
  14 H :    0.097573
  15 H :    0.121973
  16 H :    0.295451
  17 H :    0.284989
  18 H :    0.280592
  19 H :    0.262347

  Mayer bond orders larger than 0.100000
B(  0-C ,  1-C ) :   1.0960 B(  0-C ,  9-O ) :   0.9966 B(  0-C , 14-H ) :   0.9064
B(  0-C , 15-H ) :   0.9107 B(  1-C ,  2-H ) :   0.8838 B(  1-C ,  3-C ) :   0.9628
B(  1-C , 13-O ) :   1.0444 B(  3-C ,  4-H ) :   0.8673 B(  3-C ,  5-C ) :   1.0061
B(  3-C , 12-O ) :   1.0553 B(  5-C ,  6-H ) :   0.8577 B(  5-C ,  7-C ) :   1.0248
B(  5-C , 11-O ) :   1.0638 B(  7-C ,  8-H ) :   0.8984 B(  7-C ,  9-O ) :   1.0952
B(  7-C , 10-O ) :   1.0678 B( 10-O , 16-H ) :   0.8342 B( 10-O , 19-H ) :   0.1052
B( 11-O , 17-H ) :   0.8441 B( 12-O , 18-H ) :   0.8501 B( 13-O , 19-H ) :   0.8121

Dispersion correction           -0.019822491
FINAL SINGLE POINT ENERGY      -571.409982236367

DIPOLE MOMENT
-------------

Method             : SCF
Type of density    : Electron Density
Multiplicity       :   1
Irrep              :   0
Energy             :  -571.5194077814678622 Eh
Relativity type    :
Basis              : AO
                                X                 Y                 Z
Electronic contribution:     -1.236116744      -0.243308769       1.297865949
Nuclear contribution   :      0.512030505       0.845387345      -1.490893457
                        -----------------------------------------
Total Dipole Moment    :     -0.724086239       0.602078576      -0.193027509
                        -----------------------------------------
Magnitude (a.u.)       :      0.961279935
Magnitude (Debye)      :      2.443379416

Rotational constants in cm-1:             0.052203             0.048209             0.034883
Rotational constants in MHz :          1565.003751          1445.266518          1045.779741

                             ****ORCA TERMINATED NORMALLY****
TOTAL RUN TIME: 0 days 0 hours 0 minutes 11 seconds 402 msec
