                         Program Version 6.0.1  -  RELEASE   -
|  1> ! pbe def2-sv(p) def2/J RI DEFGRID1 loosescf d4 GCP(DFT/SV(P)) printgap
|  2> %output
|  3>     printlevel normal
|  4> end
|  5> * xyz 0 1
|  6> C 4.2361650489 -2.3825280614 0.825409001
|  7> C 2.7572693043 -2.2986639716 0.5044900744
|  8> O 2.5694791374 -1.2508775026 -0.4661993921
|  9> C 1.4170222759 -1.1731603304 -1.0888853116
| 10> O 0.4806249477 -1.9267487959 -0.903949168
| 11> C 1.3786909189 -0.0284115899 -2.0793807069
| 12> C 0.2914258163 0.9764482723 -1.6970846871
| 13> H 0.2141489925 1.7416599903 -2.4761122681
| 14> C 0.5437896051 1.6809607442 -0.3762872192
| 15> O -0.3632771058 1.9971595997 0.3689340674
| 16> O 1.8114756143 1.8986536403 -0.1613647714
| 17> C 2.195139502 2.5538136912 1.0664458704
| 18> C 2.0498012651 4.0616857136 0.9506394809
| 19> S -1.3780629394 0.2388705262 -1.630201964
| 20> P -1.6639938739 -0.2749557795 0.4197290421
| 21> S -0.2766033799 -0.618806734 1.7609797383
| 22> O -2.7150955332 0.757296472 1.001240419
| 23> C -3.9166533478 1.1423665284 0.3116677041
| 24> O -2.6555263563 -1.5259926516 0.2296265178
| 25> C -2.2414369047 -2.843467058 -0.1292166114
| 26> H 4.5811257533 -1.4372184251 1.2323129115
| 27> H 4.396917349 -3.166174006 1.5579965018
| 28> H 4.8015968756 -2.6084616441 -0.0738018806
| 29> H 2.1586973174 -2.0518673324 1.3876903631
| 30> H 2.3753191932 -3.2322673924 0.0793372744
| 31> H 1.1401815572 -0.4365730815 -3.0623003473
| 32> H 2.3486003745 0.4667679853 -2.0921661419
| 33> H 1.5764509235 2.157118895 1.8769452717
| 34> H 3.2351436197 2.2599823318 1.2057690043
| 35> H 1.0039823886 4.3289464139 0.8167096117
| 36> H 2.4149038568 4.5236753735 1.8617534643
| 37> H 2.624823872 4.4298105775 0.1055798077
| 38> H -4.3917276794 1.8707542896 0.9636391858
| 39> H -4.556533822 0.2734645546 0.1662403072
| 40> H -3.6674954326 1.5912429041 -0.6500058037
| 41> H -1.9389888855 -2.8693371329 -1.1751027425
| 42> H -3.1082391675 -3.4764958997 0.0435966089
| 43> H -1.4030242874 -3.1563966869 0.4934321546
| 44> *
| 45>
| 46>                          ****END OF INPUT****

CARTESIAN COORDINATES (ANGSTROEM)
---------------------------------
  C      4.236165   -2.382528    0.825409
  C      2.757269   -2.298664    0.504490
  O      2.569479   -1.250878   -0.466199
  C      1.417022   -1.173160   -1.088885
  O      0.480625   -1.926749   -0.903949
  C      1.378691   -0.028412   -2.079381
  C      0.291426    0.976448   -1.697085
  H      0.214149    1.741660   -2.476112
  C      0.543790    1.680961   -0.376287
  O     -0.363277    1.997160    0.368934
  O      1.811476    1.898654   -0.161365
  C      2.195140    2.553814    1.066446
  C      2.049801    4.061686    0.950639
  S     -1.378063    0.238871   -1.630202
  P     -1.663994   -0.274956    0.419729
  S     -0.276603   -0.618807    1.760980
  O     -2.715096    0.757296    1.001240
  C     -3.916653    1.142367    0.311668
  O     -2.655526   -1.525993    0.229627
  C     -2.241437   -2.843467   -0.129217
  H      4.581126   -1.437218    1.232313
  H      4.396917   -3.166174    1.557997
  H      4.801597   -2.608462   -0.073802
  H      2.158697   -2.051867    1.387690
  H      2.375319   -3.232267    0.079337
  H      1.140182   -0.436573   -3.062300
  H      2.348600    0.466768   -2.092166
  H      1.576451    2.157119    1.876945
  H      3.235144    2.259982    1.205769
  H      1.003982    4.328946    0.816710
  H      2.414904    4.523675    1.861753
  H      2.624824    4.429811    0.105580
  H     -4.391728    1.870754    0.963639
  H     -4.556534    0.273465    0.166240
  H     -3.667495    1.591243   -0.650006
  H     -1.938989   -2.869337   -1.175103
  H     -3.108239   -3.476496    0.043597
  H     -1.403024   -3.156397    0.493432

 Total Charge           Charge          ....    0
 Multiplicity           Mult            ....    1
 Number of Electrons    NEL             ....  174
 Basis Dimension        Dim             ....  316

ORBITAL ENERGIES
----------------

  NO   OCC          E(Eh)            E(eV)
   0   2.0000     -88.030081     -2395.4203
   1   2.0000     -87.965266     -2393.6566
   2   2.0000     -76.413841     -2079.3263
   3   2.0000     -18.816564      -512.0247
   4   2.0000     -18.801714      -511.6206
   5   2.0000     -18.772482      -510.8252
   6   2.0000     -18.769857      -510.7538
   7   2.0000     -18.745436      -510.0893
   8   2.0000     -18.733926      -509.7761
   9   2.0000     -10.020996      -272.6852
  10   2.0000     -10.007545      -272.3191
  11   2.0000      -9.953892      -270.8592
  12   2.0000      -9.951825      -270.8029
  13   2.0000      -9.940590      -270.4972
  14   2.0000      -9.932157      -270.2677
  15   2.0000      -9.922502      -270.0050
  16   2.0000      -9.911996      -269.7191
  17   2.0000      -9.889988      -269.1202
  18   2.0000      -9.886343      -269.0211
  19   2.0000      -7.674986      -208.8470
  20   2.0000      -7.610526      -207.0929
  21   2.0000      -6.409277      -174.4053
  22   2.0000      -5.703255      -155.1935
  23   2.0000      -5.699603      -155.0941
  24   2.0000      -5.691421      -154.8714
  25   2.0000      -5.639852      -153.4682
  26   2.0000      -5.631040      -153.2284
  27   2.0000      -5.630240      -153.2066
  28   2.0000      -4.632064      -126.0449
  29   2.0000      -4.631444      -126.0280
  30   2.0000      -4.629650      -125.9792
  31   2.0000      -1.025065       -27.8934
  32   2.0000      -1.008495       -27.4425
  33   2.0000      -0.965932       -26.2843
  34   2.0000      -0.927228       -25.2312
  35   2.0000      -0.919706       -25.0265
  36   2.0000      -0.911587       -24.8055
  37   2.0000      -0.764600       -20.8058
  38   2.0000      -0.710087       -19.3224
  39   2.0000      -0.707464       -19.2511
  40   2.0000      -0.683970       -18.6118
  41   2.0000      -0.653895       -17.7934
  42   2.0000      -0.623630       -16.9698
  43   2.0000      -0.617057       -16.7910
  44   2.0000      -0.603649       -16.4261
  45   2.0000      -0.589779       -16.0487
  46   2.0000      -0.564390       -15.3578
  47   2.0000      -0.510529       -13.8922
  48   2.0000      -0.505381       -13.7521
  49   2.0000      -0.496051       -13.4982
  50   2.0000      -0.481954       -13.1146
  51   2.0000      -0.458429       -12.4745
  52   2.0000      -0.452951       -12.3254
  53   2.0000      -0.447747       -12.1838
  54   2.0000      -0.434422       -11.8212
  55   2.0000      -0.425359       -11.5746
  56   2.0000      -0.417120       -11.3504
  57   2.0000      -0.414103       -11.2683
  58   2.0000      -0.408121       -11.1055
  59   2.0000      -0.403822       -10.9886
  60   2.0000      -0.398016       -10.8306
  61   2.0000      -0.394269       -10.7286
  62   2.0000      -0.382372       -10.4049
  63   2.0000      -0.379022       -10.3137
  64   2.0000      -0.373171       -10.1545
  65   2.0000      -0.366600        -9.9757
  66   2.0000      -0.356291        -9.6952
  67   2.0000      -0.353906        -9.6303
  68   2.0000      -0.348374        -9.4797
  69   2.0000      -0.342656        -9.3242
  70   2.0000      -0.331620        -9.0238
  71   2.0000      -0.328871        -8.9490
  72   2.0000      -0.312464        -8.5026
  73   2.0000      -0.306172        -8.3314
  74   2.0000      -0.302028        -8.2186
  75   2.0000      -0.296117        -8.0578
  76   2.0000      -0.283589        -7.7169
  77   2.0000      -0.280034        -7.6201
  78   2.0000      -0.266646        -7.2558
  79   2.0000      -0.262608        -7.1459
  80   2.0000      -0.252604        -6.8737
  81   2.0000      -0.245187        -6.6719
  82   2.0000      -0.234302        -6.3757
  83   2.0000      -0.228197        -6.2096
  84   2.0000      -0.197381        -5.3710
  85   2.0000      -0.183068        -4.9815
  86   2.0000      -0.176283        -4.7969
  87   0.0000      -0.043544        -1.1849
  88   0.0000      -0.034383        -0.9356
  89   0.0000      -0.024893        -0.6774
  90   0.0000       0.005612         0.1527
  91   0.0000       0.033647         0.9156

MULLIKEN ATOMIC CHARGES
-----------------------
   0 C :   -0.272988
   1 C :   -0.039991
   2 O :   -0.220809
   3 C :    0.084610
   4 O :   -0.200313
   5 C :   -0.003584
   6 C :   -0.314381
   7 H :    0.155351
   8 C :    0.189181
   9 O :   -0.183017
  10 O :   -0.217025
  11 C :   -0.010833
  12 C :   -0.311429
  13 S :   -0.096667
  14 P :    0.642421
  15 S :   -0.336487
  16 O :   -0.357949
  17 C :   -0.102156
  18 O :   -0.398782
  19 C :   -0.088745
  20 H :    0.111950
  21 H :    0.111919
  22 H :    0.110356
  23 H :    0.128153
  24 H :    0.102766
  25 H :    0.115882
  26 H :    0.111037
  27 H :    0.128611
  28 H :    0.104117
  29 H :    0.132566
  30 H :    0.117556
  31 H :    0.111319
  32 H :    0.124379
  33 H :    0.116144
  34 H :    0.114017
  35 H :    0.115848
  36 H :    0.110602
  37 H :    0.116370
Sum of atomic charges:    0.0000000

LOEWDIN ATOMIC CHARGES
----------------------
   0 C :   -0.350734
   1 C :   -0.111680
   2 O :   -0.048746
   3 C :    0.021078
   4 O :   -0.169387
   5 C :   -0.250182
   6 C :   -0.259345
   7 H :    0.152593
   8 C :    0.004390
   9 O :   -0.154868
  10 O :   -0.036067
  11 C :   -0.106467
  12 C :   -0.357294
  13 S :    0.104570
  14 P :    0.594015
  15 S :   -0.313160
  16 O :   -0.236875
  17 C :   -0.212945
  18 O :   -0.262631
  19 C :   -0.212963
  20 H :    0.125116
  21 H :    0.130925
  22 H :    0.124017
  23 H :    0.117384
  24 H :    0.115668
  25 H :    0.144217
  26 H :    0.138668
  27 H :    0.127948
  28 H :    0.119164
  29 H :    0.132435
  30 H :    0.133453
  31 H :    0.123519
  32 H :    0.122909
  33 H :    0.111542
  34 H :    0.105389
  35 H :    0.109990
  36 H :    0.113652
  37 H :    0.110702

  Mayer bond orders larger than 0.100000
B(  0-C ,  1-C ) :   1.1515 B(  0-C , 20-H ) :   0.9490 B(  0-C , 21-H ) :   0.9446
B(  0-C , 22-H ) :   0.9511 B(  1-C ,  2-O ) :   0.8985 B(  1-C , 23-H ) :   0.9207
B(  1-C , 24-H ) :   0.9253 B(  2-O ,  3-C ) :   1.2557 B(  3-C ,  4-O ) :   1.9833
B(  3-C ,  5-C ) :   1.0111 B(  5-C ,  6-C ) :   1.0330 B(  5-C , 25-H ) :   0.8856
B(  5-C , 26-H ) :   0.8811 B(  6-C ,  7-H ) :   0.8713 B(  6-C ,  8-C ) :   0.8944
B(  6-C , 13-S ) :   1.0384 B(  8-C ,  9-O ) :   1.9901 B(  8-C , 10-O ) :   1.2756
B( 10-O , 11-C ) :   0.8990 B( 11-C , 12-C ) :   1.1717 B( 11-C , 27-H ) :   0.9118
B( 11-C , 28-H ) :   0.9370 B( 12-C , 29-H ) :   0.9441 B( 12-C , 30-H ) :   0.9439
B( 12-C , 31-H ) :   0.9476 B( 13-S , 14-P ) :   0.9291 B( 13-S , 15-S ) :   0.1188
B( 14-P , 15-S ) :   1.5719 B( 14-P , 16-O ) :   1.1241 B( 14-P , 18-O ) :   1.0676
B( 16-O , 17-C ) :   0.9308 B( 17-C , 32-H ) :   0.9603 B( 17-C , 33-H ) :   0.9464
B( 17-C , 34-H ) :   0.9367 B( 18-O , 19-C ) :   0.9345 B( 19-C , 35-H ) :   0.9485
B( 19-C , 36-H ) :   0.9562 B( 19-C , 37-H ) :   0.9395

Dispersion correction           -0.055139161
FINAL SINGLE POINT ENERGY     -1979.003098224623

DIPOLE MOMENT
-------------

Method             : SCF
Type of density    : Electron Density
Multiplicity       :   1
Irrep              :   0
Energy             : -1979.1315639783861116 Eh
Relativity type    :
Basis              : AO
                                X                 Y                 Z
Electronic contribution:    -13.469435834      -0.944291551      -2.655111551
Nuclear contribution   :     14.474054034       1.389829093       1.743881731
                        -----------------------------------------
Total Dipole Moment    :      1.004618200       0.445537542      -0.911229820
                        -----------------------------------------
Magnitude (a.u.)       :      1.427620823
Magnitude (Debye)      :      3.628723753

Rotational constants in cm-1:             0.012053             0.009197             0.006934
Rotational constants in MHz :           361.350337           275.724774           207.886589

                             ****ORCA TERMINATED NORMALLY****
TOTAL RUN TIME: 0 days 0 hours 1 minutes 32 seconds 356 msec
