                         Program Version 6.0.0  -   RELEASE  -
|  1> ! wb97x-v def2-tzvp def2/J RIJCOSX DEFGRID2 scfconv7 GCP(DFT/TZ) printgap
|  2> %output
|  3>     printlevel normal
|  4> end
|  5> * xyz 0 1
|  6> C -1.8494284906085636 -0.000177661445633378 0.07215699915270235
|  7> C -1.0652401653753096 1.2567263810063563 -0.2968798265995979
|  8> C 0.31640783774873704 1.2717061864970602 0.3871060829192071
|  9> C 1.068683915838485 0.00015847768532990168 0.10915949132131711
| 10> O 2.217867241074226 0.00025169414545441995 -0.32755406632280987
| 11> C 0.31665554639498156 -1.2714998294513717 0.3872303523123093
| 12> C -1.0648761005517504 -1.2568163171071438 -0.2969968038025703
| 13> H -2.816681016766974 -0.00028258397744309385 -0.4425242632197456
| 14> H -2.055048501722704 -0.0002697409530582137 1.1509440044511134
| 15> H -0.9248671322108805 1.293828852209967 -1.3845404596973692
| 16> H -1.613988865592669 2.1593464295021483 -0.009779076108921796
| 17> H 0.9178629451504283 2.13000040059573 0.07693434718413882
| 18> H 0.16609463362927643 1.3253218464794048 1.4748315596695794
| 19> H 0.918317985848123 -2.129731540677467 0.07728994741790665
| 20> H 0.16613834803159488 -1.3249726540195923 1.474933944559132
| 21> H -0.9243053980760397 -1.2936757398960386 -1.3846436962512074
| 22> H -1.6134233330203704 -2.159641386951522 -0.010154362435964655
| 23> *
| 24>
| 25>                          ****END OF INPUT****

CARTESIAN COORDINATES (ANGSTROEM)
---------------------------------
  C     -1.849428   -0.000178    0.072157
  C     -1.065240    1.256726   -0.296880
  C      0.316408    1.271706    0.387106
  C      1.068684    0.000158    0.109159
  O      2.217867    0.000252   -0.327554
  C      0.316656   -1.271500    0.387230
  C     -1.064876   -1.256816   -0.296997
  H     -2.816681   -0.000283   -0.442524
  H     -2.055049   -0.000270    1.150944
  H     -0.924867    1.293829   -1.384540
  H     -1.613989    2.159346   -0.009779
  H      0.917863    2.130000    0.076934
  H      0.166095    1.325322    1.474832
  H      0.918318   -2.129732    0.077290
  H      0.166138   -1.324973    1.474934
  H     -0.924305   -1.293676   -1.384644
  H     -1.613423   -2.159641   -0.010154

 Total Charge           Charge          ....    0
 Multiplicity           Mult            ....    1
 Number of Electrons    NEL             ....   54
 Basis Dimension        Dim             ....  277

ORBITAL ENERGIES
----------------

  NO   OCC          E(Eh)            E(eV)
   0   2.0000     -21.655833      -589.2852
   1   2.0000     -12.132366      -330.1384
   2   2.0000     -12.058147      -328.1189
   3   2.0000     -12.058039      -328.1159
   4   2.0000     -12.054382      -328.0164
   5   2.0000     -12.054144      -328.0099
   6   2.0000     -12.053647      -327.9964
   7   2.0000      -1.696445       -46.1626
   8   2.0000      -1.351658       -36.7805
   9   2.0000      -1.269598       -34.5475
  10   2.0000      -1.251709       -34.0607
  11   2.0000      -1.127012       -30.6676
  12   2.0000      -1.098890       -29.9023
  13   2.0000      -1.044787       -28.4301
  14   2.0000      -0.970599       -26.4113
  15   2.0000      -0.952137       -25.9090
  16   2.0000      -0.906165       -24.6580
  17   2.0000      -0.902581       -24.5605
  18   2.0000      -0.880705       -23.9652
  19   2.0000      -0.873658       -23.7734
  20   2.0000      -0.836953       -22.7746
  21   2.0000      -0.836284       -22.7564
  22   2.0000      -0.826460       -22.4891
  23   2.0000      -0.791517       -21.5383
  24   2.0000      -0.786518       -21.4022
  25   2.0000      -0.762382       -20.7455
  26   2.0000      -0.760670       -20.6989
  27   0.0000      -0.309903        -8.4329
  28   0.0000      -0.057805        -1.5730
  29   0.0000      -0.038052        -1.0355
  30   0.0000      -0.033259        -0.9050
  31   0.0000      -0.031692        -0.8624

MULLIKEN ATOMIC CHARGES
-----------------------
   0 C :   -0.196892
   1 C :   -0.193695
   2 C :   -0.164826
   3 C :    0.134996
   4 O :   -0.305052
   5 C :   -0.164775
   6 C :   -0.193692
   7 H :    0.109265
   8 H :    0.094037
   9 H :    0.107092
  10 H :    0.108756
  11 H :    0.119976
  12 H :    0.104515
  13 H :    0.119959
  14 H :    0.104505
  15 H :    0.107094
  16 H :    0.108737
Sum of atomic charges:   -0.0000000

LOEWDIN ATOMIC CHARGES
----------------------
   0 C :   -0.261955
   1 C :   -0.248507
   2 C :   -0.214847
   3 C :   -0.313595
   4 O :    0.102068
   5 C :   -0.214848
   6 C :   -0.248503
   7 H :    0.135253
   8 H :    0.134820
   9 H :    0.138023
  10 H :    0.134026
  11 H :    0.143400
  12 H :    0.149611
  13 H :    0.143396
  14 H :    0.149607
  15 H :    0.138026
  16 H :    0.134024

  Mayer bond orders larger than 0.100000
B(  0-C ,  1-C ) :   0.9801 B(  0-C ,  6-C ) :   0.9801 B(  0-C ,  7-H ) :   0.9683
B(  0-C ,  8-H ) :   0.9743 B(  1-C ,  2-C ) :   0.9543 B(  1-C ,  9-H ) :   0.9735
B(  1-C , 10-H ) :   0.9711 B(  2-C ,  3-C ) :   0.9728 B(  2-C , 11-H ) :   0.9625
B(  2-C , 12-H ) :   0.9497 B(  3-C ,  4-O ) :   2.1812 B(  3-C ,  5-C ) :   0.9728
B(  5-C ,  6-C ) :   0.9542 B(  5-C , 13-H ) :   0.9625 B(  5-C , 14-H ) :   0.9497
B(  6-C , 15-H ) :   0.9734 B(  6-C , 16-H ) :   0.9711

FINAL SINGLE POINT ENERGY      -309.910314558506

DIPOLE MOMENT
-------------

Method             : SCF
Type of density    : Electron Density
Multiplicity       :   1
Irrep              :   0
Energy             :  -309.9215051879056091 Eh
Relativity type    :
Basis              : AO
                                X                 Y                 Z
Electronic contribution:      5.980334142       0.000448731      -0.552637661
Nuclear contribution   :     -7.293202947      -0.000557699       0.942140645
                        -----------------------------------------
Total Dipole Moment    :     -1.312868805      -0.000108968       0.389502984
                        -----------------------------------------
Magnitude (a.u.)       :      1.369429475
Magnitude (Debye)      :      3.480813100

Rotational constants in cm-1:             0.140858             0.083631             0.058863
Rotational constants in MHz :          4222.822967          2507.197041          1764.679894

                             ****ORCA TERMINATED NORMALLY****
TOTAL RUN TIME: 0 days 0 hours 2 minutes 21 seconds 498 msec
