                         Program Version 6.0.0  -   RELEASE  -
|  1> ! wb97x-v def2-tzvp def2/J RIJCOSX DEFGRID2 scfconv7 GCP(DFT/TZ) printgap
|  2> %output
|  3>     printlevel normal
|  4> end
|  5> %cpcm
|  6>     smd true
|  7>     smdsolvent "water"
|  8> end
|  9> * xyz 0 1
| 10> C -1.8494284906085636 -0.000177661445633378 0.07215699915270235
| 11> C -1.0652401653753096 1.2567263810063563 -0.2968798265995979
| 12> C 0.31640783774873704 1.2717061864970602 0.3871060829192071
| 13> C 1.068683915838485 0.00015847768532990168 0.10915949132131711
| 14> O 2.217867241074226 0.00025169414545441995 -0.32755406632280987
| 15> C 0.31665554639498156 -1.2714998294513717 0.3872303523123093
| 16> C -1.0648761005517504 -1.2568163171071438 -0.2969968038025703
| 17> H -2.816681016766974 -0.00028258397744309385 -0.4425242632197456
| 18> H -2.055048501722704 -0.0002697409530582137 1.1509440044511134
| 19> H -0.9248671322108805 1.293828852209967 -1.3845404596973692
| 20> H -1.613988865592669 2.1593464295021483 -0.009779076108921796
| 21> H 0.9178629451504283 2.13000040059573 0.07693434718413882
| 22> H 0.16609463362927643 1.3253218464794048 1.4748315596695794
| 23> H 0.918317985848123 -2.129731540677467 0.07728994741790665
| 24> H 0.16613834803159488 -1.3249726540195923 1.474933944559132
| 25> H -0.9243053980760397 -1.2936757398960386 -1.3846436962512074
| 26> H -1.6134233330203704 -2.159641386951522 -0.010154362435964655
| 27> *
| 28>
| 29>                          ****END OF INPUT****

CARTESIAN COORDINATES (ANGSTROEM)
---------------------------------
  C     -1.849428   -0.000178    0.072157
  C     -1.065240    1.256726   -0.296880
  C      0.316408    1.271706    0.387106
  C      1.068684    0.000158    0.109159
  O      2.217867    0.000252   -0.327554
  C      0.316656   -1.271500    0.387230
  C     -1.064876   -1.256816   -0.296997
  H     -2.816681   -0.000283   -0.442524
  H     -2.055049   -0.000270    1.150944
  H     -0.924867    1.293829   -1.384540
  H     -1.613989    2.159346   -0.009779
  H      0.917863    2.130000    0.076934
  H      0.166095    1.325322    1.474832
  H      0.918318   -2.129732    0.077290
  H      0.166138   -1.324973    1.474934
  H     -0.924305   -1.293676   -1.384644
  H     -1.613423   -2.159641   -0.010154

 Total Charge           Charge          ....    0
 Multiplicity           Mult            ....    1
 Number of Electrons    NEL             ....   54
 Basis Dimension        Dim             ....  277

ORBITAL ENERGIES
----------------

  NO   OCC          E(Eh)            E(eV)
   0   2.0000     -21.667874      -589.6128
   1   2.0000     -12.140536      -330.3608
   2   2.0000     -12.043837      -327.7295
   3   2.0000     -12.043398      -327.7175
   4   2.0000     -12.041256      -327.6592
   5   2.0000     -12.041183      -327.6573
   6   2.0000     -12.034550      -327.4768
   7   2.0000      -1.712271       -46.5933
   8   2.0000      -1.338928       -36.4341
   9   2.0000      -1.256794       -34.1991
  10   2.0000      -1.241419       -33.7807
  11   2.0000      -1.115526       -30.3550
  12   2.0000      -1.100578       -29.9482
  13   2.0000      -1.041762       -28.3478
  14   2.0000      -0.962205       -26.1829
  15   2.0000      -0.958114       -26.0716
  16   2.0000      -0.915912       -24.9232
  17   2.0000      -0.889683       -24.2095
  18   2.0000      -0.865685       -23.5565
  19   2.0000      -0.859177       -23.3794
  20   2.0000      -0.828698       -22.5500
  21   2.0000      -0.823469       -22.4077
  22   2.0000      -0.821507       -22.3543
  23   2.0000      -0.776572       -21.1316
  24   2.0000      -0.771395       -20.9907
  25   2.0000      -0.751813       -20.4579
  26   2.0000      -0.744666       -20.2634
  27   0.0000      -0.308254        -8.3880
  28   0.0000      -0.051027        -1.3885
  29   0.0000      -0.024620        -0.6699
  30   0.0000      -0.021300        -0.5796
  31   0.0000      -0.014688        -0.3997

MULLIKEN ATOMIC CHARGES
-----------------------
   0 C :   -0.215218
   1 C :   -0.205471
   2 C :   -0.182732
   3 C :    0.222681
   4 O :   -0.451550
   5 C :   -0.182683
   6 C :   -0.205473
   7 H :    0.119953
   8 H :    0.107819
   9 H :    0.114435
  10 H :    0.123382
  11 H :    0.122968
  12 H :    0.135571
  13 H :    0.122954
  14 H :    0.135562
  15 H :    0.114437
  16 H :    0.123365
Sum of atomic charges:   -0.0000000

LOEWDIN ATOMIC CHARGES
----------------------
   0 C :   -0.260370
   1 C :   -0.245070
   2 C :   -0.210570
   3 C :   -0.292254
   4 O :    0.017781
   5 C :   -0.210571
   6 C :   -0.245067
   7 H :    0.137926
   8 H :    0.139333
   9 H :    0.140452
  10 H :    0.138353
  11 H :    0.143117
  12 H :    0.162512
  13 H :    0.143114
  14 H :    0.162509
  15 H :    0.140455
  16 H :    0.138351

  Mayer bond orders larger than 0.100000
B(  0-C ,  1-C ) :   0.9892 B(  0-C ,  6-C ) :   0.9892 B(  0-C ,  7-H ) :   0.9639
B(  0-C ,  8-H ) :   0.9713 B(  1-C ,  2-C ) :   0.9552 B(  1-C ,  9-H ) :   0.9715
B(  1-C , 10-H ) :   0.9660 B(  2-C ,  3-C ) :   0.9961 B(  2-C , 11-H ) :   0.9590
B(  2-C , 12-H ) :   0.9348 B(  3-C ,  4-O ) :   2.0156 B(  3-C ,  5-C ) :   0.9961
B(  5-C ,  6-C ) :   0.9552 B(  5-C , 13-H ) :   0.9590 B(  5-C , 14-H ) :   0.9348
B(  6-C , 15-H ) :   0.9715 B(  6-C , 16-H ) :   0.9660

FINAL SINGLE POINT ENERGY      -309.919313848089

DIPOLE MOMENT
-------------

Method             : SCF
Type of density    : Electron Density
Multiplicity       :   1
Irrep              :   0
Energy             :  -309.9305044774894782 Eh
Relativity type    :
Basis              : AO
                                X                 Y                 Z
Electronic contribution:      5.440735138       0.000410612      -0.322478935
Nuclear contribution   :     -7.293202947      -0.000557699       0.942140645
                        -----------------------------------------
Total Dipole Moment    :     -1.852467809      -0.000147087       0.619661710
                        -----------------------------------------
Magnitude (a.u.)       :      1.953360601
Magnitude (Debye)      :      4.965048069

Rotational constants in cm-1:             0.140858             0.083631             0.058863
Rotational constants in MHz :          4222.822967          2507.197041          1764.679894

                             ****ORCA TERMINATED NORMALLY****
TOTAL RUN TIME: 0 days 0 hours 2 minutes 10 seconds 921 msec
