                         Program Version 6.0.1  -  RELEASE   -
|  1> ! pbe def2-sv(p) def2/J RI DEFGRID1 loosescf d4 GCP(DFT/SV(P)) printgap
|  2> %output
|  3>     printlevel normal
|  4> end
|  5> * xyz 0 1
|  6> C 4.0337547987 -2.6426267446 0.6622234263
|  7> C 2.8409732233 -1.7497602597 0.9588874654
|  8> O 2.5923077242 -0.8882968316 -0.1675237594
|  9> C 1.498133496 -1.032538897 -0.8752958787
| 10> O 0.6117631224 -1.8356077965 -0.6449000822
| 11> C 1.4370598401 -0.0547952978 -2.0298243511
| 12> C 0.2306274606 0.8747985442 -1.874503911
| 13> H 0.125270222 1.4853556395 -2.7763443731
| 14> C 0.3447522947 1.8049200073 -0.6780076199
| 15> O -0.5847442492 1.9960922021 0.081385937
| 16> O 1.5212887255 2.3595503804 -0.5994120462
| 17> C 1.8199609606 3.2165347238 0.5245618286
| 18> C 2.4735501675 2.4114402624 1.6349872874
| 19> S -1.3555230356 -0.0110837942 -1.7461506193
| 20> P -1.5633228579 -0.4465036974 0.3424129042
| 21> S -0.2841515429 -0.2918497093 1.8209833416
| 22> O -2.9745345602 0.2537770019 0.6685423132
| 23> C -3.1662885738 1.5577709522 1.2096078888
| 24> O -2.0598854603 -1.9539508072 0.3142441582
| 25> C -3.0473504967 -2.4613742797 -0.5964428997
| 26> H 4.2589728794 -3.2363670818 1.5417158722
| 27> H 3.8104800772 -3.3086107502 -0.1674176649
| 28> H 4.8968556136 -2.0347755753 0.4075149827
| 29> H 3.0365402329 -1.0845736454 1.80219163
| 30> H 1.9375171414 -2.3301977052 1.165152827
| 31> H 1.3172894194 -0.6255614265 -2.951366209
| 32> H 2.3531354958 0.5338254429 -2.0564442995
| 33> H 2.5002345365 3.9660713136 0.119768709
| 34> H 0.8931387617 3.6810005361 0.8699026745
| 35> H 2.7405181112 3.0748525887 2.4505472875
| 36> H 1.7837666413 1.6547679246 2.0073951886
| 37> H 3.3670175041 1.9182266782 1.2625811223
| 38> H -2.4029489563 1.7696314703 1.9590368756
| 39> H -4.1549799907 1.5426428128 1.6625995401
| 40> H -3.1120544125 2.3009267587 0.4156366414
| 41> H -3.9471096626 -1.8491291274 -0.5559772878
| 42> H -3.2516583031 -3.4729130957 -0.254651169
| 43> H -2.6436036166 -2.4738295226 -1.6088193093
| 44> *
| 45>
| 46>                          ****END OF INPUT****

CARTESIAN COORDINATES (ANGSTROEM)
---------------------------------
  C      4.033755   -2.642627    0.662223
  C      2.840973   -1.749760    0.958887
  O      2.592308   -0.888297   -0.167524
  C      1.498133   -1.032539   -0.875296
  O      0.611763   -1.835608   -0.644900
  C      1.437060   -0.054795   -2.029824
  C      0.230627    0.874799   -1.874504
  H      0.125270    1.485356   -2.776344
  C      0.344752    1.804920   -0.678008
  O     -0.584744    1.996092    0.081386
  O      1.521289    2.359550   -0.599412
  C      1.819961    3.216535    0.524562
  C      2.473550    2.411440    1.634987
  S     -1.355523   -0.011084   -1.746151
  P     -1.563323   -0.446504    0.342413
  S     -0.284152   -0.291850    1.820983
  O     -2.974535    0.253777    0.668542
  C     -3.166289    1.557771    1.209608
  O     -2.059885   -1.953951    0.314244
  C     -3.047350   -2.461374   -0.596443
  H      4.258973   -3.236367    1.541716
  H      3.810480   -3.308611   -0.167418
  H      4.896856   -2.034776    0.407515
  H      3.036540   -1.084574    1.802192
  H      1.937517   -2.330198    1.165153
  H      1.317289   -0.625561   -2.951366
  H      2.353135    0.533825   -2.056444
  H      2.500235    3.966071    0.119769
  H      0.893139    3.681001    0.869903
  H      2.740518    3.074853    2.450547
  H      1.783767    1.654768    2.007395
  H      3.367018    1.918227    1.262581
  H     -2.402949    1.769631    1.959037
  H     -4.154980    1.542643    1.662600
  H     -3.112054    2.300927    0.415637
  H     -3.947110   -1.849129   -0.555977
  H     -3.251658   -3.472913   -0.254651
  H     -2.643604   -2.473830   -1.608819

 Total Charge           Charge          ....    0
 Multiplicity           Mult            ....    1
 Number of Electrons    NEL             ....  174
 Basis Dimension        Dim             ....  316

ORBITAL ENERGIES
----------------

  NO   OCC          E(Eh)            E(eV)
   0   2.0000     -88.026666     -2395.3274
   1   2.0000     -87.965224     -2393.6554
   2   2.0000     -76.412619     -2079.2931
   3   2.0000     -18.821723      -512.1651
   4   2.0000     -18.804352      -511.6924
   5   2.0000     -18.768790      -510.7247
   6   2.0000     -18.767990      -510.7030
   7   2.0000     -18.755079      -510.3517
   8   2.0000     -18.731666      -509.7145
   9   2.0000     -10.024389      -272.7775
  10   2.0000     -10.006646      -272.2947
  11   2.0000      -9.955636      -270.9066
  12   2.0000      -9.953689      -270.8536
  13   2.0000      -9.938173      -270.4314
  14   2.0000      -9.931441      -270.2482
  15   2.0000      -9.923065      -270.0203
  16   2.0000      -9.911295      -269.7000
  17   2.0000      -9.884697      -268.9763
  18   2.0000      -9.884584      -268.9732
  19   2.0000      -7.671652      -208.7563
  20   2.0000      -7.610254      -207.0855
  21   2.0000      -6.407684      -174.3619
  22   2.0000      -5.699985      -155.1045
  23   2.0000      -5.696517      -155.0101
  24   2.0000      -5.687778      -154.7723
  25   2.0000      -5.639746      -153.4653
  26   2.0000      -5.630733      -153.2200
  27   2.0000      -5.629864      -153.1964
  28   2.0000      -4.630514      -126.0027
  29   2.0000      -4.629827      -125.9840
  30   2.0000      -4.628116      -125.9374
  31   2.0000      -1.029491       -28.0139
  32   2.0000      -1.008035       -27.4300
  33   2.0000      -0.962474       -26.1902
  34   2.0000      -0.934153       -25.4196
  35   2.0000      -0.917159       -24.9572
  36   2.0000      -0.910619       -24.7792
  37   2.0000      -0.764387       -20.8000
  38   2.0000      -0.710609       -19.3367
  39   2.0000      -0.706561       -19.2265
  40   2.0000      -0.682625       -18.5752
  41   2.0000      -0.652372       -17.7520
  42   2.0000      -0.622916       -16.9504
  43   2.0000      -0.616296       -16.7703
  44   2.0000      -0.602999       -16.4084
  45   2.0000      -0.591945       -16.1076
  46   2.0000      -0.566133       -15.4053
  47   2.0000      -0.509508       -13.8644
  48   2.0000      -0.500770       -13.6266
  49   2.0000      -0.497573       -13.5397
  50   2.0000      -0.483780       -13.1643
  51   2.0000      -0.459882       -12.5140
  52   2.0000      -0.454643       -12.3715
  53   2.0000      -0.447834       -12.1862
  54   2.0000      -0.438361       -11.9284
  55   2.0000      -0.426726       -11.6118
  56   2.0000      -0.417166       -11.3517
  57   2.0000      -0.412923       -11.2362
  58   2.0000      -0.408832       -11.1249
  59   2.0000      -0.400420       -10.8960
  60   2.0000      -0.394226       -10.7274
  61   2.0000      -0.389666       -10.6034
  62   2.0000      -0.381048       -10.3688
  63   2.0000      -0.378567       -10.3013
  64   2.0000      -0.376218       -10.2374
  65   2.0000      -0.371005       -10.0956
  66   2.0000      -0.358405        -9.7527
  67   2.0000      -0.353860        -9.6290
  68   2.0000      -0.347417        -9.4537
  69   2.0000      -0.339807        -9.2466
  70   2.0000      -0.333133        -9.0650
  71   2.0000      -0.323388        -8.7998
  72   2.0000      -0.321721        -8.7545
  73   2.0000      -0.305531        -8.3139
  74   2.0000      -0.300615        -8.1801
  75   2.0000      -0.288221        -7.8429
  76   2.0000      -0.282264        -7.6808
  77   2.0000      -0.278601        -7.5811
  78   2.0000      -0.275314        -7.4917
  79   2.0000      -0.256894        -6.9904
  80   2.0000      -0.248823        -6.7708
  81   2.0000      -0.246373        -6.7041
  82   2.0000      -0.239697        -6.5225
  83   2.0000      -0.224583        -6.1112
  84   2.0000      -0.193648        -5.2694
  85   2.0000      -0.181574        -4.9409
  86   2.0000      -0.174926        -4.7600
  87   0.0000      -0.043840        -1.1929
  88   0.0000      -0.041525        -1.1300
  89   0.0000      -0.025272        -0.6877
  90   0.0000       0.003613         0.0983
  91   0.0000       0.036337         0.9888

MULLIKEN ATOMIC CHARGES
-----------------------
   0 C :   -0.283343
   1 C :   -0.037998
   2 O :   -0.222231
   3 C :    0.085805
   4 O :   -0.193358
   5 C :   -0.010610
   6 C :   -0.323854
   7 H :    0.154543
   8 C :    0.202795
   9 O :   -0.181086
  10 O :   -0.219108
  11 C :   -0.011830
  12 C :   -0.323056
  13 S :   -0.098074
  14 P :    0.641296
  15 S :   -0.334698
  16 O :   -0.395929
  17 C :   -0.080202
  18 O :   -0.360721
  19 C :   -0.111468
  20 H :    0.113718
  21 H :    0.113113
  22 H :    0.109457
  23 H :    0.106842
  24 H :    0.134742
  25 H :    0.118267
  26 H :    0.112593
  27 H :    0.105344
  28 H :    0.113984
  29 H :    0.110433
  30 H :    0.154148
  31 H :    0.115514
  32 H :    0.111863
  33 H :    0.110538
  34 H :    0.106174
  35 H :    0.116144
  36 H :    0.125758
  37 H :    0.124495
Sum of atomic charges:   -0.0000000

LOEWDIN ATOMIC CHARGES
----------------------
   0 C :   -0.352656
   1 C :   -0.116326
   2 O :   -0.045077
   3 C :    0.017529
   4 O :   -0.169820
   5 C :   -0.248886
   6 C :   -0.261085
   7 H :    0.152907
   8 C :    0.012943
   9 O :   -0.152561
  10 O :   -0.036818
  11 C :   -0.104460
  12 C :   -0.361899
  13 S :    0.100255
  14 P :    0.599135
  15 S :   -0.305336
  16 O :   -0.264017
  17 C :   -0.210307
  18 O :   -0.239551
  19 C :   -0.215261
  20 H :    0.131126
  21 H :    0.126128
  22 H :    0.122614
  23 H :    0.117338
  24 H :    0.125498
  25 H :    0.144992
  26 H :    0.136949
  27 H :    0.118847
  28 H :    0.122576
  29 H :    0.130265
  30 H :    0.128778
  31 H :    0.124506
  32 H :    0.107767
  33 H :    0.113248
  34 H :    0.107707
  35 H :    0.110354
  36 H :    0.123750
  37 H :    0.108850

  Mayer bond orders larger than 0.100000
B(  0-C ,  1-C ) :   1.1621 B(  0-C , 20-H ) :   0.9455 B(  0-C , 21-H ) :   0.9496
B(  0-C , 22-H ) :   0.9494 B(  1-C ,  2-O ) :   0.9004 B(  1-C , 23-H ) :   0.9332
B(  1-C , 24-H ) :   0.9038 B(  2-O ,  3-C ) :   1.2483 B(  3-C ,  4-O ) :   1.9929
B(  3-C ,  5-C ) :   0.9924 B(  5-C ,  6-C ) :   1.0223 B(  5-C , 25-H ) :   0.8887
B(  5-C , 26-H ) :   0.8843 B(  6-C ,  7-H ) :   0.8715 B(  6-C ,  8-C ) :   0.8897
B(  6-C , 13-S ) :   1.0669 B(  8-C ,  9-O ) :   1.9731 B(  8-C , 10-O ) :   1.2728
B( 10-O , 11-C ) :   0.8948 B( 11-C , 12-C ) :   1.1808 B( 11-C , 27-H ) :   0.9365
B( 11-C , 28-H ) :   0.9111 B( 12-C , 29-H ) :   0.9393 B( 12-C , 30-H ) :   0.9231
B( 12-C , 31-H ) :   0.9454 B( 13-S , 14-P ) :   0.8985 B( 13-S , 15-S ) :   0.1179
B( 14-P , 15-S ) :   1.5411 B( 14-P , 16-O ) :   1.0735 B( 14-P , 18-O ) :   1.1199
B( 16-O , 17-C ) :   0.9397 B( 17-C , 32-H ) :   0.9376 B( 17-C , 33-H ) :   0.9560
B( 17-C , 34-H ) :   0.9515 B( 18-O , 19-C ) :   0.9336 B( 19-C , 35-H ) :   0.9442
B( 19-C , 36-H ) :   0.9603 B( 19-C , 37-H ) :   0.9377

Dispersion correction           -0.056423668
FINAL SINGLE POINT ENERGY     -1978.997150891131

DIPOLE MOMENT
-------------

Method             : SCF
Type of density    : Electron Density
Multiplicity       :   1
Irrep              :   0
Energy             : -1979.1254495702105487 Eh
Relativity type    :
Basis              : AO
                                X                 Y                 Z
Electronic contribution:    -13.200882459      -0.961671395      -5.425998384
Nuclear contribution   :     14.104244672       1.824608811       4.652498969
                        -----------------------------------------
Total Dipole Moment    :      0.903362213       0.862937416      -0.773499415
                        -----------------------------------------
Magnitude (a.u.)       :      1.469362316
Magnitude (Debye)      :      3.734822197

Rotational constants in cm-1:             0.012597             0.009229             0.007484
Rotational constants in MHz :           377.633891           276.681498           224.351818

                             ****ORCA TERMINATED NORMALLY****
TOTAL RUN TIME: 0 days 0 hours 1 minutes 32 seconds 367 msec
