                         Program Version 6.0.0  -   RELEASE  -
|  1> ! pbe def2-sv(p) def2/J RI DEFGRID1 loosescf d4 GCP(DFT/SV(P)) printgap
|  2> %output
|  3>     printlevel normal
|  4> end
|  5> * xyz 0 1
|  6> C 4.4072882659 -0.1957773825 -2.1423132622
|  7> C 4.4112394009 0.8921798279 -1.0879652413
|  8> O 3.6480237744 0.5321886413 0.0764913542
|  9> P 2.0691037428 0.332573361 0.0520723619
| 10> S 1.0789792972 1.6197577748 -1.0448642651
| 11> O 1.7148026612 0.4529196594 1.5852802841
| 12> C 2.4014168889 -0.3195137779 2.6123200036
| 13> C 1.4817266774 -1.3752118722 3.1914560668
| 14> S 1.8531190236 -1.7203324197 -0.4533355416
| 15> C 0.0899781216 -1.706576052 -0.8500791039
| 16> S -0.9407577772 -1.1751906584 0.5527286786
| 17> P -2.1387603184 0.3299693122 -0.3590502566
| 18> S -2.0862484062 0.3792341934 -2.3155278206
| 19> O -1.7759553096 1.7129772225 0.3085704597
| 20> C -2.1947051169 2.1568343356 1.6209761544
| 21> C -1.6052901818 1.3101142676 2.7290323708
| 22> O -3.5855073518 0.0664927181 0.2571198919
| 23> C -4.537277553 -0.8278494673 -0.345472327
| 24> C -4.07248668 -2.2696837659 -0.3351929675
| 25> H 4.6945008504 -1.1490609736 -1.7058162579
| 26> H 3.4128216412 -0.2913304615 -2.5758563406
| 27> H 5.106970761 0.0673353224 -2.9291429974
| 28> H 4.0014939474 1.8223692528 -1.4936817215
| 29> H 5.4132894851 1.0681730525 -0.6939464428
| 30> H 3.297191084 -0.7669203011 2.1780634789
| 31> H 2.6880599242 0.4166229648 3.3647948651
| 32> H 1.1995903499 -2.0993587121 2.4313056152
| 33> H 2.0024416798 -1.8869948829 3.9944506415
| 34> H 0.578341645 -0.9176597661 3.5836819998
| 35> H -0.1641645596 -2.7325795552 -1.1044512619
| 36> H -0.1031966678 -1.0329470209 -1.689836317
| 37> H -1.8270444088 3.1837665072 1.66053299
| 38> H -3.2861174164 2.1485025451 1.6536191451
| 39> H -0.5234197901 1.2640925562 2.6228118334
| 40> H -1.8548706544 1.7549036052 3.6873338622
| 41> H -2.0093338337 0.2995664714 2.6866590712
| 42> H -5.4360207177 -0.6896671864 0.2574679351
| 43> H -4.7203409319 -0.4926862947 -1.3710033836
| 44> H -4.8834629582 -2.9059179262 -0.6747003772
| 45> H -3.2265118517 -2.3894131426 -1.0103516126
| 46> H -3.773280488 -2.5671612874 0.6664816526
| 47> *
| 48>
| 49>                          ****END OF INPUT****

CARTESIAN COORDINATES (ANGSTROEM)
---------------------------------
  C      4.407288   -0.195777   -2.142313
  C      4.411239    0.892180   -1.087965
  O      3.648024    0.532189    0.076491
  P      2.069104    0.332573    0.052072
  S      1.078979    1.619758   -1.044864
  O      1.714803    0.452920    1.585280
  C      2.401417   -0.319514    2.612320
  C      1.481727   -1.375212    3.191456
  S      1.853119   -1.720332   -0.453336
  C      0.089978   -1.706576   -0.850079
  S     -0.940758   -1.175191    0.552729
  P     -2.138760    0.329969   -0.359050
  S     -2.086248    0.379234   -2.315528
  O     -1.775955    1.712977    0.308570
  C     -2.194705    2.156834    1.620976
  C     -1.605290    1.310114    2.729032
  O     -3.585507    0.066493    0.257120
  C     -4.537278   -0.827849   -0.345472
  C     -4.072487   -2.269684   -0.335193
  H      4.694501   -1.149061   -1.705816
  H      3.412822   -0.291330   -2.575856
  H      5.106971    0.067335   -2.929143
  H      4.001494    1.822369   -1.493682
  H      5.413289    1.068173   -0.693946
  H      3.297191   -0.766920    2.178063
  H      2.688060    0.416623    3.364795
  H      1.199590   -2.099359    2.431306
  H      2.002442   -1.886995    3.994451
  H      0.578342   -0.917660    3.583682
  H     -0.164165   -2.732580   -1.104451
  H     -0.103197   -1.032947   -1.689836
  H     -1.827044    3.183767    1.660533
  H     -3.286117    2.148503    1.653619
  H     -0.523420    1.264093    2.622812
  H     -1.854871    1.754904    3.687334
  H     -2.009334    0.299566    2.686659
  H     -5.436021   -0.689667    0.257468
  H     -4.720341   -0.492686   -1.371003
  H     -4.883463   -2.905918   -0.674700
  H     -3.226512   -2.389413   -1.010352
  H     -3.773280   -2.567161    0.666482

 Total Charge           Charge          ....    0
 Multiplicity           Mult            ....    1
 Number of Electrons    NEL             ....  202
 Basis Dimension        Dim             ....  334

ORBITAL ENERGIES
----------------

  NO   OCC          E(Eh)            E(eV)
   0   2.0000     -88.042811     -2395.7667
   1   2.0000     -88.038098     -2395.6385
   2   2.0000     -87.978887     -2394.0272
   3   2.0000     -87.978659     -2394.0210
   4   2.0000     -76.422290     -2079.5562
   5   2.0000     -76.421427     -2079.5328
   6   2.0000     -18.790424      -511.3134
   7   2.0000     -18.788398      -511.2583
   8   2.0000     -18.788361      -511.2573
   9   2.0000     -18.781062      -511.0587
  10   2.0000      -9.956165      -270.9210
  11   2.0000      -9.951548      -270.7954
  12   2.0000      -9.951218      -270.7864
  13   2.0000      -9.950340      -270.7625
  14   2.0000      -9.949391      -270.7367
  15   2.0000      -9.885403      -268.9955
  16   2.0000      -9.882357      -268.9126
  17   2.0000      -9.882350      -268.9124
  18   2.0000      -9.882161      -268.9073
  19   2.0000      -7.687745      -209.1942
  20   2.0000      -7.682217      -209.0438
  21   2.0000      -7.624056      -207.4611
  22   2.0000      -7.623472      -207.4452
  23   2.0000      -6.419594      -174.6860
  24   2.0000      -6.418424      -174.6542
  25   2.0000      -5.715571      -155.5286
  26   2.0000      -5.712140      -155.4352
  27   2.0000      -5.710136      -155.3807
  28   2.0000      -5.706774      -155.2892
  29   2.0000      -5.704905      -155.2383
  30   2.0000      -5.699181      -155.0826
  31   2.0000      -5.653105      -153.8288
  32   2.0000      -5.652576      -153.8144
  33   2.0000      -5.644531      -153.5955
  34   2.0000      -5.644191      -153.5862
  35   2.0000      -5.643935      -153.5793
  36   2.0000      -5.643642      -153.5713
  37   2.0000      -4.642454      -126.3276
  38   2.0000      -4.641405      -126.2991
  39   2.0000      -4.641371      -126.2981
  40   2.0000      -4.639852      -126.2568
  41   2.0000      -4.639798      -126.2553
  42   2.0000      -4.638930      -126.2317
  43   2.0000      -0.985536       -26.8178
  44   2.0000      -0.981593       -26.7105
  45   2.0000      -0.941595       -25.6221
  46   2.0000      -0.936191       -25.4751
  47   2.0000      -0.759469       -20.6662
  48   2.0000      -0.716246       -19.4901
  49   2.0000      -0.708086       -19.2680
  50   2.0000      -0.688015       -18.7218
  51   2.0000      -0.686496       -18.6805
  52   2.0000      -0.676031       -18.3957
  53   2.0000      -0.647560       -17.6210
  54   2.0000      -0.629565       -17.1313
  55   2.0000      -0.596043       -16.2192
  56   2.0000      -0.586879       -15.9698
  57   2.0000      -0.575248       -15.6533
  58   2.0000      -0.574162       -15.6237
  59   2.0000      -0.556806       -15.1515
  60   2.0000      -0.501052       -13.6343
  61   2.0000      -0.490901       -13.3581
  62   2.0000      -0.470239       -12.7958
  63   2.0000      -0.464118       -12.6293
  64   2.0000      -0.447712       -12.1829
  65   2.0000      -0.444394       -12.0926
  66   2.0000      -0.443267       -12.0619
  67   2.0000      -0.439870       -11.9695
  68   2.0000      -0.428949       -11.6723
  69   2.0000      -0.420965       -11.4550
  70   2.0000      -0.410252       -11.1635
  71   2.0000      -0.395101       -10.7513
  72   2.0000      -0.393179       -10.6990
  73   2.0000      -0.382339       -10.4040
  74   2.0000      -0.374123       -10.1804
  75   2.0000      -0.365953        -9.9581
  76   2.0000      -0.364324        -9.9138
  77   2.0000      -0.358753        -9.7622
  78   2.0000      -0.351870        -9.5749
  79   2.0000      -0.349695        -9.5157
  80   2.0000      -0.346812        -9.4372
  81   2.0000      -0.344191        -9.3659
  82   2.0000      -0.339425        -9.2362
  83   2.0000      -0.334860        -9.1120
  84   2.0000      -0.333029        -9.0622
  85   2.0000      -0.314078        -8.5465
  86   2.0000      -0.306956        -8.3527
  87   2.0000      -0.301045        -8.1919
  88   2.0000      -0.292252        -7.9526
  89   2.0000      -0.290388        -7.9019
  90   2.0000      -0.288426        -7.8485
  91   2.0000      -0.271587        -7.3902
  92   2.0000      -0.264695        -7.2027
  93   2.0000      -0.259757        -7.0683
  94   2.0000      -0.253343        -6.8938
  95   2.0000      -0.229165        -6.2359
  96   2.0000      -0.218932        -5.9575
  97   2.0000      -0.208888        -5.6841
  98   2.0000      -0.195871        -5.3299
  99   2.0000      -0.190614        -5.1869
 100   2.0000      -0.182656        -4.9703
 101   0.0000      -0.041315        -1.1242
 102   0.0000      -0.034412        -0.9364
 103   0.0000      -0.006331        -0.1723
 104   0.0000       0.009436         0.2568
 105   0.0000       0.016723         0.4550

MULLIKEN ATOMIC CHARGES
-----------------------
   0 C :   -0.320121
   1 C :    0.002883
   2 O :   -0.382825
   3 P :    0.588092
   4 S :   -0.278567
   5 O :   -0.354858
   6 C :   -0.014186
   7 C :   -0.287926
   8 S :   -0.116343
   9 C :   -0.332825
  10 S :   -0.133050
  11 P :    0.631635
  12 S :   -0.300483
  13 O :   -0.349681
  14 C :    0.015188
  15 C :   -0.359924
  16 O :   -0.390770
  17 C :    0.003831
  18 C :   -0.312007
  19 H :    0.115234
  20 H :    0.132809
  21 H :    0.113727
  22 H :    0.112483
  23 H :    0.102919
  24 H :    0.108051
  25 H :    0.110090
  26 H :    0.120979
  27 H :    0.107350
  28 H :    0.123456
  29 H :    0.176780
  30 H :    0.206870
  31 H :    0.110756
  32 H :    0.105833
  33 H :    0.153371
  34 H :    0.109796
  35 H :    0.121975
  36 H :    0.101223
  37 H :    0.111719
  38 H :    0.111034
  39 H :    0.119429
  40 H :    0.116052
Sum of atomic charges:   -0.0000000

LOEWDIN ATOMIC CHARGES
----------------------
   0 C :   -0.371631
   1 C :   -0.116190
   2 O :   -0.251586
   3 P :    0.559788
   4 S :   -0.285445
   5 O :   -0.237075
   6 C :   -0.111678
   7 C :   -0.361476
   8 S :    0.071791
   9 C :   -0.480417
  10 S :    0.076302
  11 P :    0.577800
  12 S :   -0.297000
  13 O :   -0.228561
  14 C :   -0.106229
  15 C :   -0.376284
  16 O :   -0.252948
  17 C :   -0.116503
  18 C :   -0.371210
  19 H :    0.121943
  20 H :    0.123506
  21 H :    0.131403
  22 H :    0.113138
  23 H :    0.117676
  24 H :    0.109535
  25 H :    0.121034
  26 H :    0.115732
  27 H :    0.128476
  28 H :    0.127145
  29 H :    0.133313
  30 H :    0.125016
  31 H :    0.123752
  32 H :    0.111857
  33 H :    0.131380
  34 H :    0.129471
  35 H :    0.114403
  36 H :    0.116803
  37 H :    0.112081
  38 H :    0.129715
  39 H :    0.118974
  40 H :    0.122194

  Mayer bond orders larger than 0.100000
B(  0-C ,  1-C ) :   1.1665 B(  0-C , 19-H ) :   0.9436 B(  0-C , 20-H ) :   0.9346
B(  0-C , 21-H ) :   0.9371 B(  1-C ,  2-O ) :   0.9071 B(  1-C , 22-H ) :   0.9171
B(  1-C , 23-H ) :   0.9346 B(  2-O ,  3-P ) :   1.0811 B(  3-P ,  4-S ) :   1.6698
B(  3-P ,  5-O ) :   1.1171 B(  3-P ,  8-S ) :   0.9339 B(  4-S ,  8-S ) :   0.1077
B(  5-O ,  6-C ) :   0.8834 B(  6-C ,  7-C ) :   1.1662 B(  6-C , 24-H ) :   0.9175
B(  6-C , 25-H ) :   0.9353 B(  7-C , 26-H ) :   0.9314 B(  7-C , 27-H ) :   0.9382
B(  7-C , 28-H ) :   0.9443 B(  8-S ,  9-C ) :   1.0022 B(  9-C , 10-S ) :   1.0014
B(  9-C , 29-H ) :   0.9088 B(  9-C , 30-H ) :   0.8464 B( 10-S , 11-P ) :   0.9377
B( 10-S , 12-S ) :   0.1162 B( 11-P , 12-S ) :   1.6224 B( 11-P , 13-O ) :   1.1387
B( 11-P , 16-O ) :   1.0618 B( 12-S , 30-H ) :   0.1015 B( 13-O , 14-C ) :   0.9061
B( 14-C , 15-C ) :   1.1697 B( 14-C , 31-H ) :   0.9315 B( 14-C , 32-H ) :   0.9259
B( 15-C , 33-H ) :   0.9245 B( 15-C , 34-H ) :   0.9352 B( 15-C , 35-H ) :   0.9351
B( 16-O , 17-C ) :   0.9129 B( 17-C , 18-C ) :   1.1669 B( 17-C , 36-H ) :   0.9346
B( 17-C , 37-H ) :   0.9173 B( 18-C , 38-H ) :   0.9368 B( 18-C , 39-H ) :   0.9362
B( 18-C , 40-H ) :   0.9423

Dispersion correction           -0.068871352
FINAL SINGLE POINT ENERGY     -2929.513445697528

DIPOLE MOMENT
-------------

Method             : SCF
Type of density    : Electron Density
Multiplicity       :   1
Irrep              :   0
Energy             : -2929.6310435175028033 Eh
Relativity type    :
Basis              : AO
                                X                 Y                 Z
Electronic contribution:     -0.289694511       7.055593875     -11.616601789
Nuclear contribution   :      0.615653915      -7.933236462      13.103032914
                        -----------------------------------------
Total Dipole Moment    :      0.325959404      -0.877642588       1.486431125
                        -----------------------------------------
Magnitude (a.u.)       :      1.756696768
Magnitude (Debye)      :      4.465168331

Rotational constants in cm-1:             0.012402             0.005568             0.005190
Rotational constants in MHz :           371.812988           166.933813           155.578463

                             ****ORCA TERMINATED NORMALLY****
TOTAL RUN TIME: 0 days 0 hours 0 minutes 22 seconds 457 msec
