                         Program Version 6.0.0  -   RELEASE  -
|  1> ! pbe def2-sv(p) def2/J RI DEFGRID1 loosescf d4 GCP(DFT/SV(P)) printgap
|  2> %output
|  3>     printlevel normal
|  4> end
|  5> * xyz 0 1
|  6> C 3.0318782738 0.0829300601 3.2377690097
|  7> C 1.6695924273 -0.3063743288 2.7054270184
|  8> O 1.4081025872 0.3166055697 1.4299242554
|  9> P 2.1900317208 -0.1048048663 0.1224145803
| 10> S 2.8048427514 -1.9700749453 0.0665900699
| 11> O 3.2875796193 1.0402562642 0.0434734777
| 12> C 4.2336019094 1.1434765272 -1.0388333628
| 13> C 5.5075903879 0.3826313926 -0.7251924706
| 14> S 0.8327088145 0.4465416135 -1.4087678437
| 15> C -0.1090627335 -1.1013746825 -1.3918365542
| 16> S -1.1447062419 -1.2744674745 0.079703833
| 17> P -2.5340050526 0.2595548849 -0.4533899679
| 18> S -2.9643746861 0.3944977672 -2.3540387306
| 19> O -1.9271171906 1.5994386136 0.1135896255
| 20> C -1.6726495639 1.8159674189 1.5247194525
| 21> C -0.6728942899 2.9467676944 1.6452142771
| 22> O -3.7578829527 0.016010859 0.5325058557
| 23> C -4.8550710395 -0.8601702479 0.2115709419
| 24> C -4.4260316081 -2.3087897532 0.1044813882
| 25> H 3.1676982222 -0.3385463189 4.2287266996
| 26> H 3.8065261899 -0.3057542262 2.5775625682
| 27> H 3.122486896 1.1646984455 3.285866472
| 28> H 0.8639921109 0.0530929711 3.3466757192
| 29> H 1.5934533826 -1.3917487741 2.5849953336
| 30> H 3.7707367705 0.7756332916 -1.9592818544
| 31> H 4.4233387737 2.2144381713 -1.1323033443
| 32> H 6.2171326577 0.5257079882 -1.5337311033
| 33> H 5.9415968389 0.7465193538 0.2019051692
| 34> H 5.2983532251 -0.6798727965 -0.6224053491
| 35> H 0.5802043182 -1.9464297848 -1.3973223772
| 36> H -0.7416207602 -1.0929027849 -2.2796893496
| 37> H -2.6245895934 2.0637547839 1.9980900334
| 38> H -1.2856694834 0.8872476842 1.9547612797
| 39> H -0.5137470663 3.1724629476 2.6947396024
| 40> H 0.2729151989 2.6612102727 1.191205925
| 41> H -1.0510753391 3.8298468488 1.1382072291
| 42> H -5.5554587145 -0.7064558744 1.0337214695
| 43> H -5.3012835839 -0.5209743325 -0.7280262506
| 44> H -3.8795513827 -2.6105148739 0.9945830187
| 45> H -5.305620942 -2.9343099934 -0.0086716702
| 46> H -3.7843890881 -2.4443673063 -0.7648807602
| 47> *
| 48>
| 49>                          ****END OF INPUT****

CARTESIAN COORDINATES (ANGSTROEM)
---------------------------------
  C      3.031878    0.082930    3.237769
  C      1.669592   -0.306374    2.705427
  O      1.408103    0.316606    1.429924
  P      2.190032   -0.104805    0.122415
  S      2.804843   -1.970075    0.066590
  O      3.287580    1.040256    0.043473
  C      4.233602    1.143477   -1.038833
  C      5.507590    0.382631   -0.725192
  S      0.832709    0.446542   -1.408768
  C     -0.109063   -1.101375   -1.391837
  S     -1.144706   -1.274467    0.079704
  P     -2.534005    0.259555   -0.453390
  S     -2.964375    0.394498   -2.354039
  O     -1.927117    1.599439    0.113590
  C     -1.672650    1.815967    1.524719
  C     -0.672894    2.946768    1.645214
  O     -3.757883    0.016011    0.532506
  C     -4.855071   -0.860170    0.211571
  C     -4.426032   -2.308790    0.104481
  H      3.167698   -0.338546    4.228727
  H      3.806526   -0.305754    2.577563
  H      3.122487    1.164698    3.285866
  H      0.863992    0.053093    3.346676
  H      1.593453   -1.391749    2.584995
  H      3.770737    0.775633   -1.959282
  H      4.423339    2.214438   -1.132303
  H      6.217133    0.525708   -1.533731
  H      5.941597    0.746519    0.201905
  H      5.298353   -0.679873   -0.622405
  H      0.580204   -1.946430   -1.397322
  H     -0.741621   -1.092903   -2.279689
  H     -2.624590    2.063755    1.998090
  H     -1.285669    0.887248    1.954761
  H     -0.513747    3.172463    2.694740
  H      0.272915    2.661210    1.191206
  H     -1.051075    3.829847    1.138207
  H     -5.555459   -0.706456    1.033721
  H     -5.301284   -0.520974   -0.728026
  H     -3.879551   -2.610515    0.994583
  H     -5.305621   -2.934310   -0.008672
  H     -3.784389   -2.444367   -0.764881

 Total Charge           Charge          ....    0
 Multiplicity           Mult            ....    1
 Number of Electrons    NEL             ....  202
 Basis Dimension        Dim             ....  334

ORBITAL ENERGIES
----------------

  NO   OCC          E(Eh)            E(eV)
   0   2.0000     -88.042174     -2395.7493
   1   2.0000     -88.040410     -2395.7013
   2   2.0000     -87.993031     -2394.4121
   3   2.0000     -87.985909     -2394.2183
   4   2.0000     -76.430806     -2079.7880
   5   2.0000     -76.424898     -2079.6272
   6   2.0000     -18.798785      -511.5409
   7   2.0000     -18.796553      -511.4802
   8   2.0000     -18.795092      -511.4404
   9   2.0000     -18.788008      -511.2477
  10   2.0000      -9.959010      -270.9984
  11   2.0000      -9.956421      -270.9280
  12   2.0000      -9.954577      -270.8778
  13   2.0000      -9.951070      -270.7824
  14   2.0000      -9.950627      -270.7703
  15   2.0000      -9.887864      -269.0625
  16   2.0000      -9.884601      -268.9737
  17   2.0000      -9.884596      -268.9735
  18   2.0000      -9.881268      -268.8830
  19   2.0000      -7.687350      -209.1834
  20   2.0000      -7.685183      -209.1245
  21   2.0000      -7.637877      -207.8372
  22   2.0000      -7.631219      -207.6560
  23   2.0000      -6.428388      -174.9253
  24   2.0000      -6.422437      -174.7634
  25   2.0000      -5.715134      -155.5167
  26   2.0000      -5.712910      -155.4562
  27   2.0000      -5.711960      -155.4303
  28   2.0000      -5.709799      -155.3715
  29   2.0000      -5.704298      -155.2218
  30   2.0000      -5.702243      -155.1659
  31   2.0000      -5.666664      -154.1978
  32   2.0000      -5.660147      -154.0204
  33   2.0000      -5.658467      -153.9747
  34   2.0000      -5.658217      -153.9679
  35   2.0000      -5.651752      -153.7920
  36   2.0000      -5.651413      -153.7828
  37   2.0000      -4.650862      -126.5564
  38   2.0000      -4.650193      -126.5382
  39   2.0000      -4.648872      -126.5022
  40   2.0000      -4.645357      -126.4066
  41   2.0000      -4.644056      -126.3712
  42   2.0000      -4.642735      -126.3352
  43   2.0000      -0.993248       -27.0277
  44   2.0000      -0.987389       -26.8682
  45   2.0000      -0.952016       -25.9057
  46   2.0000      -0.943188       -25.6654
  47   2.0000      -0.764284       -20.7972
  48   2.0000      -0.722678       -19.6651
  49   2.0000      -0.710541       -19.3348
  50   2.0000      -0.690771       -18.7968
  51   2.0000      -0.688526       -18.7357
  52   2.0000      -0.676281       -18.4025
  53   2.0000      -0.652304       -17.7501
  54   2.0000      -0.638840       -17.3837
  55   2.0000      -0.602563       -16.3966
  56   2.0000      -0.592907       -16.1338
  57   2.0000      -0.573740       -15.6122
  58   2.0000      -0.568390       -15.4667
  59   2.0000      -0.561303       -15.2738
  60   2.0000      -0.507143       -13.8001
  61   2.0000      -0.500208       -13.6114
  62   2.0000      -0.480703       -13.0806
  63   2.0000      -0.473867       -12.8946
  64   2.0000      -0.459613       -12.5067
  65   2.0000      -0.447892       -12.1878
  66   2.0000      -0.442343       -12.0368
  67   2.0000      -0.438092       -11.9211
  68   2.0000      -0.428751       -11.6669
  69   2.0000      -0.417261       -11.3542
  70   2.0000      -0.408562       -11.1175
  71   2.0000      -0.397704       -10.8221
  72   2.0000      -0.395161       -10.7529
  73   2.0000      -0.389381       -10.5956
  74   2.0000      -0.377192       -10.2639
  75   2.0000      -0.376444       -10.2436
  76   2.0000      -0.363996        -9.9048
  77   2.0000      -0.361068        -9.8251
  78   2.0000      -0.356141        -9.6911
  79   2.0000      -0.351388        -9.5618
  80   2.0000      -0.350474        -9.5369
  81   2.0000      -0.345178        -9.3928
  82   2.0000      -0.340540        -9.2666
  83   2.0000      -0.338298        -9.2056
  84   2.0000      -0.336650        -9.1607
  85   2.0000      -0.322649        -8.7797
  86   2.0000      -0.310245        -8.4422
  87   2.0000      -0.301587        -8.2066
  88   2.0000      -0.300294        -8.1714
  89   2.0000      -0.295099        -8.0301
  90   2.0000      -0.292141        -7.9496
  91   2.0000      -0.279815        -7.6141
  92   2.0000      -0.270702        -7.3662
  93   2.0000      -0.265334        -7.2201
  94   2.0000      -0.258026        -7.0212
  95   2.0000      -0.234823        -6.3899
  96   2.0000      -0.219894        -5.9836
  97   2.0000      -0.213884        -5.8201
  98   2.0000      -0.205649        -5.5960
  99   2.0000      -0.203978        -5.5505
 100   2.0000      -0.200622        -5.4592
 101   0.0000      -0.044399        -1.2082
 102   0.0000      -0.023489        -0.6392
 103   0.0000      -0.004500        -0.1225
 104   0.0000      -0.000082        -0.0022
 105   0.0000       0.015558         0.4234

MULLIKEN ATOMIC CHARGES
-----------------------
   0 C :   -0.304943
   1 C :   -0.009981
   2 O :   -0.360431
   3 P :    0.613987
   4 S :   -0.333137
   5 O :   -0.374186
   6 C :   -0.013034
   7 C :   -0.297577
   8 S :   -0.060422
   9 C :   -0.378743
  10 S :   -0.093475
  11 P :    0.606127
  12 S :   -0.313615
  13 O :   -0.353499
  14 C :   -0.015657
  15 C :   -0.284913
  16 O :   -0.387083
  17 C :    0.000175
  18 C :   -0.318211
  19 H :    0.113080
  20 H :    0.125725
  21 H :    0.116769
  22 H :    0.105602
  23 H :    0.115945
  24 H :    0.106512
  25 H :    0.110620
  26 H :    0.110081
  27 H :    0.114412
  28 H :    0.131393
  29 H :    0.193606
  30 H :    0.194613
  31 H :    0.104302
  32 H :    0.108142
  33 H :    0.100875
  34 H :    0.130200
  35 H :    0.117409
  36 H :    0.104594
  37 H :    0.113704
  38 H :    0.117496
  39 H :    0.114112
  40 H :    0.129425
Sum of atomic charges:    0.0000000

LOEWDIN ATOMIC CHARGES
----------------------
   0 C :   -0.364680
   1 C :   -0.117927
   2 O :   -0.231557
   3 P :    0.571381
   4 S :   -0.317280
   5 O :   -0.243740
   6 C :   -0.115292
   7 C :   -0.364207
   8 S :    0.094632
   9 C :   -0.490063
  10 S :    0.075429
  11 P :    0.572337
  12 S :   -0.309595
  13 O :   -0.234581
  14 C :   -0.113624
  15 C :   -0.353950
  16 O :   -0.250224
  17 C :   -0.115304
  18 C :   -0.371013
  19 H :    0.131166
  20 H :    0.123164
  21 H :    0.126459
  22 H :    0.115234
  23 H :    0.111901
  24 H :    0.108785
  25 H :    0.120586
  26 H :    0.130066
  27 H :    0.125409
  28 H :    0.124708
  29 H :    0.127752
  30 H :    0.128603
  31 H :    0.112840
  32 H :    0.103335
  33 H :    0.125948
  34 H :    0.125645
  35 H :    0.128273
  36 H :    0.118566
  37 H :    0.113737
  38 H :    0.123268
  39 H :    0.131642
  40 H :    0.122168

  Mayer bond orders larger than 0.100000
B(  0-C ,  1-C ) :   1.1656 B(  0-C , 19-H ) :   0.9385 B(  0-C , 20-H ) :   0.9330
B(  0-C , 21-H ) :   0.9466 B(  1-C ,  2-O ) :   0.8999 B(  1-C , 22-H ) :   0.9293
B(  1-C , 23-H ) :   0.9143 B(  2-O ,  3-P ) :   1.1124 B(  3-P ,  4-S ) :   1.5911
B(  3-P ,  5-O ) :   1.1099 B(  3-P ,  8-S ) :   0.9710 B(  4-S ,  8-S ) :   0.1108
B(  5-O ,  6-C ) :   0.9034 B(  6-C ,  7-C ) :   1.1675 B(  6-C , 24-H ) :   0.9164
B(  6-C , 25-H ) :   0.9355 B(  7-C , 26-H ) :   0.9392 B(  7-C , 27-H ) :   0.9465
B(  7-C , 28-H ) :   0.9317 B(  8-S ,  9-C ) :   1.0049 B(  9-C , 10-S ) :   1.0048
B(  9-C , 29-H ) :   0.8713 B(  9-C , 30-H ) :   0.8721 B( 10-S , 11-P ) :   0.9439
B( 10-S , 12-S ) :   0.1087 B( 11-P , 12-S ) :   1.6364 B( 11-P , 13-O ) :   1.1429
B( 11-P , 16-O ) :   1.0851 B( 13-O , 14-C ) :   0.8892 B( 14-C , 15-C ) :   1.1680
B( 14-C , 31-H ) :   0.9309 B( 14-C , 32-H ) :   0.9085 B( 15-C , 33-H ) :   0.9408
B( 15-C , 34-H ) :   0.9386 B( 15-C , 35-H ) :   0.9479 B( 16-O , 17-C ) :   0.9069
B( 17-C , 18-C ) :   1.1661 B( 17-C , 36-H ) :   0.9345 B( 17-C , 37-H ) :   0.9196
B( 18-C , 38-H ) :   0.9437 B( 18-C , 39-H ) :   0.9367 B( 18-C , 40-H ) :   0.9346

Dispersion correction           -0.065733933
FINAL SINGLE POINT ENERGY     -2929.525859490884

DIPOLE MOMENT
-------------

Method             : SCF
Type of density    : Electron Density
Multiplicity       :   1
Irrep              :   0
Energy             : -2929.6456487193040630 Eh
Relativity type    :
Basis              : AO
                                X                 Y                 Z
Electronic contribution:     -8.492117864      -2.655592020     -14.796070804
Nuclear contribution   :      8.764360306       2.904987875      16.197528770
                        -----------------------------------------
Total Dipole Moment    :      0.272242443       0.249395855       1.401457966
                        -----------------------------------------
Magnitude (a.u.)       :      1.449275223
Magnitude (Debye)      :      3.683764862

Rotational constants in cm-1:             0.013593             0.004677             0.004517
Rotational constants in MHz :           407.508944           140.201790           135.421416

                             ****ORCA TERMINATED NORMALLY****
TOTAL RUN TIME: 0 days 0 hours 0 minutes 21 seconds 629 msec
