                         Program Version 6.0.0  -   RELEASE  -
|  1> ! wb97x-v def2-tzvp def2/J RIJCOSX DEFGRID2 scfconv7 GCP(DFT/TZ) printgap
|  2> %output
|  3>     printlevel normal
|  4> end
|  5> %cpcm
|  6>     smd true
|  7>     smdsolvent "water"
|  8> end
|  9> * xyz 0 1
| 10> C 0.7075016969435113 -0.00020263341196451347 -1.1660568822222195
| 11> C -0.3673515120143646 -8.286985741495204e-05 -0.08782791808772815
| 12> Cl -1.9550731913275543 0.0006007105628414687 -0.9478640217473424
| 13> Cl -0.26755835935030226 -1.463980223286334 0.9474850929827594
| 14> Cl -0.2666022358852725 1.4633440514753744 0.9480659227359302
| 15> Cl 2.372098247092126 -0.0010956086605980533 -0.4678385405713382
| 16> H 0.6026714763761495 0.8962995603118779 -1.7798300056884506
| 17> H 0.6019534086172665 -0.8962636220158967 -1.7803527781343258
| 18> *
| 19>
| 20>                          ****END OF INPUT****

CARTESIAN COORDINATES (ANGSTROEM)
---------------------------------
  C      0.707502   -0.000203   -1.166057
  C     -0.367352   -0.000083   -0.087828
  Cl    -1.955073    0.000601   -0.947864
  Cl    -0.267558   -1.463980    0.947485
  Cl    -0.266602    1.463344    0.948066
  Cl     2.372098   -0.001096   -0.467839
  H      0.602671    0.896300   -1.779830
  H      0.601953   -0.896264   -1.780353

 Total Charge           Charge          ....    0
 Multiplicity           Mult            ....    1
 Number of Electrons    NEL             ....   82
 Basis Dimension        Dim             ....  222

ORBITAL ENERGIES
----------------

  NO   OCC          E(Eh)            E(eV)
   0   2.0000    -107.170041     -2916.2451
   1   2.0000    -107.168325     -2916.1984
   2   2.0000    -107.168321     -2916.1983
   3   2.0000    -107.148673     -2915.6636
   4   2.0000     -12.255555      -333.4906
   5   2.0000     -12.135845      -330.2331
   6   2.0000     -11.323409      -308.1256
   7   2.0000     -11.321856      -308.0834
   8   2.0000     -11.321630      -308.0772
   9   2.0000     -11.301888      -307.5400
  10   2.0000      -9.115365      -248.0417
  11   2.0000      -9.114204      -248.0101
  12   2.0000      -9.112626      -247.9672
  13   2.0000      -9.112058      -247.9517
  14   2.0000      -9.111674      -247.9413
  15   2.0000      -9.110428      -247.9074
  16   2.0000      -9.110261      -247.9028
  17   2.0000      -9.109774      -247.8895
  18   2.0000      -9.109651      -247.8862
  19   2.0000      -9.093301      -247.4413
  20   2.0000      -9.090605      -247.3679
  21   2.0000      -9.090566      -247.3669
  22   2.0000      -1.493805       -40.6485
  23   2.0000      -1.414046       -38.4781
  24   2.0000      -1.408143       -38.3175
  25   2.0000      -1.407897       -38.3108
  26   2.0000      -1.260600       -34.3027
  27   2.0000      -1.109822       -30.1998
  28   2.0000      -0.973002       -26.4767
  29   2.0000      -0.967560       -26.3287
  30   2.0000      -0.953497       -25.9460
  31   2.0000      -0.889747       -24.2113
  32   2.0000      -0.889048       -24.1922
  33   2.0000      -0.828219       -22.5370
  34   2.0000      -0.828065       -22.5328
  35   2.0000      -0.814570       -22.1656
  36   2.0000      -0.807725       -21.9793
  37   2.0000      -0.807629       -21.9767
  38   2.0000      -0.801959       -21.8224
  39   2.0000      -0.788916       -21.4675
  40   2.0000      -0.782374       -21.2895
  41   0.0000      -0.366436        -9.9712
  42   0.0000      -0.326288        -8.8787
  43   0.0000      -0.287795        -7.8313
  44   0.0000      -0.240358        -6.5405
  45   0.0000      -0.093282        -2.5383

MULLIKEN ATOMIC CHARGES
-----------------------
   0 C :   -0.185889
   1 C :    0.114385
   2 Cl:   -0.062980
   3 Cl:   -0.059285
   4 Cl:   -0.059285
   5 Cl:   -0.147450
   6 H :    0.200254
   7 H :    0.200250
Sum of atomic charges:   -0.0000000

LOEWDIN ATOMIC CHARGES
----------------------
   0 C :   -0.523041
   1 C :   -1.045032
   2 Cl:    0.339410
   3 Cl:    0.336825
   4 Cl:    0.336820
   5 Cl:    0.260833
   6 H :    0.147093
   7 H :    0.147092

  Mayer bond orders larger than 0.100000
B(  0-C ,  1-C ) :   1.0001 B(  0-C ,  5-Cl) :   1.0394 B(  0-C ,  6-H ) :   0.9391
B(  0-C ,  7-H ) :   0.9391 B(  1-C ,  2-Cl) :   1.1193 B(  1-C ,  3-Cl) :   1.1315
B(  1-C ,  4-Cl) :   1.1315

FINAL SINGLE POINT ENERGY     -1917.994960906865

DIPOLE MOMENT
-------------

Method             : SCF
Type of density    : Electron Density
Multiplicity       :   1
Irrep              :   0
Energy             : -1918.0000599549653089 Eh
Relativity type    :
Basis              : AO
                                X                 Y                 Z
Electronic contribution:     -1.493004555      -0.000322756       3.115360169
Nuclear contribution   :      1.311236619       0.000646887      -4.018197120
                        -----------------------------------------
Total Dipole Moment    :     -0.181767936       0.000324131      -0.902836951
                        -----------------------------------------
Magnitude (a.u.)       :      0.920952902
Magnitude (Debye)      :      2.340876244

Rotational constants in cm-1:             0.060297             0.035526             0.033582
Rotational constants in MHz :          1807.666066          1065.039079          1006.761154

                             ****ORCA TERMINATED NORMALLY****
TOTAL RUN TIME: 0 days 0 hours 1 minutes 11 seconds 493 msec
