                         Program Version 6.0.0  -   RELEASE  -
|  1> ! pbe def2-sv(p) def2/J RI DEFGRID1 loosescf d4 GCP(DFT/SV(P)) printgap
|  2> %output
|  3>     printlevel normal
|  4> end
|  5> * xyz 0 1
|  6> C 3.1491492828 -2.624213681 -1.6310121042
|  7> C 4.3037042589 -1.8004122692 -1.1036200273
|  8> O 3.9783876192 -0.3908718888 -0.9992610029
|  9> P 2.833465033 0.2241665524 -0.1148403343
| 10> S 3.1385794768 2.1194735071 0.2713747797
| 11> O 2.8578362649 -0.7353396079 1.1566622213
| 12> C 2.1174827356 -0.468540027 2.3626769234
| 13> C 0.9748078544 -1.4543308229 2.5075713743
| 14> S 1.019814911 -0.1682575784 -1.1863307347
| 15> C 0.1517364816 1.381199861 -0.861690789
| 16> S -0.7892610948 1.3672326957 0.6889588679
| 17> P -2.3481543542 0.1292989938 -0.0189337521
| 18> S -2.9672385903 0.4394323145 -1.858871898
| 19> O -3.4715943532 0.2153873873 1.1001232974
| 20> C -4.5287530542 1.188585291 1.058226543
| 21> C -4.0151387053 2.5988238346 1.2660311468
| 22> O -1.7072264662 -1.290557679 0.265588801
| 23> C -2.1508562573 -2.4863844711 -0.4087098004
| 24> C -3.5515537918 -2.8794882214 0.0104704808
| 25> H 2.804011412 -2.2307108525 -2.5839014718
| 26> H 3.4763898182 -3.6506706151 -1.7644759752
| 27> H 2.3201201909 -2.604861207 -0.9258680678
| 28> H 5.1513011094 -1.8070376303 -1.7904487834
| 29> H 4.6179442976 -2.1499387443 -0.1185891674
| 30> H 2.8404627201 -0.5827729739 3.1731637447
| 31> H 1.757997906 0.565708651 2.3482721918
| 32> H 0.4699875688 -1.2734846999 3.450984934
| 33> H 0.2570347613 -1.3345741261 1.6996563233
| 34> H 1.3570874182 -2.4711102271 2.4928453329
| 35> H -0.5353933604 1.5410416384 -1.6928556976
| 36> H 0.8798379957 2.1901903309 -0.7823740203
| 37> H -5.0383486682 1.1051623999 0.0927430509
| 38> H -5.2001440718 0.8817633654 1.8612443616
| 39> H -3.4179972522 2.6545237225 2.1727979737
| 40> H -3.3959338485 2.8988778311 0.4212854338
| 41> H -4.8557343334 3.2809051868 1.3441373483
| 42> H -2.100185377 -2.3129973325 -1.4882074292
| 43> H -1.4150179755 -3.2378562938 -0.1203529308
| 44> H -3.6119465701 -2.9562997532 1.0928448574
| 45> H -4.2640424302 -2.1287667267 -0.3294697345
| 46> H -3.8069235996 -3.8350874598 -0.4365927535
| 47> *
| 48>
| 49>                          ****END OF INPUT****

CARTESIAN COORDINATES (ANGSTROEM)
---------------------------------
  C      3.149149   -2.624214   -1.631012
  C      4.303704   -1.800412   -1.103620
  O      3.978388   -0.390872   -0.999261
  P      2.833465    0.224167   -0.114840
  S      3.138579    2.119474    0.271375
  O      2.857836   -0.735340    1.156662
  C      2.117483   -0.468540    2.362677
  C      0.974808   -1.454331    2.507571
  S      1.019815   -0.168258   -1.186331
  C      0.151736    1.381200   -0.861691
  S     -0.789261    1.367233    0.688959
  P     -2.348154    0.129299   -0.018934
  S     -2.967239    0.439432   -1.858872
  O     -3.471594    0.215387    1.100123
  C     -4.528753    1.188585    1.058227
  C     -4.015139    2.598824    1.266031
  O     -1.707226   -1.290558    0.265589
  C     -2.150856   -2.486384   -0.408710
  C     -3.551554   -2.879488    0.010470
  H      2.804011   -2.230711   -2.583901
  H      3.476390   -3.650671   -1.764476
  H      2.320120   -2.604861   -0.925868
  H      5.151301   -1.807038   -1.790449
  H      4.617944   -2.149939   -0.118589
  H      2.840463   -0.582773    3.173164
  H      1.757998    0.565709    2.348272
  H      0.469988   -1.273485    3.450985
  H      0.257035   -1.334574    1.699656
  H      1.357087   -2.471110    2.492845
  H     -0.535393    1.541042   -1.692856
  H      0.879838    2.190190   -0.782374
  H     -5.038349    1.105162    0.092743
  H     -5.200144    0.881763    1.861244
  H     -3.417997    2.654524    2.172798
  H     -3.395934    2.898878    0.421285
  H     -4.855734    3.280905    1.344137
  H     -2.100185   -2.312997   -1.488207
  H     -1.415018   -3.237856   -0.120353
  H     -3.611947   -2.956300    1.092845
  H     -4.264042   -2.128767   -0.329470
  H     -3.806924   -3.835087   -0.436593

 Total Charge           Charge          ....    0
 Multiplicity           Mult            ....    1
 Number of Electrons    NEL             ....  202
 Basis Dimension        Dim             ....  334

ORBITAL ENERGIES
----------------

  NO   OCC          E(Eh)            E(eV)
   0   2.0000     -88.044971     -2395.8255
   1   2.0000     -88.039491     -2395.6763
   2   2.0000     -87.994703     -2394.4576
   3   2.0000     -87.984291     -2394.1743
   4   2.0000     -76.431385     -2079.8037
   5   2.0000     -76.426229     -2079.6634
   6   2.0000     -18.799377      -511.5570
   7   2.0000     -18.795802      -511.4598
   8   2.0000     -18.793754      -511.4040
   9   2.0000     -18.791299      -511.3373
  10   2.0000      -9.960125      -271.0288
  11   2.0000      -9.957368      -270.9538
  12   2.0000      -9.955668      -270.9075
  13   2.0000      -9.949484      -270.7392
  14   2.0000      -9.948459      -270.7113
  15   2.0000      -9.893414      -269.2135
  16   2.0000      -9.888186      -269.0712
  17   2.0000      -9.887294      -269.0469
  18   2.0000      -9.878100      -268.7968
  19   2.0000      -7.689927      -209.2536
  20   2.0000      -7.684170      -209.0969
  21   2.0000      -7.639507      -207.8815
  22   2.0000      -7.629546      -207.6105
  23   2.0000      -6.429095      -174.9446
  24   2.0000      -6.423677      -174.7971
  25   2.0000      -5.717669      -155.5857
  26   2.0000      -5.714602      -155.5022
  27   2.0000      -5.712067      -155.4332
  28   2.0000      -5.708667      -155.3407
  29   2.0000      -5.706872      -155.2919
  30   2.0000      -5.701236      -155.1385
  31   2.0000      -5.668252      -154.2410
  32   2.0000      -5.660216      -154.0223
  33   2.0000      -5.659801      -154.0110
  34   2.0000      -5.658524      -153.9763
  35   2.0000      -5.650005      -153.7445
  36   2.0000      -5.649750      -153.7375
  37   2.0000      -4.651542      -126.5749
  38   2.0000      -4.650816      -126.5551
  39   2.0000      -4.649665      -126.5238
  40   2.0000      -4.646619      -126.4409
  41   2.0000      -4.645180      -126.4018
  42   2.0000      -4.644051      -126.3710
  43   2.0000      -0.993096       -27.0235
  44   2.0000      -0.988623       -26.9018
  45   2.0000      -0.952457       -25.9177
  46   2.0000      -0.943753       -25.6808
  47   2.0000      -0.763328       -20.7712
  48   2.0000      -0.724024       -19.7017
  49   2.0000      -0.712424       -19.3860
  50   2.0000      -0.692093       -18.8328
  51   2.0000      -0.690406       -18.7869
  52   2.0000      -0.677585       -18.4380
  53   2.0000      -0.653098       -17.7717
  54   2.0000      -0.637468       -17.3464
  55   2.0000      -0.606352       -16.4997
  56   2.0000      -0.595718       -16.2103
  57   2.0000      -0.577368       -15.7110
  58   2.0000      -0.575673       -15.6648
  59   2.0000      -0.557338       -15.1659
  60   2.0000      -0.501194       -13.6382
  61   2.0000      -0.496380       -13.5072
  62   2.0000      -0.479010       -13.0345
  63   2.0000      -0.475912       -12.9502
  64   2.0000      -0.459657       -12.5079
  65   2.0000      -0.449070       -12.2198
  66   2.0000      -0.444653       -12.0996
  67   2.0000      -0.440292       -11.9810
  68   2.0000      -0.426947       -11.6178
  69   2.0000      -0.425522       -11.5790
  70   2.0000      -0.412377       -11.2214
  71   2.0000      -0.399168       -10.8619
  72   2.0000      -0.393065       -10.6959
  73   2.0000      -0.387986       -10.5576
  74   2.0000      -0.385211       -10.4821
  75   2.0000      -0.377149       -10.2628
  76   2.0000      -0.368007       -10.0140
  77   2.0000      -0.360509        -9.8100
  78   2.0000      -0.358802        -9.7635
  79   2.0000      -0.353152        -9.6098
  80   2.0000      -0.351057        -9.5528
  81   2.0000      -0.349750        -9.5172
  82   2.0000      -0.344438        -9.3726
  83   2.0000      -0.340572        -9.2674
  84   2.0000      -0.331261        -9.0141
  85   2.0000      -0.323963        -8.8155
  86   2.0000      -0.312269        -8.4973
  87   2.0000      -0.300121        -8.1667
  88   2.0000      -0.299126        -8.1396
  89   2.0000      -0.291892        -7.9428
  90   2.0000      -0.287468        -7.8224
  91   2.0000      -0.279581        -7.6078
  92   2.0000      -0.276464        -7.5230
  93   2.0000      -0.269060        -7.3215
  94   2.0000      -0.255847        -6.9619
  95   2.0000      -0.235095        -6.3973
  96   2.0000      -0.220436        -5.9984
  97   2.0000      -0.215653        -5.8682
  98   2.0000      -0.207379        -5.6431
  99   2.0000      -0.202124        -5.5001
 100   2.0000      -0.199409        -5.4262
 101   0.0000      -0.044897        -1.2217
 102   0.0000      -0.027908        -0.7594
 103   0.0000      -0.006764        -0.1841
 104   0.0000      -0.000196        -0.0053
 105   0.0000       0.010156         0.2764

MULLIKEN ATOMIC CHARGES
-----------------------
   0 C :   -0.341824
   1 C :    0.009685
   2 O :   -0.363080
   3 P :    0.611967
   4 S :   -0.309868
   5 O :   -0.385954
   6 C :   -0.003689
   7 C :   -0.323020
   8 S :   -0.110976
   9 C :   -0.359590
  10 S :   -0.076887
  11 P :    0.611898
  12 S :   -0.332172
  13 O :   -0.370764
  14 C :   -0.005893
  15 C :   -0.317534
  16 O :   -0.355274
  17 C :    0.000993
  18 C :   -0.309481
  19 H :    0.133162
  20 H :    0.118633
  21 H :    0.133229
  22 H :    0.113267
  23 H :    0.112328
  24 H :    0.104626
  25 H :    0.103870
  26 H :    0.105601
  27 H :    0.155854
  28 H :    0.103125
  29 H :    0.192605
  30 H :    0.197102
  31 H :    0.112362
  32 H :    0.107256
  33 H :    0.120017
  34 H :    0.129560
  35 H :    0.115548
  36 H :    0.113381
  37 H :    0.104952
  38 H :    0.117960
  39 H :    0.123316
  40 H :    0.113709
Sum of atomic charges:   -0.0000000

LOEWDIN ATOMIC CHARGES
----------------------
   0 C :   -0.373990
   1 C :   -0.106316
   2 O :   -0.236415
   3 P :    0.572421
   4 S :   -0.303189
   5 O :   -0.251758
   6 C :   -0.116306
   7 C :   -0.369538
   8 S :    0.074138
   9 C :   -0.492548
  10 S :    0.099353
  11 P :    0.574939
  12 S :   -0.320005
  13 O :   -0.241879
  14 C :   -0.118850
  15 C :   -0.369419
  16 O :   -0.233089
  17 C :   -0.116379
  18 C :   -0.364824
  19 H :    0.129642
  20 H :    0.134276
  21 H :    0.119014
  22 H :    0.124065
  23 H :    0.116181
  24 H :    0.117403
  25 H :    0.103229
  26 H :    0.128994
  27 H :    0.122384
  28 H :    0.120104
  29 H :    0.128386
  30 H :    0.127882
  31 H :    0.111216
  32 H :    0.119657
  33 H :    0.125369
  34 H :    0.122494
  35 H :    0.132442
  36 H :    0.111680
  37 H :    0.118254
  38 H :    0.127033
  39 H :    0.122771
  40 H :    0.131178

  Mayer bond orders larger than 0.100000
B(  0-C ,  1-C ) :   1.1700 B(  0-C , 19-H ) :   0.9404 B(  0-C , 20-H ) :   0.9349
B(  0-C , 21-H ) :   0.9312 B(  1-C ,  2-O ) :   0.8973 B(  1-C , 22-H ) :   0.9338
B(  1-C , 23-H ) :   0.9276 B(  2-O ,  3-P ) :   1.1481 B(  3-P ,  4-S ) :   1.6469
B(  3-P ,  5-O ) :   1.0724 B(  3-P ,  8-S ) :   0.9365 B(  4-S ,  8-S ) :   0.1161
B(  4-S , 30-H ) :   0.1094 B(  5-O ,  6-C ) :   0.9008 B(  6-C ,  7-C ) :   1.1662
B(  6-C , 24-H ) :   0.9355 B(  6-C , 25-H ) :   0.9025 B(  7-C , 26-H ) :   0.9401
B(  7-C , 27-H ) :   0.9186 B(  7-C , 28-H ) :   0.9458 B(  8-S ,  9-C ) :   1.0170
B(  9-C , 10-S ) :   0.9976 B(  9-C , 29-H ) :   0.8696 B(  9-C , 30-H ) :   0.8544
B( 10-S , 11-P ) :   0.9661 B( 10-S , 12-S ) :   0.1087 B( 11-P , 12-S ) :   1.5882
B( 11-P , 13-O ) :   1.1124 B( 11-P , 16-O ) :   1.1196 B( 13-O , 14-C ) :   0.9057
B( 14-C , 15-C ) :   1.1663 B( 14-C , 31-H ) :   0.9166 B( 14-C , 32-H ) :   0.9336
B( 15-C , 33-H ) :   0.9445 B( 15-C , 34-H ) :   0.9351 B( 15-C , 35-H ) :   0.9375
B( 16-O , 17-C ) :   0.9010 B( 17-C , 18-C ) :   1.1639 B( 17-C , 36-H ) :   0.9177
B( 17-C , 37-H ) :   0.9336 B( 18-C , 38-H ) :   0.9459 B( 18-C , 39-H ) :   0.9365
B( 18-C , 40-H ) :   0.9389

Dispersion correction           -0.065195375
FINAL SINGLE POINT ENERGY     -2929.522607014387

DIPOLE MOMENT
-------------

Method             : SCF
Type of density    : Electron Density
Multiplicity       :   1
Irrep              :   0
Energy             : -2929.6433602213724043 Eh
Relativity type    :
Basis              : AO
                                X                 Y                 Z
Electronic contribution:     10.676578658      15.196258861      -7.121644075
Nuclear contribution   :    -11.406230385     -16.835805587       7.817426610
                        -----------------------------------------
Total Dipole Moment    :     -0.729651727      -1.639546726       0.695782535
                        -----------------------------------------
Magnitude (a.u.)       :      1.924738539
Magnitude (Debye)      :      4.892296569

Rotational constants in cm-1:             0.012633             0.004811             0.004385
Rotational constants in MHz :           378.727707           144.227966           131.448427

                             ****ORCA TERMINATED NORMALLY****
TOTAL RUN TIME: 0 days 0 hours 0 minutes 21 seconds 384 msec
