                         Program Version 6.0.1  -  RELEASE   -
|  1> ! pbe def2-sv(p) def2/J RI DEFGRID1 loosescf d4 GCP(DFT/SV(P)) printgap
|  2> %output
|  3>     printlevel normal
|  4> end
|  5> * xyz 0 1
|  6> C 3.979201863 -3.8304144118 -1.4700358089
|  7> C 2.9137235056 -2.9598936121 -2.1169652205
|  8> O 2.7220576167 -1.7397196968 -1.3750542567
|  9> C 1.8913148963 -1.7504147079 -0.3533016875
| 10> O 1.261739252 -2.7159988066 0.0165690628
| 11> C 1.7747896971 -0.3737257506 0.2760519273
| 12> C 0.9442856452 0.5208817886 -0.6462252336
| 13> H 1.501673612 0.7272650759 -1.5649733754
| 14> C 0.5608016961 1.8423291867 0.0006189815
| 15> O -0.5639399111 2.2953756696 -0.0629933644
| 16> O 1.575076186 2.401192425 0.5995685505
| 17> C 1.3609350075 3.6595869485 1.2750127067
| 18> C 1.4466425922 4.8235362821 0.3020533826
| 19> S -0.5892875876 -0.2838240369 -1.2196101938
| 20> P -1.8467816007 -0.0098703194 0.4739738662
| 21> S -1.0864192464 0.3321651969 2.24585253
| 22> O -3.0050142993 0.9919882298 0.0947854422
| 23> C -3.7395986724 0.9085213365 -1.1415504632
| 24> O -2.66501118 -1.3936610863 0.4227138036
| 25> C -2.0719185058 -2.617450714 0.8651023105
| 26> H 3.6532351342 -4.1486450961 -0.4823840917
| 27> H 4.1466152941 -4.7085046347 -2.0848819271
| 28> H 4.9090799519 -3.2766030626 -1.3750450322
| 29> H 1.9581753185 -3.4891618628 -2.1680357597
| 30> H 3.2187179686 -2.6284926438 -3.1094537819
| 31> H 2.7635128617 0.067610579 0.396143614
| 32> H 1.2903455088 -0.4736895391 1.2492106252
| 33> H 0.3835400153 3.6254876525 1.7647488141
| 34> H 2.1559063239 3.6979096448 2.0192824434
| 35> H 0.6419454922 4.7633504346 -0.4271872181
| 36> H 1.3523362827 5.7538627394 0.8521087233
| 37> H 2.4010665445 4.8085587667 -0.2166827396
| 38> H -3.0558811144 1.0019707565 -1.9853466792
| 39> H -4.4308738781 1.7466800959 -1.1134950599
| 40> H -4.2742792437 -0.0384568028 -1.192485503
| 41> H -2.8264863023 -3.3825892999 0.70548063
| 42> H -1.8160757726 -2.5437086909 1.922925541
| 43> H -1.1694893781 -2.8412205458 0.2938274653
| 44> *
| 45>
| 46>                          ****END OF INPUT****

CARTESIAN COORDINATES (ANGSTROEM)
---------------------------------
  C      3.979202   -3.830414   -1.470036
  C      2.913724   -2.959894   -2.116965
  O      2.722058   -1.739720   -1.375054
  C      1.891315   -1.750415   -0.353302
  O      1.261739   -2.715999    0.016569
  C      1.774790   -0.373726    0.276052
  C      0.944286    0.520882   -0.646225
  H      1.501674    0.727265   -1.564973
  C      0.560802    1.842329    0.000619
  O     -0.563940    2.295376   -0.062993
  O      1.575076    2.401192    0.599569
  C      1.360935    3.659587    1.275013
  C      1.446643    4.823536    0.302053
  S     -0.589288   -0.283824   -1.219610
  P     -1.846782   -0.009870    0.473974
  S     -1.086419    0.332165    2.245853
  O     -3.005014    0.991988    0.094785
  C     -3.739599    0.908521   -1.141550
  O     -2.665011   -1.393661    0.422714
  C     -2.071919   -2.617451    0.865102
  H      3.653235   -4.148645   -0.482384
  H      4.146615   -4.708505   -2.084882
  H      4.909080   -3.276603   -1.375045
  H      1.958175   -3.489162   -2.168036
  H      3.218718   -2.628493   -3.109454
  H      2.763513    0.067611    0.396144
  H      1.290346   -0.473690    1.249211
  H      0.383540    3.625488    1.764749
  H      2.155906    3.697910    2.019282
  H      0.641945    4.763350   -0.427187
  H      1.352336    5.753863    0.852109
  H      2.401067    4.808559   -0.216683
  H     -3.055881    1.001971   -1.985347
  H     -4.430874    1.746680   -1.113495
  H     -4.274279   -0.038457   -1.192486
  H     -2.826486   -3.382589    0.705481
  H     -1.816076   -2.543709    1.922926
  H     -1.169489   -2.841221    0.293827

 Total Charge           Charge          ....    0
 Multiplicity           Mult            ....    1
 Number of Electrons    NEL             ....  174
 Basis Dimension        Dim             ....  316

ORBITAL ENERGIES
----------------

  NO   OCC          E(Eh)            E(eV)
   0   2.0000     -88.035622     -2395.5711
   1   2.0000     -87.974521     -2393.9084
   2   2.0000     -76.418282     -2079.4472
   3   2.0000     -18.815951      -512.0081
   4   2.0000     -18.806427      -511.7489
   5   2.0000     -18.781386      -511.0675
   6   2.0000     -18.776555      -510.9360
   7   2.0000     -18.743894      -510.0473
   8   2.0000     -18.741160      -509.9729
   9   2.0000     -10.021253      -272.6922
  10   2.0000     -10.010992      -272.4130
  11   2.0000      -9.952786      -270.8291
  12   2.0000      -9.952699      -270.8267
  13   2.0000      -9.951765      -270.8013
  14   2.0000      -9.940890      -270.5054
  15   2.0000      -9.923959      -270.0446
  16   2.0000      -9.903572      -269.4899
  17   2.0000      -9.890875      -269.1444
  18   2.0000      -9.890244      -269.1272
  19   2.0000      -7.680355      -208.9931
  20   2.0000      -7.619746      -207.3438
  21   2.0000      -6.414703      -174.5529
  22   2.0000      -5.708397      -155.3334
  23   2.0000      -5.704921      -155.2388
  24   2.0000      -5.697088      -155.0257
  25   2.0000      -5.648948      -153.7157
  26   2.0000      -5.640455      -153.4846
  27   2.0000      -5.639439      -153.4569
  28   2.0000      -4.637386      -126.1897
  29   2.0000      -4.636720      -126.1716
  30   2.0000      -4.635119      -126.1280
  31   2.0000      -1.024185       -27.8695
  32   2.0000      -1.014091       -27.5948
  33   2.0000      -0.973982       -26.5034
  34   2.0000      -0.928990       -25.2791
  35   2.0000      -0.925543       -25.1853
  36   2.0000      -0.917570       -24.9684
  37   2.0000      -0.766160       -20.8483
  38   2.0000      -0.713207       -19.4074
  39   2.0000      -0.708506       -19.2794
  40   2.0000      -0.685972       -18.6662
  41   2.0000      -0.654922       -17.8213
  42   2.0000      -0.626952       -17.0602
  43   2.0000      -0.619743       -16.8641
  44   2.0000      -0.613024       -16.6812
  45   2.0000      -0.596753       -16.2385
  46   2.0000      -0.568559       -15.4713
  47   2.0000      -0.511758       -13.9257
  48   2.0000      -0.502219       -13.6661
  49   2.0000      -0.498724       -13.5710
  50   2.0000      -0.481256       -13.0957
  51   2.0000      -0.462348       -12.5811
  52   2.0000      -0.454208       -12.3596
  53   2.0000      -0.444267       -12.0891
  54   2.0000      -0.441171       -12.0049
  55   2.0000      -0.427507       -11.6331
  56   2.0000      -0.423004       -11.5105
  57   2.0000      -0.421034       -11.4569
  58   2.0000      -0.413850       -11.2614
  59   2.0000      -0.400175       -10.8893
  60   2.0000      -0.399408       -10.8684
  61   2.0000      -0.393172       -10.6988
  62   2.0000      -0.389305       -10.5935
  63   2.0000      -0.388696       -10.5770
  64   2.0000      -0.380023       -10.3409
  65   2.0000      -0.367232        -9.9929
  66   2.0000      -0.360886        -9.8202
  67   2.0000      -0.352028        -9.5792
  68   2.0000      -0.349911        -9.5216
  69   2.0000      -0.336883        -9.1670
  70   2.0000      -0.336014        -9.1434
  71   2.0000      -0.328037        -8.9263
  72   2.0000      -0.325830        -8.8663
  73   2.0000      -0.310694        -8.4544
  74   2.0000      -0.302920        -8.2429
  75   2.0000      -0.298850        -8.1321
  76   2.0000      -0.290751        -7.9117
  77   2.0000      -0.284913        -7.7529
  78   2.0000      -0.269390        -7.3305
  79   2.0000      -0.265040        -7.2121
  80   2.0000      -0.262220        -7.1354
  81   2.0000      -0.247383        -6.7316
  82   2.0000      -0.239670        -6.5218
  83   2.0000      -0.219915        -5.9842
  84   2.0000      -0.214908        -5.8479
  85   2.0000      -0.194300        -5.2872
  86   2.0000      -0.188724        -5.1354
  87   0.0000      -0.043256        -1.1771
  88   0.0000      -0.031054        -0.8450
  89   0.0000      -0.018602        -0.5062
  90   0.0000       0.006907         0.1879
  91   0.0000       0.027382         0.7451

MULLIKEN ATOMIC CHARGES
-----------------------
   0 C :   -0.305642
   1 C :   -0.011149
   2 O :   -0.234782
   3 C :    0.121118
   4 O :   -0.190984
   5 C :   -0.036027
   6 C :   -0.336070
   7 H :    0.153379
   8 C :    0.205573
   9 O :   -0.182752
  10 O :   -0.220721
  11 C :   -0.007219
  12 C :   -0.310294
  13 S :   -0.096825
  14 P :    0.621964
  15 S :   -0.323339
  16 O :   -0.354026
  17 C :   -0.103857
  18 O :   -0.394110
  19 C :   -0.122045
  20 H :    0.129429
  21 H :    0.114258
  22 H :    0.114064
  23 H :    0.109715
  24 H :    0.102288
  25 H :    0.109790
  26 H :    0.117374
  27 H :    0.124449
  28 H :    0.106387
  29 H :    0.130543
  30 H :    0.117581
  31 H :    0.112830
  32 H :    0.120499
  33 H :    0.129718
  34 H :    0.121636
  35 H :    0.112667
  36 H :    0.115826
  37 H :    0.138752
Sum of atomic charges:    0.0000000

LOEWDIN ATOMIC CHARGES
----------------------
   0 C :   -0.356064
   1 C :   -0.111074
   2 O :   -0.061967
   3 C :    0.023853
   4 O :   -0.159204
   5 C :   -0.255174
   6 C :   -0.259515
   7 H :    0.150071
   8 C :    0.006816
   9 O :   -0.160954
  10 O :   -0.038476
  11 C :   -0.105351
  12 C :   -0.357039
  13 S :    0.105146
  14 P :    0.590365
  15 S :   -0.308809
  16 O :   -0.231280
  17 C :   -0.208695
  18 O :   -0.266688
  19 C :   -0.225344
  20 H :    0.131633
  21 H :    0.131356
  22 H :    0.124932
  23 H :    0.120922
  24 H :    0.117670
  25 H :    0.140551
  26 H :    0.133344
  27 H :    0.127966
  28 H :    0.120352
  29 H :    0.131724
  30 H :    0.133350
  31 H :    0.124278
  32 H :    0.110112
  33 H :    0.125805
  34 H :    0.114559
  35 H :    0.116655
  36 H :    0.111171
  37 H :    0.113005

  Mayer bond orders larger than 0.100000
B(  0-C ,  1-C ) :   1.1744 B(  0-C , 20-H ) :   0.9460 B(  0-C , 21-H ) :   0.9441
B(  0-C , 22-H ) :   0.9485 B(  1-C ,  2-O ) :   0.9141 B(  1-C , 23-H ) :   0.9141
B(  1-C , 24-H ) :   0.9369 B(  2-O ,  3-C ) :   1.2184 B(  3-C ,  4-O ) :   2.0063
B(  3-C ,  5-C ) :   1.0243 B(  5-C ,  6-C ) :   1.0484 B(  5-C , 25-H ) :   0.8733
B(  5-C , 26-H ) :   0.8728 B(  6-C ,  7-H ) :   0.8596 B(  6-C ,  8-C ) :   0.9048
B(  6-C , 13-S ) :   1.0323 B(  8-C ,  9-O ) :   2.0122 B(  8-C , 10-O ) :   1.2699
B( 10-O , 11-C ) :   0.9021 B( 11-C , 12-C ) :   1.1732 B( 11-C , 27-H ) :   0.9140
B( 11-C , 28-H ) :   0.9371 B( 12-C , 29-H ) :   0.9447 B( 12-C , 30-H ) :   0.9437
B( 12-C , 31-H ) :   0.9477 B( 13-S , 14-P ) :   0.9384 B( 13-S , 15-S ) :   0.1136
B( 14-P , 15-S ) :   1.5980 B( 14-P , 16-O ) :   1.1406 B( 14-P , 18-O ) :   1.0680
B( 16-O , 17-C ) :   0.9223 B( 17-C , 32-H ) :   0.9389 B( 17-C , 33-H ) :   0.9600
B( 17-C , 34-H ) :   0.9466 B( 18-O , 19-C ) :   0.9268 B( 19-C , 35-H ) :   0.9565
B( 19-C , 36-H ) :   0.9424 B( 19-C , 37-H ) :   0.9260

Dispersion correction           -0.052349467
FINAL SINGLE POINT ENERGY     -1979.016456083682

DIPOLE MOMENT
-------------

Method             : SCF
Type of density    : Electron Density
Multiplicity       :   1
Irrep              :   0
Energy             : -1979.1461917822234682 Eh
Relativity type    :
Basis              : AO
                                X                 Y                 Z
Electronic contribution:    -12.589467146       1.482146993       5.229932011
Nuclear contribution   :     13.700090788      -1.250588349      -6.571068152
                        -----------------------------------------
Total Dipole Moment    :      1.110623642       0.231558643      -1.341136141
                        -----------------------------------------
Magnitude (a.u.)       :      1.756630418
Magnitude (Debye)      :      4.464999684

Rotational constants in cm-1:             0.011158             0.007838             0.005577
Rotational constants in MHz :           334.502832           234.967975           167.188495

                             ****ORCA TERMINATED NORMALLY****
TOTAL RUN TIME: 0 days 0 hours 0 minutes 44 seconds 372 msec
