                         Program Version 6.0.1  -  RELEASE   -
|  1> ! r2scan-3c def2/J RI DEFGRID2 scfconv6 printgap
|  2> %output
|  3>     printlevel normal
|  4> end
|  5> * xyz 0 1
|  6> C 4.8478056349 -3.7479358221 -1.5979768697
|  7> C 4.210599408 -2.6344511839 -0.7908300023
|  8> O 3.1805604384 -2.0315675764 -1.6011045665
|  9> C 2.3898683379 -1.1484202634 -1.0380603605
| 10> O 2.4652003266 -0.8046964317 0.1249451447
| 11> C 1.3732141016 -0.5892393151 -2.0100288226
| 12> C 0.3136889914 0.1923232134 -1.2439936657
| 13> H -0.3158894964 0.7651922667 -1.9329578353
| 14> C 0.988316358 1.1864176786 -0.3139249921
| 15> O 1.868030264 1.9218914396 -0.7055250945
| 16> O 0.4819878382 1.2103379683 0.9006947717
| 17> C 1.0814466618 2.1374810874 1.8299479435
| 18> C 0.6540695106 1.777709166 3.2375707847
| 19> S -0.7715383243 -0.9542549522 -0.3361813972
| 20> P -2.2009557036 0.4588606448 0.3556166488
| 21> S -2.2446933057 2.1954963777 -0.5486318707
| 22> O -3.5672937082 -0.3702968826 0.2298779566
| 23> C -4.1220857976 -0.6947345959 -1.0494718155
| 24> O -2.0949146858 0.5642739923 1.9262718533
| 25> C -2.0998976529 -0.6099266433 2.7635675429
| 26> H 5.6325014005 -4.2122992223 -1.0102664678
| 27> H 4.102839312 -4.4943470438 -1.8560198474
| 28> H 5.2738463203 -3.3465296312 -2.5123122215
| 29> H 4.9346093623 -1.8578786153 -0.5255183663
| 30> H 3.75048263 -3.0059234327 0.1299237693
| 31> H 0.9317233398 -1.3983092875 -2.5905774208
| 32> H 1.8996084681 0.0873890639 -2.6871723012
| 33> H 2.1663057526 2.0710285698 1.7012413544
| 34> H 0.7547300303 3.1440255916 1.5492576343
| 35> H 1.1400271489 2.4525208653 3.9344116617
| 36> H -0.4229627964 1.8757508112 3.3339136881
| 37> H 0.9453839524 0.7559163144 3.4631028369
| 38> H -4.1788805348 0.200150086 -1.6711454303
| 39> H -5.1181007747 -1.0798105443 -0.8468458677
| 40> H -3.5078802297 -1.4512307226 -1.5375891988
| 41> H -1.2469113369 -1.2419137193 2.5168032355
| 42> H -3.0274885572 -1.1615258599 2.6251703775
| 43> H -2.0201068634 -0.2372060778 3.7812901688
| 44> *
| 45>
| 46>                          ****END OF INPUT****

CARTESIAN COORDINATES (ANGSTROEM)
---------------------------------
  C      4.847806   -3.747936   -1.597977
  C      4.210599   -2.634451   -0.790830
  O      3.180560   -2.031568   -1.601105
  C      2.389868   -1.148420   -1.038060
  O      2.465200   -0.804696    0.124945
  C      1.373214   -0.589239   -2.010029
  C      0.313689    0.192323   -1.243994
  H     -0.315889    0.765192   -1.932958
  C      0.988316    1.186418   -0.313925
  O      1.868030    1.921891   -0.705525
  O      0.481988    1.210338    0.900695
  C      1.081447    2.137481    1.829948
  C      0.654070    1.777709    3.237571
  S     -0.771538   -0.954255   -0.336181
  P     -2.200956    0.458861    0.355617
  S     -2.244693    2.195496   -0.548632
  O     -3.567294   -0.370297    0.229878
  C     -4.122086   -0.694735   -1.049472
  O     -2.094915    0.564274    1.926272
  C     -2.099898   -0.609927    2.763568
  H      5.632501   -4.212299   -1.010266
  H      4.102839   -4.494347   -1.856020
  H      5.273846   -3.346530   -2.512312
  H      4.934609   -1.857879   -0.525518
  H      3.750483   -3.005923    0.129924
  H      0.931723   -1.398309   -2.590577
  H      1.899608    0.087389   -2.687172
  H      2.166306    2.071029    1.701241
  H      0.754730    3.144026    1.549258
  H      1.140027    2.452521    3.934412
  H     -0.422963    1.875751    3.333914
  H      0.945384    0.755916    3.463103
  H     -4.178881    0.200150   -1.671145
  H     -5.118101   -1.079811   -0.846846
  H     -3.507880   -1.451231   -1.537589
  H     -1.246911   -1.241914    2.516803
  H     -3.027489   -1.161526    2.625170
  H     -2.020107   -0.237206    3.781290

 Total Charge           Charge          ....    0
 Multiplicity           Mult            ....    1
 Number of Electrons    NEL             ....  174
 Basis Dimension        Dim             ....  510

ORBITAL ENERGIES
----------------

  NO   OCC          E(Eh)            E(eV)
   0   2.0000     -88.571693     -2410.1583
   1   2.0000     -88.516213     -2408.6486
   2   2.0000     -76.912084     -2092.8842
   3   2.0000     -19.010484      -517.3016
   4   2.0000     -18.993418      -516.8372
   5   2.0000     -18.989184      -516.7220
   6   2.0000     -18.988966      -516.7160
   7   2.0000     -18.941873      -515.4346
   8   2.0000     -18.921333      -514.8756
   9   2.0000     -10.166307      -276.6393
  10   2.0000     -10.152059      -276.2516
  11   2.0000     -10.101472      -274.8750
  12   2.0000     -10.096864      -274.7496
  13   2.0000     -10.091389      -274.6007
  14   2.0000     -10.090280      -274.5705
  15   2.0000     -10.081339      -274.3272
  16   2.0000     -10.065780      -273.9038
  17   2.0000     -10.039036      -273.1760
  18   2.0000     -10.022089      -272.7149
  19   2.0000      -7.866106      -214.0476
  20   2.0000      -7.810879      -212.5448
  21   2.0000      -6.590323      -179.3318
  22   2.0000      -5.812870      -158.1762
  23   2.0000      -5.810080      -158.1003
  24   2.0000      -5.803197      -157.9130
  25   2.0000      -5.758773      -156.7042
  26   2.0000      -5.751130      -156.4962
  27   2.0000      -5.750685      -156.4841
  28   2.0000      -4.736025      -128.8738
  29   2.0000      -4.735387      -128.8564
  30   2.0000      -4.733802      -128.8133
  31   2.0000      -1.088150       -29.6101
  32   2.0000      -1.068475       -29.0747
  33   2.0000      -1.049883       -28.5688
  34   2.0000      -1.007306       -27.4102
  35   2.0000      -0.990763       -26.9600
  36   2.0000      -0.971288       -26.4301
  37   2.0000      -0.809369       -22.0241
  38   2.0000      -0.762815       -20.7573
  39   2.0000      -0.736502       -20.0412
  40   2.0000      -0.733725       -19.9657
  41   2.0000      -0.699011       -19.0211
  42   2.0000      -0.675392       -18.3784
  43   2.0000      -0.656506       -17.8644
  44   2.0000      -0.644761       -17.5448
  45   2.0000      -0.623383       -16.9631
  46   2.0000      -0.588423       -16.0118
  47   2.0000      -0.545263       -14.8374
  48   2.0000      -0.540059       -14.6958
  49   2.0000      -0.525312       -14.2945
  50   2.0000      -0.498224       -13.5574
  51   2.0000      -0.492739       -13.4081
  52   2.0000      -0.486127       -13.2282
  53   2.0000      -0.471143       -12.8204
  54   2.0000      -0.457234       -12.4420
  55   2.0000      -0.451602       -12.2887
  56   2.0000      -0.447045       -12.1647
  57   2.0000      -0.437837       -11.9141
  58   2.0000      -0.433716       -11.8020
  59   2.0000      -0.428217       -11.6524
  60   2.0000      -0.426995       -11.6191
  61   2.0000      -0.417994       -11.3742
  62   2.0000      -0.414082       -11.2677
  63   2.0000      -0.394289       -10.7291
  64   2.0000      -0.383534       -10.4365
  65   2.0000      -0.380103       -10.3431
  66   2.0000      -0.373667       -10.1680
  67   2.0000      -0.367843       -10.0095
  68   2.0000      -0.360521        -9.8103
  69   2.0000      -0.355133        -9.6637
  70   2.0000      -0.349190        -9.5019
  71   2.0000      -0.341970        -9.3055
  72   2.0000      -0.332169        -9.0388
  73   2.0000      -0.326850        -8.8940
  74   2.0000      -0.326400        -8.8818
  75   2.0000      -0.318893        -8.6775
  76   2.0000      -0.314326        -8.5532
  77   2.0000      -0.306800        -8.3484
  78   2.0000      -0.285551        -7.7702
  79   2.0000      -0.284474        -7.7409
  80   2.0000      -0.275457        -7.4956
  81   2.0000      -0.263363        -7.1665
  82   2.0000      -0.253888        -6.9086
  83   2.0000      -0.247012        -6.7215
  84   2.0000      -0.220212        -5.9923
  85   2.0000      -0.215123        -5.8538
  86   2.0000      -0.210972        -5.7408
  87   0.0000      -0.041764        -1.1365
  88   0.0000      -0.023022        -0.6264
  89   0.0000      -0.007501        -0.2041
  90   0.0000       0.007641         0.2079
  91   0.0000       0.017034         0.4635

MULLIKEN ATOMIC CHARGES
-----------------------
   0 C :   -0.441550
   1 C :   -0.151344
   2 O :   -0.141451
   3 C :    0.362457
   4 O :   -0.382169
   5 C :   -0.450223
   6 C :    0.026410
   7 H :    0.245707
   8 C :    0.235874
   9 O :   -0.388452
  10 O :   -0.111926
  11 C :   -0.118412
  12 C :   -0.488708
  13 S :   -0.232145
  14 P :    0.784771
  15 S :   -0.443746
  16 O :   -0.345376
  17 C :   -0.298956
  18 O :   -0.313003
  19 C :   -0.302500
  20 H :    0.150134
  21 H :    0.153203
  22 H :    0.154677
  23 H :    0.157294
  24 H :    0.162953
  25 H :    0.189173
  26 H :    0.202430
  27 H :    0.168666
  28 H :    0.158711
  29 H :    0.145250
  30 H :    0.166122
  31 H :    0.156813
  32 H :    0.174718
  33 H :    0.151224
  34 H :    0.157838
  35 H :    0.177651
  36 H :    0.169233
  37 H :    0.158652
Sum of atomic charges:   -0.0000000

LOEWDIN ATOMIC CHARGES
----------------------
   0 C :   -0.384452
   1 C :    0.037692
   2 O :   -0.576855
   3 C :    0.365909
   4 O :   -0.419158
   5 C :   -0.207342
   6 C :   -0.199975
   7 H :    0.207879
   8 C :    0.342658
   9 O :   -0.418987
  10 O :   -0.616256
  11 C :    0.043214
  12 C :   -0.387843
  13 S :    0.204679
  14 P :    0.398902
  15 S :   -0.080449
  16 O :   -0.688702
  17 C :   -0.061967
  18 O :   -0.654726
  19 C :   -0.056229
  20 H :    0.160881
  21 H :    0.159949
  22 H :    0.160817
  23 H :    0.179834
  24 H :    0.182839
  25 H :    0.189346
  26 H :    0.205806
  27 H :    0.190661
  28 H :    0.182652
  29 H :    0.158307
  30 H :    0.167760
  31 H :    0.160404
  32 H :    0.176284
  33 H :    0.176682
  34 H :    0.168484
  35 H :    0.175612
  36 H :    0.175396
  37 H :    0.180291

  Mayer bond orders larger than 0.100000
B(  0-C ,  1-C ) :   0.9459 B(  0-C , 20-H ) :   0.9679 B(  0-C , 21-H ) :   0.9736
B(  0-C , 22-H ) :   0.9699 B(  1-C ,  2-O ) :   0.7793 B(  1-C , 23-H ) :   0.9462
B(  1-C , 24-H ) :   0.9560 B(  2-O ,  3-C ) :   1.1759 B(  3-C ,  4-O ) :   1.7745
B(  3-C ,  5-C ) :   0.9693 B(  4-O ,  8-C ) :   0.1180 B(  5-C ,  6-C ) :   0.9055
B(  5-C ,  9-O ) :   0.1091 B(  5-C , 25-H ) :   0.9777 B(  5-C , 26-H ) :   0.9163
B(  6-C ,  7-H ) :   0.9235 B(  6-C ,  8-C ) :   0.8197 B(  6-C , 13-S ) :   0.8679
B(  8-C ,  9-O ) :   1.8538 B(  8-C , 10-O ) :   1.1719 B( 10-O , 11-C ) :   0.7939
B( 11-C , 12-C ) :   0.9293 B( 11-C , 27-H ) :   0.9627 B( 11-C , 28-H ) :   0.9447
B( 12-C , 29-H ) :   0.9661 B( 12-C , 30-H ) :   0.9631 B( 12-C , 31-H ) :   0.9769
B( 13-S , 14-P ) :   0.9836 B( 14-P , 15-S ) :   1.7970 B( 14-P , 16-O ) :   1.0329
B( 14-P , 18-O ) :   1.1580 B( 16-O , 17-C ) :   0.8319 B( 17-C , 32-H ) :   0.9593
B( 17-C , 33-H ) :   0.9676 B( 17-C , 34-H ) :   0.9565 B( 18-O , 19-C ) :   0.7865
B( 19-C , 35-H ) :   0.9580 B( 19-C , 36-H ) :   0.9588 B( 19-C , 37-H ) :   0.9638

Dispersion correction           -0.017451123
FINAL SINGLE POINT ENERGY     -1981.454531494992

DIPOLE MOMENT
-------------

Method             : SCF
Type of density    : Electron Density
Multiplicity       :   1
Irrep              :   0
Energy             : -1981.4744588978505817 Eh
Relativity type    :
Basis              : AO
                                X                 Y                 Z
Electronic contribution:    -12.769434270       9.730222894      -4.959294510
Nuclear contribution   :     13.059267172     -11.823380932       5.222932278
                        -----------------------------------------
Total Dipole Moment    :      0.289832902      -2.093158038       0.263637767
                        -----------------------------------------
Magnitude (a.u.)       :      2.129511342
Magnitude (Debye)      :      5.412787671

Rotational constants in cm-1:             0.014911             0.006106             0.005495
Rotational constants in MHz :           447.016502           183.051394           164.746945

                             ****ORCA TERMINATED NORMALLY****
TOTAL RUN TIME: 0 days 0 hours 1 minutes 38 seconds 411 msec
