                         Program Version 6.0.1  -  RELEASE   -
|  1> ! r2scan-3c def2/J RI DEFGRID2 scfconv6 printgap
|  2> %output
|  3>     printlevel normal
|  4> end
|  5> %cpcm
|  6>     smd true
|  7>     smdsolvent "water"
|  8> end
|  9> * xyz 0 1
| 10> C 4.8478056349 -3.7479358221 -1.5979768697
| 11> C 4.210599408 -2.6344511839 -0.7908300023
| 12> O 3.1805604384 -2.0315675764 -1.6011045665
| 13> C 2.3898683379 -1.1484202634 -1.0380603605
| 14> O 2.4652003266 -0.8046964317 0.1249451447
| 15> C 1.3732141016 -0.5892393151 -2.0100288226
| 16> C 0.3136889914 0.1923232134 -1.2439936657
| 17> H -0.3158894964 0.7651922667 -1.9329578353
| 18> C 0.988316358 1.1864176786 -0.3139249921
| 19> O 1.868030264 1.9218914396 -0.7055250945
| 20> O 0.4819878382 1.2103379683 0.9006947717
| 21> C 1.0814466618 2.1374810874 1.8299479435
| 22> C 0.6540695106 1.777709166 3.2375707847
| 23> S -0.7715383243 -0.9542549522 -0.3361813972
| 24> P -2.2009557036 0.4588606448 0.3556166488
| 25> S -2.2446933057 2.1954963777 -0.5486318707
| 26> O -3.5672937082 -0.3702968826 0.2298779566
| 27> C -4.1220857976 -0.6947345959 -1.0494718155
| 28> O -2.0949146858 0.5642739923 1.9262718533
| 29> C -2.0998976529 -0.6099266433 2.7635675429
| 30> H 5.6325014005 -4.2122992223 -1.0102664678
| 31> H 4.102839312 -4.4943470438 -1.8560198474
| 32> H 5.2738463203 -3.3465296312 -2.5123122215
| 33> H 4.9346093623 -1.8578786153 -0.5255183663
| 34> H 3.75048263 -3.0059234327 0.1299237693
| 35> H 0.9317233398 -1.3983092875 -2.5905774208
| 36> H 1.8996084681 0.0873890639 -2.6871723012
| 37> H 2.1663057526 2.0710285698 1.7012413544
| 38> H 0.7547300303 3.1440255916 1.5492576343
| 39> H 1.1400271489 2.4525208653 3.9344116617
| 40> H -0.4229627964 1.8757508112 3.3339136881
| 41> H 0.9453839524 0.7559163144 3.4631028369
| 42> H -4.1788805348 0.200150086 -1.6711454303
| 43> H -5.1181007747 -1.0798105443 -0.8468458677
| 44> H -3.5078802297 -1.4512307226 -1.5375891988
| 45> H -1.2469113369 -1.2419137193 2.5168032355
| 46> H -3.0274885572 -1.1615258599 2.6251703775
| 47> H -2.0201068634 -0.2372060778 3.7812901688
| 48> *
| 49>
| 50>                          ****END OF INPUT****

CARTESIAN COORDINATES (ANGSTROEM)
---------------------------------
  C      4.847806   -3.747936   -1.597977
  C      4.210599   -2.634451   -0.790830
  O      3.180560   -2.031568   -1.601105
  C      2.389868   -1.148420   -1.038060
  O      2.465200   -0.804696    0.124945
  C      1.373214   -0.589239   -2.010029
  C      0.313689    0.192323   -1.243994
  H     -0.315889    0.765192   -1.932958
  C      0.988316    1.186418   -0.313925
  O      1.868030    1.921891   -0.705525
  O      0.481988    1.210338    0.900695
  C      1.081447    2.137481    1.829948
  C      0.654070    1.777709    3.237571
  S     -0.771538   -0.954255   -0.336181
  P     -2.200956    0.458861    0.355617
  S     -2.244693    2.195496   -0.548632
  O     -3.567294   -0.370297    0.229878
  C     -4.122086   -0.694735   -1.049472
  O     -2.094915    0.564274    1.926272
  C     -2.099898   -0.609927    2.763568
  H      5.632501   -4.212299   -1.010266
  H      4.102839   -4.494347   -1.856020
  H      5.273846   -3.346530   -2.512312
  H      4.934609   -1.857879   -0.525518
  H      3.750483   -3.005923    0.129924
  H      0.931723   -1.398309   -2.590577
  H      1.899608    0.087389   -2.687172
  H      2.166306    2.071029    1.701241
  H      0.754730    3.144026    1.549258
  H      1.140027    2.452521    3.934412
  H     -0.422963    1.875751    3.333914
  H      0.945384    0.755916    3.463103
  H     -4.178881    0.200150   -1.671145
  H     -5.118101   -1.079811   -0.846846
  H     -3.507880   -1.451231   -1.537589
  H     -1.246911   -1.241914    2.516803
  H     -3.027489   -1.161526    2.625170
  H     -2.020107   -0.237206    3.781290

 Total Charge           Charge          ....    0
 Multiplicity           Mult            ....    1
 Number of Electrons    NEL             ....  174
 Basis Dimension        Dim             ....  510

ORBITAL ENERGIES
----------------

  NO   OCC          E(Eh)            E(eV)
   0   2.0000     -88.577950     -2410.3286
   1   2.0000     -88.529665     -2409.0147
   2   2.0000     -76.920595     -2093.1158
   3   2.0000     -19.010606      -517.3049
   4   2.0000     -19.006049      -517.1809
   5   2.0000     -18.998023      -516.9625
   6   2.0000     -18.993142      -516.8297
   7   2.0000     -18.952786      -515.7315
   8   2.0000     -18.946808      -515.5689
   9   2.0000     -10.173026      -276.8221
  10   2.0000     -10.172883      -276.8182
  11   2.0000     -10.096196      -274.7315
  12   2.0000     -10.087775      -274.5023
  13   2.0000     -10.086041      -274.4551
  14   2.0000     -10.085024      -274.4275
  15   2.0000     -10.081018      -274.3184
  16   2.0000     -10.061194      -273.7790
  17   2.0000     -10.020015      -272.6585
  18   2.0000     -10.018500      -272.6172
  19   2.0000      -7.872305      -214.2163
  20   2.0000      -7.824707      -212.9211
  21   2.0000      -6.598940      -179.5663
  22   2.0000      -5.819121      -158.3463
  23   2.0000      -5.816313      -158.2699
  24   2.0000      -5.809318      -158.0796
  25   2.0000      -5.772464      -157.0767
  26   2.0000      -5.764977      -156.8730
  27   2.0000      -5.764557      -156.8616
  28   2.0000      -4.744588      -129.1068
  29   2.0000      -4.743955      -129.0896
  30   2.0000      -4.742556      -129.0515
  31   2.0000      -1.091443       -29.6997
  32   2.0000      -1.086083       -29.5538
  33   2.0000      -1.054168       -28.6854
  34   2.0000      -1.010653       -27.5013
  35   2.0000      -1.000139       -27.2152
  36   2.0000      -0.994310       -27.0566
  37   2.0000      -0.813582       -22.1387
  38   2.0000      -0.755898       -20.5690
  39   2.0000      -0.738909       -20.1067
  40   2.0000      -0.733968       -19.9723
  41   2.0000      -0.696863       -18.9626
  42   2.0000      -0.670084       -18.2339
  43   2.0000      -0.660087       -17.9619
  44   2.0000      -0.649007       -17.6604
  45   2.0000      -0.619148       -16.8479
  46   2.0000      -0.587031       -15.9739
  47   2.0000      -0.542208       -14.7542
  48   2.0000      -0.539483       -14.6801
  49   2.0000      -0.532835       -14.4992
  50   2.0000      -0.502721       -13.6797
  51   2.0000      -0.491949       -13.3866
  52   2.0000      -0.487381       -13.2623
  53   2.0000      -0.471515       -12.8306
  54   2.0000      -0.465256       -12.6603
  55   2.0000      -0.456937       -12.4339
  56   2.0000      -0.451159       -12.2766
  57   2.0000      -0.449831       -12.2405
  58   2.0000      -0.434931       -11.8351
  59   2.0000      -0.429496       -11.6872
  60   2.0000      -0.425847       -11.5879
  61   2.0000      -0.413056       -11.2398
  62   2.0000      -0.411156       -11.1881
  63   2.0000      -0.397053       -10.8044
  64   2.0000      -0.383765       -10.4428
  65   2.0000      -0.377299       -10.2668
  66   2.0000      -0.369436       -10.0529
  67   2.0000      -0.363500        -9.8913
  68   2.0000      -0.357330        -9.7234
  69   2.0000      -0.353626        -9.6227
  70   2.0000      -0.352057        -9.5800
  71   2.0000      -0.341581        -9.2949
  72   2.0000      -0.330647        -8.9974
  73   2.0000      -0.329127        -8.9560
  74   2.0000      -0.325483        -8.8568
  75   2.0000      -0.320085        -8.7099
  76   2.0000      -0.316023        -8.5994
  77   2.0000      -0.313363        -8.5270
  78   2.0000      -0.288596        -7.8531
  79   2.0000      -0.285436        -7.7671
  80   2.0000      -0.279941        -7.6176
  81   2.0000      -0.278604        -7.5812
  82   2.0000      -0.269496        -7.3334
  83   2.0000      -0.260191        -7.0801
  84   2.0000      -0.235950        -6.4205
  85   2.0000      -0.229488        -6.2447
  86   2.0000      -0.224618        -6.1122
  87   0.0000      -0.049119        -1.3366
  88   0.0000      -0.028463        -0.7745
  89   0.0000      -0.025513        -0.6942
  90   0.0000       0.003245         0.0883
  91   0.0000       0.009901         0.2694

MULLIKEN ATOMIC CHARGES
-----------------------
   0 C :   -0.490721
   1 C :   -0.152000
   2 O :   -0.147261
   3 C :    0.400276
   4 O :   -0.453040
   5 C :   -0.485781
   6 C :    0.044314
   7 H :    0.271536
   8 C :    0.228103
   9 O :   -0.457664
  10 O :   -0.128063
  11 C :   -0.132749
  12 C :   -0.515194
  13 S :   -0.222717
  14 P :    0.805098
  15 S :   -0.501473
  16 O :   -0.373638
  17 C :   -0.305837
  18 O :   -0.350172
  19 C :   -0.305648
  20 H :    0.171485
  21 H :    0.166534
  22 H :    0.165765
  23 H :    0.176177
  24 H :    0.175567
  25 H :    0.226139
  26 H :    0.236786
  27 H :    0.175459
  28 H :    0.178044
  29 H :    0.170478
  30 H :    0.171024
  31 H :    0.171116
  32 H :    0.176391
  33 H :    0.179280
  34 H :    0.174859
  35 H :    0.184550
  36 H :    0.185990
  37 H :    0.186988
Sum of atomic charges:   -0.0000000

LOEWDIN ATOMIC CHARGES
----------------------
   0 C :   -0.387707
   1 C :    0.041361
   2 O :   -0.574123
   3 C :    0.374067
   4 O :   -0.468677
   5 C :   -0.198117
   6 C :   -0.196074
   7 H :    0.216956
   8 C :    0.342757
   9 O :   -0.473069
  10 O :   -0.624438
  11 C :    0.042692
  12 C :   -0.386495
  13 S :    0.218009
  14 P :    0.400414
  15 S :   -0.123856
  16 O :   -0.698162
  17 C :   -0.055983
  18 O :   -0.674285
  19 C :   -0.047082
  20 H :    0.169363
  21 H :    0.163314
  22 H :    0.163444
  23 H :    0.186139
  24 H :    0.187796
  25 H :    0.205168
  26 H :    0.216168
  27 H :    0.192846
  28 H :    0.187230
  29 H :    0.168285
  30 H :    0.169215
  31 H :    0.165251
  32 H :    0.177216
  33 H :    0.188625
  34 H :    0.176035
  35 H :    0.180148
  36 H :    0.183230
  37 H :    0.192337

  Mayer bond orders larger than 0.100000
B(  0-C ,  1-C ) :   0.9421 B(  0-C , 20-H ) :   0.9617 B(  0-C , 21-H ) :   0.9720
B(  0-C , 22-H ) :   0.9681 B(  1-C ,  2-O ) :   0.7677 B(  1-C , 23-H ) :   0.9384
B(  1-C , 24-H ) :   0.9493 B(  2-O ,  3-C ) :   1.1953 B(  3-C ,  4-O ) :   1.7190
B(  3-C ,  5-C ) :   0.9434 B(  4-O ,  8-C ) :   0.1191 B(  5-C ,  6-C ) :   0.8802
B(  5-C , 25-H ) :   0.9655 B(  5-C , 26-H ) :   0.9250 B(  6-C ,  7-H ) :   0.9107
B(  6-C ,  8-C ) :   0.8194 B(  6-C , 13-S ) :   0.8637 B(  8-C ,  9-O ) :   1.7964
B(  8-C , 10-O ) :   1.1811 B( 10-O , 11-C ) :   0.7750 B( 11-C , 12-C ) :   0.9331
B( 11-C , 27-H ) :   0.9522 B( 11-C , 28-H ) :   0.9381 B( 12-C , 29-H ) :   0.9596
B( 12-C , 30-H ) :   0.9595 B( 12-C , 31-H ) :   0.9729 B( 13-S , 14-P ) :   0.9988
B( 14-P , 15-S ) :   1.7688 B( 14-P , 16-O ) :   1.0414 B( 14-P , 18-O ) :   1.1611
B( 16-O , 17-C ) :   0.8242 B( 17-C , 32-H ) :   0.9553 B( 17-C , 33-H ) :   0.9573
B( 17-C , 34-H ) :   0.9498 B( 18-O , 19-C ) :   0.7778 B( 19-C , 35-H ) :   0.9494
B( 19-C , 36-H ) :   0.9503 B( 19-C , 37-H ) :   0.9532

Dispersion correction           -0.017451123
FINAL SINGLE POINT ENERGY     -1981.471044397826

DIPOLE MOMENT
-------------

Method             : SCF
Type of density    : Electron Density
Multiplicity       :   1
Irrep              :   0
Energy             : -1981.4909718006840649 Eh
Relativity type    :
Basis              : AO
                                X                 Y                 Z
Electronic contribution:    -12.876169455       8.863702176      -5.046044883
Nuclear contribution   :     13.059267172     -11.823380932       5.222932278
                        -----------------------------------------
Total Dipole Moment    :      0.183097716      -2.959678757       0.176887395
                        -----------------------------------------
Magnitude (a.u.)       :      2.970608063
Magnitude (Debye)      :      7.550685634

Rotational constants in cm-1:             0.014911             0.006106             0.005495
Rotational constants in MHz :           447.016502           183.051394           164.746945

                             ****ORCA TERMINATED NORMALLY****
TOTAL RUN TIME: 0 days 0 hours 2 minutes 2 seconds 306 msec
