                         Program Version 6.0.0  -   RELEASE  -
|  1> ! pbe def2-sv(p) def2/J RI DEFGRID1 loosescf d4 GCP(DFT/SV(P)) printgap
|  2> %output
|  3>     printlevel normal
|  4> end
|  5> * xyz 0 1
|  6> C 3.7896352696 0.3918296225 -2.680024903
|  7> C 4.4403597282 -0.2292180177 -1.4615739979
|  8> O 3.7543150221 0.0845605669 -0.2356350394
|  9> P 2.1920788191 -0.0597442914 0.0135770721
| 10> S 1.0954508414 1.4339603103 -0.6516854317
| 11> O 2.1271348202 -0.2614224698 1.5838100465
| 12> C 1.9905067579 0.8371191599 2.5026684724
| 13> C 3.2606381904 1.6565396601 2.5720739373
| 14> S 1.8115871205 -2.0305814605 -0.6322721932
| 15> C 0.0738938311 -2.2157606822 -0.1580067631
| 16> S -1.1013673254 -1.4847149012 -1.3463276488
| 17> P -2.0464825045 -0.0229282067 -0.14617845
| 18> S -1.3844350134 0.0869039215 1.7035482478
| 19> O -3.5994513725 -0.3748676711 -0.2456530476
| 20> C -4.2198569737 -1.3853298475 0.5726858463
| 21> C -4.9758813689 -0.7456783305 1.721284314
| 22> O -1.9723173713 1.223553092 -1.1056811287
| 23> C -2.9172596075 2.3164869224 -1.1040350316
| 24> C -2.9421661559 3.0443761063 0.2234501155
| 25> H 4.3910331784 0.180040588 -3.5581817035
| 26> H 2.7923740298 -0.0233175877 -2.8252499108
| 27> H 3.6982261764 1.4685274559 -2.5555483401
| 28> H 5.4453347473 0.1654758063 -1.3012569013
| 29> H 4.478809145 -1.3179335553 -1.5564663551
| 30> H 1.1423012099 1.454355999 2.1881088662
| 31> H 1.7528741103 0.3578351799 3.4532956639
| 32> H 4.1029615883 1.0196127026 2.8278959298
| 33> H 3.4495780194 2.1172363978 1.6029054731
| 34> H 3.1487013921 2.433609632 3.3215205762
| 35> H -0.0883670536 -1.7605277902 0.8239704198
| 36> H -0.1058290543 -3.287140702 -0.1358552222
| 37> H -4.8917424842 -1.9201825042 -0.1007572374
| 38> H -3.4547188118 -2.0707554185 0.9474238147
| 39> H -4.2824311081 -0.2330907795 2.3847321561
| 40> H -5.6985743217 -0.0289835449 1.3415609508
| 41> H -5.4943693756 -1.5171597787 2.2810417307
| 42> H -2.5542416025 2.9601259129 -1.9069616635
| 43> H -3.9026775469 1.9185678629 -1.3561173158
| 44> H -3.2978635925 2.3785504694 1.0091965282
| 45> H -1.9398762643 3.3802882177 0.4819114731
| 46> H -3.6038208338 3.90205551 0.1559578589
| 47> *
| 48>
| 49>                          ****END OF INPUT****

CARTESIAN COORDINATES (ANGSTROEM)
---------------------------------
  C      3.789635    0.391830   -2.680025
  C      4.440360   -0.229218   -1.461574
  O      3.754315    0.084561   -0.235635
  P      2.192079   -0.059744    0.013577
  S      1.095451    1.433960   -0.651685
  O      2.127135   -0.261422    1.583810
  C      1.990507    0.837119    2.502668
  C      3.260638    1.656540    2.572074
  S      1.811587   -2.030581   -0.632272
  C      0.073894   -2.215761   -0.158007
  S     -1.101367   -1.484715   -1.346328
  P     -2.046483   -0.022928   -0.146178
  S     -1.384435    0.086904    1.703548
  O     -3.599451   -0.374868   -0.245653
  C     -4.219857   -1.385330    0.572686
  C     -4.975881   -0.745678    1.721284
  O     -1.972317    1.223553   -1.105681
  C     -2.917260    2.316487   -1.104035
  C     -2.942166    3.044376    0.223450
  H      4.391033    0.180041   -3.558182
  H      2.792374   -0.023318   -2.825250
  H      3.698226    1.468527   -2.555548
  H      5.445335    0.165476   -1.301257
  H      4.478809   -1.317934   -1.556466
  H      1.142301    1.454356    2.188109
  H      1.752874    0.357835    3.453296
  H      4.102962    1.019613    2.827896
  H      3.449578    2.117236    1.602905
  H      3.148701    2.433610    3.321521
  H     -0.088367   -1.760528    0.823970
  H     -0.105829   -3.287141   -0.135855
  H     -4.891742   -1.920183   -0.100757
  H     -3.454719   -2.070755    0.947424
  H     -4.282431   -0.233091    2.384732
  H     -5.698574   -0.028984    1.341561
  H     -5.494369   -1.517160    2.281042
  H     -2.554242    2.960126   -1.906962
  H     -3.902678    1.918568   -1.356117
  H     -3.297864    2.378550    1.009197
  H     -1.939876    3.380288    0.481911
  H     -3.603821    3.902056    0.155958

 Total Charge           Charge          ....    0
 Multiplicity           Mult            ....    1
 Number of Electrons    NEL             ....  202
 Basis Dimension        Dim             ....  334

ORBITAL ENERGIES
----------------

  NO   OCC          E(Eh)            E(eV)
   0   2.0000     -88.039131     -2395.6665
   1   2.0000     -88.037321     -2395.6173
   2   2.0000     -87.985996     -2394.2207
   3   2.0000     -87.972466     -2393.8525
   4   2.0000     -76.425605     -2079.6464
   5   2.0000     -76.417610     -2079.4289
   6   2.0000     -18.788417      -511.2588
   7   2.0000     -18.787936      -511.2457
   8   2.0000     -18.783986      -511.1383
   9   2.0000     -18.777994      -510.9752
  10   2.0000      -9.953872      -270.8586
  11   2.0000      -9.953810      -270.8570
  12   2.0000      -9.953411      -270.8461
  13   2.0000      -9.952749      -270.8281
  14   2.0000      -9.936446      -270.3844
  15   2.0000      -9.882973      -268.9294
  16   2.0000      -9.881310      -268.8841
  17   2.0000      -9.878225      -268.8002
  18   2.0000      -9.873009      -268.6582
  19   2.0000      -7.684704      -209.1114
  20   2.0000      -7.682760      -209.0585
  21   2.0000      -7.630699      -207.6419
  22   2.0000      -7.617225      -207.2752
  23   2.0000      -6.422602      -174.7679
  24   2.0000      -6.414927      -174.5591
  25   2.0000      -5.712532      -155.4459
  26   2.0000      -5.710628      -155.3941
  27   2.0000      -5.709116      -155.3530
  28   2.0000      -5.707278      -155.3029
  29   2.0000      -5.701730      -155.1520
  30   2.0000      -5.699693      -155.0965
  31   2.0000      -5.659437      -154.0011
  32   2.0000      -5.651762      -153.7923
  33   2.0000      -5.650560      -153.7596
  34   2.0000      -5.646150      -153.6396
  35   2.0000      -5.637953      -153.4165
  36   2.0000      -5.637325      -153.3994
  37   2.0000      -4.645446      -126.4090
  38   2.0000      -4.644051      -126.3710
  39   2.0000      -4.643201      -126.3479
  40   2.0000      -4.637520      -126.1933
  41   2.0000      -4.637002      -126.1792
  42   2.0000      -4.635113      -126.1278
  43   2.0000      -0.985852       -26.8264
  44   2.0000      -0.977256       -26.5925
  45   2.0000      -0.940553       -25.5937
  46   2.0000      -0.936399       -25.4807
  47   2.0000      -0.757937       -20.6245
  48   2.0000      -0.718034       -19.5387
  49   2.0000      -0.703324       -19.1384
  50   2.0000      -0.687206       -18.6998
  51   2.0000      -0.681194       -18.5362
  52   2.0000      -0.669004       -18.2045
  53   2.0000      -0.648855       -17.6562
  54   2.0000      -0.631965       -17.1967
  55   2.0000      -0.594025       -16.1642
  56   2.0000      -0.585091       -15.9211
  57   2.0000      -0.574068       -15.6212
  58   2.0000      -0.567548       -15.4438
  59   2.0000      -0.558559       -15.1992
  60   2.0000      -0.501166       -13.6374
  61   2.0000      -0.486127       -13.2282
  62   2.0000      -0.471599       -12.8329
  63   2.0000      -0.462151       -12.5758
  64   2.0000      -0.450560       -12.2604
  65   2.0000      -0.447716       -12.1830
  66   2.0000      -0.433989       -11.8094
  67   2.0000      -0.429024       -11.6743
  68   2.0000      -0.421951       -11.4819
  69   2.0000      -0.411429       -11.1956
  70   2.0000      -0.410603       -11.1731
  71   2.0000      -0.401053       -10.9132
  72   2.0000      -0.386405       -10.5146
  73   2.0000      -0.386222       -10.5096
  74   2.0000      -0.381004       -10.3677
  75   2.0000      -0.369008       -10.0412
  76   2.0000      -0.362969        -9.8769
  77   2.0000      -0.351351        -9.5607
  78   2.0000      -0.346053        -9.4166
  79   2.0000      -0.341924        -9.3042
  80   2.0000      -0.339621        -9.2416
  81   2.0000      -0.337961        -9.1964
  82   2.0000      -0.334994        -9.1157
  83   2.0000      -0.333153        -9.0655
  84   2.0000      -0.331002        -9.0070
  85   2.0000      -0.313491        -8.5305
  86   2.0000      -0.307811        -8.3760
  87   2.0000      -0.297621        -8.0987
  88   2.0000      -0.290851        -7.9145
  89   2.0000      -0.287956        -7.8357
  90   2.0000      -0.278653        -7.5825
  91   2.0000      -0.273283        -7.4364
  92   2.0000      -0.260658        -7.0929
  93   2.0000      -0.257703        -7.0124
  94   2.0000      -0.253292        -6.8924
  95   2.0000      -0.237643        -6.4666
  96   2.0000      -0.219196        -5.9646
  97   2.0000      -0.205172        -5.5830
  98   2.0000      -0.201114        -5.4726
  99   2.0000      -0.187294        -5.0965
 100   2.0000      -0.177840        -4.8393
 101   0.0000      -0.033486        -0.9112
 102   0.0000      -0.029199        -0.7945
 103   0.0000      -0.010811        -0.2942
 104   0.0000       0.006078         0.1654
 105   0.0000       0.013826         0.3762

MULLIKEN ATOMIC CHARGES
-----------------------
   0 C :   -0.313295
   1 C :   -0.012842
   2 O :   -0.376402
   3 P :    0.608190
   4 S :   -0.319648
   5 O :   -0.365931
   6 C :   -0.014665
   7 C :   -0.297239
   8 S :   -0.105579
   9 C :   -0.354547
  10 S :   -0.074142
  11 P :    0.637114
  12 S :   -0.325214
  13 O :   -0.386549
  14 C :    0.003350
  15 C :   -0.293403
  16 O :   -0.358886
  17 C :    0.002541
  18 C :   -0.322346
  19 H :    0.108981
  20 H :    0.130900
  21 H :    0.126698
  22 H :    0.108721
  23 H :    0.114051
  24 H :    0.125646
  25 H :    0.099498
  26 H :    0.110835
  27 H :    0.121106
  28 H :    0.106815
  29 H :    0.202880
  30 H :    0.180916
  31 H :    0.105554
  32 H :    0.091958
  33 H :    0.127699
  34 H :    0.110506
  35 H :    0.107837
  36 H :    0.110704
  37 H :    0.108775
  38 H :    0.129225
  39 H :    0.130632
  40 H :    0.109554
Sum of atomic charges:   -0.0000000

LOEWDIN ATOMIC CHARGES
----------------------
   0 C :   -0.371985
   1 C :   -0.113805
   2 O :   -0.246979
   3 P :    0.566772
   4 S :   -0.314449
   5 O :   -0.240116
   6 C :   -0.123659
   7 C :   -0.364165
   8 S :    0.076711
   9 C :   -0.481309
  10 S :    0.083956
  11 P :    0.574513
  12 S :   -0.296852
  13 O :   -0.255081
  14 C :   -0.115800
  15 C :   -0.362025
  16 O :   -0.227882
  17 C :   -0.107658
  18 C :   -0.367264
  19 H :    0.128728
  20 H :    0.122818
  21 H :    0.129507
  22 H :    0.121281
  23 H :    0.109099
  24 H :    0.107353
  25 H :    0.116313
  26 H :    0.123670
  27 H :    0.122607
  28 H :    0.127962
  29 H :    0.123008
  30 H :    0.136619
  31 H :    0.117687
  32 H :    0.105013
  33 H :    0.124452
  34 H :    0.123576
  35 H :    0.128756
  36 H :    0.122820
  37 H :    0.112298
  38 H :    0.121860
  39 H :    0.132621
  40 H :    0.129031

  Mayer bond orders larger than 0.100000
B(  0-C ,  1-C ) :   1.1644 B(  0-C , 19-H ) :   0.9341 B(  0-C , 20-H ) :   0.9318
B(  0-C , 21-H ) :   0.9410 B(  1-C ,  2-O ) :   0.9189 B(  1-C , 22-H ) :   0.9344
B(  1-C , 23-H ) :   0.9281 B(  2-O ,  3-P ) :   1.0940 B(  3-P ,  4-S ) :   1.6343
B(  3-P ,  5-O ) :   1.1216 B(  3-P ,  8-S ) :   0.9514 B(  4-S ,  8-S ) :   0.1161
B(  5-O ,  6-C ) :   0.9017 B(  6-C ,  7-C ) :   1.1614 B(  6-C , 24-H ) :   0.9049
B(  6-C , 25-H ) :   0.9357 B(  7-C , 26-H ) :   0.9460 B(  7-C , 27-H ) :   0.9361
B(  7-C , 28-H ) :   0.9402 B(  8-S ,  9-C ) :   1.0013 B(  9-C , 10-S ) :   1.0032
B(  9-C , 29-H ) :   0.8436 B(  9-C , 30-H ) :   0.9122 B( 10-S , 11-P ) :   0.9677
B( 10-S , 12-S ) :   0.1264 B( 11-P , 12-S ) :   1.5785 B( 11-P , 13-O ) :   1.0683
B( 11-P , 16-O ) :   1.1458 B( 12-S , 29-H ) :   0.1126 B( 13-O , 14-C ) :   0.9064
B( 14-C , 15-C ) :   1.1676 B( 14-C , 31-H ) :   0.9354 B( 14-C , 32-H ) :   0.9124
B( 15-C , 33-H ) :   0.9335 B( 15-C , 34-H ) :   0.9476 B( 15-C , 35-H ) :   0.9403
B( 16-O , 17-C ) :   0.9040 B( 17-C , 18-C ) :   1.1673 B( 17-C , 36-H ) :   0.9335
B( 17-C , 37-H ) :   0.9281 B( 18-C , 38-H ) :   0.9348 B( 18-C , 39-H ) :   0.9435
B( 18-C , 40-H ) :   0.9362

Dispersion correction           -0.066894409
FINAL SINGLE POINT ENERGY     -2929.514301017840

DIPOLE MOMENT
-------------

Method             : SCF
Type of density    : Electron Density
Multiplicity       :   1
Irrep              :   0
Energy             : -2929.6320042559482317 Eh
Relativity type    :
Basis              : AO
                                X                 Y                 Z
Electronic contribution:      4.254008744     -11.214835674      -7.196887649
Nuclear contribution   :     -4.746296865      11.002944711       7.203244996
                        -----------------------------------------
Total Dipole Moment    :     -0.492288121      -0.211890963       0.006357347
                        -----------------------------------------
Magnitude (a.u.)       :      0.535990476
Magnitude (Debye)      :      1.362379519

Rotational constants in cm-1:             0.012667             0.005126             0.004873
Rotational constants in MHz :           379.742793           153.681360           146.090997

                             ****ORCA TERMINATED NORMALLY****
TOTAL RUN TIME: 0 days 0 hours 0 minutes 20 seconds 994 msec
