                         Program Version 6.0.0  -   RELEASE  -
|  1> ! r2scan-3c def2/J RI DEFGRID2 scfconv6 printgap
|  2> %output
|  3>     printlevel normal
|  4> end
|  5> * xyz 0 1
|  6> C 4.0693162646 -1.4996438121 -2.3783204396
|  7> C 4.4220963051 -1.5639899686 -0.9062316837
|  8> O 3.2531744447 -1.5706416499 -0.0690415196
|  9> P 2.2994685547 -0.3101942647 0.0785718873
| 10> S 3.2044954789 1.4320072394 0.153106316
| 11> O 1.4425566221 -0.7064264478 1.3527091142
| 12> C 1.8008562286 -0.2738924949 2.6817586503
| 13> C 3.0701950945 -0.9428215068 3.1647652144
| 14> S 0.8391435094 -0.569549545 -1.4269335004
| 15> C 0.132607884 1.0957703658 -1.2984837823
| 16> S -0.7663187372 1.3686835801 0.245023614
| 17> P -2.599425527 0.3895219668 -0.2908745933
| 18> S -2.8922648035 0.1082766869 -2.2020690777
| 19> O -3.7220358615 1.3081103395 0.3119896601
| 20> C -3.7488813816 1.7120340308 1.7066136846
| 21> C -4.4935338324 3.0274617255 1.7947288775
| 22> O -2.6942140609 -0.8652392806 0.6897592264
| 23> C -1.7913277148 -1.9817040006 0.7484181822
| 24> C -1.9001955043 -2.8824252005 -0.465360567
| 25> H 3.3618843041 -2.2850430436 -2.6325762467
| 26> H 3.6199538669 -0.5354768347 -2.6133310201
| 27> H 4.9709093864 -1.6200628762 -2.9703901044
| 28> H 5.0459082205 -0.7098792649 -0.6233421934
| 29> H 4.9301299881 -2.4957440567 -0.6541403793
| 30> H 1.9128333221 0.8150224653 2.6715814561
| 31> H 0.9385948479 -0.5504381758 3.2896640923
| 32> H 2.9800740308 -2.0228368171 3.0840931836
| 33> H 3.9143903839 -0.6137455343 2.5599297949
| 34> H 3.2506051654 -0.6692008888 4.1995752
| 35> H -0.5499751511 1.2102148693 -2.1411455679
| 36> H 0.9359454433 1.8316578158 -1.3257649506
| 37> H -4.2537582437 0.9230372511 2.2666888962
| 38> H -2.7193820624 1.8115992412 2.0628657715
| 39> H -4.5577426499 3.3325394207 2.8341675074
| 40> H -3.9709966357 3.7923513281 1.227085826
| 41> H -5.4946544273 2.9144105333 1.3888958345
| 42> H -0.7692386855 -1.609539211 0.867024547
| 43> H -2.0947818452 -2.505988725 1.6569018375
| 44> H -1.2777914225 -3.7587016937 -0.315229083
| 45> H -2.9318226596 -3.1920147686 -0.6117670605
| 46> H -1.5635235049 -2.3624222609 -1.3602721053
| 47> *
| 48>
| 49>                          ****END OF INPUT****

CARTESIAN COORDINATES (ANGSTROEM)
---------------------------------
  C      4.069316   -1.499644   -2.378320
  C      4.422096   -1.563990   -0.906232
  O      3.253174   -1.570642   -0.069042
  P      2.299469   -0.310194    0.078572
  S      3.204495    1.432007    0.153106
  O      1.442557   -0.706426    1.352709
  C      1.800856   -0.273892    2.681759
  C      3.070195   -0.942822    3.164765
  S      0.839144   -0.569550   -1.426934
  C      0.132608    1.095770   -1.298484
  S     -0.766319    1.368684    0.245024
  P     -2.599426    0.389522   -0.290875
  S     -2.892265    0.108277   -2.202069
  O     -3.722036    1.308110    0.311990
  C     -3.748881    1.712034    1.706614
  C     -4.493534    3.027462    1.794729
  O     -2.694214   -0.865239    0.689759
  C     -1.791328   -1.981704    0.748418
  C     -1.900196   -2.882425   -0.465361
  H      3.361884   -2.285043   -2.632576
  H      3.619954   -0.535477   -2.613331
  H      4.970909   -1.620063   -2.970390
  H      5.045908   -0.709879   -0.623342
  H      4.930130   -2.495744   -0.654140
  H      1.912833    0.815022    2.671581
  H      0.938595   -0.550438    3.289664
  H      2.980074   -2.022837    3.084093
  H      3.914390   -0.613746    2.559930
  H      3.250605   -0.669201    4.199575
  H     -0.549975    1.210215   -2.141146
  H      0.935945    1.831658   -1.325765
  H     -4.253758    0.923037    2.266689
  H     -2.719382    1.811599    2.062866
  H     -4.557743    3.332539    2.834168
  H     -3.970997    3.792351    1.227086
  H     -5.494654    2.914411    1.388896
  H     -0.769239   -1.609539    0.867025
  H     -2.094782   -2.505989    1.656902
  H     -1.277791   -3.758702   -0.315229
  H     -2.931823   -3.192015   -0.611767
  H     -1.563524   -2.362422   -1.360272

 Total Charge           Charge          ....    0
 Multiplicity           Mult            ....    1
 Number of Electrons    NEL             ....  202
 Basis Dimension        Dim             ....  539

ORBITAL ENERGIES
----------------

  NO   OCC          E(Eh)            E(eV)
   0   2.0000     -88.578008     -2410.3301
   1   2.0000     -88.573479     -2410.2069
   2   2.0000     -88.527122     -2408.9454
   3   2.0000     -88.518833     -2408.7199
   4   2.0000     -76.918708     -2093.0645
   5   2.0000     -76.912725     -2092.9016
   6   2.0000     -18.998978      -516.9885
   7   2.0000     -18.994602      -516.8694
   8   2.0000     -18.990087      -516.7465
   9   2.0000     -18.988161      -516.6941
  10   2.0000     -10.105454      -274.9834
  11   2.0000     -10.103685      -274.9353
  12   2.0000     -10.103546      -274.9315
  13   2.0000     -10.102152      -274.8935
  14   2.0000     -10.093280      -274.6521
  15   2.0000     -10.034702      -273.0581
  16   2.0000     -10.033399      -273.0227
  17   2.0000     -10.032293      -272.9926
  18   2.0000     -10.019101      -272.6336
  19   2.0000      -7.872358      -214.2178
  20   2.0000      -7.867719      -214.0915
  21   2.0000      -7.821797      -212.8419
  22   2.0000      -7.813680      -212.6210
  23   2.0000      -6.597372      -179.5236
  24   2.0000      -6.590935      -179.3485
  25   2.0000      -5.819171      -158.3477
  26   2.0000      -5.816269      -158.2687
  27   2.0000      -5.814609      -158.2236
  28   2.0000      -5.811520      -158.1395
  29   2.0000      -5.809482      -158.0840
  30   2.0000      -5.804892      -157.9591
  31   2.0000      -5.769367      -156.9925
  32   2.0000      -5.762093      -156.7945
  33   2.0000      -5.761881      -156.7887
  34   2.0000      -5.761480      -156.7778
  35   2.0000      -5.753943      -156.5728
  36   2.0000      -5.753536      -156.5617
  37   2.0000      -4.742753      -129.0569
  38   2.0000      -4.742264      -129.0436
  39   2.0000      -4.741214      -129.0150
  40   2.0000      -4.736637      -128.8905
  41   2.0000      -4.736008      -128.8733
  42   2.0000      -4.734406      -128.8297
  43   2.0000      -1.055771       -28.7290
  44   2.0000      -1.049189       -28.5499
  45   2.0000      -1.017027       -27.6747
  46   2.0000      -1.006259       -27.3817
  47   2.0000      -0.802013       -21.8239
  48   2.0000      -0.761552       -20.7229
  49   2.0000      -0.753174       -20.4949
  50   2.0000      -0.736050       -20.0289
  51   2.0000      -0.729812       -19.8592
  52   2.0000      -0.712829       -19.3971
  53   2.0000      -0.687358       -18.7040
  54   2.0000      -0.671453       -18.2712
  55   2.0000      -0.637057       -17.3352
  56   2.0000      -0.614981       -16.7345
  57   2.0000      -0.610405       -16.6100
  58   2.0000      -0.607498       -16.5309
  59   2.0000      -0.594893       -16.1879
  60   2.0000      -0.532213       -14.4822
  61   2.0000      -0.521316       -14.1857
  62   2.0000      -0.498254       -13.5582
  63   2.0000      -0.492788       -13.4094
  64   2.0000      -0.479918       -13.0592
  65   2.0000      -0.465146       -12.6573
  66   2.0000      -0.463182       -12.6038
  67   2.0000      -0.452578       -12.3153
  68   2.0000      -0.447382       -12.1739
  69   2.0000      -0.436056       -11.8657
  70   2.0000      -0.423201       -11.5159
  71   2.0000      -0.417167       -11.3517
  72   2.0000      -0.414224       -11.2716
  73   2.0000      -0.406301       -11.0560
  74   2.0000      -0.403867       -10.9898
  75   2.0000      -0.390834       -10.6351
  76   2.0000      -0.379340       -10.3224
  77   2.0000      -0.374421       -10.1885
  78   2.0000      -0.373507       -10.1636
  79   2.0000      -0.367164        -9.9910
  80   2.0000      -0.363280        -9.8853
  81   2.0000      -0.358640        -9.7591
  82   2.0000      -0.356500        -9.7009
  83   2.0000      -0.353030        -9.6064
  84   2.0000      -0.348041        -9.4707
  85   2.0000      -0.336910        -9.1678
  86   2.0000      -0.329488        -8.9658
  87   2.0000      -0.315522        -8.5858
  88   2.0000      -0.311563        -8.4781
  89   2.0000      -0.308092        -8.3836
  90   2.0000      -0.300958        -8.1895
  91   2.0000      -0.293420        -7.9844
  92   2.0000      -0.288722        -7.8565
  93   2.0000      -0.283727        -7.7206
  94   2.0000      -0.271988        -7.4012
  95   2.0000      -0.248645        -6.7660
  96   2.0000      -0.231254        -6.2928
  97   2.0000      -0.229274        -6.2389
  98   2.0000      -0.220098        -5.9892
  99   2.0000      -0.217175        -5.9096
 100   2.0000      -0.212340        -5.7781
 101   0.0000      -0.049026        -1.3341
 102   0.0000      -0.029706        -0.8083
 103   0.0000      -0.005158        -0.1404
 104   0.0000      -0.002112        -0.0575
 105   0.0000       0.012172         0.3312

MULLIKEN ATOMIC CHARGES
-----------------------
   0 C :   -0.452202
   1 C :   -0.150706
   2 O :   -0.304955
   3 P :    0.674745
   4 S :   -0.478907
   5 O :   -0.275029
   6 C :   -0.150907
   7 C :   -0.440760
   8 S :   -0.122007
   9 C :   -0.244817
  10 S :   -0.175675
  11 P :    0.665683
  12 S :   -0.435616
  13 O :   -0.286780
  14 C :   -0.115867
  15 C :   -0.447398
  16 O :   -0.254527
  17 C :   -0.175993
  18 C :   -0.421285
  19 H :    0.157135
  20 H :    0.177852
  21 H :    0.149326
  22 H :    0.171183
  23 H :    0.149219
  24 H :    0.174042
  25 H :    0.150292
  26 H :    0.156107
  27 H :    0.167900
  28 H :    0.147794
  29 H :    0.218533
  30 H :    0.218567
  31 H :    0.159075
  32 H :    0.140930
  33 H :    0.145131
  34 H :    0.161631
  35 H :    0.159279
  36 H :    0.177759
  37 H :    0.143872
  38 H :    0.142562
  39 H :    0.151523
  40 H :    0.173292
Sum of atomic charges:    0.0000000

LOEWDIN ATOMIC CHARGES
----------------------
   0 C :   -0.405746
   1 C :    0.020985
   2 O :   -0.660145
   3 P :    0.376831
   4 S :   -0.130806
   5 O :   -0.695903
   6 C :    0.017740
   7 C :   -0.398601
   8 S :    0.166816
   9 C :   -0.425685
  10 S :    0.136697
  11 P :    0.389277
  12 S :   -0.095093
  13 O :   -0.652701
  14 C :    0.026641
  15 C :   -0.384288
  16 O :   -0.665633
  17 C :    0.019373
  18 C :   -0.410022
  19 H :    0.160911
  20 H :    0.166078
  21 H :    0.160157
  22 H :    0.179555
  23 H :    0.180088
  24 H :    0.181427
  25 H :    0.179508
  26 H :    0.160950
  27 H :    0.165058
  28 H :    0.159871
  29 H :    0.195530
  30 H :    0.191563
  31 H :    0.175654
  32 H :    0.172761
  33 H :    0.159207
  34 H :    0.163415
  35 H :    0.163543
  36 H :    0.191336
  37 H :    0.177767
  38 H :    0.158530
  39 H :    0.160522
  40 H :    0.166833

  Mayer bond orders larger than 0.100000
B(  0-C ,  1-C ) :   0.9231 B(  0-C , 19-H ) :   0.9687 B(  0-C , 20-H ) :   0.9615
B(  0-C , 21-H ) :   0.9580 B(  1-C ,  2-O ) :   0.8123 B(  1-C , 22-H ) :   0.9661
B(  1-C , 23-H ) :   0.9579 B(  2-O ,  3-P ) :   1.0711 B(  3-P ,  4-S ) :   1.7544
B(  3-P ,  5-O ) :   1.1330 B(  3-P ,  8-S ) :   1.0917 B(  5-O ,  6-C ) :   0.7935
B(  6-C ,  7-C ) :   0.9250 B(  6-C , 24-H ) :   0.9638 B(  6-C , 25-H ) :   0.9613
B(  7-C , 26-H ) :   0.9715 B(  7-C , 27-H ) :   0.9597 B(  7-C , 28-H ) :   0.9618
B(  8-S ,  9-C ) :   0.9013 B(  9-C , 10-S ) :   0.9185 B(  9-C , 29-H ) :   0.8997
B(  9-C , 30-H ) :   0.9097 B( 10-S , 11-P ) :   0.9744 B( 11-P , 12-S ) :   1.8337
B( 11-P , 13-O ) :   1.1928 B( 11-P , 16-O ) :   1.0427 B( 13-O , 14-C ) :   0.7296
B( 14-C , 15-C ) :   0.9661 B( 14-C , 31-H ) :   0.9456 B( 14-C , 32-H ) :   0.9490
B( 15-C , 33-H ) :   0.9647 B( 15-C , 34-H ) :   0.9704 B( 15-C , 35-H ) :   0.9707
B( 16-O , 17-C ) :   0.8020 B( 17-C , 18-C ) :   0.9329 B( 17-C , 36-H ) :   0.9496
B( 17-C , 37-H ) :   0.9661 B( 18-C , 38-H ) :   0.9650 B( 18-C , 39-H ) :   0.9686
B( 18-C , 40-H ) :   0.9509

Dispersion correction           -0.021337750
FINAL SINGLE POINT ENERGY     -2932.462424134835

DIPOLE MOMENT
-------------

Method             : SCF
Type of density    : Electron Density
Multiplicity       :   1
Irrep              :   0
Energy             : -2932.4877149374360670 Eh
Relativity type    :
Basis              : AO
                                X                 Y                 Z
Electronic contribution:     -4.825733317       7.215033963     -10.801389426
Nuclear contribution   :      5.557913952      -7.952835281      12.382438659
                        -----------------------------------------
Total Dipole Moment    :      0.732180635      -0.737801318       1.581049233
                        -----------------------------------------
Magnitude (a.u.)       :      1.892130002
Magnitude (Debye)      :      4.809412255

Rotational constants in cm-1:             0.012418             0.004784             0.004407
Rotational constants in MHz :           372.271047           143.428206           132.108603

                             ****ORCA TERMINATED NORMALLY****
TOTAL RUN TIME: 0 days 0 hours 1 minutes 22 seconds 98 msec
