                         Program Version 6.0.0  -   RELEASE  -
|  1> ! r2scan-3c def2/J RI DEFGRID2 scfconv6 printgap
|  2> %output
|  3>     printlevel normal
|  4> end
|  5> %cpcm
|  6>     smd true
|  7>     smdsolvent "water"
|  8> end
|  9> * xyz 0 1
| 10> C 4.0693162646 -1.4996438121 -2.3783204396
| 11> C 4.4220963051 -1.5639899686 -0.9062316837
| 12> O 3.2531744447 -1.5706416499 -0.0690415196
| 13> P 2.2994685547 -0.3101942647 0.0785718873
| 14> S 3.2044954789 1.4320072394 0.153106316
| 15> O 1.4425566221 -0.7064264478 1.3527091142
| 16> C 1.8008562286 -0.2738924949 2.6817586503
| 17> C 3.0701950945 -0.9428215068 3.1647652144
| 18> S 0.8391435094 -0.569549545 -1.4269335004
| 19> C 0.132607884 1.0957703658 -1.2984837823
| 20> S -0.7663187372 1.3686835801 0.245023614
| 21> P -2.599425527 0.3895219668 -0.2908745933
| 22> S -2.8922648035 0.1082766869 -2.2020690777
| 23> O -3.7220358615 1.3081103395 0.3119896601
| 24> C -3.7488813816 1.7120340308 1.7066136846
| 25> C -4.4935338324 3.0274617255 1.7947288775
| 26> O -2.6942140609 -0.8652392806 0.6897592264
| 27> C -1.7913277148 -1.9817040006 0.7484181822
| 28> C -1.9001955043 -2.8824252005 -0.465360567
| 29> H 3.3618843041 -2.2850430436 -2.6325762467
| 30> H 3.6199538669 -0.5354768347 -2.6133310201
| 31> H 4.9709093864 -1.6200628762 -2.9703901044
| 32> H 5.0459082205 -0.7098792649 -0.6233421934
| 33> H 4.9301299881 -2.4957440567 -0.6541403793
| 34> H 1.9128333221 0.8150224653 2.6715814561
| 35> H 0.9385948479 -0.5504381758 3.2896640923
| 36> H 2.9800740308 -2.0228368171 3.0840931836
| 37> H 3.9143903839 -0.6137455343 2.5599297949
| 38> H 3.2506051654 -0.6692008888 4.1995752
| 39> H -0.5499751511 1.2102148693 -2.1411455679
| 40> H 0.9359454433 1.8316578158 -1.3257649506
| 41> H -4.2537582437 0.9230372511 2.2666888962
| 42> H -2.7193820624 1.8115992412 2.0628657715
| 43> H -4.5577426499 3.3325394207 2.8341675074
| 44> H -3.9709966357 3.7923513281 1.227085826
| 45> H -5.4946544273 2.9144105333 1.3888958345
| 46> H -0.7692386855 -1.609539211 0.867024547
| 47> H -2.0947818452 -2.505988725 1.6569018375
| 48> H -1.2777914225 -3.7587016937 -0.315229083
| 49> H -2.9318226596 -3.1920147686 -0.6117670605
| 50> H -1.5635235049 -2.3624222609 -1.3602721053
| 51> *
| 52>
| 53>                          ****END OF INPUT****

CARTESIAN COORDINATES (ANGSTROEM)
---------------------------------
  C      4.069316   -1.499644   -2.378320
  C      4.422096   -1.563990   -0.906232
  O      3.253174   -1.570642   -0.069042
  P      2.299469   -0.310194    0.078572
  S      3.204495    1.432007    0.153106
  O      1.442557   -0.706426    1.352709
  C      1.800856   -0.273892    2.681759
  C      3.070195   -0.942822    3.164765
  S      0.839144   -0.569550   -1.426934
  C      0.132608    1.095770   -1.298484
  S     -0.766319    1.368684    0.245024
  P     -2.599426    0.389522   -0.290875
  S     -2.892265    0.108277   -2.202069
  O     -3.722036    1.308110    0.311990
  C     -3.748881    1.712034    1.706614
  C     -4.493534    3.027462    1.794729
  O     -2.694214   -0.865239    0.689759
  C     -1.791328   -1.981704    0.748418
  C     -1.900196   -2.882425   -0.465361
  H      3.361884   -2.285043   -2.632576
  H      3.619954   -0.535477   -2.613331
  H      4.970909   -1.620063   -2.970390
  H      5.045908   -0.709879   -0.623342
  H      4.930130   -2.495744   -0.654140
  H      1.912833    0.815022    2.671581
  H      0.938595   -0.550438    3.289664
  H      2.980074   -2.022837    3.084093
  H      3.914390   -0.613746    2.559930
  H      3.250605   -0.669201    4.199575
  H     -0.549975    1.210215   -2.141146
  H      0.935945    1.831658   -1.325765
  H     -4.253758    0.923037    2.266689
  H     -2.719382    1.811599    2.062866
  H     -4.557743    3.332539    2.834168
  H     -3.970997    3.792351    1.227086
  H     -5.494654    2.914411    1.388896
  H     -0.769239   -1.609539    0.867025
  H     -2.094782   -2.505989    1.656902
  H     -1.277791   -3.758702   -0.315229
  H     -2.931823   -3.192015   -0.611767
  H     -1.563524   -2.362422   -1.360272

 Total Charge           Charge          ....    0
 Multiplicity           Mult            ....    1
 Number of Electrons    NEL             ....  202
 Basis Dimension        Dim             ....  539

ORBITAL ENERGIES
----------------

  NO   OCC          E(Eh)            E(eV)
   0   2.0000     -88.579675     -2410.3755
   1   2.0000     -88.578612     -2410.3466
   2   2.0000     -88.531883     -2409.0750
   3   2.0000     -88.530416     -2409.0351
   4   2.0000     -76.921569     -2093.1423
   5   2.0000     -76.919861     -2093.0958
   6   2.0000     -18.997377      -516.9449
   7   2.0000     -18.995992      -516.9072
   8   2.0000     -18.993891      -516.8501
   9   2.0000     -18.992453      -516.8109
  10   2.0000     -10.104131      -274.9474
  11   2.0000     -10.095263      -274.7061
  12   2.0000     -10.090624      -274.5799
  13   2.0000     -10.089243      -274.5423
  14   2.0000     -10.088460      -274.5209
  15   2.0000     -10.020964      -272.6843
  16   2.0000     -10.019107      -272.6338
  17   2.0000     -10.018781      -272.6249
  18   2.0000     -10.015569      -272.5375
  19   2.0000      -7.874094      -214.2650
  20   2.0000      -7.872792      -214.2296
  21   2.0000      -7.827078      -212.9856
  22   2.0000      -7.825369      -212.9391
  23   2.0000      -6.599867      -179.5915
  24   2.0000      -6.598550      -179.5557
  25   2.0000      -5.820894      -158.3946
  26   2.0000      -5.819700      -158.3621
  27   2.0000      -5.818014      -158.3162
  28   2.0000      -5.816579      -158.2772
  29   2.0000      -5.811213      -158.1311
  30   2.0000      -5.809972      -158.0974
  31   2.0000      -5.774754      -157.1391
  32   2.0000      -5.772884      -157.0881
  33   2.0000      -5.767338      -156.9373
  34   2.0000      -5.766995      -156.9279
  35   2.0000      -5.765656      -156.8915
  36   2.0000      -5.765465      -156.8863
  37   2.0000      -4.745539      -129.1327
  38   2.0000      -4.744869      -129.1145
  39   2.0000      -4.743869      -129.0872
  40   2.0000      -4.743467      -129.0763
  41   2.0000      -4.743435      -129.0754
  42   2.0000      -4.742494      -129.0498
  43   2.0000      -1.054741       -28.7009
  44   2.0000      -1.053547       -28.6685
  45   2.0000      -1.014026       -27.5930
  46   2.0000      -1.011069       -27.5126
  47   2.0000      -0.804092       -21.8805
  48   2.0000      -0.758440       -20.6382
  49   2.0000      -0.745895       -20.2968
  50   2.0000      -0.725102       -19.7310
  51   2.0000      -0.723744       -19.6941
  52   2.0000      -0.711271       -19.3547
  53   2.0000      -0.690934       -18.8013
  54   2.0000      -0.676713       -18.4143
  55   2.0000      -0.632215       -17.2034
  56   2.0000      -0.616361       -16.7720
  57   2.0000      -0.601074       -16.3560
  58   2.0000      -0.599789       -16.3211
  59   2.0000      -0.593995       -16.1634
  60   2.0000      -0.530093       -14.4246
  61   2.0000      -0.514617       -14.0034
  62   2.0000      -0.493623       -13.4322
  63   2.0000      -0.490027       -13.3343
  64   2.0000      -0.478332       -13.0161
  65   2.0000      -0.459736       -12.5101
  66   2.0000      -0.455093       -12.3837
  67   2.0000      -0.448627       -12.2078
  68   2.0000      -0.444617       -12.0986
  69   2.0000      -0.431390       -11.7387
  70   2.0000      -0.423138       -11.5142
  71   2.0000      -0.413368       -11.2483
  72   2.0000      -0.405983       -11.0474
  73   2.0000      -0.403463       -10.9788
  74   2.0000      -0.401508       -10.9256
  75   2.0000      -0.388386       -10.5685
  76   2.0000      -0.377984       -10.2855
  77   2.0000      -0.366371        -9.9695
  78   2.0000      -0.364055        -9.9064
  79   2.0000      -0.358728        -9.7615
  80   2.0000      -0.355408        -9.6711
  81   2.0000      -0.353199        -9.6110
  82   2.0000      -0.349584        -9.5127
  83   2.0000      -0.347982        -9.4691
  84   2.0000      -0.345728        -9.4077
  85   2.0000      -0.332817        -9.0564
  86   2.0000      -0.324280        -8.8241
  87   2.0000      -0.312856        -8.5132
  88   2.0000      -0.306504        -8.3404
  89   2.0000      -0.305340        -8.3087
  90   2.0000      -0.297939        -8.1073
  91   2.0000      -0.289335        -7.8732
  92   2.0000      -0.287493        -7.8231
  93   2.0000      -0.281137        -7.6501
  94   2.0000      -0.275998        -7.5103
  95   2.0000      -0.250802        -6.8247
  96   2.0000      -0.238944        -6.5020
  97   2.0000      -0.235257        -6.4017
  98   2.0000      -0.228223        -6.2103
  99   2.0000      -0.225396        -6.1333
 100   2.0000      -0.222163        -6.0454
 101   0.0000      -0.054124        -1.4728
 102   0.0000      -0.035161        -0.9568
 103   0.0000      -0.007568        -0.2059
 104   0.0000      -0.006925        -0.1884
 105   0.0000       0.011648         0.3170

MULLIKEN ATOMIC CHARGES
-----------------------
   0 C :   -0.488579
   1 C :   -0.151822
   2 O :   -0.328939
   3 P :    0.715018
   4 S :   -0.525853
   5 O :   -0.296878
   6 C :   -0.145163
   7 C :   -0.483142
   8 S :   -0.129755
   9 C :   -0.255541
  10 S :   -0.176167
  11 P :    0.672087
  12 S :   -0.489238
  13 O :   -0.321905
  14 C :   -0.102143
  15 C :   -0.492583
  16 O :   -0.277092
  17 C :   -0.158411
  18 C :   -0.467739
  19 H :    0.170410
  20 H :    0.172947
  21 H :    0.173463
  22 H :    0.178344
  23 H :    0.176114
  24 H :    0.176539
  25 H :    0.178049
  26 H :    0.170059
  27 H :    0.167963
  28 H :    0.172161
  29 H :    0.231038
  30 H :    0.238272
  31 H :    0.180136
  32 H :    0.158380
  33 H :    0.171716
  34 H :    0.168659
  35 H :    0.168890
  36 H :    0.175328
  37 H :    0.174936
  38 H :    0.170208
  39 H :    0.164442
  40 H :    0.165789
Sum of atomic charges:    0.0000000

LOEWDIN ATOMIC CHARGES
----------------------
   0 C :   -0.409379
   1 C :    0.026674
   2 O :   -0.670097
   3 P :    0.382727
   4 S :   -0.159042
   5 O :   -0.702951
   6 C :    0.022973
   7 C :   -0.402162
   8 S :    0.162009
   9 C :   -0.421883
  10 S :    0.140805
  11 P :    0.388344
  12 S :   -0.137609
  13 O :   -0.675972
  14 C :    0.034674
  15 C :   -0.388301
  16 O :   -0.673272
  17 C :    0.025747
  18 C :   -0.414941
  19 H :    0.163909
  20 H :    0.161711
  21 H :    0.168834
  22 H :    0.181839
  23 H :    0.191487
  24 H :    0.182066
  25 H :    0.190767
  26 H :    0.164354
  27 H :    0.162615
  28 H :    0.168847
  29 H :    0.198830
  30 H :    0.197338
  31 H :    0.185255
  32 H :    0.180384
  33 H :    0.170188
  34 H :    0.163778
  35 H :    0.165249
  36 H :    0.191390
  37 H :    0.190868
  38 H :    0.168528
  39 H :    0.162216
  40 H :    0.161208

  Mayer bond orders larger than 0.100000
B(  0-C ,  1-C ) :   0.9091 B(  0-C , 19-H ) :   0.9659 B(  0-C , 20-H ) :   0.9631
B(  0-C , 21-H ) :   0.9529 B(  1-C ,  2-O ) :   0.8008 B(  1-C , 22-H ) :   0.9652
B(  1-C , 23-H ) :   0.9483 B(  2-O ,  3-P ) :   1.0803 B(  3-P ,  4-S ) :   1.7116
B(  3-P ,  5-O ) :   1.1448 B(  3-P ,  8-S ) :   1.0972 B(  5-O ,  6-C ) :   0.7818
B(  6-C ,  7-C ) :   0.9144 B(  6-C , 24-H ) :   0.9602 B(  6-C , 25-H ) :   0.9511
B(  7-C , 26-H ) :   0.9704 B(  7-C , 27-H ) :   0.9593 B(  7-C , 28-H ) :   0.9559
B(  8-S ,  9-C ) :   0.8963 B(  9-C , 10-S ) :   0.9053 B(  9-C , 29-H ) :   0.8976
B(  9-C , 30-H ) :   0.9042 B( 10-S , 11-P ) :   0.9965 B( 11-P , 12-S ) :   1.8116
B( 11-P , 13-O ) :   1.1956 B( 11-P , 16-O ) :   1.0494 B( 13-O , 14-C ) :   0.7228
B( 14-C , 15-C ) :   0.9549 B( 14-C , 31-H ) :   0.9353 B( 14-C , 32-H ) :   0.9392
B( 15-C , 33-H ) :   0.9579 B( 15-C , 34-H ) :   0.9699 B( 15-C , 35-H ) :   0.9686
B( 16-O , 17-C ) :   0.7938 B( 17-C , 18-C ) :   0.9157 B( 17-C , 36-H ) :   0.9484
B( 17-C , 37-H ) :   0.9561 B( 18-C , 38-H ) :   0.9596 B( 18-C , 39-H ) :   0.9694
B( 18-C , 40-H ) :   0.9539

Dispersion correction           -0.021337750
FINAL SINGLE POINT ENERGY     -2932.470831096211

DIPOLE MOMENT
-------------

Method             : SCF
Type of density    : Electron Density
Multiplicity       :   1
Irrep              :   0
Energy             : -2932.4961218988123619 Eh
Relativity type    :
Basis              : AO
                                X                 Y                 Z
Electronic contribution:     -4.454902116       6.930646131     -10.123057483
Nuclear contribution   :      5.557913952      -7.952835281      12.382438659
                        -----------------------------------------
Total Dipole Moment    :      1.103011837      -1.022189150       2.259381176
                        -----------------------------------------
Magnitude (a.u.)       :      2.714094522
Magnitude (Debye)      :      6.898680027

Rotational constants in cm-1:             0.012418             0.004784             0.004407
Rotational constants in MHz :           372.271047           143.428206           132.108603

                             ****ORCA TERMINATED NORMALLY****
TOTAL RUN TIME: 0 days 0 hours 1 minutes 54 seconds 18 msec
