                         Program Version 6.0.0  -   RELEASE  -
|  1> ! wb97x-v def2-tzvp def2/J RIJCOSX DEFGRID2 scfconv7 GCP(DFT/TZ) printgap
|  2> %output
|  3>     printlevel normal
|  4> end
|  5> * xyz 0 1
|  6> C 0.6228698085476713 1.7088857845249157 -0.03237019235595847
|  7> C 1.3931459314262846 0.4159177509696285 -0.2688540297282555
|  8> H 1.601096493556834 0.2973354656774782 -1.3422032512079505
|  9> C 0.5682820680913666 -0.7710307973722966 0.20542511432962307
| 10> H 0.4358423816163832 -0.6976289601014781 1.2971006420314006
| 11> C -0.7951055271943908 -0.7458320713762462 -0.47827939925377294
| 12> H -0.6490908911756924 -0.896878179937944 -1.553663362821599
| 13> C -1.4839558821942747 0.6123846834342321 -0.2933536233719076
| 14> H -2.3690890225700745 0.6757259238501049 -0.935954458778747
| 15> O -0.6412509953991122 1.6747470937423135 -0.7232428289228097
| 16> O -1.8474054584844648 0.7306409301058067 1.0697233907079475
| 17> O -1.6397282439254768 -1.8095542520993908 -0.04216907269673473
| 18> O 1.1955081601753073 -2.0148158941571865 -0.12842081739174524
| 19> O 2.6167497673604574 0.41541914407655206 0.4795493215806755
| 20> H 1.168610596575759 2.5631528598894064 -0.4409123467269194
| 21> H 0.47362348740094384 1.8651903272159522 1.0441714653314267
| 22> H -2.522776583654027 1.418794408533303 1.140398305274757
| 23> H -1.8393812887571312 -1.6532989400775804 0.8920564954662313
| 24> H 2.055916875861714 -2.0236834224912887 0.3117392897257993
| 25> H 3.2351022926509567 1.0084401066398592 0.033100305767946
| 26> *
| 27>
| 28>                          ****END OF INPUT****

CARTESIAN COORDINATES (ANGSTROEM)
---------------------------------
  C      0.622870    1.708886   -0.032370
  C      1.393146    0.415918   -0.268854
  H      1.601096    0.297335   -1.342203
  C      0.568282   -0.771031    0.205425
  H      0.435842   -0.697629    1.297101
  C     -0.795106   -0.745832   -0.478279
  H     -0.649091   -0.896878   -1.553663
  C     -1.483956    0.612385   -0.293354
  H     -2.369089    0.675726   -0.935954
  O     -0.641251    1.674747   -0.723243
  O     -1.847405    0.730641    1.069723
  O     -1.639728   -1.809554   -0.042169
  O      1.195508   -2.014816   -0.128421
  O      2.616750    0.415419    0.479549
  H      1.168611    2.563153   -0.440912
  H      0.473623    1.865190    1.044171
  H     -2.522777    1.418794    1.140398
  H     -1.839381   -1.653299    0.892056
  H      2.055917   -2.023683    0.311739
  H      3.235102    1.008440    0.033100

 Total Charge           Charge          ....    0
 Multiplicity           Mult            ....    1
 Number of Electrons    NEL             ....   80
 Basis Dimension        Dim             ....  370

ORBITAL ENERGIES
----------------

  NO   OCC          E(Eh)            E(eV)
   0   2.0000     -21.698977      -590.4592
   1   2.0000     -21.692738      -590.2894
   2   2.0000     -21.692482      -590.2824
   3   2.0000     -21.669676      -589.6619
   4   2.0000     -21.669179      -589.6483
   5   2.0000     -12.157083      -330.8110
   6   2.0000     -12.108792      -329.4970
   7   2.0000     -12.103876      -329.3632
   8   2.0000     -12.102658      -329.3301
   9   2.0000     -12.101773      -329.3060
  10   2.0000      -1.725263       -46.9468
  11   2.0000      -1.694603       -46.1125
  12   2.0000      -1.682423       -45.7811
  13   2.0000      -1.675827       -45.6016
  14   2.0000      -1.667794       -45.3830
  15   2.0000      -1.331919       -36.2434
  16   2.0000      -1.306833       -35.5607
  17   2.0000      -1.198244       -32.6059
  18   2.0000      -1.192661       -32.4539
  19   2.0000      -1.131461       -30.7886
  20   2.0000      -1.085943       -29.5500
  21   2.0000      -1.060042       -28.8452
  22   2.0000      -1.043341       -28.3908
  23   2.0000      -1.030406       -28.0388
  24   2.0000      -1.020969       -27.7820
  25   2.0000      -0.996813       -27.1247
  26   2.0000      -0.988383       -26.8953
  27   2.0000      -0.970231       -26.4013
  28   2.0000      -0.958648       -26.0861
  29   2.0000      -0.950758       -25.8714
  30   2.0000      -0.930972       -25.3330
  31   2.0000      -0.929465       -25.2920
  32   2.0000      -0.918939       -25.0056
  33   2.0000      -0.895346       -24.3636
  34   2.0000      -0.880204       -23.9516
  35   2.0000      -0.855066       -23.2675
  36   2.0000      -0.828651       -22.5487
  37   2.0000      -0.815908       -22.2020
  38   2.0000      -0.803762       -21.8715
  39   2.0000      -0.778135       -21.1741
  40   0.0000      -0.237083        -6.4514
  41   0.0000      -0.174915        -4.7597
  42   0.0000      -0.166985        -4.5439
  43   0.0000      -0.150885        -4.1058
  44   0.0000      -0.119558        -3.2533

MULLIKEN ATOMIC CHARGES
-----------------------
   0 C :   -0.025160
   1 C :   -0.023788
   2 H :    0.085705
   3 C :    0.072826
   4 H :    0.089700
   5 C :    0.090058
   6 H :    0.095025
   7 C :    0.093263
   8 H :    0.104701
   9 O :   -0.289783
  10 O :   -0.441185
  11 O :   -0.431503
  12 O :   -0.426396
  13 O :   -0.445871
  14 H :    0.108940
  15 H :    0.103599
  16 H :    0.315695
  17 H :    0.306694
  18 H :    0.309062
  19 H :    0.308418
Sum of atomic charges:   -0.0000000

LOEWDIN ATOMIC CHARGES
----------------------
   0 C :   -0.280350
   1 C :   -0.335745
   2 H :    0.139388
   3 C :   -0.312584
   4 H :    0.143483
   5 C :   -0.304921
   6 H :    0.155413
   7 C :   -0.411156
   8 H :    0.132370
   9 O :    0.161228
  10 O :   -0.005812
  11 O :   -0.003038
  12 O :   -0.009247
  13 O :   -0.019750
  14 H :    0.125478
  15 H :    0.127019
  16 H :    0.178886
  17 H :    0.172877
  18 H :    0.172966
  19 H :    0.173495

  Mayer bond orders larger than 0.100000
B(  0-C ,  1-C ) :   0.9519 B(  0-C ,  9-O ) :   0.9789 B(  0-C , 14-H ) :   0.9577
B(  0-C , 15-H ) :   0.9692 B(  1-C ,  2-H ) :   0.9807 B(  1-C ,  3-C ) :   0.9435
B(  1-C , 13-O ) :   1.0875 B(  3-C ,  4-H ) :   0.9548 B(  3-C ,  5-C ) :   0.9848
B(  3-C , 12-O ) :   1.1048 B(  5-C ,  6-H ) :   0.9457 B(  5-C ,  7-C ) :   0.9665
B(  5-C , 11-O ) :   1.0333 B(  7-C ,  8-H ) :   0.9607 B(  7-C ,  9-O ) :   1.0549
B(  7-C , 10-O ) :   1.1756 B( 10-O , 16-H ) :   0.8917 B( 11-O , 17-H ) :   0.8849
B( 12-O , 18-H ) :   0.8913 B( 13-O , 19-H ) :   0.9001

FINAL SINGLE POINT ENERGY      -572.704230386959

DIPOLE MOMENT
-------------

Method             : SCF
Type of density    : Electron Density
Multiplicity       :   1
Irrep              :   0
Energy             :  -572.7197660990586883 Eh
Relativity type    :
Basis              : AO
                                X                 Y                 Z
Electronic contribution:     -1.191906966      -1.000975926      -0.180985320
Nuclear contribution   :      1.473595553       2.309962295       0.395397538
                        -----------------------------------------
Total Dipole Moment    :      0.281688587       1.308986370       0.214412218
                        -----------------------------------------
Magnitude (a.u.)       :      1.356011200
Magnitude (Debye)      :      3.446706557

Rotational constants in cm-1:             0.056751             0.043928             0.028645
Rotational constants in MHz :          1701.360560          1316.930402           858.744233

                             ****ORCA TERMINATED NORMALLY****
TOTAL RUN TIME: 0 days 0 hours 3 minutes 45 seconds 838 msec
