                         Program Version 6.0.0  -   RELEASE  -
|  1> ! wb97x-v def2-tzvp def2/J RIJCOSX DEFGRID2 scfconv7 GCP(DFT/TZ) printgap
|  2> %output
|  3>     printlevel normal
|  4> end
|  5> %cpcm
|  6>     smd true
|  7>     smdsolvent "water"
|  8> end
|  9> * xyz 0 1
| 10> C 0.6228698085476713 1.7088857845249157 -0.03237019235595847
| 11> C 1.3931459314262846 0.4159177509696285 -0.2688540297282555
| 12> H 1.601096493556834 0.2973354656774782 -1.3422032512079505
| 13> C 0.5682820680913666 -0.7710307973722966 0.20542511432962307
| 14> H 0.4358423816163832 -0.6976289601014781 1.2971006420314006
| 15> C -0.7951055271943908 -0.7458320713762462 -0.47827939925377294
| 16> H -0.6490908911756924 -0.896878179937944 -1.553663362821599
| 17> C -1.4839558821942747 0.6123846834342321 -0.2933536233719076
| 18> H -2.3690890225700745 0.6757259238501049 -0.935954458778747
| 19> O -0.6412509953991122 1.6747470937423135 -0.7232428289228097
| 20> O -1.8474054584844648 0.7306409301058067 1.0697233907079475
| 21> O -1.6397282439254768 -1.8095542520993908 -0.04216907269673473
| 22> O 1.1955081601753073 -2.0148158941571865 -0.12842081739174524
| 23> O 2.6167497673604574 0.41541914407655206 0.4795493215806755
| 24> H 1.168610596575759 2.5631528598894064 -0.4409123467269194
| 25> H 0.47362348740094384 1.8651903272159522 1.0441714653314267
| 26> H -2.522776583654027 1.418794408533303 1.140398305274757
| 27> H -1.8393812887571312 -1.6532989400775804 0.8920564954662313
| 28> H 2.055916875861714 -2.0236834224912887 0.3117392897257993
| 29> H 3.2351022926509567 1.0084401066398592 0.033100305767946
| 30> *
| 31>
| 32>                          ****END OF INPUT****

CARTESIAN COORDINATES (ANGSTROEM)
---------------------------------
  C      0.622870    1.708886   -0.032370
  C      1.393146    0.415918   -0.268854
  H      1.601096    0.297335   -1.342203
  C      0.568282   -0.771031    0.205425
  H      0.435842   -0.697629    1.297101
  C     -0.795106   -0.745832   -0.478279
  H     -0.649091   -0.896878   -1.553663
  C     -1.483956    0.612385   -0.293354
  H     -2.369089    0.675726   -0.935954
  O     -0.641251    1.674747   -0.723243
  O     -1.847405    0.730641    1.069723
  O     -1.639728   -1.809554   -0.042169
  O      1.195508   -2.014816   -0.128421
  O      2.616750    0.415419    0.479549
  H      1.168611    2.563153   -0.440912
  H      0.473623    1.865190    1.044171
  H     -2.522777    1.418794    1.140398
  H     -1.839381   -1.653299    0.892056
  H      2.055917   -2.023683    0.311739
  H      3.235102    1.008440    0.033100

 Total Charge           Charge          ....    0
 Multiplicity           Mult            ....    1
 Number of Electrons    NEL             ....   80
 Basis Dimension        Dim             ....  370

ORBITAL ENERGIES
----------------

  NO   OCC          E(Eh)            E(eV)
   0   2.0000     -21.691703      -590.2612
   1   2.0000     -21.688349      -590.1700
   2   2.0000     -21.682480      -590.0103
   3   2.0000     -21.681589      -589.9860
   4   2.0000     -21.678875      -589.9122
   5   2.0000     -12.150329      -330.6273
   6   2.0000     -12.103584      -329.3553
   7   2.0000     -12.100450      -329.2700
   8   2.0000     -12.099138      -329.2343
   9   2.0000     -12.091343      -329.0222
  10   2.0000      -1.719296       -46.7844
  11   2.0000      -1.688392       -45.9435
  12   2.0000      -1.685179       -45.8560
  13   2.0000      -1.676887       -45.6304
  14   2.0000      -1.676220       -45.6123
  15   2.0000      -1.328868       -36.1603
  16   2.0000      -1.300731       -35.3947
  17   2.0000      -1.195006       -32.5178
  18   2.0000      -1.189785       -32.3757
  19   2.0000      -1.130718       -30.7684
  20   2.0000      -1.079463       -29.3737
  21   2.0000      -1.063032       -28.9266
  22   2.0000      -1.035909       -28.1885
  23   2.0000      -1.032909       -28.1069
  24   2.0000      -1.018292       -27.7091
  25   2.0000      -0.997866       -27.1533
  26   2.0000      -0.989180       -26.9169
  27   2.0000      -0.973494       -26.4901
  28   2.0000      -0.957261       -26.0484
  29   2.0000      -0.956166       -26.0186
  30   2.0000      -0.933510       -25.4021
  31   2.0000      -0.927336       -25.2341
  32   2.0000      -0.920499       -25.0481
  33   2.0000      -0.896971       -24.4078
  34   2.0000      -0.877772       -23.8854
  35   2.0000      -0.850012       -23.1300
  36   2.0000      -0.826827       -22.4991
  37   2.0000      -0.810935       -22.0667
  38   2.0000      -0.800476       -21.7821
  39   2.0000      -0.771113       -20.9831
  40   0.0000      -0.232483        -6.3262
  41   0.0000      -0.171327        -4.6620
  42   0.0000      -0.160466        -4.3665
  43   0.0000      -0.149263        -4.0616
  44   0.0000      -0.112464        -3.0603

MULLIKEN ATOMIC CHARGES
-----------------------
   0 C :   -0.067217
   1 C :    0.012920
   2 H :    0.105948
   3 C :    0.076650
   4 H :    0.114742
   5 C :    0.125349
   6 H :    0.126032
   7 C :    0.113897
   8 H :    0.136406
   9 O :   -0.355843
  10 O :   -0.510426
  11 O :   -0.535299
  12 O :   -0.531630
  13 O :   -0.532366
  14 H :    0.149710
  15 H :    0.115640
  16 H :    0.371054
  17 H :    0.357001
  18 H :    0.359034
  19 H :    0.368398
Sum of atomic charges:   -0.0000000

LOEWDIN ATOMIC CHARGES
----------------------
   0 C :   -0.275750
   1 C :   -0.325771
   2 H :    0.148000
   3 C :   -0.311386
   4 H :    0.150632
   5 C :   -0.307378
   6 H :    0.161039
   7 C :   -0.403021
   8 H :    0.142595
   9 O :    0.137708
  10 O :   -0.020998
  11 O :   -0.043549
  12 O :   -0.049760
  13 O :   -0.044860
  14 H :    0.136871
  15 H :    0.128915
  16 H :    0.200328
  17 H :    0.189963
  18 H :    0.189745
  19 H :    0.196676

  Mayer bond orders larger than 0.100000
B(  0-C ,  1-C ) :   0.9586 B(  0-C ,  9-O ) :   0.9435 B(  0-C , 14-H ) :   0.9568
B(  0-C , 15-H ) :   0.9694 B(  1-C ,  2-H ) :   0.9766 B(  1-C ,  3-C ) :   0.9564
B(  1-C , 13-O ) :   1.0649 B(  3-C ,  4-H ) :   0.9585 B(  3-C ,  5-C ) :   0.9758
B(  3-C , 12-O ) :   1.0432 B(  5-C ,  6-H ) :   0.9398 B(  5-C ,  7-C ) :   0.9669
B(  5-C , 11-O ) :   0.9868 B(  7-C ,  8-H ) :   0.9625 B(  7-C ,  9-O ) :   1.0262
B(  7-C , 10-O ) :   1.1535 B( 10-O , 16-H ) :   0.8552 B( 11-O , 17-H ) :   0.8557
B( 12-O , 18-H ) :   0.8609 B( 13-O , 19-H ) :   0.8626

FINAL SINGLE POINT ENERGY      -572.737309845716

DIPOLE MOMENT
-------------

Method             : SCF
Type of density    : Electron Density
Multiplicity       :   1
Irrep              :   0
Energy             :  -572.7528455578164994 Eh
Relativity type    :
Basis              : AO
                                X                 Y                 Z
Electronic contribution:     -1.075787610      -0.493124199      -0.143308317
Nuclear contribution   :      1.473595553       2.309962295       0.395397538
                        -----------------------------------------
Total Dipole Moment    :      0.397807943       1.816838097       0.252089221
                        -----------------------------------------
Magnitude (a.u.)       :      1.876885933
Magnitude (Debye)      :      4.770664910

Rotational constants in cm-1:             0.056751             0.043928             0.028645
Rotational constants in MHz :          1701.360560          1316.930402           858.744233

                             ****ORCA TERMINATED NORMALLY****
TOTAL RUN TIME: 0 days 0 hours 4 minutes 11 seconds 423 msec
