                         Program Version 6.0.0  -   RELEASE  -
|  1> ! r2scan-3c def2/J RI DEFGRID2 scfconv6 printgap
|  2> %output
|  3>     printlevel normal
|  4> end
|  5> * xyz 0 1
|  6> C 2.7377739397 -2.788673866 1.4000110557
|  7> C 1.5075537978 -2.2498941836 0.6987298133
|  8> O 1.4513831234 -0.8163226945 0.8000771951
|  9> P 2.2668681159 0.1616781868 -0.1707898735
| 10> S 3.1444175168 -0.6603300454 -1.7058698011
| 11> O 3.2935598703 0.913956131 0.7652242306
| 12> C 2.8973741674 1.6019381556 1.9800405377
| 13> C 4.1342788968 2.2606565322 2.5533039783
| 14> S 0.8013255634 1.6555201908 -0.5611533465
| 15> C 0.1356358527 0.8991898835 -2.0648716651
| 16> S -0.5417036241 -0.7580173389 -1.7801159678
| 17> P -2.0946941899 -0.1799958499 -0.4637155248
| 18> S -2.9119643055 1.571036607 -0.8098582904
| 19> O -1.5564710677 -0.3727294197 1.0225260553
| 20> C -1.3656682916 0.689644481 1.9726692909
| 21> C -2.4245215551 0.6038983813 3.0542157729
| 22> O -2.9452954371 -1.4966744632 -0.6883584832
| 23> C -4.0060626421 -1.9184619088 0.1966858343
| 24> C -5.2780194817 -1.1242051533 -0.0251031399
| 25> H 3.6324676542 -2.3939367142 0.9196135369
| 26> H 2.7391406199 -2.4952728821 2.4463208132
| 27> H 2.7473510323 -3.871588854 1.3292192648
| 28> H 0.5829794352 -2.5919557017 1.1671752225
| 29> H 1.5081153703 -2.5317362221 -0.3589528338
| 30> H 2.1317666788 2.3391905697 1.7222244831
| 31> H 2.4766371631 0.8661311745 2.6691414718
| 32> H 3.8686049581 2.7841785738 3.465930576
| 33> H 4.8889765442 1.5109688318 2.7727254144
| 34> H 4.5435837218 2.9682661012 1.8383010974
| 35> H 0.9299965256 0.7878016249 -2.801843329
| 36> H -0.650538625 1.5647873731 -2.4210840219
| 37> H -0.3612559407 0.5466534006 2.3756402177
| 38> H -1.4179135579 1.65195427 1.453519044
| 39> H -3.4094889329 0.7702654541 2.6230014857
| 40> H -2.4028974682 -0.3732504323 3.5288772438
| 41> H -2.2327209318 1.3689413071 3.7993558454
| 42> H -4.1468375653 -2.9713438708 -0.054165232
| 43> H -3.6596935144 -1.8280783867 1.2293287453
| 44> H -6.0630783923 -1.517601251 0.6130359566
| 45> H -5.1180580865 -0.0739913787 0.212069369
| 46> H -5.5889613742 -1.196746409 -1.0640208984
| 47> *
| 48>
| 49>                          ****END OF INPUT****

CARTESIAN COORDINATES (ANGSTROEM)
---------------------------------
  C      2.737774   -2.788674    1.400011
  C      1.507554   -2.249894    0.698730
  O      1.451383   -0.816323    0.800077
  P      2.266868    0.161678   -0.170790
  S      3.144418   -0.660330   -1.705870
  O      3.293560    0.913956    0.765224
  C      2.897374    1.601938    1.980041
  C      4.134279    2.260657    2.553304
  S      0.801326    1.655520   -0.561153
  C      0.135636    0.899190   -2.064872
  S     -0.541704   -0.758017   -1.780116
  P     -2.094694   -0.179996   -0.463716
  S     -2.911964    1.571037   -0.809858
  O     -1.556471   -0.372729    1.022526
  C     -1.365668    0.689644    1.972669
  C     -2.424522    0.603898    3.054216
  O     -2.945295   -1.496674   -0.688358
  C     -4.006063   -1.918462    0.196686
  C     -5.278019   -1.124205   -0.025103
  H      3.632468   -2.393937    0.919614
  H      2.739141   -2.495273    2.446321
  H      2.747351   -3.871589    1.329219
  H      0.582979   -2.591956    1.167175
  H      1.508115   -2.531736   -0.358953
  H      2.131767    2.339191    1.722224
  H      2.476637    0.866131    2.669141
  H      3.868605    2.784179    3.465931
  H      4.888977    1.510969    2.772725
  H      4.543584    2.968266    1.838301
  H      0.929997    0.787802   -2.801843
  H     -0.650539    1.564787   -2.421084
  H     -0.361256    0.546653    2.375640
  H     -1.417914    1.651954    1.453519
  H     -3.409489    0.770265    2.623001
  H     -2.402897   -0.373250    3.528877
  H     -2.232721    1.368941    3.799356
  H     -4.146838   -2.971344   -0.054165
  H     -3.659694   -1.828078    1.229329
  H     -6.063078   -1.517601    0.613036
  H     -5.118058   -0.073991    0.212069
  H     -5.588961   -1.196746   -1.064021

 Total Charge           Charge          ....    0
 Multiplicity           Mult            ....    1
 Number of Electrons    NEL             ....  202
 Basis Dimension        Dim             ....  539

ORBITAL ENERGIES
----------------

  NO   OCC          E(Eh)            E(eV)
   0   2.0000     -88.573679     -2410.2123
   1   2.0000     -88.572832     -2410.1893
   2   2.0000     -88.521632     -2408.7961
   3   2.0000     -88.521549     -2408.7938
   4   2.0000     -76.915440     -2092.9755
   5   2.0000     -76.914321     -2092.9451
   6   2.0000     -18.994681      -516.8715
   7   2.0000     -18.993912      -516.8506
   8   2.0000     -18.992927      -516.8238
   9   2.0000     -18.987784      -516.6839
  10   2.0000     -10.110306      -275.1154
  11   2.0000     -10.105091      -274.9735
  12   2.0000     -10.104036      -274.9448
  13   2.0000     -10.097063      -274.7551
  14   2.0000     -10.093905      -274.6691
  15   2.0000     -10.039863      -273.1986
  16   2.0000     -10.034767      -273.0599
  17   2.0000     -10.030045      -272.9314
  18   2.0000     -10.027977      -272.8751
  19   2.0000      -7.868188      -214.1043
  20   2.0000      -7.866996      -214.0718
  21   2.0000      -7.816476      -212.6971
  22   2.0000      -7.816357      -212.6939
  23   2.0000      -6.593603      -179.4211
  24   2.0000      -6.592686      -179.3961
  25   2.0000      -5.814981      -158.2337
  26   2.0000      -5.813993      -158.2068
  27   2.0000      -5.812094      -158.1551
  28   2.0000      -5.810896      -158.1225
  29   2.0000      -5.805308      -157.9705
  30   2.0000      -5.803973      -157.9341
  31   2.0000      -5.764185      -156.8514
  32   2.0000      -5.764125      -156.8498
  33   2.0000      -5.756901      -156.6532
  34   2.0000      -5.756633      -156.6459
  35   2.0000      -5.756325      -156.6376
  36   2.0000      -5.756170      -156.6334
  37   2.0000      -4.739362      -128.9646
  38   2.0000      -4.738474      -128.9404
  39   2.0000      -4.738295      -128.9356
  40   2.0000      -4.737365      -128.9103
  41   2.0000      -4.737333      -128.9094
  42   2.0000      -4.736452      -128.8854
  43   2.0000      -1.051784       -28.6205
  44   2.0000      -1.048849       -28.5406
  45   2.0000      -1.011302       -27.5189
  46   2.0000      -1.009123       -27.4596
  47   2.0000      -0.802051       -21.8249
  48   2.0000      -0.763598       -20.7786
  49   2.0000      -0.754189       -20.5225
  50   2.0000      -0.735455       -20.0128
  51   2.0000      -0.734710       -19.9925
  52   2.0000      -0.708205       -19.2712
  53   2.0000      -0.687428       -18.7059
  54   2.0000      -0.671080       -18.2610
  55   2.0000      -0.628990       -17.1157
  56   2.0000      -0.618689       -16.8354
  57   2.0000      -0.612755       -16.6739
  58   2.0000      -0.610723       -16.6186
  59   2.0000      -0.592634       -16.1264
  60   2.0000      -0.534467       -14.5436
  61   2.0000      -0.525108       -14.2889
  62   2.0000      -0.501037       -13.6339
  63   2.0000      -0.497822       -13.5464
  64   2.0000      -0.477800       -13.0016
  65   2.0000      -0.466706       -12.6997
  66   2.0000      -0.461588       -12.5604
  67   2.0000      -0.452952       -12.3254
  68   2.0000      -0.448129       -12.1942
  69   2.0000      -0.431009       -11.7283
  70   2.0000      -0.421822       -11.4784
  71   2.0000      -0.411340       -11.1931
  72   2.0000      -0.408447       -11.1144
  73   2.0000      -0.406111       -11.0508
  74   2.0000      -0.397648       -10.8206
  75   2.0000      -0.390911       -10.6372
  76   2.0000      -0.385912       -10.5012
  77   2.0000      -0.376064       -10.2332
  78   2.0000      -0.372058       -10.1242
  79   2.0000      -0.369904       -10.0656
  80   2.0000      -0.367387        -9.9971
  81   2.0000      -0.361503        -9.8370
  82   2.0000      -0.356458        -9.6997
  83   2.0000      -0.355942        -9.6857
  84   2.0000      -0.349884        -9.5208
  85   2.0000      -0.337418        -9.1816
  86   2.0000      -0.330653        -8.9975
  87   2.0000      -0.327009        -8.8984
  88   2.0000      -0.310924        -8.4607
  89   2.0000      -0.308635        -8.3984
  90   2.0000      -0.298414        -8.1203
  91   2.0000      -0.295179        -8.0322
  92   2.0000      -0.287565        -7.8250
  93   2.0000      -0.285109        -7.7582
  94   2.0000      -0.271955        -7.4003
  95   2.0000      -0.243838        -6.6352
  96   2.0000      -0.229546        -6.2463
  97   2.0000      -0.227535        -6.1916
  98   2.0000      -0.221103        -6.0165
  99   2.0000      -0.213248        -5.8028
 100   2.0000      -0.210537        -5.7290
 101   0.0000      -0.047853        -1.3022
 102   0.0000      -0.027124        -0.7381
 103   0.0000       0.000291         0.0079
 104   0.0000       0.006020         0.1638
 105   0.0000       0.008584         0.2336

MULLIKEN ATOMIC CHARGES
-----------------------
   0 C :   -0.454892
   1 C :   -0.155803
   2 O :   -0.260116
   3 P :    0.673347
   4 S :   -0.442729
   5 O :   -0.273974
   6 C :   -0.135883
   7 C :   -0.447743
   8 S :   -0.174818
   9 C :   -0.228620
  10 S :   -0.127049
  11 P :    0.703603
  12 S :   -0.475004
  13 O :   -0.272676
  14 C :   -0.109665
  15 C :   -0.501248
  16 O :   -0.308407
  17 C :   -0.167915
  18 C :   -0.425480
  19 H :    0.172657
  20 H :    0.145899
  21 H :    0.147261
  22 H :    0.158990
  23 H :    0.180090
  24 H :    0.148864
  25 H :    0.157537
  26 H :    0.145480
  27 H :    0.158355
  28 H :    0.161399
  29 H :    0.211441
  30 H :    0.209003
  31 H :    0.156945
  32 H :    0.182871
  33 H :    0.165258
  34 H :    0.154149
  35 H :    0.147384
  36 H :    0.150766
  37 H :    0.158887
  38 H :    0.145265
  39 H :    0.167913
  40 H :    0.158658
Sum of atomic charges:   -0.0000000

LOEWDIN ATOMIC CHARGES
----------------------
   0 C :   -0.399157
   1 C :    0.006881
   2 O :   -0.693166
   3 P :    0.384387
   4 S :   -0.089643
   5 O :   -0.659553
   6 C :    0.020307
   7 C :   -0.381833
   8 S :    0.140489
   9 C :   -0.418876
  10 S :    0.189523
  11 P :    0.389520
  12 S :   -0.129318
  13 O :   -0.670371
  14 C :    0.001809
  15 C :   -0.396845
  16 O :   -0.666437
  17 C :    0.030196
  18 C :   -0.401703
  19 H :    0.166365
  20 H :    0.154392
  21 H :    0.160007
  22 H :    0.180395
  23 H :    0.183580
  24 H :    0.173999
  25 H :    0.172754
  26 H :    0.159685
  27 H :    0.162904
  28 H :    0.164227
  29 H :    0.190027
  30 H :    0.190717
  31 H :    0.178128
  32 H :    0.185349
  33 H :    0.161156
  34 H :    0.156696
  35 H :    0.160292
  36 H :    0.181162
  37 H :    0.174873
  38 H :    0.157627
  39 H :    0.166025
  40 H :    0.163429

  Mayer bond orders larger than 0.100000
B(  0-C ,  1-C ) :   0.9291 B(  0-C , 19-H ) :   0.9626 B(  0-C , 20-H ) :   0.9777
B(  0-C , 21-H ) :   0.9645 B(  1-C ,  2-O ) :   0.7599 B(  1-C , 22-H ) :   0.9641
B(  1-C , 23-H ) :   0.9539 B(  2-O ,  3-P ) :   1.0229 B(  3-P ,  4-S ) :   1.8392
B(  3-P ,  5-O ) :   1.1570 B(  3-P ,  8-S ) :   1.0241 B(  5-O ,  6-C ) :   0.7452
B(  6-C ,  7-C ) :   0.9661 B(  6-C , 24-H ) :   0.9369 B(  6-C , 25-H ) :   0.9486
B(  7-C , 26-H ) :   0.9622 B(  7-C , 27-H ) :   0.9728 B(  7-C , 28-H ) :   0.9697
B(  8-S ,  9-C ) :   0.8939 B(  9-C , 10-S ) :   0.8934 B(  9-C , 29-H ) :   0.9109
B(  9-C , 30-H ) :   0.9108 B( 10-S , 11-P ) :   1.0767 B( 11-P , 12-S ) :   1.7638
B( 11-P , 13-O ) :   1.0447 B( 11-P , 16-O ) :   1.1547 B( 13-O , 14-C ) :   0.7362
B( 14-C , 15-C ) :   0.9254 B( 14-C , 31-H ) :   0.9588 B( 14-C , 32-H ) :   0.9491
B( 15-C , 33-H ) :   0.9730 B( 15-C , 34-H ) :   0.9799 B( 15-C , 35-H ) :   0.9634
B( 16-O , 17-C ) :   0.7936 B( 17-C , 18-C ) :   0.9462 B( 17-C , 36-H ) :   0.9602
B( 17-C , 37-H ) :   0.9681 B( 18-C , 38-H ) :   0.9662 B( 18-C , 39-H ) :   0.9533
B( 18-C , 40-H ) :   0.9689

Dispersion correction           -0.021949370
FINAL SINGLE POINT ENERGY     -2932.462265934647

DIPOLE MOMENT
-------------

Method             : SCF
Type of density    : Electron Density
Multiplicity       :   1
Irrep              :   0
Energy             : -2932.4867941484540097 Eh
Relativity type    :
Basis              : AO
                                X                 Y                 Z
Electronic contribution:      4.359097550       4.002714311     -24.289021039
Nuclear contribution   :     -4.857051919      -4.458830016      26.502938485
                        -----------------------------------------
Total Dipole Moment    :     -0.497954369      -0.456115705       2.213917446
                        -----------------------------------------
Magnitude (a.u.)       :      2.314612397
Magnitude (Debye)      :      5.883277160

Rotational constants in cm-1:             0.012094             0.005197             0.004952
Rotational constants in MHz :           362.579365           155.802263           148.456014

                             ****ORCA TERMINATED NORMALLY****
TOTAL RUN TIME: 0 days 0 hours 1 minutes 22 seconds 402 msec
