                         Program Version 6.0.0  -   RELEASE  -
|  1> ! r2scan-3c def2/J RI DEFGRID2 scfconv6 printgap
|  2> %output
|  3>     printlevel normal
|  4> end
|  5> %cpcm
|  6>     smd true
|  7>     smdsolvent "water"
|  8> end
|  9> * xyz 0 1
| 10> C 2.7377739397 -2.788673866 1.4000110557
| 11> C 1.5075537978 -2.2498941836 0.6987298133
| 12> O 1.4513831234 -0.8163226945 0.8000771951
| 13> P 2.2668681159 0.1616781868 -0.1707898735
| 14> S 3.1444175168 -0.6603300454 -1.7058698011
| 15> O 3.2935598703 0.913956131 0.7652242306
| 16> C 2.8973741674 1.6019381556 1.9800405377
| 17> C 4.1342788968 2.2606565322 2.5533039783
| 18> S 0.8013255634 1.6555201908 -0.5611533465
| 19> C 0.1356358527 0.8991898835 -2.0648716651
| 20> S -0.5417036241 -0.7580173389 -1.7801159678
| 21> P -2.0946941899 -0.1799958499 -0.4637155248
| 22> S -2.9119643055 1.571036607 -0.8098582904
| 23> O -1.5564710677 -0.3727294197 1.0225260553
| 24> C -1.3656682916 0.689644481 1.9726692909
| 25> C -2.4245215551 0.6038983813 3.0542157729
| 26> O -2.9452954371 -1.4966744632 -0.6883584832
| 27> C -4.0060626421 -1.9184619088 0.1966858343
| 28> C -5.2780194817 -1.1242051533 -0.0251031399
| 29> H 3.6324676542 -2.3939367142 0.9196135369
| 30> H 2.7391406199 -2.4952728821 2.4463208132
| 31> H 2.7473510323 -3.871588854 1.3292192648
| 32> H 0.5829794352 -2.5919557017 1.1671752225
| 33> H 1.5081153703 -2.5317362221 -0.3589528338
| 34> H 2.1317666788 2.3391905697 1.7222244831
| 35> H 2.4766371631 0.8661311745 2.6691414718
| 36> H 3.8686049581 2.7841785738 3.465930576
| 37> H 4.8889765442 1.5109688318 2.7727254144
| 38> H 4.5435837218 2.9682661012 1.8383010974
| 39> H 0.9299965256 0.7878016249 -2.801843329
| 40> H -0.650538625 1.5647873731 -2.4210840219
| 41> H -0.3612559407 0.5466534006 2.3756402177
| 42> H -1.4179135579 1.65195427 1.453519044
| 43> H -3.4094889329 0.7702654541 2.6230014857
| 44> H -2.4028974682 -0.3732504323 3.5288772438
| 45> H -2.2327209318 1.3689413071 3.7993558454
| 46> H -4.1468375653 -2.9713438708 -0.054165232
| 47> H -3.6596935144 -1.8280783867 1.2293287453
| 48> H -6.0630783923 -1.517601251 0.6130359566
| 49> H -5.1180580865 -0.0739913787 0.212069369
| 50> H -5.5889613742 -1.196746409 -1.0640208984
| 51> *
| 52>
| 53>                          ****END OF INPUT****

CARTESIAN COORDINATES (ANGSTROEM)
---------------------------------
  C      2.737774   -2.788674    1.400011
  C      1.507554   -2.249894    0.698730
  O      1.451383   -0.816323    0.800077
  P      2.266868    0.161678   -0.170790
  S      3.144418   -0.660330   -1.705870
  O      3.293560    0.913956    0.765224
  C      2.897374    1.601938    1.980041
  C      4.134279    2.260657    2.553304
  S      0.801326    1.655520   -0.561153
  C      0.135636    0.899190   -2.064872
  S     -0.541704   -0.758017   -1.780116
  P     -2.094694   -0.179996   -0.463716
  S     -2.911964    1.571037   -0.809858
  O     -1.556471   -0.372729    1.022526
  C     -1.365668    0.689644    1.972669
  C     -2.424522    0.603898    3.054216
  O     -2.945295   -1.496674   -0.688358
  C     -4.006063   -1.918462    0.196686
  C     -5.278019   -1.124205   -0.025103
  H      3.632468   -2.393937    0.919614
  H      2.739141   -2.495273    2.446321
  H      2.747351   -3.871589    1.329219
  H      0.582979   -2.591956    1.167175
  H      1.508115   -2.531736   -0.358953
  H      2.131767    2.339191    1.722224
  H      2.476637    0.866131    2.669141
  H      3.868605    2.784179    3.465931
  H      4.888977    1.510969    2.772725
  H      4.543584    2.968266    1.838301
  H      0.929997    0.787802   -2.801843
  H     -0.650539    1.564787   -2.421084
  H     -0.361256    0.546653    2.375640
  H     -1.417914    1.651954    1.453519
  H     -3.409489    0.770265    2.623001
  H     -2.402897   -0.373250    3.528877
  H     -2.232721    1.368941    3.799356
  H     -4.146838   -2.971344   -0.054165
  H     -3.659694   -1.828078    1.229329
  H     -6.063078   -1.517601    0.613036
  H     -5.118058   -0.073991    0.212069
  H     -5.588961   -1.196746   -1.064021

 Total Charge           Charge          ....    0
 Multiplicity           Mult            ....    1
 Number of Electrons    NEL             ....  202
 Basis Dimension        Dim             ....  539

ORBITAL ENERGIES
----------------

  NO   OCC          E(Eh)            E(eV)
   0   2.0000     -88.578432     -2410.3417
   1   2.0000     -88.577796     -2410.3244
   2   2.0000     -88.531572     -2409.0666
   3   2.0000     -88.528291     -2408.9773
   4   2.0000     -76.920207     -2093.1052
   5   2.0000     -76.919817     -2093.0946
   6   2.0000     -18.995997      -516.9074
   7   2.0000     -18.995022      -516.8808
   8   2.0000     -18.993243      -516.8324
   9   2.0000     -18.989606      -516.7335
  10   2.0000     -10.104571      -274.9593
  11   2.0000     -10.094813      -274.6938
  12   2.0000     -10.091181      -274.5950
  13   2.0000     -10.087025      -274.4819
  14   2.0000     -10.086379      -274.4643
  15   2.0000     -10.021273      -272.6927
  16   2.0000     -10.017468      -272.5892
  17   2.0000     -10.017460      -272.5890
  18   2.0000     -10.017153      -272.5806
  19   2.0000      -7.872701      -214.2271
  20   2.0000      -7.872270      -214.2154
  21   2.0000      -7.826739      -212.9764
  22   2.0000      -7.823424      -212.8862
  23   2.0000      -6.598587      -179.5567
  24   2.0000      -6.597991      -179.5405
  25   2.0000      -5.819621      -158.3599
  26   2.0000      -5.819045      -158.3443
  27   2.0000      -5.816551      -158.2764
  28   2.0000      -5.816166      -158.2659
  29   2.0000      -5.809803      -158.0928
  30   2.0000      -5.809424      -158.0825
  31   2.0000      -5.774454      -157.1309
  32   2.0000      -5.771013      -157.0373
  33   2.0000      -5.766973      -156.9273
  34   2.0000      -5.766640      -156.9182
  35   2.0000      -5.763765      -156.8400
  36   2.0000      -5.763364      -156.8291
  37   2.0000      -4.744320      -129.0995
  38   2.0000      -4.743682      -129.0821
  39   2.0000      -4.743204      -129.0692
  40   2.0000      -4.742687      -129.0551
  41   2.0000      -4.742482      -129.0495
  42   2.0000      -4.741853      -129.0324
  43   2.0000      -1.052077       -28.6285
  44   2.0000      -1.049896       -28.5691
  45   2.0000      -1.011156       -27.5150
  46   2.0000      -1.009596       -27.4725
  47   2.0000      -0.805030       -21.9060
  48   2.0000      -0.758333       -20.6353
  49   2.0000      -0.745330       -20.2815
  50   2.0000      -0.725574       -19.7439
  51   2.0000      -0.723296       -19.6819
  52   2.0000      -0.706494       -19.2247
  53   2.0000      -0.690155       -18.7801
  54   2.0000      -0.677160       -18.4265
  55   2.0000      -0.626551       -17.0493
  56   2.0000      -0.614143       -16.7117
  57   2.0000      -0.602793       -16.4028
  58   2.0000      -0.599778       -16.3208
  59   2.0000      -0.590567       -16.0701
  60   2.0000      -0.529396       -14.4056
  61   2.0000      -0.518868       -14.1191
  62   2.0000      -0.497135       -13.5277
  63   2.0000      -0.491179       -13.3657
  64   2.0000      -0.475412       -12.9366
  65   2.0000      -0.459365       -12.4999
  66   2.0000      -0.453441       -12.3388
  67   2.0000      -0.445179       -12.1139
  68   2.0000      -0.445014       -12.1095
  69   2.0000      -0.428064       -11.6482
  70   2.0000      -0.418059       -11.3760
  71   2.0000      -0.407217       -11.0809
  72   2.0000      -0.402473       -10.9519
  73   2.0000      -0.399931       -10.8827
  74   2.0000      -0.392552       -10.6819
  75   2.0000      -0.389876       -10.6091
  76   2.0000      -0.381899       -10.3920
  77   2.0000      -0.367264        -9.9938
  78   2.0000      -0.360172        -9.8008
  79   2.0000      -0.359256        -9.7758
  80   2.0000      -0.356324        -9.6961
  81   2.0000      -0.352916        -9.6033
  82   2.0000      -0.347065        -9.4441
  83   2.0000      -0.346152        -9.4193
  84   2.0000      -0.344519        -9.3748
  85   2.0000      -0.333422        -9.0729
  86   2.0000      -0.324731        -8.8364
  87   2.0000      -0.321328        -8.7438
  88   2.0000      -0.305861        -8.3229
  89   2.0000      -0.301176        -8.1954
  90   2.0000      -0.296936        -8.0800
  91   2.0000      -0.291478        -7.9315
  92   2.0000      -0.286105        -7.7853
  93   2.0000      -0.283476        -7.7138
  94   2.0000      -0.272361        -7.4113
  95   2.0000      -0.247947        -6.7470
  96   2.0000      -0.238619        -6.4932
  97   2.0000      -0.235282        -6.4023
  98   2.0000      -0.229879        -6.2553
  99   2.0000      -0.221989        -6.0406
 100   2.0000      -0.217916        -5.9298
 101   0.0000      -0.053349        -1.4517
 102   0.0000      -0.033750        -0.9184
 103   0.0000      -0.002838        -0.0772
 104   0.0000       0.000936         0.0255
 105   0.0000       0.008956         0.2437

MULLIKEN ATOMIC CHARGES
-----------------------
   0 C :   -0.492424
   1 C :   -0.136754
   2 O :   -0.277210
   3 P :    0.685450
   4 S :   -0.498117
   5 O :   -0.311598
   6 C :   -0.114481
   7 C :   -0.494897
   8 S :   -0.181465
   9 C :   -0.239576
  10 S :   -0.152159
  11 P :    0.727729
  12 S :   -0.516830
  13 O :   -0.298983
  14 C :   -0.092803
  15 C :   -0.529183
  16 O :   -0.342104
  17 C :   -0.148650
  18 C :   -0.477627
  19 H :    0.165903
  20 H :    0.167288
  21 H :    0.169888
  22 H :    0.179808
  23 H :    0.176267
  24 H :    0.162864
  25 H :    0.181654
  26 H :    0.171071
  27 H :    0.169278
  28 H :    0.167803
  29 H :    0.233141
  30 H :    0.229669
  31 H :    0.177811
  32 H :    0.175796
  33 H :    0.168161
  34 H :    0.168805
  35 H :    0.169582
  36 H :    0.174787
  37 H :    0.177312
  38 H :    0.170668
  39 H :    0.165806
  40 H :    0.168317
Sum of atomic charges:   -0.0000000

LOEWDIN ATOMIC CHARGES
----------------------
   0 C :   -0.401570
   1 C :    0.011681
   2 O :   -0.697040
   3 P :    0.385789
   4 S :   -0.130871
   5 O :   -0.680037
   6 C :    0.030684
   7 C :   -0.386210
   8 S :    0.141727
   9 C :   -0.414850
  10 S :    0.172799
  11 P :    0.391144
  12 S :   -0.157448
  13 O :   -0.677878
  14 C :    0.008552
  15 C :   -0.397870
  16 O :   -0.682952
  17 C :    0.037833
  18 C :   -0.406064
  19 H :    0.162174
  20 H :    0.162186
  21 H :    0.167875
  22 H :    0.189016
  23 H :    0.181991
  24 H :    0.180947
  25 H :    0.184106
  26 H :    0.170253
  27 H :    0.164957
  28 H :    0.164263
  29 H :    0.196192
  30 H :    0.196878
  31 H :    0.186602
  32 H :    0.183800
  33 H :    0.161770
  34 H :    0.162900
  35 H :    0.168100
  36 H :    0.191321
  37 H :    0.183830
  38 H :    0.167941
  39 H :    0.162419
  40 H :    0.163059

  Mayer bond orders larger than 0.100000
B(  0-C ,  1-C ) :   0.9285 B(  0-C , 19-H ) :   0.9646 B(  0-C , 20-H ) :   0.9722
B(  0-C , 21-H ) :   0.9599 B(  1-C ,  2-O ) :   0.7464 B(  1-C , 22-H ) :   0.9531
B(  1-C , 23-H ) :   0.9511 B(  2-O ,  3-P ) :   1.0333 B(  3-P ,  4-S ) :   1.8136
B(  3-P ,  5-O ) :   1.1661 B(  3-P ,  8-S ) :   1.0397 B(  5-O ,  6-C ) :   0.7410
B(  6-C ,  7-C ) :   0.9525 B(  6-C , 24-H ) :   0.9282 B(  6-C , 25-H ) :   0.9376
B(  7-C , 26-H ) :   0.9557 B(  7-C , 27-H ) :   0.9710 B(  7-C , 28-H ) :   0.9689
B(  8-S ,  9-C ) :   0.8817 B(  9-C , 10-S ) :   0.8831 B(  9-C , 29-H ) :   0.9043
B(  9-C , 30-H ) :   0.9055 B( 10-S , 11-P ) :   1.0837 B( 11-P , 12-S ) :   1.7371
B( 11-P , 13-O ) :   1.0536 B( 11-P , 16-O ) :   1.1633 B( 13-O , 14-C ) :   0.7248
B( 14-C , 15-C ) :   0.9333 B( 14-C , 31-H ) :   0.9476 B( 14-C , 32-H ) :   0.9470
B( 15-C , 33-H ) :   0.9700 B( 15-C , 34-H ) :   0.9738 B( 15-C , 35-H ) :   0.9589
B( 16-O , 17-C ) :   0.7867 B( 17-C , 18-C ) :   0.9275 B( 17-C , 36-H ) :   0.9524
B( 17-C , 37-H ) :   0.9586 B( 18-C , 38-H ) :   0.9593 B( 18-C , 39-H ) :   0.9577
B( 18-C , 40-H ) :   0.9709

Dispersion correction           -0.021949370
FINAL SINGLE POINT ENERGY     -2932.472966576963

DIPOLE MOMENT
-------------

Method             : SCF
Type of density    : Electron Density
Multiplicity       :   1
Irrep              :   0
Energy             : -2932.4974947907699061 Eh
Relativity type    :
Basis              : AO
                                X                 Y                 Z
Electronic contribution:      4.058912227       3.889121891     -23.349297874
Nuclear contribution   :     -4.857051919      -4.458830016      26.502938485
                        -----------------------------------------
Total Dipole Moment    :     -0.798139691      -0.569708125       3.153640611
                        -----------------------------------------
Magnitude (a.u.)       :      3.302581327
Magnitude (Debye)      :      8.394494611

Rotational constants in cm-1:             0.012094             0.005197             0.004952
Rotational constants in MHz :           362.579365           155.802263           148.456014

                             ****ORCA TERMINATED NORMALLY****
TOTAL RUN TIME: 0 days 0 hours 1 minutes 59 seconds 715 msec
