                         Program Version 6.0.0  -   RELEASE  -
|  1> ! pbe def2-sv(p) def2/J RI DEFGRID1 loosescf d4 GCP(DFT/SV(P)) printgap
|  2> %output
|  3>     printlevel normal
|  4> end
|  5> * xyz 0 1
|  6> C 5.2316241629 1.0244984544 -0.060044041
|  7> C 4.8124332623 0.6163130412 1.3351873956
|  8> O 3.9117654938 -0.5195707435 1.3557773484
|  9> P 2.5704338778 -0.6801600417 0.5533691424
| 10> S 1.4577795974 -2.0471131575 1.4072441128
| 11> O 3.1045268006 -0.9911841517 -0.9127483045
| 12> C 2.3058745558 -1.0613328483 -2.1047877925
| 13> C 1.5528921809 -2.3720935505 -2.2127740168
| 14> S 1.7096303891 1.2771862272 0.4571750734
| 15> C 0.0004290508 0.8163826842 0.7568774495
| 16> S -0.7721196316 0.1919027599 -0.781928005
| 17> P -2.7790250676 0.4949941695 -0.1698250466
| 18> S -4.1793499075 -0.0354660099 -1.430338281
| 19> O -2.8154477891 2.0087706087 0.3167008792
| 20> C -3.1794743901 3.0752239178 -0.5796721565
| 21> C -2.1226844342 3.3194330584 -1.6393046552
| 22> O -2.840482619 -0.1479231087 1.2831200653
| 23> C -3.306800642 -1.4928654164 1.4887144108
| 24> C -2.3901645792 -2.525384082 0.8627368271
| 25> H 4.379774167 1.417962085 -0.6112750081
| 26> H 5.9893459716 1.7986185092 0.0135770979
| 27> H 5.639949164 0.1717194298 -0.5959155345
| 28> H 4.3185352772 1.4437976484 1.8504189623
| 29> H 5.6614893901 0.2663981206 1.9244324852
| 30> H 1.6103015939 -0.2161424594 -2.1230866965
| 31> H 3.0330282633 -0.9569640849 -2.9123051901
| 32> H 2.2425517834 -3.2095686819 -2.1488609103
| 33> H 0.8245295206 -2.4590470136 -1.4095310507
| 34> H 1.029922934 -2.4056256124 -3.1628979337
| 35> H -0.5307621088 1.7052038825 1.088144797
| 36> H -0.0271654142 0.0262435588 1.5095864943
| 37> H -4.1380914513 2.8247453845 -1.0447620984
| 38> H -3.3012180098 3.9379125276 0.0770215428
| 39> H -2.4023867144 4.1877393612 -2.2273084229
| 40> H -1.1519665696 3.4954936108 -1.1815839173
| 41> H -2.0516133615 2.4553979189 -2.2994584752
| 42> H -3.3455266899 -1.5944167892 2.5740910273
| 43> H -4.3146942468 -1.5767312436 1.0700779999
| 44> H -1.37298288 -2.4273251483 1.2384121037
| 45> H -2.7559746989 -3.5192582962 1.0994680285
| 46> H -2.3806679892 -2.4045475743 -0.2207705306
| 47> *
| 48>
| 49>                          ****END OF INPUT****

CARTESIAN COORDINATES (ANGSTROEM)
---------------------------------
  C      5.231624    1.024498   -0.060044
  C      4.812433    0.616313    1.335187
  O      3.911765   -0.519571    1.355777
  P      2.570434   -0.680160    0.553369
  S      1.457780   -2.047113    1.407244
  O      3.104527   -0.991184   -0.912748
  C      2.305875   -1.061333   -2.104788
  C      1.552892   -2.372094   -2.212774
  S      1.709630    1.277186    0.457175
  C      0.000429    0.816383    0.756877
  S     -0.772120    0.191903   -0.781928
  P     -2.779025    0.494994   -0.169825
  S     -4.179350   -0.035466   -1.430338
  O     -2.815448    2.008771    0.316701
  C     -3.179474    3.075224   -0.579672
  C     -2.122684    3.319433   -1.639305
  O     -2.840483   -0.147923    1.283120
  C     -3.306801   -1.492865    1.488714
  C     -2.390165   -2.525384    0.862737
  H      4.379774    1.417962   -0.611275
  H      5.989346    1.798619    0.013577
  H      5.639949    0.171719   -0.595916
  H      4.318535    1.443798    1.850419
  H      5.661489    0.266398    1.924432
  H      1.610302   -0.216142   -2.123087
  H      3.033028   -0.956964   -2.912305
  H      2.242552   -3.209569   -2.148861
  H      0.824530   -2.459047   -1.409531
  H      1.029923   -2.405626   -3.162898
  H     -0.530762    1.705204    1.088145
  H     -0.027165    0.026244    1.509586
  H     -4.138091    2.824745   -1.044762
  H     -3.301218    3.937913    0.077022
  H     -2.402387    4.187739   -2.227308
  H     -1.151967    3.495494   -1.181584
  H     -2.051613    2.455398   -2.299458
  H     -3.345527   -1.594417    2.574091
  H     -4.314694   -1.576731    1.070078
  H     -1.372983   -2.427325    1.238412
  H     -2.755975   -3.519258    1.099468
  H     -2.380668   -2.404548   -0.220771

 Total Charge           Charge          ....    0
 Multiplicity           Mult            ....    1
 Number of Electrons    NEL             ....  202
 Basis Dimension        Dim             ....  334

ORBITAL ENERGIES
----------------

  NO   OCC          E(Eh)            E(eV)
   0   2.0000     -88.056429     -2396.1373
   1   2.0000     -88.044341     -2395.8083
   2   2.0000     -87.991130     -2394.3604
   3   2.0000     -87.989659     -2394.3203
   4   2.0000     -76.432376     -2079.8307
   5   2.0000     -76.427858     -2079.7078
   6   2.0000     -18.797139      -511.4962
   7   2.0000     -18.795372      -511.4481
   8   2.0000     -18.792075      -511.3584
   9   2.0000     -18.788566      -511.2629
  10   2.0000      -9.965090      -271.1639
  11   2.0000      -9.956879      -270.9404
  12   2.0000      -9.956000      -270.9165
  13   2.0000      -9.954761      -270.8828
  14   2.0000      -9.948305      -270.7071
  15   2.0000      -9.896562      -269.2992
  16   2.0000      -9.886789      -269.0332
  17   2.0000      -9.878341      -268.8033
  18   2.0000      -9.874394      -268.6959
  19   2.0000      -7.701083      -209.5571
  20   2.0000      -7.688905      -209.2257
  21   2.0000      -7.636226      -207.7923
  22   2.0000      -7.634504      -207.7454
  23   2.0000      -6.429690      -174.9608
  24   2.0000      -6.425252      -174.8400
  25   2.0000      -5.728790      -155.8883
  26   2.0000      -5.725531      -155.7996
  27   2.0000      -5.718393      -155.6054
  28   2.0000      -5.717053      -155.5689
  29   2.0000      -5.713415      -155.4699
  30   2.0000      -5.705719      -155.2605
  31   2.0000      -5.665218      -154.1584
  32   2.0000      -5.663533      -154.1126
  33   2.0000      -5.656744      -153.9278
  34   2.0000      -5.656452      -153.9199
  35   2.0000      -5.655244      -153.8870
  36   2.0000      -5.654407      -153.8642
  37   2.0000      -4.652341      -126.5966
  38   2.0000      -4.651706      -126.5794
  39   2.0000      -4.649868      -126.5293
  40   2.0000      -4.647508      -126.4651
  41   2.0000      -4.647440      -126.4633
  42   2.0000      -4.645646      -126.4145
  43   2.0000      -0.991848       -26.9895
  44   2.0000      -0.988304       -26.8931
  45   2.0000      -0.949535       -25.8382
  46   2.0000      -0.944896       -25.7119
  47   2.0000      -0.768229       -20.9046
  48   2.0000      -0.725635       -19.7455
  49   2.0000      -0.714167       -19.4335
  50   2.0000      -0.694524       -18.8990
  51   2.0000      -0.683236       -18.5918
  52   2.0000      -0.677958       -18.4482
  53   2.0000      -0.656960       -17.8768
  54   2.0000      -0.643097       -17.4996
  55   2.0000      -0.599412       -16.3108
  56   2.0000      -0.596956       -16.2440
  57   2.0000      -0.578715       -15.7476
  58   2.0000      -0.569416       -15.4946
  59   2.0000      -0.567645       -15.4464
  60   2.0000      -0.500497       -13.6192
  61   2.0000      -0.494222       -13.4485
  62   2.0000      -0.480883       -13.0855
  63   2.0000      -0.465101       -12.6561
  64   2.0000      -0.458438       -12.4747
  65   2.0000      -0.453643       -12.3442
  66   2.0000      -0.444268       -12.0891
  67   2.0000      -0.439847       -11.9689
  68   2.0000      -0.436068       -11.8660
  69   2.0000      -0.420749       -11.4492
  70   2.0000      -0.407146       -11.0790
  71   2.0000      -0.404068       -10.9952
  72   2.0000      -0.401972       -10.9382
  73   2.0000      -0.395969       -10.7749
  74   2.0000      -0.389778       -10.6064
  75   2.0000      -0.378757       -10.3065
  76   2.0000      -0.362959        -9.8766
  77   2.0000      -0.360557        -9.8113
  78   2.0000      -0.358786        -9.7631
  79   2.0000      -0.352084        -9.5807
  80   2.0000      -0.347859        -9.4657
  81   2.0000      -0.345268        -9.3952
  82   2.0000      -0.336413        -9.1543
  83   2.0000      -0.335472        -9.1286
  84   2.0000      -0.331995        -9.0341
  85   2.0000      -0.323247        -8.7960
  86   2.0000      -0.320626        -8.7247
  87   2.0000      -0.301696        -8.2096
  88   2.0000      -0.296886        -8.0787
  89   2.0000      -0.293981        -7.9996
  90   2.0000      -0.286723        -7.8021
  91   2.0000      -0.282318        -7.6823
  92   2.0000      -0.270402        -7.3580
  93   2.0000      -0.264545        -7.1986
  94   2.0000      -0.262079        -7.1315
  95   2.0000      -0.237842        -6.4720
  96   2.0000      -0.223375        -6.0783
  97   2.0000      -0.211058        -5.7432
  98   2.0000      -0.209780        -5.7084
  99   2.0000      -0.208343        -5.6693
 100   2.0000      -0.199061        -5.4167
 101   0.0000      -0.050849        -1.3837
 102   0.0000      -0.036774        -1.0007
 103   0.0000      -0.022240        -0.6052
 104   0.0000       0.002816         0.0766
 105   0.0000       0.009327         0.2538

MULLIKEN ATOMIC CHARGES
-----------------------
   0 C :   -0.319147
   1 C :   -0.005554
   2 O :   -0.357962
   3 P :    0.600727
   4 S :   -0.297020
   5 O :   -0.367240
   6 C :   -0.024630
   7 C :   -0.303185
   8 S :   -0.122932
   9 C :   -0.340524
  10 S :   -0.089755
  11 P :    0.584288
  12 S :   -0.310404
  13 O :   -0.369047
  14 C :   -0.004542
  15 C :   -0.312365
  16 O :   -0.371422
  17 C :    0.000587
  18 C :   -0.338134
  19 H :    0.124646
  20 H :    0.118391
  21 H :    0.129673
  22 H :    0.115474
  23 H :    0.116710
  24 H :    0.113217
  25 H :    0.105440
  26 H :    0.115251
  27 H :    0.140779
  28 H :    0.109544
  29 H :    0.189275
  30 H :    0.198815
  31 H :    0.114620
  32 H :    0.107294
  33 H :    0.113534
  34 H :    0.111927
  35 H :    0.128074
  36 H :    0.106993
  37 H :    0.110272
  38 H :    0.144024
  39 H :    0.109648
  40 H :    0.124659
Sum of atomic charges:    0.0000000

LOEWDIN ATOMIC CHARGES
----------------------
   0 C :   -0.367925
   1 C :   -0.111261
   2 O :   -0.233009
   3 P :    0.566641
   4 S :   -0.283413
   5 O :   -0.239918
   6 C :   -0.119565
   7 C :   -0.367047
   8 S :    0.075754
   9 C :   -0.480269
  10 S :    0.081941
  11 P :    0.571333
  12 S :   -0.314769
  13 O :   -0.241062
  14 C :   -0.118376
  15 C :   -0.368523
  16 O :   -0.240959
  17 C :   -0.116752
  18 C :   -0.374993
  19 H :    0.118045
  20 H :    0.133804
  21 H :    0.132127
  22 H :    0.112347
  23 H :    0.125967
  24 H :    0.097230
  25 H :    0.118981
  26 H :    0.127099
  27 H :    0.122215
  28 H :    0.130363
  29 H :    0.132224
  30 H :    0.122441
  31 H :    0.112101
  32 H :    0.119264
  33 H :    0.131100
  34 H :    0.122275
  35 H :    0.121822
  36 H :    0.119986
  37 H :    0.110442
  38 H :    0.122316
  39 H :    0.130494
  40 H :    0.119531

  Mayer bond orders larger than 0.100000
B(  0-C ,  1-C ) :   1.1668 B(  0-C , 19-H ) :   0.9393 B(  0-C , 20-H ) :   0.9341
B(  0-C , 21-H ) :   0.9415 B(  1-C ,  2-O ) :   0.9020 B(  1-C , 22-H ) :   0.9253
B(  1-C , 23-H ) :   0.9344 B(  2-O ,  3-P ) :   1.1511 B(  3-P ,  4-S ) :   1.6471
B(  3-P ,  5-O ) :   1.0949 B(  3-P ,  8-S ) :   0.9199 B(  4-S ,  8-S ) :   0.1153
B(  5-O ,  6-C ) :   0.9096 B(  6-C ,  7-C ) :   1.1678 B(  6-C , 24-H ) :   0.9072
B(  6-C , 25-H ) :   0.9340 B(  7-C , 26-H ) :   0.9453 B(  7-C , 27-H ) :   0.9287
B(  7-C , 28-H ) :   0.9379 B(  8-S ,  9-C ) :   1.0211 B(  9-C , 10-S ) :   0.9616
B(  9-C , 29-H ) :   0.8856 B(  9-C , 30-H ) :   0.8591 B( 10-S , 11-P ) :   0.9766
B( 11-P , 12-S ) :   1.6380 B( 11-P , 13-O ) :   1.0891 B( 11-P , 16-O ) :   1.0950
B( 13-O , 14-C ) :   0.9089 B( 14-C , 15-C ) :   1.1624 B( 14-C , 31-H ) :   0.9159
B( 14-C , 32-H ) :   0.9350 B( 15-C , 33-H ) :   0.9379 B( 15-C , 34-H ) :   0.9462
B( 15-C , 35-H ) :   0.9358 B( 16-O , 17-C ) :   0.9055 B( 17-C , 18-C ) :   1.1626
B( 17-C , 36-H ) :   0.9337 B( 17-C , 37-H ) :   0.9199 B( 18-C , 38-H ) :   0.9287
B( 18-C , 39-H ) :   0.9363 B( 18-C , 40-H ) :   0.9343

Dispersion correction           -0.064873004
FINAL SINGLE POINT ENERGY     -2929.515507356301

DIPOLE MOMENT
-------------

Method             : SCF
Type of density    : Electron Density
Multiplicity       :   1
Irrep              :   0
Energy             : -2929.6368754166946928 Eh
Relativity type    :
Basis              : AO
                                X                 Y                 Z
Electronic contribution:     -5.642859162      -1.752188021       7.129347764
Nuclear contribution   :      6.784445713       2.966884913      -7.331650447
                        -----------------------------------------
Total Dipole Moment    :      1.141586551       1.214696892      -0.202302683
                        -----------------------------------------
Magnitude (a.u.)       :      1.679176813
Magnitude (Debye)      :      4.268128264

Rotational constants in cm-1:             0.012882             0.004556             0.004132
Rotational constants in MHz :           386.206366           136.579891           123.887697

                             ****ORCA TERMINATED NORMALLY****
TOTAL RUN TIME: 0 days 0 hours 0 minutes 21 seconds 142 msec
