                         Program Version 6.0.1  -  RELEASE   -
|  1> ! pbe def2-sv(p) def2/J RI DEFGRID1 loosescf d4 GCP(DFT/SV(P)) printgap
|  2> %output
|  3>     printlevel normal
|  4> end
|  5> * xyz 0 1
|  6> C 3.7813422346 -4.1410154325 -1.6679232411
|  7> C 2.8500035611 -3.0926192488 -2.2550362319
|  8> O 2.7713154246 -1.9330791635 -1.4022523452
|  9> C 1.9147360837 -1.9479895486 -0.4029491415
| 10> O 1.1703913432 -2.8676284907 -0.1443315452
| 11> C 1.9307078382 -0.6385626765 0.3615839244
| 12> C 1.2640074186 0.4504092873 -0.4806350999
| 13> H 1.8727256135 0.6480190005 -1.3698735487
| 14> C 1.1450851313 1.7533581941 0.2944834569
| 15> O 2.0140187857 2.1390424111 1.0400202822
| 16> O 0.045567167 2.4216390965 0.011244769
| 17> C -0.1371562247 3.6930630219 0.6697456831
| 18> C -1.2971675534 4.4116929106 0.0127091508
| 19> S -0.3369586243 -0.0853664173 -1.1664767335
| 20> P -1.6090358591 0.1366802234 0.5255007681
| 21> S -0.8386129187 0.4081923717 2.3075056216
| 22> O -2.6562213333 1.2559000947 0.1503653942
| 23> C -3.4132252696 1.2150898866 -1.0770510429
| 24> O -2.5263589043 -1.171900778 0.4103600096
| 25> C -2.0459943553 -2.4561615785 0.8209670318
| 26> H 3.3822095237 -4.511464361 -0.7263421826
| 27> H 3.8710155051 -4.9696954151 -2.3624078051
| 28> H 4.764367066 -3.7130038628 -1.4915332556
| 29> H 1.8423372415 -3.4973721734 -2.3838495132
| 30> H 3.2300551666 -2.7068651814 -3.2008251326
| 31> H 2.9562609129 -0.3344040908 0.5713227633
| 32> H 1.3939855003 -0.7714323935 1.3029863647
| 33> H -0.3286692067 3.4928384089 1.7291151478
| 34> H 0.7997938763 4.25155383 0.5849445274
| 35> H -1.1079790209 4.535076414 -1.0494512032
| 36> H -2.2091035207 3.8386853822 0.1498054986
| 37> H -1.4148940684 5.3865713508 0.4737182637
| 38> H -4.0036459779 2.1275930443 -1.0794025341
| 39> H -4.0573492648 0.3382956798 -1.0860594732
| 40> H -2.7344923946 1.1907390694 -1.9293869878
| 41> H -1.1610858333 -2.7423765039 0.2502766199
| 42> H -2.8629195895 -3.1469977804 0.6315304574
| 43> H -1.7980211955 -2.4377492795 1.8829859895
| 44> *
| 45>
| 46>                          ****END OF INPUT****

CARTESIAN COORDINATES (ANGSTROEM)
---------------------------------
  C      3.781342   -4.141015   -1.667923
  C      2.850004   -3.092619   -2.255036
  O      2.771315   -1.933079   -1.402252
  C      1.914736   -1.947990   -0.402949
  O      1.170391   -2.867628   -0.144332
  C      1.930708   -0.638563    0.361584
  C      1.264007    0.450409   -0.480635
  H      1.872726    0.648019   -1.369874
  C      1.145085    1.753358    0.294483
  O      2.014019    2.139042    1.040020
  O      0.045567    2.421639    0.011245
  C     -0.137156    3.693063    0.669746
  C     -1.297168    4.411693    0.012709
  S     -0.336959   -0.085366   -1.166477
  P     -1.609036    0.136680    0.525501
  S     -0.838613    0.408192    2.307506
  O     -2.656221    1.255900    0.150365
  C     -3.413225    1.215090   -1.077051
  O     -2.526359   -1.171901    0.410360
  C     -2.045994   -2.456162    0.820967
  H      3.382210   -4.511464   -0.726342
  H      3.871016   -4.969695   -2.362408
  H      4.764367   -3.713004   -1.491533
  H      1.842337   -3.497372   -2.383850
  H      3.230055   -2.706865   -3.200825
  H      2.956261   -0.334404    0.571323
  H      1.393986   -0.771432    1.302986
  H     -0.328669    3.492838    1.729115
  H      0.799794    4.251554    0.584945
  H     -1.107979    4.535076   -1.049451
  H     -2.209104    3.838685    0.149805
  H     -1.414894    5.386571    0.473718
  H     -4.003646    2.127593   -1.079403
  H     -4.057349    0.338296   -1.086059
  H     -2.734492    1.190739   -1.929387
  H     -1.161086   -2.742377    0.250277
  H     -2.862920   -3.146998    0.631530
  H     -1.798021   -2.437749    1.882986

 Total Charge           Charge          ....    0
 Multiplicity           Mult            ....    1
 Number of Electrons    NEL             ....  174
 Basis Dimension        Dim             ....  316

ORBITAL ENERGIES
----------------

  NO   OCC          E(Eh)            E(eV)
   0   2.0000     -88.041206     -2395.7230
   1   2.0000     -87.986886     -2394.2449
   2   2.0000     -76.427873     -2079.7082
   3   2.0000     -18.808163      -511.7961
   4   2.0000     -18.807177      -511.7693
   5   2.0000     -18.797277      -511.4999
   6   2.0000     -18.788849      -511.2706
   7   2.0000     -18.741375      -509.9787
   8   2.0000     -18.736453      -509.8448
   9   2.0000     -10.016000      -272.5492
  10   2.0000     -10.012434      -272.4522
  11   2.0000      -9.953975      -270.8614
  12   2.0000      -9.952670      -270.8259
  13   2.0000      -9.952519      -270.8218
  14   2.0000      -9.943482      -270.5759
  15   2.0000      -9.932528      -270.2778
  16   2.0000      -9.901788      -269.4413
  17   2.0000      -9.890352      -269.1302
  18   2.0000      -9.885107      -268.9874
  19   2.0000      -7.685886      -209.1436
  20   2.0000      -7.631820      -207.6724
  21   2.0000      -6.424879      -174.8298
  22   2.0000      -5.713864      -155.4821
  23   2.0000      -5.710439      -155.3890
  24   2.0000      -5.702703      -155.1784
  25   2.0000      -5.660968      -154.0428
  26   2.0000      -5.652300      -153.8069
  27   2.0000      -5.651844      -153.7945
  28   2.0000      -4.647599      -126.4676
  29   2.0000      -4.646746      -126.4444
  30   2.0000      -4.645258      -126.4039
  31   2.0000      -1.015574       -27.6352
  32   2.0000      -1.014165       -27.5968
  33   2.0000      -0.987742       -26.8778
  34   2.0000      -0.941777       -25.6271
  35   2.0000      -0.918701       -24.9991
  36   2.0000      -0.917718       -24.9724
  37   2.0000      -0.768025       -20.8990
  38   2.0000      -0.715320       -19.4649
  39   2.0000      -0.702129       -19.1059
  40   2.0000      -0.694468       -18.8974
  41   2.0000      -0.657853       -17.9011
  42   2.0000      -0.633424       -17.2364
  43   2.0000      -0.624340       -16.9892
  44   2.0000      -0.615844       -16.7580
  45   2.0000      -0.595771       -16.2117
  46   2.0000      -0.563387       -15.3305
  47   2.0000      -0.516020       -14.0416
  48   2.0000      -0.507751       -13.8166
  49   2.0000      -0.503832       -13.7100
  50   2.0000      -0.481263       -13.0958
  51   2.0000      -0.474266       -12.9054
  52   2.0000      -0.450975       -12.2717
  53   2.0000      -0.447753       -12.1840
  54   2.0000      -0.436483       -11.8773
  55   2.0000      -0.433361       -11.7923
  56   2.0000      -0.430470       -11.7137
  57   2.0000      -0.421934       -11.4814
  58   2.0000      -0.410256       -11.1636
  59   2.0000      -0.407251       -11.0819
  60   2.0000      -0.401543       -10.9265
  61   2.0000      -0.398908       -10.8548
  62   2.0000      -0.393037       -10.6951
  63   2.0000      -0.384906       -10.4738
  64   2.0000      -0.371637       -10.1127
  65   2.0000      -0.367590       -10.0026
  66   2.0000      -0.357806        -9.7364
  67   2.0000      -0.352794        -9.6000
  68   2.0000      -0.349454        -9.5091
  69   2.0000      -0.339796        -9.2463
  70   2.0000      -0.336631        -9.1602
  71   2.0000      -0.326862        -8.8944
  72   2.0000      -0.318083        -8.6555
  73   2.0000      -0.314451        -8.5566
  74   2.0000      -0.311254        -8.4696
  75   2.0000      -0.301570        -8.2061
  76   2.0000      -0.298582        -8.1248
  77   2.0000      -0.294851        -8.0233
  78   2.0000      -0.272915        -7.4264
  79   2.0000      -0.266038        -7.2393
  80   2.0000      -0.260933        -7.1003
  81   2.0000      -0.258265        -7.0277
  82   2.0000      -0.237293        -6.4571
  83   2.0000      -0.224562        -6.1107
  84   2.0000      -0.211686        -5.7603
  85   2.0000      -0.203926        -5.5491
  86   2.0000      -0.203538        -5.5385
  87   0.0000      -0.043281        -1.1777
  88   0.0000      -0.032596        -0.8870
  89   0.0000      -0.018731        -0.5097
  90   0.0000       0.002341         0.0637
  91   0.0000       0.013518         0.3678

MULLIKEN ATOMIC CHARGES
-----------------------
   0 C :   -0.306543
   1 C :   -0.010077
   2 O :   -0.232794
   3 C :    0.127752
   4 O :   -0.195502
   5 C :   -0.047714
   6 C :   -0.328788
   7 H :    0.155665
   8 C :    0.201076
   9 O :   -0.188340
  10 O :   -0.228786
  11 C :   -0.023486
  12 C :   -0.286740
  13 S :   -0.103944
  14 P :    0.616765
  15 S :   -0.300614
  16 O :   -0.363512
  17 C :   -0.113392
  18 O :   -0.389923
  19 C :   -0.127744
  20 H :    0.129384
  21 H :    0.114251
  22 H :    0.116111
  23 H :    0.107850
  24 H :    0.102853
  25 H :    0.119303
  26 H :    0.119913
  27 H :    0.114867
  28 H :    0.105552
  29 H :    0.108000
  30 H :    0.130600
  31 H :    0.109708
  32 H :    0.132319
  33 H :    0.130208
  34 H :    0.124509
  35 H :    0.146238
  36 H :    0.116479
  37 H :    0.118495
Sum of atomic charges:   -0.0000000

LOEWDIN ATOMIC CHARGES
----------------------
   0 C :   -0.356088
   1 C :   -0.110695
   2 O :   -0.059867
   3 C :    0.025669
   4 O :   -0.161979
   5 C :   -0.250153
   6 C :   -0.259446
   7 H :    0.152253
   8 C :    0.004620
   9 O :   -0.148212
  10 O :   -0.063355
  11 C :   -0.106672
  12 C :   -0.354265
  13 S :    0.097808
  14 P :    0.578332
  15 S :   -0.282744
  16 O :   -0.237660
  17 C :   -0.211746
  18 O :   -0.260848
  19 C :   -0.223903
  20 H :    0.131540
  21 H :    0.131376
  22 H :    0.125897
  23 H :    0.120196
  24 H :    0.118012
  25 H :    0.146538
  26 H :    0.133975
  27 H :    0.119332
  28 H :    0.116495
  29 H :    0.123512
  30 H :    0.128396
  31 H :    0.130757
  32 H :    0.124290
  33 H :    0.118565
  34 H :    0.110750
  35 H :    0.117027
  36 H :    0.119061
  37 H :    0.113233

  Mayer bond orders larger than 0.100000
B(  0-C ,  1-C ) :   1.1745 B(  0-C , 20-H ) :   0.9459 B(  0-C , 21-H ) :   0.9439
B(  0-C , 22-H ) :   0.9483 B(  1-C ,  2-O ) :   0.9137 B(  1-C , 23-H ) :   0.9144
B(  1-C , 24-H ) :   0.9368 B(  2-O ,  3-C ) :   1.2234 B(  3-C ,  4-O ) :   1.9913
B(  3-C ,  5-C ) :   1.0223 B(  5-C ,  6-C ) :   1.0646 B(  5-C , 25-H ) :   0.8717
B(  5-C , 26-H ) :   0.8789 B(  6-C ,  7-H ) :   0.8552 B(  6-C ,  8-C ) :   0.9275
B(  6-C , 13-S ) :   1.0138 B(  8-C ,  9-O ) :   2.0659 B(  8-C , 10-O ) :   1.2479
B( 10-O , 11-C ) :   0.8900 B( 11-C , 12-C ) :   1.1571 B( 11-C , 27-H ) :   0.9230
B( 11-C , 28-H ) :   0.9275 B( 12-C , 29-H ) :   0.9505 B( 12-C , 30-H ) :   0.9386
B( 12-C , 31-H ) :   0.9418 B( 13-S , 14-P ) :   0.9497 B( 13-S , 15-S ) :   0.1157
B( 14-P , 15-S ) :   1.6159 B( 14-P , 16-O ) :   1.1217 B( 14-P , 18-O ) :   1.0841
B( 16-O , 17-C ) :   0.9150 B( 17-C , 32-H ) :   0.9559 B( 17-C , 33-H ) :   0.9473
B( 17-C , 34-H ) :   0.9371 B( 18-O , 19-C ) :   0.9177 B( 19-C , 35-H ) :   0.9218
B( 19-C , 36-H ) :   0.9561 B( 19-C , 37-H ) :   0.9438

Dispersion correction           -0.053826974
FINAL SINGLE POINT ENERGY     -1979.023565415872

DIPOLE MOMENT
-------------

Method             : SCF
Type of density    : Electron Density
Multiplicity       :   1
Irrep              :   0
Energy             : -1979.1527932082781263 Eh
Relativity type    :
Basis              : AO
                                X                 Y                 Z
Electronic contribution:     -4.043920501       2.847144450       7.276057980
Nuclear contribution   :      3.767903147      -2.968924093      -9.041254903
                        -----------------------------------------
Total Dipole Moment    :     -0.276017354      -0.121779644      -1.765196922
                        -----------------------------------------
Magnitude (a.u.)       :      1.790792014
Magnitude (Debye)      :      4.551831559

Rotational constants in cm-1:             0.014584             0.006975             0.005808
Rotational constants in MHz :           437.230213           209.114786           174.120229

                             ****ORCA TERMINATED NORMALLY****
TOTAL RUN TIME: 0 days 0 hours 0 minutes 38 seconds 754 msec
