                         Program Version 6.0.0  -   RELEASE  -
|  1> ! r2scan-3c def2/J RI DEFGRID2 scfconv6 printgap
|  2> %output
|  3>     printlevel normal
|  4> end
|  5> * xyz 0 1
|  6> C 1.8502400991 -1.4698537787 -0.000292617
|  7> C 0.5697232599 -0.6941584569 0.0004107248
|  8> C -0.6403153854 -1.3830895144 0.0002091911
|  9> C -1.8294175261 -0.6788541283 -0.000113318
| 10> N -1.8850458851 0.6453538321 -0.0001897901
| 11> C -0.7354827266 1.3001411329 2.30365e-05
| 12> C 0.5213551008 0.703472223 0.0002351404
| 13> C 1.7539543804 1.5539380567 7.0757e-06
| 14> H 2.7191911991 -0.8222476947 0.0136073575
| 15> H 1.8839071539 -2.1225057592 0.8703360062
| 16> H 1.8959068077 -2.0999759078 -0.8869406432
| 17> H -0.6483059703 -2.4624335564 0.0003557697
| 18> H -2.7847153989 -1.1866105256 -0.0002595761
| 19> H -0.8254774657 2.3795513263 -0.0001279902
| 20> H 1.4827639321 2.6062296836 -0.0005237924
| 21> H 2.3579590743 1.3529176764 0.8830844636
| 22> H 2.3582935814 1.3519281335 -0.8826050539
| 23> *
| 24>
| 25>                          ****END OF INPUT****

CARTESIAN COORDINATES (ANGSTROEM)
---------------------------------
  C      1.850240   -1.469854   -0.000293
  C      0.569723   -0.694158    0.000411
  C     -0.640315   -1.383090    0.000209
  C     -1.829418   -0.678854   -0.000113
  N     -1.885046    0.645354   -0.000190
  C     -0.735483    1.300141    0.000023
  C      0.521355    0.703472    0.000235
  C      1.753954    1.553938    0.000007
  H      2.719191   -0.822248    0.013607
  H      1.883907   -2.122506    0.870336
  H      1.895907   -2.099976   -0.886941
  H     -0.648306   -2.462434    0.000356
  H     -2.784715   -1.186611   -0.000260
  H     -0.825477    2.379551   -0.000128
  H      1.482764    2.606230   -0.000524
  H      2.357959    1.352918    0.883084
  H      2.358294    1.351928   -0.882605

 Total Charge           Charge          ....    0
 Multiplicity           Mult            ....    1
 Number of Electrons    NEL             ....   58
 Basis Dimension        Dim             ....  202

ORBITAL ENERGIES
----------------

  NO   OCC          E(Eh)            E(eV)
   0   2.0000     -14.144913      -384.9027
   1   2.0000     -10.058418      -273.7035
   2   2.0000     -10.057955      -273.6909
   3   2.0000     -10.057711      -273.6842
   4   2.0000     -10.048329      -273.4289
   5   2.0000     -10.037780      -273.1419
   6   2.0000     -10.036114      -273.0965
   7   2.0000     -10.035674      -273.0846
   8   2.0000      -0.907641       -24.6982
   9   2.0000      -0.797768       -21.7084
  10   2.0000      -0.746422       -20.3112
  11   2.0000      -0.689785       -18.7700
  12   2.0000      -0.662529       -18.0283
  13   2.0000      -0.586656       -15.9637
  14   2.0000      -0.560532       -15.2528
  15   2.0000      -0.470193       -12.7946
  16   2.0000      -0.468291       -12.7428
  17   2.0000      -0.423171       -11.5151
  18   2.0000      -0.416785       -11.3413
  19   2.0000      -0.388507       -10.5718
  20   2.0000      -0.383583       -10.4378
  21   2.0000      -0.375426       -10.2159
  22   2.0000      -0.366146        -9.9633
  23   2.0000      -0.355364        -9.6699
  24   2.0000      -0.350903        -9.5486
  25   2.0000      -0.318828        -8.6757
  26   2.0000      -0.250899        -6.8273
  27   2.0000      -0.234838        -6.3903
  28   2.0000      -0.217062        -5.9065
  29   0.0000      -0.047890        -1.3032
  30   0.0000      -0.031677        -0.8620
  31   0.0000       0.079601         2.1661
  32   0.0000       0.094364         2.5678
  33   0.0000       0.099447         2.7061

MULLIKEN ATOMIC CHARGES
-----------------------
   0 C :   -0.560335
   1 C :    0.139107
   2 C :   -0.109582
   3 C :   -0.133703
   4 N :   -0.169389
   5 C :   -0.181632
   6 C :    0.214491
   7 C :   -0.597954
   8 H :    0.159649
   9 H :    0.168576
  10 H :    0.169643
  11 H :    0.147612
  12 H :    0.131051
  13 H :    0.131386
  14 H :    0.153469
  15 H :    0.168752
  16 H :    0.168859
Sum of atomic charges:   -0.0000000

LOEWDIN ATOMIC CHARGES
----------------------
   0 C :   -0.386916
   1 C :   -0.061269
   2 C :   -0.143686
   3 C :    0.073843
   4 N :   -0.619511
   5 C :    0.078516
   6 C :   -0.082019
   7 C :   -0.391355
   8 H :    0.162506
   9 H :    0.170220
  10 H :    0.170475
  11 H :    0.170656
  12 H :    0.183047
  13 H :    0.184139
  14 H :    0.163047
  15 H :    0.164128
  16 H :    0.164178

  Mayer bond orders larger than 0.100000
B(  0-C ,  1-C ) :   0.8037 B(  0-C ,  8-H ) :   0.9796 B(  0-C ,  9-H ) :   0.9787
B(  0-C , 10-H ) :   0.9780 B(  1-C ,  2-C ) :   1.3485 B(  1-C ,  6-C ) :   1.3960
B(  2-C ,  3-C ) :   1.3806 B(  2-C , 11-H ) :   0.9360 B(  3-C ,  4-N ) :   1.4577
B(  3-C , 12-H ) :   0.9895 B(  4-N ,  5-C ) :   1.5176 B(  5-C ,  6-C ) :   1.2939
B(  5-C , 13-H ) :   0.9920 B(  6-C ,  7-C ) :   0.7867 B(  7-C , 14-H ) :   0.9769
B(  7-C , 15-H ) :   0.9816 B(  7-C , 16-H ) :   0.9812

Dispersion correction           -0.005396828
FINAL SINGLE POINT ENERGY      -326.820078998883

DIPOLE MOMENT
-------------

Method             : SCF
Type of density    : Electron Density
Multiplicity       :   1
Irrep              :   0
Energy             :  -326.8230143542263022 Eh
Relativity type    :
Basis              : AO
                                X                 Y                 Z
Electronic contribution:     -6.828889804       0.491626586       0.001913389
Nuclear contribution   :      7.907359114      -0.937582121      -0.002884463
                        -----------------------------------------
Total Dipole Moment    :      1.078469310      -0.445955535      -0.000971074
                        -----------------------------------------
Magnitude (a.u.)       :      1.167036132
Magnitude (Debye)      :      2.966370107

Rotational constants in cm-1:             0.106761             0.074341             0.044549
Rotational constants in MHz :          3200.627253          2228.691292          1335.552525

                             ****ORCA TERMINATED NORMALLY****
TOTAL RUN TIME: 0 days 0 hours 0 minutes 20 seconds 95 msec
