                         Program Version 6.0.0  -   RELEASE  -
|  1> ! r2scan-3c def2/J RI DEFGRID2 scfconv6 printgap
|  2> %output
|  3>     printlevel normal
|  4> end
|  5> %cpcm
|  6>     smd true
|  7>     smdsolvent "water"
|  8> end
|  9> * xyz 0 1
| 10> C 1.8502400991 -1.4698537787 -0.000292617
| 11> C 0.5697232599 -0.6941584569 0.0004107248
| 12> C -0.6403153854 -1.3830895144 0.0002091911
| 13> C -1.8294175261 -0.6788541283 -0.000113318
| 14> N -1.8850458851 0.6453538321 -0.0001897901
| 15> C -0.7354827266 1.3001411329 2.30365e-05
| 16> C 0.5213551008 0.703472223 0.0002351404
| 17> C 1.7539543804 1.5539380567 7.0757e-06
| 18> H 2.7191911991 -0.8222476947 0.0136073575
| 19> H 1.8839071539 -2.1225057592 0.8703360062
| 20> H 1.8959068077 -2.0999759078 -0.8869406432
| 21> H -0.6483059703 -2.4624335564 0.0003557697
| 22> H -2.7847153989 -1.1866105256 -0.0002595761
| 23> H -0.8254774657 2.3795513263 -0.0001279902
| 24> H 1.4827639321 2.6062296836 -0.0005237924
| 25> H 2.3579590743 1.3529176764 0.8830844636
| 26> H 2.3582935814 1.3519281335 -0.8826050539
| 27> *
| 28>
| 29>                          ****END OF INPUT****

CARTESIAN COORDINATES (ANGSTROEM)
---------------------------------
  C      1.850240   -1.469854   -0.000293
  C      0.569723   -0.694158    0.000411
  C     -0.640315   -1.383090    0.000209
  C     -1.829418   -0.678854   -0.000113
  N     -1.885046    0.645354   -0.000190
  C     -0.735483    1.300141    0.000023
  C      0.521355    0.703472    0.000235
  C      1.753954    1.553938    0.000007
  H      2.719191   -0.822248    0.013607
  H      1.883907   -2.122506    0.870336
  H      1.895907   -2.099976   -0.886941
  H     -0.648306   -2.462434    0.000356
  H     -2.784715   -1.186611   -0.000260
  H     -0.825477    2.379551   -0.000128
  H      1.482764    2.606230   -0.000524
  H      2.357959    1.352918    0.883084
  H      2.358294    1.351928   -0.882605

 Total Charge           Charge          ....    0
 Multiplicity           Mult            ....    1
 Number of Electrons    NEL             ....   58
 Basis Dimension        Dim             ....  202

ORBITAL ENERGIES
----------------

  NO   OCC          E(Eh)            E(eV)
   0   2.0000     -14.152006      -385.0957
   1   2.0000     -10.057756      -273.6854
   2   2.0000     -10.056987      -273.6645
   3   2.0000     -10.053862      -273.5795
   4   2.0000     -10.044780      -273.3324
   5   2.0000     -10.032163      -272.9890
   6   2.0000     -10.020960      -272.6842
   7   2.0000     -10.020740      -272.6782
   8   2.0000      -0.912025       -24.8175
   9   2.0000      -0.792690       -21.5702
  10   2.0000      -0.741664       -20.1817
  11   2.0000      -0.680381       -18.5141
  12   2.0000      -0.654951       -17.8221
  13   2.0000      -0.582763       -15.8578
  14   2.0000      -0.555350       -15.1118
  15   2.0000      -0.466062       -12.6822
  16   2.0000      -0.464384       -12.6365
  17   2.0000      -0.415565       -11.3081
  18   2.0000      -0.406757       -11.0684
  19   2.0000      -0.378124       -10.2893
  20   2.0000      -0.372921       -10.1477
  21   2.0000      -0.362849        -9.8736
  22   2.0000      -0.356186        -9.6923
  23   2.0000      -0.353152        -9.6097
  24   2.0000      -0.341647        -9.2967
  25   2.0000      -0.311841        -8.4856
  26   2.0000      -0.250370        -6.8129
  27   2.0000      -0.234089        -6.3699
  28   2.0000      -0.226688        -6.1685
  29   0.0000      -0.048112        -1.3092
  30   0.0000      -0.031611        -0.8602
  31   0.0000       0.088581         2.4104
  32   0.0000       0.102975         2.8021
  33   0.0000       0.106094         2.8870

MULLIKEN ATOMIC CHARGES
-----------------------
   0 C :   -0.577038
   1 C :    0.147330
   2 C :   -0.142001
   3 C :   -0.158270
   4 N :   -0.233514
   5 C :   -0.190740
   6 C :    0.179463
   7 C :   -0.615174
   8 H :    0.177693
   9 H :    0.184965
  10 H :    0.186049
  11 H :    0.182025
  12 H :    0.156757
  13 H :    0.158345
  14 H :    0.170820
  15 H :    0.186667
  16 H :    0.186623
Sum of atomic charges:   -0.0000000

LOEWDIN ATOMIC CHARGES
----------------------
   0 C :   -0.387588
   1 C :   -0.054160
   2 C :   -0.142517
   3 C :    0.059867
   4 N :   -0.676642
   5 C :    0.068419
   6 C :   -0.079389
   7 C :   -0.393416
   8 H :    0.168962
   9 H :    0.177592
  10 H :    0.177910
  11 H :    0.183899
  12 H :    0.191216
  13 H :    0.193346
  14 H :    0.168010
  15 H :    0.172246
  16 H :    0.172243

  Mayer bond orders larger than 0.100000
B(  0-C ,  1-C ) :   0.8214 B(  0-C ,  8-H ) :   0.9761 B(  0-C ,  9-H ) :   0.9685
B(  0-C , 10-H ) :   0.9677 B(  1-C ,  2-C ) :   1.3363 B(  1-C ,  6-C ) :   1.3564
B(  2-C ,  3-C ) :   1.3906 B(  2-C , 11-H ) :   0.9407 B(  3-C ,  4-N ) :   1.4487
B(  3-C , 12-H ) :   0.9783 B(  4-N ,  5-C ) :   1.5064 B(  5-C ,  6-C ) :   1.3198
B(  5-C , 13-H ) :   0.9761 B(  6-C ,  7-C ) :   0.8112 B(  7-C , 14-H ) :   0.9743
B(  7-C , 15-H ) :   0.9709 B(  7-C , 16-H ) :   0.9706

Dispersion correction           -0.005396828
FINAL SINGLE POINT ENERGY      -326.827413232056

DIPOLE MOMENT
-------------

Method             : SCF
Type of density    : Electron Density
Multiplicity       :   1
Irrep              :   0
Energy             :  -326.8303485873997261 Eh
Relativity type    :
Basis              : AO
                                X                 Y                 Z
Electronic contribution:     -6.338517178       0.283472033       0.001583818
Nuclear contribution   :      7.907359114      -0.937582121      -0.002884463
                        -----------------------------------------
Total Dipole Moment    :      1.568841936      -0.654110088      -0.001300645
                        -----------------------------------------
Magnitude (a.u.)       :      1.699743133
Magnitude (Debye)      :      4.320403696

Rotational constants in cm-1:             0.106761             0.074341             0.044549
Rotational constants in MHz :          3200.627253          2228.691292          1335.552525

                             ****ORCA TERMINATED NORMALLY****
TOTAL RUN TIME: 0 days 0 hours 0 minutes 26 seconds 613 msec
