                         Program Version 6.0.0  -   RELEASE  -
|  1> ! pbe def2-sv(p) def2/J RI DEFGRID1 loosescf d4 GCP(DFT/SV(P)) printgap
|  2> %output
|  3>     printlevel normal
|  4> end
|  5> * xyz 0 1
|  6> C 4.1951584512 -0.3206870405 -2.3890867703
|  7> C 4.431036303 0.4441224205 -1.1026974445
|  8> O 3.7418984199 -0.1438993292 0.0131507296
|  9> P 2.156234564 -0.1796706201 0.1216533701
| 10> S 1.2650183778 1.4766804189 -0.4665586111
| 11> O 1.9362198585 -0.5699624894 1.6399741285
| 12> C 1.8860290428 0.4070260989 2.6981294859
| 13> C 3.269676913 0.8866902488 3.0852409989
| 14> S 1.6282711059 -2.0088685739 -0.7685290874
| 15> C -0.1286463383 -1.6967408979 -1.0831884283
| 16> S -1.0611494697 -1.2740577848 0.4200379384
| 17> P -2.15198887 0.4254439642 -0.2974658693
| 18> S -1.9218849107 0.9117272564 -2.1752473094
| 19> O -1.8051008828 1.5961281871 0.6969136193
| 20> C -1.8089275936 1.4950796628 2.1403031077
| 21> C -3.1803049401 1.771323588 2.7211352505
| 22> O -3.6589272249 0.0942673996 0.1074508034
| 23> C -4.5588727477 -0.6161458913 -0.7592681686
| 24> C -4.1158082446 -2.0426306018 -1.0137758454
| 25> H 4.8304525808 0.0842198412 -3.1703676278
| 26> H 4.4190833486 -1.3751956456 -2.2487243742
| 27> H 3.1543317094 -0.2206117989 -2.6959249572
| 28> H 4.097010189 1.4816770926 -1.2068902114
| 29> H 5.4801147033 0.4183865339 -0.8048538426
| 30> H 1.2638021109 1.2452827075 2.3660810929
| 31> H 1.3961572136 -0.1185401398 3.5192648577
| 32> H 3.9073748028 0.0375455825 3.3147215625
| 33> H 3.7141120079 1.4481997906 2.2655938361
| 34> H 3.1947706391 1.5299293816 3.9565175639
| 35> H -0.517190881 -2.6283970749 -1.4876443755
| 36> H -0.2445395317 -0.8773769936 -1.7990174243
| 37> H -1.4515501605 0.5003776476 2.4241770229
| 38> H -1.0870479512 2.2521783807 2.4546374371
| 39> H -3.1043984021 1.7915158325 3.8038899836
| 40> H -3.5453977957 2.732083178 2.3684099489
| 41> H -3.8821091574 0.9974884135 2.4239836144
| 42> H -5.5121818145 -0.5784788566 -0.2302271614
| 43> H -4.6339515979 -0.0648452356 -1.7015290283
| 44> H -3.9153043465 -2.5519353436 -0.0745007961
| 45> H -4.8988038958 -2.5690199343 -1.5500386311
| 46> H -3.2119814101 -2.0445234618 -1.621602291
| 47> *
| 48>
| 49>                          ****END OF INPUT****

CARTESIAN COORDINATES (ANGSTROEM)
---------------------------------
  C      4.195158   -0.320687   -2.389087
  C      4.431036    0.444122   -1.102697
  O      3.741898   -0.143899    0.013151
  P      2.156235   -0.179671    0.121653
  S      1.265018    1.476680   -0.466559
  O      1.936220   -0.569962    1.639974
  C      1.886029    0.407026    2.698129
  C      3.269677    0.886690    3.085241
  S      1.628271   -2.008869   -0.768529
  C     -0.128646   -1.696741   -1.083188
  S     -1.061149   -1.274058    0.420038
  P     -2.151989    0.425444   -0.297466
  S     -1.921885    0.911727   -2.175247
  O     -1.805101    1.596128    0.696914
  C     -1.808928    1.495080    2.140303
  C     -3.180305    1.771324    2.721135
  O     -3.658927    0.094267    0.107451
  C     -4.558873   -0.616146   -0.759268
  C     -4.115808   -2.042631   -1.013776
  H      4.830453    0.084220   -3.170368
  H      4.419083   -1.375196   -2.248724
  H      3.154332   -0.220612   -2.695925
  H      4.097010    1.481677   -1.206890
  H      5.480115    0.418387   -0.804854
  H      1.263802    1.245283    2.366081
  H      1.396157   -0.118540    3.519265
  H      3.907375    0.037546    3.314722
  H      3.714112    1.448200    2.265594
  H      3.194771    1.529929    3.956518
  H     -0.517191   -2.628397   -1.487644
  H     -0.244540   -0.877377   -1.799017
  H     -1.451550    0.500378    2.424177
  H     -1.087048    2.252178    2.454637
  H     -3.104398    1.791516    3.803890
  H     -3.545398    2.732083    2.368410
  H     -3.882109    0.997488    2.423984
  H     -5.512182   -0.578479   -0.230227
  H     -4.633952   -0.064845   -1.701529
  H     -3.915304   -2.551935   -0.074501
  H     -4.898804   -2.569020   -1.550039
  H     -3.211981   -2.044523   -1.621602

 Total Charge           Charge          ....    0
 Multiplicity           Mult            ....    1
 Number of Electrons    NEL             ....  202
 Basis Dimension        Dim             ....  334

ORBITAL ENERGIES
----------------

  NO   OCC          E(Eh)            E(eV)
   0   2.0000     -88.042055     -2395.7461
   1   2.0000     -88.039841     -2395.6859
   2   2.0000     -87.983226     -2394.1453
   3   2.0000     -87.982203     -2394.1175
   4   2.0000     -76.423604     -2079.5920
   5   2.0000     -76.422641     -2079.5658
   6   2.0000     -18.790027      -511.3026
   7   2.0000     -18.788624      -511.2645
   8   2.0000     -18.787767      -511.2411
   9   2.0000     -18.785252      -511.1727
  10   2.0000      -9.956940      -270.9421
  11   2.0000      -9.953118      -270.8381
  12   2.0000      -9.950867      -270.7769
  13   2.0000      -9.950642      -270.7707
  14   2.0000      -9.950611      -270.7699
  15   2.0000      -9.885585      -269.0004
  16   2.0000      -9.884270      -268.9646
  17   2.0000      -9.883964      -268.9563
  18   2.0000      -9.881990      -268.9026
  19   2.0000      -7.687642      -209.1914
  20   2.0000      -7.684118      -209.0955
  21   2.0000      -7.628463      -207.5810
  22   2.0000      -7.626669      -207.5322
  23   2.0000      -6.420850      -174.7202
  24   2.0000      -6.420126      -174.7005
  25   2.0000      -5.715623      -155.5300
  26   2.0000      -5.712074      -155.4334
  27   2.0000      -5.711995      -155.4313
  28   2.0000      -5.708769      -155.3435
  29   2.0000      -5.704488      -155.2270
  30   2.0000      -5.701052      -155.1335
  31   2.0000      -5.657441      -153.9468
  32   2.0000      -5.655499      -153.8940
  33   2.0000      -5.649147      -153.7211
  34   2.0000      -5.648430      -153.7016
  35   2.0000      -5.647410      -153.6738
  36   2.0000      -5.646905      -153.6601
  37   2.0000      -4.643587      -126.3584
  38   2.0000      -4.642556      -126.3304
  39   2.0000      -4.642464      -126.3279
  40   2.0000      -4.641901      -126.3125
  41   2.0000      -4.641352      -126.2976
  42   2.0000      -4.640684      -126.2794
  43   2.0000      -0.984222       -26.7820
  44   2.0000      -0.983728       -26.7686
  45   2.0000      -0.943010       -25.6606
  46   2.0000      -0.941433       -25.6177
  47   2.0000      -0.760625       -20.6977
  48   2.0000      -0.719030       -19.5658
  49   2.0000      -0.708415       -19.2770
  50   2.0000      -0.688717       -18.7409
  51   2.0000      -0.686019       -18.6675
  52   2.0000      -0.674582       -18.3563
  53   2.0000      -0.649190       -17.6654
  54   2.0000      -0.633821       -17.2471
  55   2.0000      -0.600479       -16.3399
  56   2.0000      -0.591100       -16.0847
  57   2.0000      -0.574740       -15.6395
  58   2.0000      -0.571140       -15.5415
  59   2.0000      -0.560077       -15.2405
  60   2.0000      -0.498419       -13.5627
  61   2.0000      -0.491170       -13.3654
  62   2.0000      -0.472114       -12.8469
  63   2.0000      -0.469923       -12.7873
  64   2.0000      -0.447753       -12.1840
  65   2.0000      -0.446577       -12.1520
  66   2.0000      -0.442409       -12.0386
  67   2.0000      -0.436270       -11.8715
  68   2.0000      -0.429597       -11.6899
  69   2.0000      -0.422270       -11.4906
  70   2.0000      -0.409164       -11.1339
  71   2.0000      -0.393950       -10.7199
  72   2.0000      -0.390536       -10.6270
  73   2.0000      -0.385613       -10.4931
  74   2.0000      -0.380337       -10.3495
  75   2.0000      -0.374428       -10.1887
  76   2.0000      -0.366522        -9.9736
  77   2.0000      -0.356565        -9.7026
  78   2.0000      -0.351431        -9.5629
  79   2.0000      -0.350706        -9.5432
  80   2.0000      -0.348424        -9.4811
  81   2.0000      -0.346156        -9.4194
  82   2.0000      -0.341329        -9.2880
  83   2.0000      -0.338641        -9.2149
  84   2.0000      -0.334496        -9.1021
  85   2.0000      -0.313059        -8.5188
  86   2.0000      -0.311155        -8.4670
  87   2.0000      -0.295194        -8.0326
  88   2.0000      -0.293243        -7.9795
  89   2.0000      -0.288495        -7.8504
  90   2.0000      -0.279793        -7.6136
  91   2.0000      -0.275291        -7.4910
  92   2.0000      -0.267390        -7.2761
  93   2.0000      -0.261067        -7.1040
  94   2.0000      -0.258110        -7.0235
  95   2.0000      -0.231204        -6.2914
  96   2.0000      -0.219473        -5.9722
  97   2.0000      -0.211766        -5.7625
  98   2.0000      -0.199207        -5.4207
  99   2.0000      -0.196584        -5.3493
 100   2.0000      -0.186277        -5.0689
 101   0.0000      -0.042585        -1.1588
 102   0.0000      -0.032701        -0.8898
 103   0.0000      -0.009603        -0.2613
 104   0.0000       0.009581         0.2607
 105   0.0000       0.017900         0.4871

MULLIKEN ATOMIC CHARGES
-----------------------
   0 C :   -0.318734
   1 C :   -0.002393
   2 O :   -0.372596
   3 P :    0.603642
   4 S :   -0.313231
   5 O :   -0.360592
   6 C :   -0.030594
   7 C :   -0.291412
   8 S :   -0.085861
   9 C :   -0.348987
  10 S :   -0.124329
  11 P :    0.620879
  12 S :   -0.293820
  13 O :   -0.348711
  14 C :   -0.044870
  15 C :   -0.279793
  16 O :   -0.382490
  17 C :    0.004488
  18 C :   -0.318902
  19 H :    0.113422
  20 H :    0.118007
  21 H :    0.131575
  22 H :    0.110615
  23 H :    0.104121
  24 H :    0.120238
  25 H :    0.103542
  26 H :    0.117325
  27 H :    0.121017
  28 H :    0.107962
  29 H :    0.181479
  30 H :    0.205236
  31 H :    0.115962
  32 H :    0.122091
  33 H :    0.106693
  34 H :    0.120050
  35 H :    0.123488
  36 H :    0.102363
  37 H :    0.111522
  38 H :    0.119401
  39 H :    0.112186
  40 H :    0.120010
Sum of atomic charges:    0.0000000

LOEWDIN ATOMIC CHARGES
----------------------
   0 C :   -0.370216
   1 C :   -0.119569
   2 O :   -0.245411
   3 P :    0.561400
   4 S :   -0.307894
   5 O :   -0.240043
   6 C :   -0.120542
   7 C :   -0.360390
   8 S :    0.093365
   9 C :   -0.479336
  10 S :    0.062155
  11 P :    0.577415
  12 S :   -0.287485
  13 O :   -0.227050
  14 C :   -0.114268
  15 C :   -0.360983
  16 O :   -0.251332
  17 C :   -0.117309
  18 C :   -0.371178
  19 H :    0.131262
  20 H :    0.123744
  21 H :    0.122999
  22 H :    0.110680
  23 H :    0.118125
  24 H :    0.107583
  25 H :    0.116669
  26 H :    0.127325
  27 H :    0.124657
  28 H :    0.128429
  29 H :    0.133356
  30 H :    0.123105
  31 H :    0.104309
  32 H :    0.121140
  33 H :    0.128229
  34 H :    0.129781
  35 H :    0.125874
  36 H :    0.117210
  37 H :    0.111627
  38 H :    0.123644
  39 H :    0.130178
  40 H :    0.118745

  Mayer bond orders larger than 0.100000
B(  0-C ,  1-C ) :   1.1670 B(  0-C , 19-H ) :   0.9376 B(  0-C , 20-H ) :   0.9440
B(  0-C , 21-H ) :   0.9349 B(  1-C ,  2-O ) :   0.9082 B(  1-C , 22-H ) :   0.9154
B(  1-C , 23-H ) :   0.9339 B(  2-O ,  3-P ) :   1.1002 B(  3-P ,  4-S ) :   1.6202
B(  3-P ,  5-O ) :   1.1200 B(  3-P ,  8-S ) :   0.9586 B(  4-S ,  8-S ) :   0.1141
B(  5-O ,  6-C ) :   0.9130 B(  6-C ,  7-C ) :   1.1620 B(  6-C , 24-H ) :   0.9023
B(  6-C , 25-H ) :   0.9345 B(  7-C , 26-H ) :   0.9466 B(  7-C , 27-H ) :   0.9416
B(  7-C , 28-H ) :   0.9399 B(  8-S ,  9-C ) :   1.0001 B(  9-C , 10-S ) :   1.0021
B(  9-C , 29-H ) :   0.9062 B(  9-C , 30-H ) :   0.8489 B( 10-S , 11-P ) :   0.9358
B( 10-S , 12-S ) :   0.1174 B( 11-P , 12-S ) :   1.6251 B( 11-P , 13-O ) :   1.1422
B( 11-P , 16-O ) :   1.0719 B( 12-S , 30-H ) :   0.1082 B( 13-O , 14-C ) :   0.9042
B( 14-C , 15-C ) :   1.1582 B( 14-C , 31-H ) :   0.9124 B( 14-C , 32-H ) :   0.9276
B( 15-C , 33-H ) :   0.9390 B( 15-C , 34-H ) :   0.9461 B( 15-C , 35-H ) :   0.9375
B( 16-O , 17-C ) :   0.9156 B( 17-C , 18-C ) :   1.1642 B( 17-C , 36-H ) :   0.9343
B( 17-C , 37-H ) :   0.9177 B( 18-C , 38-H ) :   0.9413 B( 18-C , 39-H ) :   0.9370
B( 18-C , 40-H ) :   0.9365

Dispersion correction           -0.067039851
FINAL SINGLE POINT ENERGY     -2929.516494731518

DIPOLE MOMENT
-------------

Method             : SCF
Type of density    : Electron Density
Multiplicity       :   1
Irrep              :   0
Energy             : -2929.6343162158418636 Eh
Relativity type    :
Basis              : AO
                                X                 Y                 Z
Electronic contribution:      0.503503660      -1.757174908      -8.855886457
Nuclear contribution   :     -0.511437226       1.218595099       9.948803618
                        -----------------------------------------
Total Dipole Moment    :     -0.007933566      -0.538579809       1.092917161
                        -----------------------------------------
Magnitude (a.u.)       :      1.218441247
Magnitude (Debye)      :      3.097031525

Rotational constants in cm-1:             0.012248             0.005435             0.004713
Rotational constants in MHz :           367.172748           162.942605           141.305133

                             ****ORCA TERMINATED NORMALLY****
TOTAL RUN TIME: 0 days 0 hours 0 minutes 21 seconds 262 msec
