                         Program Version 6.0.0  -   RELEASE  -
|  1> ! pbe def2-sv(p) def2/J RI DEFGRID1 loosescf d4 GCP(DFT/SV(P)) printgap
|  2> %output
|  3>     printlevel normal
|  4> end
|  5> * xyz 0 1
|  6> C 3.1311927116 2.2691808357 -1.8669874465
|  7> C 3.1241358507 0.7619958303 -1.7141030884
|  8> O 3.3850565153 0.3945386788 -0.3343516207
|  9> P 2.2504442261 -0.0758503196 0.6622389694
| 10> S 2.9539589164 -0.5377146798 2.4223833426
| 11> O 1.4326440602 -1.2444403433 -0.0635331573
| 12> C 1.7322589836 -2.6335749656 0.1549713776
| 13> C 3.0332409987 -3.0289435704 -0.5117265601
| 14> S 0.8098753682 1.4591801921 0.5978950413
| 15> C -0.2650197639 0.8083783678 1.8984457325
| 16> S -1.1770639936 -0.6969068999 1.4391111384
| 17> P -1.8636923593 -0.1280060079 -0.4922105361
| 18> S -0.7525149904 -0.2793737338 -2.0925712443
| 19> O -2.3665836719 1.3508597004 -0.1593416525
| 20> C -2.3347317905 2.4115130634 -1.1303752534
| 21> C -3.5094725327 2.3085089608 -2.0815424817
| 22> O -3.1193824283 -1.0739581881 -0.6940186006
| 23> C -4.0950481023 -1.470325912 0.2970321836
| 24> C -4.8871865682 -0.2979812452 0.8361974401
| 25> H 4.0715239383 2.6751986374 -1.5044667165
| 26> H 3.0098178069 2.5168007908 -2.9167070477
| 27> H 2.314737247 2.7137631393 -1.3012534563
| 28> H 3.9376943835 0.303509692 -2.2783607552
| 29> H 2.1688231958 0.3331799678 -2.0311864282
| 30> H 1.7756754754 -2.8131157465 1.2343633656
| 31> H 0.8771560637 -3.1590099069 -0.2743515389
| 32> H 2.9900282026 -2.8137465858 -1.5766446169
| 33> H 3.8572746482 -2.4697299746 -0.0680544697
| 34> H 3.2053375574 -4.0903839366 -0.364069427
| 35> H -0.972705621 1.5980468785 2.1376598665
| 36> H 0.3392539047 0.5408517272 2.7665547252
| 37> H -2.36816054 3.3253702422 -0.5359711848
| 38> H -1.3882428866 2.3603012251 -1.6776943738
| 39> H -4.4466955318 2.3525701702 -1.5333151285
| 40> H -3.4704380541 3.1267956337 -2.793361203
| 41> H -3.4582646197 1.3642202755 -2.6229910416
| 42> H -4.7323288861 -2.1695419913 -0.2472981343
| 43> H -3.5751636587 -1.9955917995 1.1020710694
| 44> H -5.6523873233 -0.6697821554 1.5106298981
| 45> H -4.2348661115 0.3812649125 1.3799942735
| 46> H -5.3614708308 0.2419663427 0.0207962047
| 47> *
| 48>
| 49>                          ****END OF INPUT****

CARTESIAN COORDINATES (ANGSTROEM)
---------------------------------
  C      3.131193    2.269181   -1.866987
  C      3.124136    0.761996   -1.714103
  O      3.385057    0.394539   -0.334352
  P      2.250444   -0.075850    0.662239
  S      2.953959   -0.537715    2.422383
  O      1.432644   -1.244440   -0.063533
  C      1.732259   -2.633575    0.154971
  C      3.033241   -3.028944   -0.511727
  S      0.809875    1.459180    0.597895
  C     -0.265020    0.808378    1.898446
  S     -1.177064   -0.696907    1.439111
  P     -1.863692   -0.128006   -0.492211
  S     -0.752515   -0.279374   -2.092571
  O     -2.366584    1.350860   -0.159342
  C     -2.334732    2.411513   -1.130375
  C     -3.509473    2.308509   -2.081542
  O     -3.119382   -1.073958   -0.694019
  C     -4.095048   -1.470326    0.297032
  C     -4.887187   -0.297981    0.836197
  H      4.071524    2.675199   -1.504467
  H      3.009818    2.516801   -2.916707
  H      2.314737    2.713763   -1.301253
  H      3.937694    0.303510   -2.278361
  H      2.168823    0.333180   -2.031186
  H      1.775675   -2.813116    1.234363
  H      0.877156   -3.159010   -0.274352
  H      2.990028   -2.813747   -1.576645
  H      3.857275   -2.469730   -0.068054
  H      3.205338   -4.090384   -0.364069
  H     -0.972706    1.598047    2.137660
  H      0.339254    0.540852    2.766555
  H     -2.368161    3.325370   -0.535971
  H     -1.388243    2.360301   -1.677694
  H     -4.446696    2.352570   -1.533315
  H     -3.470438    3.126796   -2.793361
  H     -3.458265    1.364220   -2.622991
  H     -4.732329   -2.169542   -0.247298
  H     -3.575164   -1.995592    1.102071
  H     -5.652387   -0.669782    1.510630
  H     -4.234866    0.381265    1.379994
  H     -5.361471    0.241966    0.020796

 Total Charge           Charge          ....    0
 Multiplicity           Mult            ....    1
 Number of Electrons    NEL             ....  202
 Basis Dimension        Dim             ....  334

ORBITAL ENERGIES
----------------

  NO   OCC          E(Eh)            E(eV)
   0   2.0000     -88.043901     -2395.7963
   1   2.0000     -88.043141     -2395.7757
   2   2.0000     -87.981494     -2394.0982
   3   2.0000     -87.980218     -2394.0634
   4   2.0000     -76.427254     -2079.6913
   5   2.0000     -76.421814     -2079.5433
   6   2.0000     -18.796495      -511.4786
   7   2.0000     -18.792827      -511.3788
   8   2.0000     -18.791909      -511.3538
   9   2.0000     -18.780574      -511.0454
  10   2.0000      -9.960130      -271.0289
  11   2.0000      -9.960058      -271.0270
  12   2.0000      -9.953228      -270.8411
  13   2.0000      -9.952747      -270.8280
  14   2.0000      -9.940998      -270.5083
  15   2.0000      -9.891314      -269.1563
  16   2.0000      -9.886833      -269.0344
  17   2.0000      -9.886738      -269.0318
  18   2.0000      -9.878299      -268.8022
  19   2.0000      -7.688917      -209.2261
  20   2.0000      -7.688006      -209.2013
  21   2.0000      -7.626844      -207.5370
  22   2.0000      -7.625412      -207.4980
  23   2.0000      -6.424269      -174.8133
  24   2.0000      -6.419704      -174.6890
  25   2.0000      -5.716785      -155.5616
  26   2.0000      -5.716120      -155.5435
  27   2.0000      -5.713505      -155.4724
  28   2.0000      -5.712437      -155.4433
  29   2.0000      -5.705751      -155.2614
  30   2.0000      -5.704819      -155.2360
  31   2.0000      -5.655841      -153.9033
  32   2.0000      -5.654523      -153.8674
  33   2.0000      -5.647578      -153.6784
  34   2.0000      -5.646743      -153.6557
  35   2.0000      -5.645881      -153.6322
  36   2.0000      -5.645429      -153.6199
  37   2.0000      -4.647355      -126.4609
  38   2.0000      -4.645969      -126.4232
  39   2.0000      -4.644423      -126.3812
  40   2.0000      -4.642656      -126.3331
  41   2.0000      -4.641129      -126.2915
  42   2.0000      -4.640142      -126.2647
  43   2.0000      -0.985630       -26.8203
  44   2.0000      -0.980461       -26.6797
  45   2.0000      -0.948904       -25.8210
  46   2.0000      -0.938697       -25.5432
  47   2.0000      -0.765940       -20.8423
  48   2.0000      -0.721787       -19.6408
  49   2.0000      -0.709490       -19.3062
  50   2.0000      -0.694892       -18.9090
  51   2.0000      -0.686145       -18.6710
  52   2.0000      -0.671982       -18.2856
  53   2.0000      -0.650702       -17.7065
  54   2.0000      -0.638152       -17.3650
  55   2.0000      -0.594983       -16.1903
  56   2.0000      -0.587704       -15.9922
  57   2.0000      -0.578328       -15.7371
  58   2.0000      -0.574152       -15.6235
  59   2.0000      -0.564212       -15.3530
  60   2.0000      -0.502540       -13.6748
  61   2.0000      -0.492779       -13.4092
  62   2.0000      -0.480950       -13.0873
  63   2.0000      -0.472497       -12.8573
  64   2.0000      -0.456998       -12.4355
  65   2.0000      -0.447280       -12.1711
  66   2.0000      -0.439680       -11.9643
  67   2.0000      -0.434549       -11.8247
  68   2.0000      -0.424634       -11.5549
  69   2.0000      -0.413107       -11.2412
  70   2.0000      -0.405609       -11.0372
  71   2.0000      -0.402522       -10.9532
  72   2.0000      -0.394546       -10.7361
  73   2.0000      -0.389930       -10.6105
  74   2.0000      -0.379615       -10.3299
  75   2.0000      -0.370261       -10.0753
  76   2.0000      -0.366594        -9.9755
  77   2.0000      -0.358857        -9.7650
  78   2.0000      -0.355641        -9.6775
  79   2.0000      -0.354366        -9.6428
  80   2.0000      -0.350065        -9.5257
  81   2.0000      -0.347919        -9.4674
  82   2.0000      -0.345126        -9.3914
  83   2.0000      -0.340233        -9.2582
  84   2.0000      -0.331839        -9.0298
  85   2.0000      -0.319446        -8.6926
  86   2.0000      -0.310333        -8.4446
  87   2.0000      -0.307871        -8.3776
  88   2.0000      -0.301298        -8.1987
  89   2.0000      -0.283696        -7.7198
  90   2.0000      -0.275235        -7.4895
  91   2.0000      -0.273489        -7.4420
  92   2.0000      -0.270590        -7.3631
  93   2.0000      -0.264515        -7.1978
  94   2.0000      -0.263925        -7.1818
  95   2.0000      -0.235109        -6.3976
  96   2.0000      -0.218997        -5.9592
  97   2.0000      -0.204596        -5.5673
  98   2.0000      -0.201188        -5.4746
  99   2.0000      -0.193747        -5.2721
 100   2.0000      -0.188264        -5.1229
 101   0.0000      -0.051219        -1.3937
 102   0.0000      -0.020447        -0.5564
 103   0.0000      -0.013525        -0.3680
 104   0.0000       0.005853         0.1593
 105   0.0000       0.016701         0.4545

MULLIKEN ATOMIC CHARGES
-----------------------
   0 C :   -0.293342
   1 C :   -0.047418
   2 O :   -0.368044
   3 P :    0.627566
   4 S :   -0.319789
   5 O :   -0.366537
   6 C :    0.002282
   7 C :   -0.315446
   8 S :   -0.110609
   9 C :   -0.318718
  10 S :   -0.113492
  11 P :    0.633089
  12 S :   -0.304242
  13 O :   -0.391032
  14 C :   -0.013087
  15 C :   -0.307172
  16 O :   -0.367872
  17 C :   -0.016374
  18 C :   -0.314371
  19 H :    0.121205
  20 H :    0.113116
  21 H :    0.128300
  22 H :    0.109932
  23 H :    0.136652
  24 H :    0.106927
  25 H :    0.102039
  26 H :    0.114944
  27 H :    0.126109
  28 H :    0.110818
  29 H :    0.185579
  30 H :    0.185957
  31 H :    0.100618
  32 H :    0.115071
  33 H :    0.116149
  34 H :    0.112108
  35 H :    0.127231
  36 H :    0.112011
  37 H :    0.119365
  38 H :    0.113412
  39 H :    0.124956
  40 H :    0.122112
Sum of atomic charges:   -0.0000000

LOEWDIN ATOMIC CHARGES
----------------------
   0 C :   -0.358020
   1 C :   -0.121899
   2 O :   -0.240539
   3 P :    0.572120
   4 S :   -0.317183
   5 O :   -0.243402
   6 C :   -0.122034
   7 C :   -0.365207
   8 S :    0.093315
   9 C :   -0.471830
  10 S :    0.077116
  11 P :    0.570053
  12 S :   -0.303514
  13 O :   -0.250801
  14 C :   -0.125145
  15 C :   -0.363200
  16 O :   -0.243138
  17 C :   -0.116000
  18 C :   -0.366512
  19 H :    0.129157
  20 H :    0.132129
  21 H :    0.118441
  22 H :    0.120737
  23 H :    0.113064
  24 H :    0.106934
  25 H :    0.116721
  26 H :    0.124005
  27 H :    0.123765
  28 H :    0.129919
  29 H :    0.133869
  30 H :    0.131788
  31 H :    0.115477
  32 H :    0.107786
  33 H :    0.122375
  34 H :    0.131052
  35 H :    0.126274
  36 H :    0.122838
  37 H :    0.109299
  38 H :    0.131425
  39 H :    0.122655
  40 H :    0.126110

  Mayer bond orders larger than 0.100000
B(  0-C ,  1-C ) :   1.1694 B(  0-C , 19-H ) :   0.9459 B(  0-C , 20-H ) :   0.9391
B(  0-C , 21-H ) :   0.9375 B(  1-C ,  2-O ) :   0.8885 B(  1-C , 22-H ) :   0.9325
B(  1-C , 23-H ) :   0.9022 B(  2-O ,  3-P ) :   1.1331 B(  3-P ,  4-S ) :   1.6366
B(  3-P ,  5-O ) :   1.0923 B(  3-P ,  8-S ) :   0.9469 B(  5-O ,  6-C ) :   0.9043
B(  6-C ,  7-C ) :   1.1630 B(  6-C , 24-H ) :   0.9132 B(  6-C , 25-H ) :   0.9299
B(  7-C , 26-H ) :   0.9469 B(  7-C , 27-H ) :   0.9365 B(  7-C , 28-H ) :   0.9407
B(  8-S ,  9-C ) :   1.0197 B(  9-C , 10-S ) :   0.9921 B(  9-C , 29-H ) :   0.9068
B(  9-C , 30-H ) :   0.8796 B( 10-S , 11-P ) :   0.9520 B( 10-S , 12-S ) :   0.1048
B( 11-P , 12-S ) :   1.6312 B( 11-P , 13-O ) :   1.0602 B( 11-P , 16-O ) :   1.1278
B( 13-O , 14-C ) :   0.9009 B( 14-C , 15-C ) :   1.1650 B( 14-C , 31-H ) :   0.9328
B( 14-C , 32-H ) :   0.9059 B( 15-C , 33-H ) :   0.9434 B( 15-C , 34-H ) :   0.9396
B( 15-C , 35-H ) :   0.9368 B( 16-O , 17-C ) :   0.9055 B( 17-C , 18-C ) :   1.1650
B( 17-C , 36-H ) :   0.9338 B( 17-C , 37-H ) :   0.9215 B( 18-C , 38-H ) :   0.9364
B( 18-C , 39-H ) :   0.9365 B( 18-C , 40-H ) :   0.9425

Dispersion correction           -0.068247619
FINAL SINGLE POINT ENERGY     -2929.514692200697

DIPOLE MOMENT
-------------

Method             : SCF
Type of density    : Electron Density
Multiplicity       :   1
Irrep              :   0
Energy             : -2929.6321934700135898 Eh
Relativity type    :
Basis              : AO
                                X                 Y                 Z
Electronic contribution:      9.428251454      -3.164779701      10.617532290
Nuclear contribution   :    -10.834838533       3.602330140     -11.097043146
                        -----------------------------------------
Total Dipole Moment    :     -1.406587079       0.437550439      -0.479510856
                        -----------------------------------------
Magnitude (a.u.)       :      1.549150818
Magnitude (Debye)      :      3.937628452

Rotational constants in cm-1:             0.012215             0.005625             0.005066
Rotational constants in MHz :           366.185477           168.646685           151.880120

                             ****ORCA TERMINATED NORMALLY****
TOTAL RUN TIME: 0 days 0 hours 0 minutes 21 seconds 825 msec
