                         Program Version 6.0.1  -  RELEASE   -
|  1> ! pbe def2-sv(p) def2/J RI DEFGRID1 loosescf d4 GCP(DFT/SV(P)) printgap
|  2> %output
|  3>     printlevel normal
|  4> end
|  5> * xyz 0 1
|  6> C 2.6076879109 -4.1242920264 0.1097888342
|  7> C 2.5368173997 -2.6605746338 0.49538004
|  8> O 2.1683689368 -1.9109809815 -0.678963495
|  9> C 2.1250595491 -0.6027257703 -0.5996045182
| 10> O 2.3590890795 0.041729065 0.4040867409
| 11> C 1.7587490686 0.0415549211 -1.9244417329
| 12> C 0.5200035162 0.9274681597 -1.759115827
| 13> H 0.4249950879 1.5975437874 -2.6164035345
| 14> C 0.6062961758 1.7492053739 -0.4873546613
| 15> O -0.1678470786 1.5907919375 0.440517188
| 16> O 1.5583786942 2.630626233 -0.5352541768
| 17> C 1.7979261641 3.4480012885 0.6322503242
| 18> C 0.8178613294 4.6069274 0.7015080081
| 19> S -1.025392247 -0.0426456252 -1.7287428062
| 20> P -1.59794893 -0.3108861677 0.2812580806
| 21> S -0.4843733327 -1.0072682996 1.7540312595
| 22> O -2.6068274801 0.88957536 0.5751001039
| 23> C -3.4951045518 0.8245226903 1.700096626
| 24> O -2.7231095122 -1.4343300902 -0.0438327627
| 25> C -2.4027495359 -2.8142995384 -0.2131223354
| 26> H 1.6407015919 -4.4590336949 -0.2532642849
| 27> H 3.3481357827 -4.2687663405 -0.6711702719
| 28> H 2.8831424368 -4.7084076536 0.9812027955
| 29> H 3.4987243352 -2.2819777846 0.8545359216
| 30> H 1.7858005993 -2.474666215 1.2707343312
| 31> H 1.5731428179 -0.7279824805 -2.6716213066
| 32> H 2.5980773024 0.6703292504 -2.2280025609
| 33> H 1.7232005405 2.8087314903 1.5162595514
| 34> H 2.8227731205 3.7943484381 0.5021612893
| 35> H 0.8711711106 5.1978073008 -0.208632326
| 36> H -0.196843296 4.2351334795 0.8272586622
| 37> H 1.0686289415 5.2333865685 1.5509933628
| 38> H -3.9097188958 1.8246741382 1.797728347
| 39> H -2.9437396066 0.5491571227 2.6011977867
| 40> H -4.2805093561 0.0939280091 1.5087561145
| 41> H -1.6970049034 -3.1282504564 0.5594400057
| 42> H -1.9725272988 -2.9777580543 -1.20108188
| 43> H -3.3418119796 -3.3521963056 -0.1103241693
| 44> *
| 45>
| 46>                          ****END OF INPUT****

CARTESIAN COORDINATES (ANGSTROEM)
---------------------------------
  C      2.607688   -4.124292    0.109789
  C      2.536817   -2.660575    0.495380
  O      2.168369   -1.910981   -0.678963
  C      2.125060   -0.602726   -0.599605
  O      2.359089    0.041729    0.404087
  C      1.758749    0.041555   -1.924442
  C      0.520004    0.927468   -1.759116
  H      0.424995    1.597544   -2.616404
  C      0.606296    1.749205   -0.487355
  O     -0.167847    1.590792    0.440517
  O      1.558379    2.630626   -0.535254
  C      1.797926    3.448001    0.632250
  C      0.817861    4.606927    0.701508
  S     -1.025392   -0.042646   -1.728743
  P     -1.597949   -0.310886    0.281258
  S     -0.484373   -1.007268    1.754031
  O     -2.606827    0.889575    0.575100
  C     -3.495105    0.824523    1.700097
  O     -2.723110   -1.434330   -0.043833
  C     -2.402750   -2.814300   -0.213122
  H      1.640702   -4.459034   -0.253264
  H      3.348136   -4.268766   -0.671170
  H      2.883142   -4.708408    0.981203
  H      3.498724   -2.281978    0.854536
  H      1.785801   -2.474666    1.270734
  H      1.573143   -0.727982   -2.671621
  H      2.598077    0.670329   -2.228003
  H      1.723201    2.808731    1.516260
  H      2.822773    3.794348    0.502161
  H      0.871171    5.197807   -0.208632
  H     -0.196843    4.235133    0.827259
  H      1.068629    5.233387    1.550993
  H     -3.909719    1.824674    1.797728
  H     -2.943740    0.549157    2.601198
  H     -4.280509    0.093928    1.508756
  H     -1.697005   -3.128250    0.559440
  H     -1.972527   -2.977758   -1.201082
  H     -3.341812   -3.352196   -0.110324

 Total Charge           Charge          ....    0
 Multiplicity           Mult            ....    1
 Number of Electrons    NEL             ....  174
 Basis Dimension        Dim             ....  316

ORBITAL ENERGIES
----------------

  NO   OCC          E(Eh)            E(eV)
   0   2.0000     -88.035488     -2395.5674
   1   2.0000     -87.961354     -2393.5501
   2   2.0000     -76.414774     -2079.3517
   3   2.0000     -18.817612      -512.0533
   4   2.0000     -18.802866      -511.6520
   5   2.0000     -18.768733      -510.7232
   6   2.0000     -18.768314      -510.7118
   7   2.0000     -18.756961      -510.4029
   8   2.0000     -18.736867      -509.8561
   9   2.0000     -10.027759      -272.8692
  10   2.0000     -10.009931      -272.3841
  11   2.0000      -9.955415      -270.9006
  12   2.0000      -9.952674      -270.8260
  13   2.0000      -9.938582      -270.4426
  14   2.0000      -9.929799      -270.2036
  15   2.0000      -9.925792      -270.0945
  16   2.0000      -9.916669      -269.8463
  17   2.0000      -9.889487      -269.1066
  18   2.0000      -9.883957      -268.9561
  19   2.0000      -7.680762      -209.0042
  20   2.0000      -7.606331      -206.9788
  21   2.0000      -6.409792      -174.4193
  22   2.0000      -5.709034      -155.3507
  23   2.0000      -5.704931      -155.2391
  24   2.0000      -5.697593      -155.0394
  25   2.0000      -5.635404      -153.3471
  26   2.0000      -5.627491      -153.1318
  27   2.0000      -5.625739      -153.0841
  28   2.0000      -4.632808      -126.0651
  29   2.0000      -4.631654      -126.0337
  30   2.0000      -4.630308      -125.9971
  31   2.0000      -1.029405       -28.0115
  32   2.0000      -1.009443       -27.4683
  33   2.0000      -0.963690       -26.2233
  34   2.0000      -0.935146       -25.4466
  35   2.0000      -0.917392       -24.9635
  36   2.0000      -0.914208       -24.8769
  37   2.0000      -0.767973       -20.8976
  38   2.0000      -0.711926       -19.3725
  39   2.0000      -0.707531       -19.2529
  40   2.0000      -0.684406       -18.6236
  41   2.0000      -0.650150       -17.6915
  42   2.0000      -0.623191       -16.9579
  43   2.0000      -0.614519       -16.7219
  44   2.0000      -0.608740       -16.5647
  45   2.0000      -0.590164       -16.0592
  46   2.0000      -0.561851       -15.2887
  47   2.0000      -0.511349       -13.9145
  48   2.0000      -0.506195       -13.7743
  49   2.0000      -0.496947       -13.5226
  50   2.0000      -0.485448       -13.2097
  51   2.0000      -0.461920       -12.5695
  52   2.0000      -0.455961       -12.4073
  53   2.0000      -0.445970       -12.1355
  54   2.0000      -0.434764       -11.8305
  55   2.0000      -0.427287       -11.6271
  56   2.0000      -0.421727       -11.4758
  57   2.0000      -0.414198       -11.2709
  58   2.0000      -0.410147       -11.1607
  59   2.0000      -0.404881       -11.0174
  60   2.0000      -0.398115       -10.8332
  61   2.0000      -0.394558       -10.7365
  62   2.0000      -0.383432       -10.4337
  63   2.0000      -0.382769       -10.4157
  64   2.0000      -0.369324       -10.0498
  65   2.0000      -0.364164        -9.9094
  66   2.0000      -0.358231        -9.7480
  67   2.0000      -0.352883        -9.6024
  68   2.0000      -0.347749        -9.4627
  69   2.0000      -0.344406        -9.3718
  70   2.0000      -0.334721        -9.1082
  71   2.0000      -0.333826        -9.0839
  72   2.0000      -0.312578        -8.5057
  73   2.0000      -0.305700        -8.3185
  74   2.0000      -0.297798        -8.1035
  75   2.0000      -0.296336        -8.0637
  76   2.0000      -0.285387        -7.7658
  77   2.0000      -0.276312        -7.5188
  78   2.0000      -0.272317        -7.4101
  79   2.0000      -0.258175        -7.0253
  80   2.0000      -0.252902        -6.8818
  81   2.0000      -0.243912        -6.6372
  82   2.0000      -0.237903        -6.4737
  83   2.0000      -0.223083        -6.0704
  84   2.0000      -0.222802        -6.0628
  85   2.0000      -0.183248        -4.9864
  86   2.0000      -0.170577        -4.6416
  87   0.0000      -0.041282        -1.1233
  88   0.0000      -0.031903        -0.8681
  89   0.0000      -0.025097        -0.6829
  90   0.0000       0.004583         0.1247
  91   0.0000       0.035184         0.9574

MULLIKEN ATOMIC CHARGES
-----------------------
   0 C :   -0.274261
   1 C :   -0.041379
   2 O :   -0.217572
   3 C :    0.095740
   4 O :   -0.204691
   5 C :   -0.027601
   6 C :   -0.303549
   7 H :    0.148807
   8 C :    0.236653
   9 O :   -0.193716
  10 O :   -0.219103
  11 C :   -0.005154
  12 C :   -0.314145
  13 S :   -0.091694
  14 P :    0.651609
  15 S :   -0.344430
  16 O :   -0.379785
  17 C :   -0.090685
  18 O :   -0.407891
  19 C :   -0.097549
  20 H :    0.115789
  21 H :    0.109344
  22 H :    0.111297
  23 H :    0.099642
  24 H :    0.134433
  25 H :    0.114695
  26 H :    0.123853
  27 H :    0.130180
  28 H :    0.105662
  29 H :    0.112422
  30 H :    0.136550
  31 H :    0.117170
  32 H :    0.117624
  33 H :    0.113854
  34 H :    0.113681
  35 H :    0.107088
  36 H :    0.103519
  37 H :    0.113593
Sum of atomic charges:    0.0000000

LOEWDIN ATOMIC CHARGES
----------------------
   0 C :   -0.350186
   1 C :   -0.112603
   2 O :   -0.046035
   3 C :    0.024893
   4 O :   -0.157360
   5 C :   -0.246076
   6 C :   -0.259768
   7 H :    0.147871
   8 C :    0.028289
   9 O :   -0.138799
  10 O :   -0.033315
  11 C :   -0.101584
  12 C :   -0.358149
  13 S :    0.111630
  14 P :    0.585279
  15 S :   -0.328267
  16 O :   -0.255517
  17 C :   -0.209209
  18 O :   -0.277200
  19 C :   -0.224673
  20 H :    0.126797
  21 H :    0.123342
  22 H :    0.130988
  23 H :    0.114680
  24 H :    0.116981
  25 H :    0.135151
  26 H :    0.147369
  27 H :    0.131564
  28 H :    0.120592
  29 H :    0.124242
  30 H :    0.133620
  31 H :    0.133184
  32 H :    0.118808
  33 H :    0.111199
  34 H :    0.111184
  35 H :    0.100818
  36 H :    0.103859
  37 H :    0.116400

  Mayer bond orders larger than 0.100000
B(  0-C ,  1-C ) :   1.1549 B(  0-C , 20-H ) :   0.9490 B(  0-C , 21-H ) :   0.9508
B(  0-C , 22-H ) :   0.9443 B(  1-C ,  2-O ) :   0.8948 B(  1-C , 23-H ) :   0.9290
B(  1-C , 24-H ) :   0.9100 B(  2-O ,  3-C ) :   1.2689 B(  2-O ,  4-O ) :   0.1020
B(  3-C ,  4-O ) :   1.9746 B(  3-C ,  5-C ) :   1.0033 B(  5-C ,  6-C ) :   1.0248
B(  5-C , 25-H ) :   0.9051 B(  5-C , 26-H ) :   0.8769 B(  6-C ,  7-H ) :   0.8779
B(  6-C ,  8-C ) :   0.9095 B(  6-C , 13-S ) :   1.0278 B(  8-C ,  9-O ) :   1.8797
B(  8-C , 10-O ) :   1.2763 B(  9-O , 14-P ) :   0.1757 B( 10-O , 11-C ) :   0.8954
B( 11-C , 12-C ) :   1.1718 B( 11-C , 27-H ) :   0.9173 B( 11-C , 28-H ) :   0.9383
B( 12-C , 29-H ) :   0.9470 B( 12-C , 30-H ) :   0.9431 B( 12-C , 31-H ) :   0.9437
B( 13-S , 14-P ) :   0.9562 B( 13-S , 15-S ) :   0.1176 B( 14-P , 15-S ) :   1.5702
B( 14-P , 16-O ) :   1.0964 B( 14-P , 18-O ) :   1.0106 B( 16-O , 17-C ) :   0.9352
B( 17-C , 32-H ) :   0.9596 B( 17-C , 33-H ) :   0.9356 B( 17-C , 34-H ) :   0.9497
B( 18-O , 19-C ) :   0.9500 B( 19-C , 35-H ) :   0.9226 B( 19-C , 36-H ) :   0.9499
B( 19-C , 37-H ) :   0.9588

Dispersion correction           -0.053270420
FINAL SINGLE POINT ENERGY     -1979.007132917392

DIPOLE MOMENT
-------------

Method             : SCF
Type of density    : Electron Density
Multiplicity       :   1
Irrep              :   0
Energy             : -1979.1364126451580887 Eh
Relativity type    :
Basis              : AO
                                X                 Y                 Z
Electronic contribution:     -6.408457501       2.293292345      -4.220615538
Nuclear contribution   :      7.011968099      -1.892277643       3.512205175
                        -----------------------------------------
Total Dipole Moment    :      0.603510598       0.401014702      -0.708410363
                        -----------------------------------------
Magnitude (a.u.)       :      1.013352395
Magnitude (Debye)      :      2.575737090

Rotational constants in cm-1:             0.010579             0.009845             0.006592
Rotational constants in MHz :           317.151838           295.147129           197.635273

                             ****ORCA TERMINATED NORMALLY****
TOTAL RUN TIME: 0 days 0 hours 0 minutes 38 seconds 480 msec
