                         Program Version 6.0.0  -   RELEASE  -
|  1> ! pbe def2-sv(p) def2/J RI DEFGRID1 loosescf d4 GCP(DFT/SV(P)) printgap
|  2> %output
|  3>     printlevel normal
|  4> end
|  5> * xyz 0 1
|  6> C 4.392461453 -1.5972078785 -0.8307042448
|  7> C 4.6094512436 -0.1045199153 -0.6903923901
|  8> O 3.5651385199 0.5383560117 0.0615669269
|  9> P 2.0610544132 0.6235642693 -0.4568413464
| 10> S 1.8903862409 0.8797595039 -2.3912251274
| 11> O 1.5105153346 1.8348698778 0.3932321176
| 12> C 1.9767862506 2.2184926044 1.7096830672
| 13> C 1.7834289871 1.1226993264 2.7360721583
| 14> S 1.171596699 -1.1513351353 0.3104055352
| 15> C 0.0802492746 -1.617768057 -1.0675446747
| 16> S -1.6336437209 -1.8518484647 -0.5524467582
| 17> P -2.0217066828 0.1129933762 0.1604800583
| 18> S -1.3578888189 1.5345750679 -1.017756901
| 19> O -1.4515201392 0.247112825 1.6236039153
| 20> C -1.9959533054 -0.3987351649 2.8079180677
| 21> C -1.5206352839 -1.8311223033 2.9441268713
| 22> O -3.5876698103 0.1233568104 0.4239093192
| 23> C -4.5545535308 0.2226662809 -0.6393433243
| 24> C -5.059649482 -1.1459816796 -1.0520126694
| 25> H 4.2171937585 -2.0508391407 0.1413456777
| 26> H 3.5329771051 -1.7865372052 -1.4719929947
| 27> H 5.2720240373 -2.0423319235 -1.2845103384
| 28> H 4.6631155675 0.3680495551 -1.6759657214
| 29> H 5.511605933 0.1202139384 -0.1195133053
| 30> H 3.02803907 2.502515061 1.6280378508
| 31> H 1.3693983651 3.0963230027 1.9372527813
| 32> H 2.4101786238 0.2655694577 2.4953740972
| 33> H 2.0573526658 1.5014786069 3.7157332626
| 34> H 0.743768692 0.8067439268 2.7475249853
| 35> H 0.4051334895 -2.577951579 -1.4604450004
| 36> H 0.1398954101 -0.8374711083 -1.8320643071
| 37> H -1.624431917 0.2234517018 3.624249218
| 38> H -3.0839151234 -0.3394654727 2.7655559596
| 39> H -0.439858617 -1.8823101915 2.8342436528
| 40> H -1.7974050243 -2.197570805 3.9277121552
| 41> H -1.9783528984 -2.464435132 2.1888904684
| 42> H -5.3589164591 0.8302995171 -0.2201062426
| 43> H -4.100080491 0.7561089725 -1.4805788696
| 44> H -5.4648576331 -1.6681812976 -0.1901491597
| 45> H -5.840210602 -1.0230169391 -1.7959660357
| 46> H -4.2546197328 -1.7413060939 -1.4761127951
| 47> *
| 48>
| 49>                          ****END OF INPUT****

CARTESIAN COORDINATES (ANGSTROEM)
---------------------------------
  C      4.392461   -1.597208   -0.830704
  C      4.609451   -0.104520   -0.690392
  O      3.565139    0.538356    0.061567
  P      2.061054    0.623564   -0.456841
  S      1.890386    0.879760   -2.391225
  O      1.510515    1.834870    0.393232
  C      1.976786    2.218493    1.709683
  C      1.783429    1.122699    2.736072
  S      1.171597   -1.151335    0.310406
  C      0.080249   -1.617768   -1.067545
  S     -1.633644   -1.851848   -0.552447
  P     -2.021707    0.112993    0.160480
  S     -1.357889    1.534575   -1.017757
  O     -1.451520    0.247113    1.623604
  C     -1.995953   -0.398735    2.807918
  C     -1.520635   -1.831122    2.944127
  O     -3.587670    0.123357    0.423909
  C     -4.554554    0.222666   -0.639343
  C     -5.059649   -1.145982   -1.052013
  H      4.217194   -2.050839    0.141346
  H      3.532977   -1.786537   -1.471993
  H      5.272024   -2.042332   -1.284510
  H      4.663116    0.368050   -1.675966
  H      5.511606    0.120214   -0.119513
  H      3.028039    2.502515    1.628038
  H      1.369398    3.096323    1.937253
  H      2.410179    0.265569    2.495374
  H      2.057353    1.501479    3.715733
  H      0.743769    0.806744    2.747525
  H      0.405133   -2.577952   -1.460445
  H      0.139895   -0.837471   -1.832064
  H     -1.624432    0.223452    3.624249
  H     -3.083915   -0.339465    2.765556
  H     -0.439859   -1.882310    2.834244
  H     -1.797405   -2.197571    3.927712
  H     -1.978353   -2.464435    2.188890
  H     -5.358916    0.830300   -0.220106
  H     -4.100080    0.756109   -1.480579
  H     -5.464858   -1.668181   -0.190149
  H     -5.840211   -1.023017   -1.795966
  H     -4.254620   -1.741306   -1.476113

 Total Charge           Charge          ....    0
 Multiplicity           Mult            ....    1
 Number of Electrons    NEL             ....  202
 Basis Dimension        Dim             ....  334

ORBITAL ENERGIES
----------------

  NO   OCC          E(Eh)            E(eV)
   0   2.0000     -88.041500     -2395.7310
   1   2.0000     -88.037857     -2395.6319
   2   2.0000     -87.977956     -2394.0019
   3   2.0000     -87.974383     -2393.9047
   4   2.0000     -76.422088     -2079.5507
   5   2.0000     -76.421104     -2079.5239
   6   2.0000     -18.793733      -511.4035
   7   2.0000     -18.789565      -511.2901
   8   2.0000     -18.789370      -511.2847
   9   2.0000     -18.780262      -511.0369
  10   2.0000      -9.956702      -270.9356
  11   2.0000      -9.953340      -270.8442
  12   2.0000      -9.950254      -270.7602
  13   2.0000      -9.950222      -270.7593
  14   2.0000      -9.949789      -270.7475
  15   2.0000      -9.886504      -269.0254
  16   2.0000      -9.885350      -268.9941
  17   2.0000      -9.884076      -268.9594
  18   2.0000      -9.881779      -268.8969
  19   2.0000      -7.686416      -209.1580
  20   2.0000      -7.682211      -209.0436
  21   2.0000      -7.623113      -207.4354
  22   2.0000      -7.619318      -207.3322
  23   2.0000      -6.419401      -174.6808
  24   2.0000      -6.418169      -174.6473
  25   2.0000      -5.714216      -155.4917
  26   2.0000      -5.710800      -155.3988
  27   2.0000      -5.710119      -155.3802
  28   2.0000      -5.706780      -155.2894
  29   2.0000      -5.703598      -155.2028
  30   2.0000      -5.699149      -155.0817
  31   2.0000      -5.652202      -153.8042
  32   2.0000      -5.648394      -153.7006
  33   2.0000      -5.643579      -153.5696
  34   2.0000      -5.643216      -153.5597
  35   2.0000      -5.640074      -153.4742
  36   2.0000      -5.639211      -153.4507
  37   2.0000      -4.642460      -126.3278
  38   2.0000      -4.641187      -126.2931
  39   2.0000      -4.641138      -126.2918
  40   2.0000      -4.639586      -126.2495
  41   2.0000      -4.639415      -126.2449
  42   2.0000      -4.638634      -126.2236
  43   2.0000      -0.987440       -26.8696
  44   2.0000      -0.981911       -26.7192
  45   2.0000      -0.943124       -25.6637
  46   2.0000      -0.936208       -25.4755
  47   2.0000      -0.759337       -20.6626
  48   2.0000      -0.717227       -19.5167
  49   2.0000      -0.708366       -19.2756
  50   2.0000      -0.690991       -18.8028
  51   2.0000      -0.687111       -18.6972
  52   2.0000      -0.676138       -18.3986
  53   2.0000      -0.646193       -17.5838
  54   2.0000      -0.627457       -17.0740
  55   2.0000      -0.595776       -16.2119
  56   2.0000      -0.588165       -16.0048
  57   2.0000      -0.577216       -15.7069
  58   2.0000      -0.574958       -15.6454
  59   2.0000      -0.556490       -15.1429
  60   2.0000      -0.500265       -13.6129
  61   2.0000      -0.490498       -13.3471
  62   2.0000      -0.475909       -12.9502
  63   2.0000      -0.464298       -12.6342
  64   2.0000      -0.448247       -12.1974
  65   2.0000      -0.447495       -12.1769
  66   2.0000      -0.441484       -12.0134
  67   2.0000      -0.440524       -11.9873
  68   2.0000      -0.428353       -11.6561
  69   2.0000      -0.420000       -11.4288
  70   2.0000      -0.407076       -11.0771
  71   2.0000      -0.396562       -10.7910
  72   2.0000      -0.395380       -10.7588
  73   2.0000      -0.382797       -10.4164
  74   2.0000      -0.380902       -10.3649
  75   2.0000      -0.365696        -9.9511
  76   2.0000      -0.363725        -9.8975
  77   2.0000      -0.357382        -9.7249
  78   2.0000      -0.353824        -9.6281
  79   2.0000      -0.350494        -9.5374
  80   2.0000      -0.348187        -9.4746
  81   2.0000      -0.345864        -9.4114
  82   2.0000      -0.336964        -9.1693
  83   2.0000      -0.334954        -9.1146
  84   2.0000      -0.332245        -9.0409
  85   2.0000      -0.321116        -8.7380
  86   2.0000      -0.307636        -8.3712
  87   2.0000      -0.299937        -8.1617
  88   2.0000      -0.291685        -7.9372
  89   2.0000      -0.289994        -7.8911
  90   2.0000      -0.288587        -7.8529
  91   2.0000      -0.273265        -7.4359
  92   2.0000      -0.266064        -7.2400
  93   2.0000      -0.259715        -7.0672
  94   2.0000      -0.252864        -6.8808
  95   2.0000      -0.230233        -6.2650
  96   2.0000      -0.217113        -5.9079
  97   2.0000      -0.208814        -5.6821
  98   2.0000      -0.194988        -5.3059
  99   2.0000      -0.186302        -5.0695
 100   2.0000      -0.178851        -4.8668
 101   0.0000      -0.040596        -1.1047
 102   0.0000      -0.032910        -0.8955
 103   0.0000      -0.004537        -0.1235
 104   0.0000       0.011539         0.3140
 105   0.0000       0.017291         0.4705

MULLIKEN ATOMIC CHARGES
-----------------------
   0 C :   -0.310926
   1 C :    0.003411
   2 O :   -0.390239
   3 P :    0.626111
   4 S :   -0.296009
   5 O :   -0.350521
   6 C :    0.017303
   7 C :   -0.366766
   8 S :   -0.126847
   9 C :   -0.341084
  10 S :   -0.121896
  11 P :    0.604942
  12 S :   -0.279742
  13 O :   -0.358084
  14 C :   -0.010412
  15 C :   -0.311648
  16 O :   -0.385556
  17 C :   -0.003728
  18 C :   -0.307455
  19 H :    0.115353
  20 H :    0.120023
  21 H :    0.111061
  22 H :    0.112050
  23 H :    0.101060
  24 H :    0.105738
  25 H :    0.111127
  26 H :    0.121115
  27 H :    0.110175
  28 H :    0.159685
  29 H :    0.177223
  30 H :    0.210290
  31 H :    0.109018
  32 H :    0.115678
  33 H :    0.126727
  34 H :    0.108604
  35 H :    0.124891
  36 H :    0.107286
  37 H :    0.106735
  38 H :    0.111559
  39 H :    0.113695
  40 H :    0.130052
Sum of atomic charges:    0.0000000

LOEWDIN ATOMIC CHARGES
----------------------
   0 C :   -0.370815
   1 C :   -0.117175
   2 O :   -0.250977
   3 P :    0.578415
   4 S :   -0.294854
   5 O :   -0.229900
   6 C :   -0.104739
   7 C :   -0.377040
   8 S :    0.073727
   9 C :   -0.482018
  10 S :    0.072532
  11 P :    0.557096
  12 S :   -0.288854
  13 O :   -0.234852
  14 C :   -0.110383
  15 C :   -0.370192
  16 O :   -0.248346
  17 C :   -0.117400
  18 C :   -0.365828
  19 H :    0.122062
  20 H :    0.119300
  21 H :    0.129816
  22 H :    0.112036
  23 H :    0.116655
  24 H :    0.112460
  25 H :    0.124116
  26 H :    0.116034
  27 H :    0.129976
  28 H :    0.130833
  29 H :    0.134139
  30 H :    0.125903
  31 H :    0.117578
  32 H :    0.113955
  33 H :    0.124810
  34 H :    0.128818
  35 H :    0.117909
  36 H :    0.119673
  37 H :    0.109945
  38 H :    0.124115
  39 H :    0.132072
  40 H :    0.119399

  Mayer bond orders larger than 0.100000
B(  0-C ,  1-C ) :   1.1674 B(  0-C , 19-H ) :   0.9433 B(  0-C , 20-H ) :   0.9358
B(  0-C , 21-H ) :   0.9370 B(  1-C ,  2-O ) :   0.9103 B(  1-C , 22-H ) :   0.9161
B(  1-C , 23-H ) :   0.9344 B(  2-O ,  3-P ) :   1.0615 B(  3-P ,  4-S ) :   1.6233
B(  3-P ,  5-O ) :   1.1378 B(  3-P ,  8-S ) :   0.9387 B(  4-S ,  8-S ) :   0.1170
B(  5-O ,  6-C ) :   0.9060 B(  6-C ,  7-C ) :   1.1705 B(  6-C , 24-H ) :   0.9284
B(  6-C , 25-H ) :   0.9316 B(  7-C , 26-H ) :   0.9351 B(  7-C , 27-H ) :   0.9346
B(  7-C , 28-H ) :   0.9219 B(  8-S ,  9-C ) :   1.0009 B(  9-C , 10-S ) :   1.0009
B(  9-C , 29-H ) :   0.9095 B(  9-C , 30-H ) :   0.8426 B( 10-S , 11-P ) :   0.9335
B( 10-S , 12-S ) :   0.1090 B( 11-P , 12-S ) :   1.6874 B( 11-P , 13-O ) :   1.1202
B( 11-P , 16-O ) :   1.0780 B( 13-O , 14-C ) :   0.8879 B( 14-C , 15-C ) :   1.1732
B( 14-C , 31-H ) :   0.9299 B( 14-C , 32-H ) :   0.9225 B( 15-C , 33-H ) :   0.9428
B( 15-C , 34-H ) :   0.9366 B( 15-C , 35-H ) :   0.9341 B( 16-O , 17-C ) :   0.9030
B( 17-C , 18-C ) :   1.1669 B( 17-C , 36-H ) :   0.9352 B( 17-C , 37-H ) :   0.9037
B( 18-C , 38-H ) :   0.9484 B( 18-C , 39-H ) :   0.9396 B( 18-C , 40-H ) :   0.9323

Dispersion correction           -0.068508734
FINAL SINGLE POINT ENERGY     -2929.510458268182

DIPOLE MOMENT
-------------

Method             : SCF
Type of density    : Electron Density
Multiplicity       :   1
Irrep              :   0
Energy             : -2929.6286502088842099 Eh
Relativity type    :
Basis              : AO
                                X                 Y                 Z
Electronic contribution:      0.437407505       9.093024671     -12.885273326
Nuclear contribution   :     -0.592022356     -10.114122076      14.478731323
                        -----------------------------------------
Total Dipole Moment    :     -0.154614851      -1.021097404       1.593457997
                        -----------------------------------------
Magnitude (a.u.)       :      1.898855984
Magnitude (Debye)      :      4.826508343

Rotational constants in cm-1:             0.012999             0.005401             0.005088
Rotational constants in MHz :           389.710747           161.932192           152.545568

                             ****ORCA TERMINATED NORMALLY****
TOTAL RUN TIME: 0 days 0 hours 0 minutes 21 seconds 983 msec
