                         Program Version 6.0.0  -   RELEASE  -
|  1> ! r2scan-3c def2/J RI DEFGRID2 scfconv6 printgap
|  2> %output
|  3>     printlevel normal
|  4> end
|  5> * xyz 0 1
|  6> C -1.7444179496 -0.6656238423 0.0010472639
|  7> C -0.4674250801 0.1186775952 -0.0025031347
|  8> O -0.3897064291 1.3298172716 0.000486828
|  9> O 0.5922245471 -0.6844369067 -0.0006188271
| 10> C 1.8985196943 -0.1027768506 0.0006363095
| 11> H -2.5897388118 0.0134603789 -0.029440729
| 12> H -1.784153649 -1.2762243946 0.8991296111
| 13> H -1.7590112878 -1.3297982969 -0.8586157556
| 14> H 1.8534564371 0.9128184561 0.3956850477
| 15> H 2.2786163258 -0.0838029139 -1.020578791
| 16> H 2.5197845639 -0.7386332935 0.6256818703
| 17> *
| 18>
| 19>                          ****END OF INPUT****

CARTESIAN COORDINATES (ANGSTROEM)
---------------------------------
  C     -1.744418   -0.665624    0.001047
  C     -0.467425    0.118678   -0.002503
  O     -0.389706    1.329817    0.000487
  O      0.592225   -0.684437   -0.000619
  C      1.898520   -0.102777    0.000636
  H     -2.589739    0.013460   -0.029441
  H     -1.784154   -1.276224    0.899130
  H     -1.759011   -1.329798   -0.858616
  H      1.853456    0.912818    0.395685
  H      2.278616   -0.083803   -1.020579
  H      2.519785   -0.738633    0.625682

 Total Charge           Charge          ....    0
 Multiplicity           Mult            ....    1
 Number of Electrons    NEL             ....   40
 Basis Dimension        Dim             ....  135

ORBITAL ENERGIES
----------------

  NO   OCC          E(Eh)            E(eV)
   0   2.0000     -18.999791      -517.0106
   1   2.0000     -18.930271      -515.1189
   2   2.0000     -10.157710      -276.4053
   3   2.0000     -10.086528      -274.4684
   4   2.0000     -10.040716      -273.2218
   5   2.0000      -1.073693       -29.2167
   6   2.0000      -0.977558       -26.6007
   7   2.0000      -0.741054       -20.1651
   8   2.0000      -0.674042       -18.3416
   9   2.0000      -0.537682       -14.6311
  10   2.0000      -0.466080       -12.6827
  11   2.0000      -0.459025       -12.4907
  12   2.0000      -0.443731       -12.0745
  13   2.0000      -0.405858       -11.0439
  14   2.0000      -0.385733       -10.4963
  15   2.0000      -0.374512       -10.1910
  16   2.0000      -0.343238        -9.3400
  17   2.0000      -0.319557        -8.6956
  18   2.0000      -0.274303        -7.4642
  19   2.0000      -0.239059        -6.5051
  20   0.0000      -0.014789        -0.4024
  21   0.0000       0.068112         1.8534
  22   0.0000       0.093814         2.5528
  23   0.0000       0.125780         3.4227
  24   0.0000       0.145791         3.9672

MULLIKEN ATOMIC CHARGES
-----------------------
   0 C :   -0.507416
   1 C :    0.431260
   2 O :   -0.434000
   3 O :   -0.190489
   4 C :   -0.291242
   5 H :    0.176979
   6 H :    0.167731
   7 H :    0.166672
   8 H :    0.182361
   9 H :    0.149977
  10 H :    0.148165
Sum of atomic charges:    0.0000000

LOEWDIN ATOMIC CHARGES
----------------------
   0 C :   -0.335150
   1 C :    0.351263
   2 O :   -0.434711
   3 O :   -0.604504
   4 C :   -0.045584
   5 H :    0.174603
   6 H :    0.178942
   7 H :    0.178346
   8 H :    0.189864
   9 H :    0.172177
  10 H :    0.174754

  Mayer bond orders larger than 0.100000
B(  0-C ,  1-C ) :   0.9668 B(  0-C ,  5-H ) :   0.9865 B(  0-C ,  6-H ) :   0.9477
B(  0-C ,  7-H ) :   0.9515 B(  1-C ,  2-O ) :   1.8418 B(  1-C ,  3-O ) :   1.0585
B(  3-O ,  4-C ) :   0.8416 B(  4-C ,  8-H ) :   0.9657 B(  4-C ,  9-H ) :   0.9612
B(  4-C , 10-H ) :   0.9689

Dispersion correction           -0.002014514
FINAL SINGLE POINT ENERGY      -268.332411186987

DIPOLE MOMENT
-------------

Method             : SCF
Type of density    : Electron Density
Multiplicity       :   1
Irrep              :   0
Energy             :  -268.3385770823602456 Eh
Relativity type    :
Basis              : AO
                                X                 Y                 Z
Electronic contribution:     -0.247877547       1.557075484      -0.004132324
Nuclear contribution   :      0.489875345      -2.337897209       0.011125955
                        -----------------------------------------
Total Dipole Moment    :      0.241997798      -0.780821725       0.006993631
                        -----------------------------------------
Magnitude (a.u.)       :      0.817492759
Magnitude (Debye)      :      2.077901461

Rotational constants in cm-1:             0.341348             0.138342             0.102218
Rotational constants in MHz :         10233.341622          4147.380708          3064.428300

                             ****ORCA TERMINATED NORMALLY****
TOTAL RUN TIME: 0 days 0 hours 0 minutes 10 seconds 164 msec
