                         Program Version 6.0.0  -   RELEASE  -
|  1> ! r2scan-3c def2/J RI DEFGRID2 scfconv6 printgap
|  2> %output
|  3>     printlevel normal
|  4> end
|  5> %cpcm
|  6>     smd true
|  7>     smdsolvent "water"
|  8> end
|  9> * xyz 0 1
| 10> C -1.7444179496 -0.6656238423 0.0010472639
| 11> C -0.4674250801 0.1186775952 -0.0025031347
| 12> O -0.3897064291 1.3298172716 0.000486828
| 13> O 0.5922245471 -0.6844369067 -0.0006188271
| 14> C 1.8985196943 -0.1027768506 0.0006363095
| 15> H -2.5897388118 0.0134603789 -0.029440729
| 16> H -1.784153649 -1.2762243946 0.8991296111
| 17> H -1.7590112878 -1.3297982969 -0.8586157556
| 18> H 1.8534564371 0.9128184561 0.3956850477
| 19> H 2.2786163258 -0.0838029139 -1.020578791
| 20> H 2.5197845639 -0.7386332935 0.6256818703
| 21> *
| 22>
| 23>                          ****END OF INPUT****

CARTESIAN COORDINATES (ANGSTROEM)
---------------------------------
  C     -1.744418   -0.665624    0.001047
  C     -0.467425    0.118678   -0.002503
  O     -0.389706    1.329817    0.000487
  O      0.592225   -0.684437   -0.000619
  C      1.898520   -0.102777    0.000636
  H     -2.589739    0.013460   -0.029441
  H     -1.784154   -1.276224    0.899130
  H     -1.759011   -1.329798   -0.858616
  H      1.853456    0.912818    0.395685
  H      2.278616   -0.083803   -1.020579
  H      2.519785   -0.738633    0.625682

 Total Charge           Charge          ....    0
 Multiplicity           Mult            ....    1
 Number of Electrons    NEL             ....   40
 Basis Dimension        Dim             ....  135

ORBITAL ENERGIES
----------------

  NO   OCC          E(Eh)            E(eV)
   0   2.0000     -19.003590      -517.1140
   1   2.0000     -18.944169      -515.4971
   2   2.0000     -10.166087      -276.6333
   3   2.0000     -10.075441      -274.1667
   4   2.0000     -10.030669      -272.9484
   5   2.0000      -1.079025       -29.3618
   6   2.0000      -0.989437       -26.9240
   7   2.0000      -0.736092       -20.0301
   8   2.0000      -0.665814       -18.1177
   9   2.0000      -0.534533       -14.5454
  10   2.0000      -0.466234       -12.6869
  11   2.0000      -0.457289       -12.4435
  12   2.0000      -0.454259       -12.3610
  13   2.0000      -0.396019       -10.7762
  14   2.0000      -0.385309       -10.4848
  15   2.0000      -0.365337        -9.9413
  16   2.0000      -0.342619        -9.3231
  17   2.0000      -0.320973        -8.7341
  18   2.0000      -0.279765        -7.6128
  19   2.0000      -0.254229        -6.9179
  20   0.0000      -0.020826        -0.5667
  21   0.0000       0.074565         2.0290
  22   0.0000       0.102747         2.7959
  23   0.0000       0.140322         3.8184
  24   0.0000       0.154037         4.1916

MULLIKEN ATOMIC CHARGES
-----------------------
   0 C :   -0.545536
   1 C :    0.473690
   2 O :   -0.521271
   3 O :   -0.205649
   4 C :   -0.311944
   5 H :    0.185018
   6 H :    0.197531
   7 H :    0.195579
   8 H :    0.180392
   9 H :    0.177460
  10 H :    0.174729
Sum of atomic charges:    0.0000000

LOEWDIN ATOMIC CHARGES
----------------------
   0 C :   -0.334271
   1 C :    0.362151
   2 O :   -0.497419
   3 O :   -0.606479
   4 C :   -0.041543
   5 H :    0.178311
   6 H :    0.190920
   7 H :    0.190146
   8 H :    0.189434
   9 H :    0.182390
  10 H :    0.186361

  Mayer bond orders larger than 0.100000
B(  0-C ,  1-C ) :   0.9650 B(  0-C ,  5-H ) :   0.9797 B(  0-C ,  6-H ) :   0.9360
B(  0-C ,  7-H ) :   0.9396 B(  1-C ,  2-O ) :   1.7740 B(  1-C ,  3-O ) :   1.0856
B(  3-O ,  4-C ) :   0.8271 B(  4-C ,  8-H ) :   0.9622 B(  4-C ,  9-H ) :   0.9531
B(  4-C , 10-H ) :   0.9594

Dispersion correction           -0.002014514
FINAL SINGLE POINT ENERGY      -268.337516517334

DIPOLE MOMENT
-------------

Method             : SCF
Type of density    : Electron Density
Multiplicity       :   1
Irrep              :   0
Energy             :  -268.3436824127068121 Eh
Relativity type    :
Basis              : AO
                                X                 Y                 Z
Electronic contribution:     -0.172898658       1.228005068      -0.004825318
Nuclear contribution   :      0.489875345      -2.337897209       0.011125955
                        -----------------------------------------
Total Dipole Moment    :      0.316976688      -1.109892141       0.006300637
                        -----------------------------------------
Magnitude (a.u.)       :      1.154285269
Magnitude (Debye)      :      2.933959989

Rotational constants in cm-1:             0.341348             0.138342             0.102218
Rotational constants in MHz :         10233.341622          4147.380708          3064.428300

                             ****ORCA TERMINATED NORMALLY****
TOTAL RUN TIME: 0 days 0 hours 0 minutes 12 seconds 777 msec
