                         Program Version 6.0.0  -   RELEASE  -
|  1> ! pbe def2-sv(p) def2/J RI DEFGRID1 loosescf d4 GCP(DFT/SV(P)) printgap
|  2> %output
|  3>     printlevel normal
|  4> end
|  5> * xyz 0 1
|  6> C 4.7848138702 -2.1810651484 -0.1599392999
|  7> C 4.1485028248 -1.7183094073 -1.4554997736
|  8> O 2.7270268848 -1.5458042032 -1.3065155699
|  9> P 2.0724179808 -0.2843244473 -0.5866496888
| 10> S 3.2224183681 1.2933542671 -0.4053237254
| 11> O 1.4627398689 -0.8458840827 0.7708219552
| 12> C 2.0252151039 -0.6329738293 2.0820347033
| 13> C 0.9165480205 -0.2833853367 3.0551163483
| 14> S 0.3680191193 -0.1472783794 -1.8072880692
| 15> C -0.1119290732 1.5362305131 -1.3233638816
| 16> S -0.5823091418 1.6551835128 0.4162482429
| 17> P -2.24980038 0.343526503 0.3113017161
| 18> S -3.3014332111 0.4402199516 -1.3463137485
| 19> O -2.9925576725 0.6209425152 1.6834953251
| 20> C -3.3407810289 1.9187754749 2.2002957773
| 21> C -4.1737518487 2.7329321084 1.2316782903
| 22> O -1.6995559674 -1.101540481 0.6538778366
| 23> C -1.9634640473 -2.2813345057 -0.1334827712
| 24> C -0.7724248669 -3.2134165791 -0.045335504
| 25> H 4.2966223039 -3.0841802843 0.196941647
| 26> H 5.8378404601 -2.3835739188 -0.3280259016
| 27> H 4.6914461376 -1.401422316 0.5956417986
| 28> H 4.2455028122 -2.4646426301 -2.2448472197
| 29> H 4.5859827267 -0.7702663061 -1.7830603242
| 30> H 2.517869308 -1.5657253099 2.3670477274
| 31> H 2.7670243566 0.1710569482 2.023094069
| 32> H 1.314231069 -0.2965189978 4.0647191643
| 33> H 0.5190303445 0.7050971315 2.8407038384
| 34> H 0.1096126785 -1.0070148436 2.9738467129
| 35> H -0.9603428737 1.8042940818 -1.9530351495
| 36> H 0.7262067847 2.2166181907 -1.4700238562
| 37> H -3.8978472482 1.6890775561 3.1103340587
| 38> H -2.417148485 2.4462662365 2.4544850625
| 39> H -4.4874953582 3.6540396575 1.7121266109
| 40> H -3.5903100121 2.9763610695 0.3449725647
| 41> H -5.0516458331 2.1710776862 0.9216122647
| 42> H -2.8591524317 -2.750341984 0.2813427805
| 43> H -2.1644929225 -1.9852184539 -1.1687646631
| 44> H -0.5638771651 -3.452362825 0.9934346978
| 45> H -1.0002656067 -4.1254293657 -0.5876216383
| 46> H 0.1092724035 -2.7513515605 -0.4833394533
| 47> *
| 48>
| 49>                          ****END OF INPUT****

CARTESIAN COORDINATES (ANGSTROEM)
---------------------------------
  C      4.784814   -2.181065   -0.159939
  C      4.148503   -1.718309   -1.455500
  O      2.727027   -1.545804   -1.306516
  P      2.072418   -0.284324   -0.586650
  S      3.222418    1.293354   -0.405324
  O      1.462740   -0.845884    0.770822
  C      2.025215   -0.632974    2.082035
  C      0.916548   -0.283385    3.055116
  S      0.368019   -0.147278   -1.807288
  C     -0.111929    1.536231   -1.323364
  S     -0.582309    1.655184    0.416248
  P     -2.249800    0.343527    0.311302
  S     -3.301433    0.440220   -1.346314
  O     -2.992558    0.620943    1.683495
  C     -3.340781    1.918775    2.200296
  C     -4.173752    2.732932    1.231678
  O     -1.699556   -1.101540    0.653878
  C     -1.963464   -2.281335   -0.133483
  C     -0.772425   -3.213417   -0.045336
  H      4.296622   -3.084180    0.196942
  H      5.837840   -2.383574   -0.328026
  H      4.691446   -1.401422    0.595642
  H      4.245503   -2.464643   -2.244847
  H      4.585983   -0.770266   -1.783060
  H      2.517869   -1.565725    2.367048
  H      2.767024    0.171057    2.023094
  H      1.314231   -0.296519    4.064719
  H      0.519030    0.705097    2.840704
  H      0.109613   -1.007015    2.973847
  H     -0.960343    1.804294   -1.953035
  H      0.726207    2.216618   -1.470024
  H     -3.897847    1.689078    3.110334
  H     -2.417148    2.446266    2.454485
  H     -4.487495    3.654040    1.712127
  H     -3.590310    2.976361    0.344973
  H     -5.051646    2.171078    0.921612
  H     -2.859152   -2.750342    0.281343
  H     -2.164493   -1.985218   -1.168765
  H     -0.563877   -3.452363    0.993435
  H     -1.000266   -4.125429   -0.587622
  H      0.109272   -2.751352   -0.483339

 Total Charge           Charge          ....    0
 Multiplicity           Mult            ....    1
 Number of Electrons    NEL             ....  202
 Basis Dimension        Dim             ....  334

ORBITAL ENERGIES
----------------

  NO   OCC          E(Eh)            E(eV)
   0   2.0000     -88.044343     -2395.8084
   1   2.0000     -88.044317     -2395.8077
   2   2.0000     -87.993138     -2394.4150
   3   2.0000     -87.985717     -2394.2131
   4   2.0000     -76.428740     -2079.7317
   5   2.0000     -76.426988     -2079.6841
   6   2.0000     -18.794734      -511.4307
   7   2.0000     -18.792876      -511.3801
   8   2.0000     -18.789676      -511.2931
   9   2.0000     -18.784884      -511.1627
  10   2.0000      -9.958006      -270.9711
  11   2.0000      -9.956290      -270.9244
  12   2.0000      -9.956046      -270.9178
  13   2.0000      -9.951416      -270.7918
  14   2.0000      -9.943847      -270.5858
  15   2.0000      -9.890479      -269.1336
  16   2.0000      -9.882858      -268.9262
  17   2.0000      -9.880531      -268.8629
  18   2.0000      -9.876766      -268.7605
  19   2.0000      -7.689452      -209.2406
  20   2.0000      -7.689092      -209.2308
  21   2.0000      -7.638086      -207.8429
  22   2.0000      -7.630710      -207.6422
  23   2.0000      -6.426283      -174.8680
  24   2.0000      -6.423925      -174.8039
  25   2.0000      -5.717340      -155.5767
  26   2.0000      -5.716874      -155.5641
  27   2.0000      -5.714147      -155.4899
  28   2.0000      -5.713582      -155.4745
  29   2.0000      -5.706186      -155.2732
  30   2.0000      -5.706179      -155.2730
  31   2.0000      -5.666841      -154.2026
  32   2.0000      -5.659578      -154.0049
  33   2.0000      -5.658951      -153.9879
  34   2.0000      -5.658164      -153.9665
  35   2.0000      -5.651324      -153.7803
  36   2.0000      -5.650941      -153.7699
  37   2.0000      -4.648671      -126.4968
  38   2.0000      -4.647845      -126.4743
  39   2.0000      -4.647121      -126.4546
  40   2.0000      -4.646283      -126.4318
  41   2.0000      -4.645921      -126.4219
  42   2.0000      -4.644428      -126.3813
  43   2.0000      -0.985250       -26.8100
  44   2.0000      -0.984184       -26.7810
  45   2.0000      -0.945715       -25.7342
  46   2.0000      -0.941204       -25.6115
  47   2.0000      -0.768059       -20.9000
  48   2.0000      -0.724633       -19.7183
  49   2.0000      -0.710185       -19.3251
  50   2.0000      -0.689081       -18.7509
  51   2.0000      -0.683522       -18.5996
  52   2.0000      -0.672946       -18.3118
  53   2.0000      -0.651737       -17.7347
  54   2.0000      -0.640946       -17.4410
  55   2.0000      -0.603548       -16.4234
  56   2.0000      -0.592889       -16.1333
  57   2.0000      -0.574791       -15.6409
  58   2.0000      -0.567388       -15.4394
  59   2.0000      -0.556416       -15.1408
  60   2.0000      -0.502870       -13.6838
  61   2.0000      -0.498150       -13.5553
  62   2.0000      -0.481149       -13.0927
  63   2.0000      -0.470227       -12.7955
  64   2.0000      -0.460639       -12.5346
  65   2.0000      -0.444800       -12.1036
  66   2.0000      -0.437296       -11.8994
  67   2.0000      -0.432824       -11.7777
  68   2.0000      -0.424779       -11.5588
  69   2.0000      -0.416340       -11.3292
  70   2.0000      -0.404784       -11.0147
  71   2.0000      -0.400654       -10.9023
  72   2.0000      -0.392473       -10.6797
  73   2.0000      -0.389459       -10.5977
  74   2.0000      -0.382463       -10.4073
  75   2.0000      -0.381585       -10.3835
  76   2.0000      -0.364201        -9.9104
  77   2.0000      -0.357353        -9.7241
  78   2.0000      -0.351985        -9.5780
  79   2.0000      -0.349040        -9.4979
  80   2.0000      -0.347757        -9.4630
  81   2.0000      -0.343351        -9.3431
  82   2.0000      -0.337983        -9.1970
  83   2.0000      -0.337461        -9.1828
  84   2.0000      -0.330088        -8.9821
  85   2.0000      -0.324561        -8.8318
  86   2.0000      -0.312953        -8.5159
  87   2.0000      -0.297392        -8.0924
  88   2.0000      -0.296653        -8.0723
  89   2.0000      -0.286905        -7.8071
  90   2.0000      -0.281872        -7.6701
  91   2.0000      -0.278276        -7.5723
  92   2.0000      -0.274841        -7.4788
  93   2.0000      -0.268408        -7.3037
  94   2.0000      -0.253084        -6.8868
  95   2.0000      -0.230910        -6.2834
  96   2.0000      -0.219405        -5.9703
  97   2.0000      -0.216632        -5.8948
  98   2.0000      -0.209147        -5.6912
  99   2.0000      -0.200846        -5.4653
 100   2.0000      -0.199283        -5.4228
 101   0.0000      -0.048715        -1.3256
 102   0.0000      -0.025642        -0.6978
 103   0.0000      -0.003805        -0.1035
 104   0.0000       0.001712         0.0466
 105   0.0000       0.006801         0.1851

MULLIKEN ATOMIC CHARGES
-----------------------
   0 C :   -0.313240
   1 C :   -0.004395
   2 O :   -0.390328
   3 P :    0.636461
   4 S :   -0.329639
   5 O :   -0.367617
   6 C :   -0.022590
   7 C :   -0.287903
   8 S :   -0.065610
   9 C :   -0.355241
  10 S :   -0.107074
  11 P :    0.616924
  12 S :   -0.333955
  13 O :   -0.365134
  14 C :   -0.012538
  15 C :   -0.307918
  16 O :   -0.358476
  17 C :   -0.006108
  18 C :   -0.289524
  19 H :    0.117858
  20 H :    0.115520
  21 H :    0.122557
  22 H :    0.107981
  23 H :    0.115010
  24 H :    0.099924
  25 H :    0.110214
  26 H :    0.103259
  27 H :    0.122626
  28 H :    0.126430
  29 H :    0.193703
  30 H :    0.191216
  31 H :    0.109625
  32 H :    0.113593
  33 H :    0.110823
  34 H :    0.124717
  35 H :    0.126159
  36 H :    0.100460
  37 H :    0.114466
  38 H :    0.108825
  39 H :    0.103675
  40 H :    0.125263
Sum of atomic charges:   -0.0000000

LOEWDIN ATOMIC CHARGES
----------------------
   0 C :   -0.364245
   1 C :   -0.115894
   2 O :   -0.254381
   3 P :    0.570585
   4 S :   -0.318455
   5 O :   -0.239289
   6 C :   -0.117546
   7 C :   -0.358280
   8 S :    0.112159
   9 C :   -0.480688
  10 S :    0.086996
  11 P :    0.572675
  12 S :   -0.316912
  13 O :   -0.240477
  14 C :   -0.115114
  15 C :   -0.368783
  16 O :   -0.235155
  17 C :   -0.118317
  18 C :   -0.355409
  19 H :    0.125775
  20 H :    0.132493
  21 H :    0.121739
  22 H :    0.120345
  23 H :    0.111577
  24 H :    0.110767
  25 H :    0.105437
  26 H :    0.126491
  27 H :    0.117648
  28 H :    0.128130
  29 H :    0.131253
  30 H :    0.131670
  31 H :    0.121643
  32 H :    0.107588
  33 H :    0.129713
  34 H :    0.121000
  35 H :    0.130106
  36 H :    0.112086
  37 H :    0.104859
  38 H :    0.122538
  39 H :    0.127351
  40 H :    0.116318

  Mayer bond orders larger than 0.100000
B(  0-C ,  1-C ) :   1.1631 B(  0-C , 19-H ) :   0.9466 B(  0-C , 20-H ) :   0.9387
B(  0-C , 21-H ) :   0.9345 B(  1-C ,  2-O ) :   0.9108 B(  1-C , 22-H ) :   0.9338
B(  1-C , 23-H ) :   0.9133 B(  2-O ,  3-P ) :   1.0835 B(  3-P ,  4-S ) :   1.5916
B(  3-P ,  5-O ) :   1.1109 B(  3-P ,  8-S ) :   0.9738 B(  5-O ,  6-C ) :   0.9057
B(  6-C ,  7-C ) :   1.1647 B(  6-C , 24-H ) :   0.9320 B(  6-C , 25-H ) :   0.9024
B(  7-C , 26-H ) :   0.9391 B(  7-C , 27-H ) :   0.9423 B(  7-C , 28-H ) :   0.9438
B(  8-S ,  9-C ) :   1.0041 B(  9-C , 10-S ) :   1.0091 B(  9-C , 29-H ) :   0.8811
B(  9-C , 30-H ) :   0.8845 B( 10-S , 11-P ) :   0.9323 B( 10-S , 12-S ) :   0.1085
B( 11-P , 12-S ) :   1.6018 B( 11-P , 13-O ) :   1.1282 B( 11-P , 16-O ) :   1.1304
B( 13-O , 14-C ) :   0.9163 B( 14-C , 15-C ) :   1.1641 B( 14-C , 31-H ) :   0.9339
B( 14-C , 32-H ) :   0.9251 B( 15-C , 33-H ) :   0.9355 B( 15-C , 34-H ) :   0.9338
B( 15-C , 35-H ) :   0.9433 B( 16-O , 17-C ) :   0.8966 B( 17-C , 18-C ) :   1.1635
B( 17-C , 36-H ) :   0.9348 B( 17-C , 37-H ) :   0.9036 B( 18-C , 38-H ) :   0.9482
B( 18-C , 39-H ) :   0.9397 B( 18-C , 40-H ) :   0.9380

Dispersion correction           -0.067996008
FINAL SINGLE POINT ENERGY     -2929.523519453307

DIPOLE MOMENT
-------------

Method             : SCF
Type of density    : Electron Density
Multiplicity       :   1
Irrep              :   0
Energy             : -2929.6413914041254429 Eh
Relativity type    :
Basis              : AO
                                X                 Y                 Z
Electronic contribution:     -4.083359210       9.177486088     -13.291767217
Nuclear contribution   :      4.595278451      -9.762523672      14.306399659
                        -----------------------------------------
Total Dipole Moment    :      0.511919241      -0.585037584       1.014632442
                        -----------------------------------------
Magnitude (a.u.)       :      1.278205490
Magnitude (Debye)      :      3.248940159

Rotational constants in cm-1:             0.013529             0.005164             0.005011
Rotational constants in MHz :           405.586014           154.808054           150.222346

                             ****ORCA TERMINATED NORMALLY****
TOTAL RUN TIME: 0 days 0 hours 0 minutes 22 seconds 245 msec
