                         Program Version 6.0.1  -  RELEASE   -
|  1> ! pbe def2-sv(p) def2/J RI DEFGRID1 loosescf d4 GCP(DFT/SV(P)) printgap
|  2> %output
|  3>     printlevel normal
|  4> end
|  5> * xyz 0 1
|  6> C 3.6013889603 -3.9919307306 -0.1133262574
|  7> C 2.3352689094 -3.2960541334 0.3439909425
|  8> O 2.5056377926 -1.8797109262 0.1428348109
|  9> C 1.6423499961 -1.064365071 0.6969248944
| 10> O 0.7149620359 -1.4223652559 1.399847384
| 11> C 1.9077875511 0.382145343 0.3414833293
| 12> C 0.6987911574 0.9158490426 -0.4180956027
| 13> H 0.4581886707 0.2795360863 -1.27916511
| 14> C 0.8323760961 2.3532151853 -0.9032892271
| 15> O 0.1483502911 2.7969603105 -1.796933477
| 16> O 1.7389894818 3.0210423632 -0.2326654555
| 17> C 1.907901358 4.4246714458 -0.523902191
| 18> C 0.9272154959 5.2600053018 0.2827067969
| 19> S -0.8044495976 0.9402073397 0.6353388209
| 20> P -1.6769833633 -0.9183495073 0.0625604339
| 21> S -0.8376251622 -1.9107821253 -1.3993909542
| 22> O -1.9745044427 -1.793575587 1.334800327
| 23> C -2.4092036521 -1.2297034349 2.5875240918
| 24> O -3.1791047361 -0.4550361595 -0.2872943576
| 25> C -3.452174007 0.3456792466 -1.438328306
| 26> H 4.449356111 -3.647457878 0.471090206
| 27> H 3.4867724988 -5.0628456094 0.0158488165
| 28> H 3.7830463277 -3.7751388078 -1.1615470035
| 29> H 2.1258937976 -3.472255528 1.403762795
| 30> H 1.4633290247 -3.6129840734 -0.2380401249
| 31> H 2.7966744621 0.4397678654 -0.2852996163
| 32> H 2.0510331963 0.9626742242 1.25359498
| 33> H 2.9395071978 4.6363846658 -0.2437572691
| 34> H 1.7604533734 4.5785621994 -1.5961718025
| 35> H 1.0483687282 5.0604323421 1.3436019728
| 36> H 1.1104548385 6.3120769901 0.09164074
| 37> H -0.0934093463 5.0199341894 -0.0064690955
| 38> H -3.2622570193 -0.571875735 2.4305295385
| 39> H -1.5819860717 -0.6837645975 3.0398650952
| 40> H -2.6843360622 -2.0846684342 3.1994363385
| 41> H -4.5329714139 0.453668658 -1.4711795854
| 42> H -3.090242551 -0.1550979912 -2.3378074592
| 43> H -2.971251342 1.3209166513 -1.3448714566
| 44> *
| 45>
| 46>                          ****END OF INPUT****

CARTESIAN COORDINATES (ANGSTROEM)
---------------------------------
  C      3.601389   -3.991931   -0.113326
  C      2.335269   -3.296054    0.343991
  O      2.505638   -1.879711    0.142835
  C      1.642350   -1.064365    0.696925
  O      0.714962   -1.422365    1.399847
  C      1.907788    0.382145    0.341483
  C      0.698791    0.915849   -0.418096
  H      0.458189    0.279536   -1.279165
  C      0.832376    2.353215   -0.903289
  O      0.148350    2.796960   -1.796933
  O      1.738989    3.021042   -0.232665
  C      1.907901    4.424671   -0.523902
  C      0.927215    5.260005    0.282707
  S     -0.804450    0.940207    0.635339
  P     -1.676983   -0.918350    0.062560
  S     -0.837625   -1.910782   -1.399391
  O     -1.974504   -1.793576    1.334800
  C     -2.409204   -1.229703    2.587524
  O     -3.179105   -0.455036   -0.287294
  C     -3.452174    0.345679   -1.438328
  H      4.449356   -3.647458    0.471090
  H      3.486772   -5.062846    0.015849
  H      3.783046   -3.775139   -1.161547
  H      2.125894   -3.472256    1.403763
  H      1.463329   -3.612984   -0.238040
  H      2.796674    0.439768   -0.285300
  H      2.051033    0.962674    1.253595
  H      2.939507    4.636385   -0.243757
  H      1.760453    4.578562   -1.596172
  H      1.048369    5.060432    1.343602
  H      1.110455    6.312077    0.091641
  H     -0.093409    5.019934   -0.006469
  H     -3.262257   -0.571876    2.430530
  H     -1.581986   -0.683765    3.039865
  H     -2.684336   -2.084668    3.199436
  H     -4.532971    0.453669   -1.471180
  H     -3.090243   -0.155098   -2.337807
  H     -2.971251    1.320917   -1.344871

 Total Charge           Charge          ....    0
 Multiplicity           Mult            ....    1
 Number of Electrons    NEL             ....  174
 Basis Dimension        Dim             ....  316

ORBITAL ENERGIES
----------------

  NO   OCC          E(Eh)            E(eV)
   0   2.0000     -88.038326     -2395.6446
   1   2.0000     -87.981758     -2394.1054
   2   2.0000     -76.421383     -2079.5316
   3   2.0000     -18.815353      -511.9918
   4   2.0000     -18.802460      -511.6410
   5   2.0000     -18.787318      -511.2289
   6   2.0000     -18.781095      -511.0596
   7   2.0000     -18.742827      -510.0182
   8   2.0000     -18.732902      -509.7482
   9   2.0000     -10.018997      -272.6308
  10   2.0000     -10.007764      -272.3251
  11   2.0000      -9.956643      -270.9340
  12   2.0000      -9.944861      -270.6134
  13   2.0000      -9.943928      -270.5880
  14   2.0000      -9.940471      -270.4940
  15   2.0000      -9.932688      -270.2822
  16   2.0000      -9.906872      -269.5797
  17   2.0000      -9.893516      -269.2162
  18   2.0000      -9.884831      -268.9799
  19   2.0000      -7.682614      -209.0546
  20   2.0000      -7.626857      -207.5373
  21   2.0000      -6.418145      -174.6466
  22   2.0000      -5.710608      -155.3935
  23   2.0000      -5.707438      -155.3073
  24   2.0000      -5.699298      -155.0858
  25   2.0000      -5.655924      -153.9055
  26   2.0000      -5.647618      -153.6795
  27   2.0000      -5.646629      -153.6526
  28   2.0000      -4.640738      -126.2809
  29   2.0000      -4.640058      -126.2624
  30   2.0000      -4.638635      -126.2237
  31   2.0000      -1.022741       -27.8302
  32   2.0000      -1.009691       -27.4751
  33   2.0000      -0.979421       -26.6514
  34   2.0000      -0.933952       -25.4141
  35   2.0000      -0.923332       -25.1252
  36   2.0000      -0.911561       -24.8048
  37   2.0000      -0.763452       -20.7746
  38   2.0000      -0.711974       -19.3738
  39   2.0000      -0.709677       -19.3113
  40   2.0000      -0.689762       -18.7694
  41   2.0000      -0.656689       -17.8694
  42   2.0000      -0.627337       -17.0707
  43   2.0000      -0.623461       -16.9652
  44   2.0000      -0.616403       -16.7732
  45   2.0000      -0.589282       -16.0352
  46   2.0000      -0.564637       -15.3645
  47   2.0000      -0.511636       -13.9223
  48   2.0000      -0.506033       -13.7699
  49   2.0000      -0.502265       -13.6673
  50   2.0000      -0.476294       -12.9606
  51   2.0000      -0.467485       -12.7209
  52   2.0000      -0.459809       -12.5120
  53   2.0000      -0.441918       -12.0252
  54   2.0000      -0.434875       -11.8336
  55   2.0000      -0.432970       -11.7817
  56   2.0000      -0.426029       -11.5928
  57   2.0000      -0.418230       -11.3806
  58   2.0000      -0.408503       -11.1159
  59   2.0000      -0.407754       -11.0956
  60   2.0000      -0.399737       -10.8774
  61   2.0000      -0.396248       -10.7824
  62   2.0000      -0.389456       -10.5976
  63   2.0000      -0.379468       -10.3259
  64   2.0000      -0.376110       -10.2345
  65   2.0000      -0.370152       -10.0723
  66   2.0000      -0.356023        -9.6879
  67   2.0000      -0.353056        -9.6071
  68   2.0000      -0.352009        -9.5787
  69   2.0000      -0.342079        -9.3084
  70   2.0000      -0.335822        -9.1382
  71   2.0000      -0.332358        -9.0439
  72   2.0000      -0.317000        -8.6260
  73   2.0000      -0.308317        -8.3897
  74   2.0000      -0.303442        -8.2571
  75   2.0000      -0.296632        -8.0718
  76   2.0000      -0.292466        -7.9584
  77   2.0000      -0.288879        -7.8608
  78   2.0000      -0.270130        -7.3506
  79   2.0000      -0.267634        -7.2827
  80   2.0000      -0.258928        -7.0458
  81   2.0000      -0.251123        -6.8334
  82   2.0000      -0.234073        -6.3694
  83   2.0000      -0.228735        -6.2242
  84   2.0000      -0.207155        -5.6370
  85   2.0000      -0.202494        -5.5101
  86   2.0000      -0.191976        -5.2239
  87   0.0000      -0.049305        -1.3417
  88   0.0000      -0.036759        -1.0003
  89   0.0000      -0.023315        -0.6344
  90   0.0000       0.025517         0.6943
  91   0.0000       0.029409         0.8003

MULLIKEN ATOMIC CHARGES
-----------------------
   0 C :   -0.274709
   1 C :   -0.036004
   2 O :   -0.217461
   3 C :    0.107040
   4 O :   -0.218713
   5 C :    0.024440
   6 C :   -0.397930
   7 H :    0.156317
   8 C :    0.221654
   9 O :   -0.184558
  10 O :   -0.225565
  11 C :   -0.013228
  12 C :   -0.305741
  13 S :   -0.099115
  14 P :    0.620059
  15 S :   -0.316901
  16 O :   -0.348916
  17 C :   -0.105245
  18 O :   -0.384826
  19 C :   -0.103825
  20 H :    0.110656
  21 H :    0.111703
  22 H :    0.116315
  23 H :    0.104903
  24 H :    0.122143
  25 H :    0.103105
  26 H :    0.111209
  27 H :    0.106624
  28 H :    0.113857
  29 H :    0.116724
  30 H :    0.117051
  31 H :    0.131452
  32 H :    0.118626
  33 H :    0.132679
  34 H :    0.131254
  35 H :    0.119925
  36 H :    0.116625
  37 H :    0.118375
Sum of atomic charges:    0.0000000

LOEWDIN ATOMIC CHARGES
----------------------
   0 C :   -0.350994
   1 C :   -0.110354
   2 O :   -0.047680
   3 C :    0.025240
   4 O :   -0.181730
   5 C :   -0.250416
   6 C :   -0.263034
   7 H :    0.134982
   8 C :    0.009219
   9 O :   -0.156606
  10 O :   -0.048496
  11 C :   -0.108701
  12 C :   -0.355301
  13 S :    0.106105
  14 P :    0.589437
  15 S :   -0.300312
  16 O :   -0.224821
  17 C :   -0.207011
  18 O :   -0.265245
  19 C :   -0.221403
  20 H :    0.124167
  21 H :    0.130873
  22 H :    0.127371
  23 H :    0.116664
  24 H :    0.119336
  25 H :    0.136882
  26 H :    0.141400
  27 H :    0.119670
  28 H :    0.122998
  29 H :    0.126277
  30 H :    0.132765
  31 H :    0.132966
  32 H :    0.112237
  33 H :    0.117565
  34 H :    0.127168
  35 H :    0.119771
  36 H :    0.110968
  37 H :    0.108042

  Mayer bond orders larger than 0.100000
B(  0-C ,  1-C ) :   1.1522 B(  0-C , 20-H ) :   0.9515 B(  0-C , 21-H ) :   0.9445
B(  0-C , 22-H ) :   0.9485 B(  1-C ,  2-O ) :   0.8971 B(  1-C , 23-H ) :   0.9251
B(  1-C , 24-H ) :   0.9235 B(  2-O ,  3-C ) :   1.2683 B(  3-C ,  4-O ) :   1.9646
B(  3-C ,  5-C ) :   0.9999 B(  5-C ,  6-C ) :   0.9965 B(  5-C , 25-H ) :   0.8990
B(  5-C , 26-H ) :   0.8727 B(  6-C ,  7-H ) :   0.8407 B(  6-C ,  8-C ) :   0.9022
B(  6-C , 13-S ) :   1.0311 B(  7-H , 15-S ) :   0.1024 B(  8-C ,  9-O ) :   2.0699
B(  8-C , 10-O ) :   1.2500 B( 10-O , 11-C ) :   0.9055 B( 11-C , 12-C ) :   1.1774
B( 11-C , 27-H ) :   0.9367 B( 11-C , 28-H ) :   0.9127 B( 12-C , 29-H ) :   0.9484
B( 12-C , 30-H ) :   0.9436 B( 12-C , 31-H ) :   0.9446 B( 13-S , 14-P ) :   0.9342
B( 13-S , 15-S ) :   0.1155 B( 14-P , 15-S ) :   1.6014 B( 14-P , 16-O ) :   1.1544
B( 14-P , 18-O ) :   1.0680 B( 16-O , 17-C ) :   0.9161 B( 17-C , 32-H ) :   0.9449
B( 17-C , 33-H ) :   0.9420 B( 17-C , 34-H ) :   0.9599 B( 18-O , 19-C ) :   0.9367
B( 19-C , 35-H ) :   0.9586 B( 19-C , 36-H ) :   0.9395 B( 19-C , 37-H ) :   0.9380

Dispersion correction           -0.051341786
FINAL SINGLE POINT ENERGY     -1979.017275505760

DIPOLE MOMENT
-------------

Method             : SCF
Type of density    : Electron Density
Multiplicity       :   1
Irrep              :   0
Energy             : -1979.1472844643772078 Eh
Relativity type    :
Basis              : AO
                                X                 Y                 Z
Electronic contribution:     -9.528202034      -5.570141232      -2.148399765
Nuclear contribution   :     10.229554691       6.479632172       3.056473636
                        -----------------------------------------
Total Dipole Moment    :      0.701352657       0.909490940       0.908073871
                        -----------------------------------------
Magnitude (a.u.)       :      1.464126865
Magnitude (Debye)      :      3.721514736

Rotational constants in cm-1:             0.010752             0.007722             0.005510
Rotational constants in MHz :           322.341146           231.497046           165.179659

                             ****ORCA TERMINATED NORMALLY****
TOTAL RUN TIME: 0 days 0 hours 0 minutes 29 seconds 61 msec
