                         Program Version 6.0.0  -   RELEASE  -
|  1> ! pbe def2-sv(p) def2/J RI DEFGRID1 loosescf d4 GCP(DFT/SV(P)) printgap
|  2> %output
|  3>     printlevel normal
|  4> end
|  5> * xyz 0 1
|  6> C 3.8041679984 -1.286769331 -2.727337661
|  7> C 4.3202998322 -0.4147499306 -1.6007317629
|  8> O 3.5017894223 -0.5215915191 -0.4276931808
|  9> P 2.0152169451 0.0608593329 -0.3817590818
| 10> S 1.8707807605 1.7966596846 -1.2852824927
| 11> O 1.713401398 0.0254491205 1.1710188377
| 12> C 2.0258266662 1.1555472568 2.0103544821
| 13> C 3.517332706 1.3587781526 2.1576523721
| 14> S 0.8467226207 -1.5768730885 -1.055310771
| 15> C -0.2201273062 -2.0919283204 0.3352278164
| 16> S -1.9748102895 -1.8123419052 0.0148126727
| 17> P -1.995667619 0.2277651046 0.613558325
| 18> S -1.2790703826 0.5305446265 2.4124333809
| 19> O -3.4746083808 0.7103930143 0.316118143
| 20> C -4.6626072942 -0.0182031198 0.6859956583
| 21> C -4.7353264301 -0.3076967504 2.1699878715
| 22> O -1.1488593057 1.0592890761 -0.4307600693
| 23> C -1.6221208844 1.5212096786 -1.7230504722
| 24> C -1.9653268999 0.3885684423 -2.6669990465
| 25> H 3.725646766 -2.3208748922 -2.402613743
| 26> H 2.8157906995 -0.9423622767 -3.0346009251
| 27> H 4.4800721334 -1.2222649895 -3.5738088396
| 28> H 4.3464578465 0.6357457315 -1.9100227347
| 29> H 5.309470311 -0.7285091127 -1.2650458737
| 30> H 1.5472728645 2.0433002368 1.5831648299
| 31> H 1.5460071168 0.9140578702 2.9604553192
| 32> H 3.6973248965 2.135617566 2.894077451
| 33> H 3.9909789805 0.4351241232 2.4795845307
| 34> H 3.9476970001 1.6659878455 1.2055041329
| 35> H 0.0734409615 -1.5638401477 1.2415964847
| 36> H -0.0910346893 -3.1659360848 0.4372377332
| 37> H -5.4731654259 0.6388956371 0.366134423
| 38> H -4.6851804208 -0.9477195194 0.1105161429
| 39> H -5.6839471847 -0.7832013977 2.3971055851
| 40> H -3.9249642454 -0.9733535534 2.463536246
| 41> H -4.6470916497 0.6128324086 2.742261782
| 42> H -2.4832903395 2.1683771129 -1.550697338
| 43> H -0.7813002817 2.1111737077 -2.0941325932
| 44> H -1.1177067394 -0.2838642172 -2.7819125126
| 45> H -2.8188779935 -0.1761678744 -2.2979222989
| 46> H -2.2129093207 0.8105617706 -3.6360475599
| 47> *
| 48>
| 49>                          ****END OF INPUT****

CARTESIAN COORDINATES (ANGSTROEM)
---------------------------------
  C      3.804168   -1.286769   -2.727338
  C      4.320300   -0.414750   -1.600732
  O      3.501789   -0.521592   -0.427693
  P      2.015217    0.060859   -0.381759
  S      1.870781    1.796660   -1.285282
  O      1.713401    0.025449    1.171019
  C      2.025827    1.155547    2.010354
  C      3.517333    1.358778    2.157652
  S      0.846723   -1.576873   -1.055311
  C     -0.220127   -2.091928    0.335228
  S     -1.974810   -1.812342    0.014813
  P     -1.995668    0.227765    0.613558
  S     -1.279070    0.530545    2.412433
  O     -3.474608    0.710393    0.316118
  C     -4.662607   -0.018203    0.685996
  C     -4.735326   -0.307697    2.169988
  O     -1.148859    1.059289   -0.430760
  C     -1.622121    1.521210   -1.723050
  C     -1.965327    0.388568   -2.666999
  H      3.725647   -2.320875   -2.402614
  H      2.815791   -0.942362   -3.034601
  H      4.480072   -1.222265   -3.573809
  H      4.346458    0.635746   -1.910023
  H      5.309470   -0.728509   -1.265046
  H      1.547273    2.043300    1.583165
  H      1.546007    0.914058    2.960455
  H      3.697325    2.135618    2.894077
  H      3.990979    0.435124    2.479585
  H      3.947697    1.665988    1.205504
  H      0.073441   -1.563840    1.241596
  H     -0.091035   -3.165936    0.437238
  H     -5.473165    0.638896    0.366134
  H     -4.685180   -0.947720    0.110516
  H     -5.683947   -0.783201    2.397106
  H     -3.924964   -0.973354    2.463536
  H     -4.647092    0.612832    2.742262
  H     -2.483290    2.168377   -1.550697
  H     -0.781300    2.111174   -2.094133
  H     -1.117707   -0.283864   -2.781913
  H     -2.818878   -0.176168   -2.297922
  H     -2.212909    0.810562   -3.636048

 Total Charge           Charge          ....    0
 Multiplicity           Mult            ....    1
 Number of Electrons    NEL             ....  202
 Basis Dimension        Dim             ....  334

ORBITAL ENERGIES
----------------

  NO   OCC          E(Eh)            E(eV)
   0   2.0000     -88.044852     -2395.8222
   1   2.0000     -88.039447     -2395.6752
   2   2.0000     -87.984722     -2394.1860
   3   2.0000     -87.979013     -2394.0306
   4   2.0000     -76.426228     -2079.6634
   5   2.0000     -76.423255     -2079.5825
   6   2.0000     -18.800269      -511.5813
   7   2.0000     -18.788255      -511.2544
   8   2.0000     -18.784854      -511.1619
   9   2.0000     -18.784622      -511.1556
  10   2.0000      -9.964471      -271.1470
  11   2.0000      -9.958940      -270.9965
  12   2.0000      -9.948006      -270.6990
  13   2.0000      -9.942358      -270.5453
  14   2.0000      -9.940485      -270.4943
  15   2.0000      -9.886292      -269.0197
  16   2.0000      -9.884368      -268.9673
  17   2.0000      -9.876847      -268.7627
  18   2.0000      -9.876129      -268.7431
  19   2.0000      -7.690104      -209.2584
  20   2.0000      -7.684571      -209.1078
  21   2.0000      -7.629581      -207.6115
  22   2.0000      -7.624163      -207.4640
  23   2.0000      -6.423438      -174.7906
  24   2.0000      -6.421021      -174.7249
  25   2.0000      -5.717752      -155.5880
  26   2.0000      -5.714681      -155.5044
  27   2.0000      -5.713038      -155.4597
  28   2.0000      -5.708705      -155.3417
  29   2.0000      -5.707205      -155.3010
  30   2.0000      -5.701265      -155.1393
  31   2.0000      -5.658451      -153.9743
  32   2.0000      -5.653217      -153.8319
  33   2.0000      -5.650563      -153.7596
  34   2.0000      -5.649438      -153.7290
  35   2.0000      -5.644760      -153.6017
  36   2.0000      -5.644151      -153.5851
  37   2.0000      -4.646592      -126.4402
  38   2.0000      -4.645370      -126.4070
  39   2.0000      -4.643516      -126.3565
  40   2.0000      -4.643243      -126.3491
  41   2.0000      -4.642844      -126.3382
  42   2.0000      -4.641493      -126.3014
  43   2.0000      -0.989534       -26.9266
  44   2.0000      -0.982470       -26.7344
  45   2.0000      -0.942218       -25.6391
  46   2.0000      -0.941164       -25.6104
  47   2.0000      -0.761926       -20.7331
  48   2.0000      -0.718586       -19.5537
  49   2.0000      -0.706704       -19.2304
  50   2.0000      -0.689995       -18.7757
  51   2.0000      -0.683370       -18.5954
  52   2.0000      -0.671714       -18.2783
  53   2.0000      -0.651040       -17.7157
  54   2.0000      -0.635631       -17.2964
  55   2.0000      -0.596896       -16.2424
  56   2.0000      -0.589786       -16.0489
  57   2.0000      -0.577183       -15.7059
  58   2.0000      -0.567029       -15.4297
  59   2.0000      -0.561865       -15.2891
  60   2.0000      -0.498969       -13.5776
  61   2.0000      -0.487363       -13.2618
  62   2.0000      -0.468439       -12.7469
  63   2.0000      -0.468025       -12.7356
  64   2.0000      -0.457625       -12.4526
  65   2.0000      -0.450006       -12.2453
  66   2.0000      -0.436292       -11.8721
  67   2.0000      -0.431182       -11.7331
  68   2.0000      -0.429874       -11.6975
  69   2.0000      -0.416572       -11.3355
  70   2.0000      -0.411288       -11.1917
  71   2.0000      -0.403789       -10.9877
  72   2.0000      -0.388674       -10.5764
  73   2.0000      -0.387278       -10.5384
  74   2.0000      -0.386493       -10.5170
  75   2.0000      -0.373468       -10.1626
  76   2.0000      -0.354714        -9.6523
  77   2.0000      -0.353627        -9.6227
  78   2.0000      -0.352173        -9.5831
  79   2.0000      -0.347029        -9.4431
  80   2.0000      -0.345073        -9.3899
  81   2.0000      -0.342151        -9.3104
  82   2.0000      -0.337900        -9.1947
  83   2.0000      -0.334462        -9.1012
  84   2.0000      -0.327712        -8.9175
  85   2.0000      -0.323836        -8.8120
  86   2.0000      -0.306593        -8.3428
  87   2.0000      -0.300820        -8.1857
  88   2.0000      -0.292947        -7.9715
  89   2.0000      -0.287005        -7.8098
  90   2.0000      -0.280038        -7.6202
  91   2.0000      -0.276862        -7.5338
  92   2.0000      -0.267147        -7.2694
  93   2.0000      -0.262533        -7.1439
  94   2.0000      -0.254058        -6.9133
  95   2.0000      -0.236612        -6.4385
  96   2.0000      -0.220384        -5.9969
  97   2.0000      -0.204360        -5.5609
  98   2.0000      -0.198204        -5.3934
  99   2.0000      -0.194808        -5.3010
 100   2.0000      -0.190448        -5.1824
 101   0.0000      -0.048966        -1.3324
 102   0.0000      -0.031241        -0.8501
 103   0.0000      -0.024552        -0.6681
 104   0.0000      -0.005477        -0.1490
 105   0.0000       0.017067         0.4644

MULLIKEN ATOMIC CHARGES
-----------------------
   0 C :   -0.315867
   1 C :   -0.007472
   2 O :   -0.369846
   3 P :    0.638150
   4 S :   -0.327210
   5 O :   -0.374253
   6 C :   -0.009078
   7 C :   -0.293396
   8 S :   -0.113086
   9 C :   -0.340618
  10 S :   -0.113369
  11 P :    0.607856
  12 S :   -0.317246
  13 O :   -0.378982
  14 C :   -0.019319
  15 C :   -0.306631
  16 O :   -0.355339
  17 C :    0.004984
  18 C :   -0.326602
  19 H :    0.121072
  20 H :    0.121902
  21 H :    0.113988
  22 H :    0.109026
  23 H :    0.104225
  24 H :    0.117959
  25 H :    0.112706
  26 H :    0.110794
  27 H :    0.113272
  28 H :    0.119124
  29 H :    0.212619
  30 H :    0.186540
  31 H :    0.112485
  32 H :    0.117043
  33 H :    0.112342
  34 H :    0.128454
  35 H :    0.128491
  36 H :    0.103076
  37 H :    0.119210
  38 H :    0.134260
  39 H :    0.110540
  40 H :    0.108196
Sum of atomic charges:    0.0000000

LOEWDIN ATOMIC CHARGES
----------------------
   0 C :   -0.368231
   1 C :   -0.124418
   2 O :   -0.246571
   3 P :    0.579945
   4 S :   -0.303755
   5 O :   -0.232092
   6 C :   -0.121739
   7 C :   -0.365241
   8 S :    0.078709
   9 C :   -0.473154
  10 S :    0.067205
  11 P :    0.573864
  12 S :   -0.306232
  13 O :   -0.240761
  14 C :   -0.113874
  15 C :   -0.369026
  16 O :   -0.232979
  17 C :   -0.115767
  18 C :   -0.372817
  19 H :    0.125664
  20 H :    0.116716
  21 H :    0.131390
  22 H :    0.106979
  23 H :    0.118494
  24 H :    0.113667
  25 H :    0.115617
  26 H :    0.130298
  27 H :    0.125195
  28 H :    0.120872
  29 H :    0.135258
  30 H :    0.140188
  31 H :    0.122842
  32 H :    0.108506
  33 H :    0.130813
  34 H :    0.122842
  35 H :    0.131845
  36 H :    0.111250
  37 H :    0.115654
  38 H :    0.121394
  39 H :    0.111994
  40 H :    0.129454

  Mayer bond orders larger than 0.100000
B(  0-C ,  1-C ) :   1.1637 B(  0-C , 19-H ) :   0.9437 B(  0-C , 20-H ) :   0.9327
B(  0-C , 21-H ) :   0.9389 B(  1-C ,  2-O ) :   0.9210 B(  1-C , 22-H ) :   0.9110
B(  1-C , 23-H ) :   0.9319 B(  2-O ,  3-P ) :   1.0788 B(  3-P ,  4-S ) :   1.6084
B(  3-P ,  5-O ) :   1.1404 B(  3-P ,  8-S ) :   0.9489 B(  5-O ,  6-C ) :   0.8850
B(  6-C ,  7-C ) :   1.1576 B(  6-C , 24-H ) :   0.9191 B(  6-C , 25-H ) :   0.9274
B(  7-C , 26-H ) :   0.9393 B(  7-C , 27-H ) :   0.9447 B(  7-C , 28-H ) :   0.9357
B(  8-S ,  9-C ) :   0.9964 B(  9-C , 10-S ) :   1.0101 B(  9-C , 29-H ) :   0.8538
B(  9-C , 30-H ) :   0.9108 B( 10-S , 11-P ) :   0.9337 B( 10-S , 12-S ) :   0.1074
B( 11-P , 12-S ) :   1.6454 B( 11-P , 13-O ) :   1.0846 B( 11-P , 16-O ) :   1.1428
B( 13-O , 14-C ) :   0.9087 B( 14-C , 15-C ) :   1.1677 B( 14-C , 31-H ) :   0.9334
B( 14-C , 32-H ) :   0.9248 B( 15-C , 33-H ) :   0.9346 B( 15-C , 34-H ) :   0.9311
B( 15-C , 35-H ) :   0.9429 B( 16-O , 17-C ) :   0.8874 B( 17-C , 18-C ) :   1.1732
B( 17-C , 36-H ) :   0.9299 B( 17-C , 37-H ) :   0.9112 B( 18-C , 38-H ) :   0.9313
B( 18-C , 39-H ) :   0.9413 B( 18-C , 40-H ) :   0.9359

Dispersion correction           -0.068948421
FINAL SINGLE POINT ENERGY     -2929.509977288277

DIPOLE MOMENT
-------------

Method             : SCF
Type of density    : Electron Density
Multiplicity       :   1
Irrep              :   0
Energy             : -2929.6291636674791334 Eh
Relativity type    :
Basis              : AO
                                X                 Y                 Z
Electronic contribution:     -1.922425098      -1.460501724       3.207182322
Nuclear contribution   :      1.471019164       0.789536963      -3.639301838
                        -----------------------------------------
Total Dipole Moment    :     -0.451405933      -0.670964760      -0.432119515
                        -----------------------------------------
Magnitude (a.u.)       :      0.916890562
Magnitude (Debye)      :      2.330550596

Rotational constants in cm-1:             0.013392             0.005444             0.004971
Rotational constants in MHz :           401.494502           163.197522           149.028333

                             ****ORCA TERMINATED NORMALLY****
TOTAL RUN TIME: 0 days 0 hours 0 minutes 22 seconds 19 msec
