                         Program Version 6.0.0  -   RELEASE  -
|  1> ! pbe def2-sv(p) def2/J RI DEFGRID1 loosescf d4 GCP(DFT/SV(P)) printgap
|  2> %output
|  3>     printlevel normal
|  4> end
|  5> * xyz 0 1
|  6> C 4.9405648624 -0.9969584324 -2.7033363212
|  7> C 4.5962091609 -0.8339674387 -1.2376725691
|  8> O 3.2331377085 -0.354917654 -1.1505875988
|  9> P 2.7212333443 0.3930417967 0.1523689372
| 10> S 3.8498388383 1.8441003342 0.8267020759
| 11> O 2.5633679921 -0.8361298036 1.1611198773
| 12> C 2.4973839477 -0.6464794906 2.5843652335
| 13> C 1.1673110843 -0.0586752756 3.0084034709
| 14> S 0.79632596 0.9093409302 -0.5270247118
| 15> C 0.1584386182 -0.7729320601 -0.8607280488
| 16> S -1.1175493384 -1.2746604934 0.3096025504
| 17> P -2.6378712575 0.0042820763 -0.4665172947
| 18> S -2.7242823742 0.1307095131 -2.4152229482
| 19> O -2.3679807826 1.4100157994 0.1931920945
| 20> C -2.2606832468 1.635956129 1.6196700848
| 21> C -3.5863423999 2.0872062013 2.1969798058
| 22> O -3.9604541443 -0.488630697 0.2637477643
| 23> C -4.790553658 -1.5416503303 -0.2613985884
| 24> C -4.0867825774 -2.8829524597 -0.2675032144
| 25> H 4.2558217614 -1.6978379328 -3.171998779
| 26> H 4.8659286578 -0.040208239 -3.2128329316
| 27> H 5.9554169102 -1.3710964825 -2.7907794467
| 28> H 5.252088662 -0.1052855063 -0.749148094
| 29> H 4.6540869579 -1.7842245209 -0.7017431414
| 30> H 2.6464976674 -1.6467088153 2.9925359473
| 31> H 3.3220382505 0.0090490033 2.8825353616
| 32> H 1.1400083392 0.0287197103 4.0895339033
| 33> H 1.0493792804 0.9326243231 2.5702865555
| 34> H 0.3519860949 -0.6966203496 2.6755055823
| 35> H 0.9724995921 -1.4875985177 -0.7869710959
| 36> H -0.2721731975 -0.7566419784 -1.8625020624
| 37> H -1.9142964899 0.7170482509 2.1005452449
| 38> H -1.4979527358 2.4117753471 1.7122068239
| 39> H -4.3284983796 1.2998325733 2.09747647
| 40> H -3.451827324 2.3241560454 3.2477221875
| 41> H -3.9391631785 2.9709415113 1.6724426849
| 42> H -5.6563311279 -1.5442248176 0.402293426
| 43> H -5.0986398884 -1.2637319483 -1.2738168837
| 44> H -3.2793224617 -2.8773443998 -0.997823886
| 45> H -3.672696818 -3.0986940206 0.7141677508
| 46> H -4.7976008808 -3.6572798007 -0.5377128446
| 47> *
| 48>
| 49>                          ****END OF INPUT****

CARTESIAN COORDINATES (ANGSTROEM)
---------------------------------
  C      4.940565   -0.996958   -2.703336
  C      4.596209   -0.833967   -1.237673
  O      3.233138   -0.354918   -1.150588
  P      2.721233    0.393042    0.152369
  S      3.849839    1.844100    0.826702
  O      2.563368   -0.836130    1.161120
  C      2.497384   -0.646479    2.584365
  C      1.167311   -0.058675    3.008403
  S      0.796326    0.909341   -0.527025
  C      0.158439   -0.772932   -0.860728
  S     -1.117549   -1.274660    0.309603
  P     -2.637871    0.004282   -0.466517
  S     -2.724282    0.130710   -2.415223
  O     -2.367981    1.410016    0.193192
  C     -2.260683    1.635956    1.619670
  C     -3.586342    2.087206    2.196980
  O     -3.960454   -0.488631    0.263748
  C     -4.790554   -1.541650   -0.261399
  C     -4.086783   -2.882952   -0.267503
  H      4.255822   -1.697838   -3.171999
  H      4.865929   -0.040208   -3.212833
  H      5.955417   -1.371096   -2.790779
  H      5.252089   -0.105286   -0.749148
  H      4.654087   -1.784225   -0.701743
  H      2.646498   -1.646709    2.992536
  H      3.322038    0.009049    2.882535
  H      1.140008    0.028720    4.089534
  H      1.049379    0.932624    2.570287
  H      0.351986   -0.696620    2.675506
  H      0.972500   -1.487599   -0.786971
  H     -0.272173   -0.756642   -1.862502
  H     -1.914296    0.717048    2.100545
  H     -1.497953    2.411775    1.712207
  H     -4.328498    1.299833    2.097476
  H     -3.451827    2.324156    3.247722
  H     -3.939163    2.970942    1.672443
  H     -5.656331   -1.544225    0.402293
  H     -5.098640   -1.263732   -1.273817
  H     -3.279322   -2.877344   -0.997824
  H     -3.672697   -3.098694    0.714168
  H     -4.797601   -3.657280   -0.537713

 Total Charge           Charge          ....    0
 Multiplicity           Mult            ....    1
 Number of Electrons    NEL             ....  202
 Basis Dimension        Dim             ....  334

ORBITAL ENERGIES
----------------

  NO   OCC          E(Eh)            E(eV)
   0   2.0000     -88.048751     -2395.9283
   1   2.0000     -88.042254     -2395.7515
   2   2.0000     -87.990321     -2394.3384
   3   2.0000     -87.986699     -2394.2398
   4   2.0000     -76.431419     -2079.8046
   5   2.0000     -76.424983     -2079.6295
   6   2.0000     -18.802034      -511.6294
   7   2.0000     -18.795866      -511.4615
   8   2.0000     -18.793720      -511.4031
   9   2.0000     -18.791150      -511.3332
  10   2.0000      -9.959960      -271.0243
  11   2.0000      -9.956850      -270.9397
  12   2.0000      -9.956819      -270.9388
  13   2.0000      -9.952636      -270.8250
  14   2.0000      -9.952304      -270.8160
  15   2.0000      -9.890090      -269.1230
  16   2.0000      -9.887738      -269.0590
  17   2.0000      -9.887605      -269.0554
  18   2.0000      -9.884137      -268.9610
  19   2.0000      -7.693492      -209.3506
  20   2.0000      -7.687458      -209.1864
  21   2.0000      -7.635590      -207.7750
  22   2.0000      -7.631884      -207.6741
  23   2.0000      -6.429041      -174.9431
  24   2.0000      -6.423045      -174.7799
  25   2.0000      -5.721102      -155.6791
  26   2.0000      -5.718077      -155.5968
  27   2.0000      -5.715687      -155.5318
  28   2.0000      -5.711849      -155.4273
  29   2.0000      -5.710686      -155.3957
  30   2.0000      -5.704164      -155.2182
  31   2.0000      -5.664572      -154.1408
  32   2.0000      -5.660839      -154.0393
  33   2.0000      -5.656121      -153.9109
  34   2.0000      -5.655742      -153.9006
  35   2.0000      -5.652536      -153.8133
  36   2.0000      -5.651972      -153.7980
  37   2.0000      -4.651963      -126.5863
  38   2.0000      -4.650704      -126.5521
  39   2.0000      -4.649258      -126.5128
  40   2.0000      -4.645546      -126.4117
  41   2.0000      -4.644954      -126.3956
  42   2.0000      -4.643365      -126.3524
  43   2.0000      -0.994119       -27.0514
  44   2.0000      -0.987449       -26.8698
  45   2.0000      -0.951611       -25.8946
  46   2.0000      -0.945076       -25.7168
  47   2.0000      -0.766192       -20.8492
  48   2.0000      -0.725629       -19.7454
  49   2.0000      -0.712988       -19.4014
  50   2.0000      -0.695311       -18.9204
  51   2.0000      -0.687972       -18.7207
  52   2.0000      -0.677746       -18.4424
  53   2.0000      -0.654949       -17.8221
  54   2.0000      -0.640350       -17.4248
  55   2.0000      -0.601468       -16.3668
  56   2.0000      -0.592086       -16.1115
  57   2.0000      -0.578637       -15.7455
  58   2.0000      -0.572406       -15.5760
  59   2.0000      -0.562690       -15.3116
  60   2.0000      -0.507142       -13.8000
  61   2.0000      -0.502918       -13.6851
  62   2.0000      -0.480346       -13.0709
  63   2.0000      -0.474607       -12.9147
  64   2.0000      -0.459195       -12.4953
  65   2.0000      -0.451416       -12.2837
  66   2.0000      -0.445110       -12.1120
  67   2.0000      -0.437208       -11.8970
  68   2.0000      -0.432494       -11.7688
  69   2.0000      -0.427665       -11.6373
  70   2.0000      -0.411523       -11.1981
  71   2.0000      -0.398596       -10.8463
  72   2.0000      -0.395455       -10.7609
  73   2.0000      -0.393682       -10.7126
  74   2.0000      -0.381736       -10.3876
  75   2.0000      -0.372835       -10.1453
  76   2.0000      -0.367532       -10.0011
  77   2.0000      -0.363220        -9.8837
  78   2.0000      -0.357134        -9.7181
  79   2.0000      -0.355781        -9.6813
  80   2.0000      -0.352636        -9.5957
  81   2.0000      -0.349628        -9.5139
  82   2.0000      -0.344822        -9.3831
  83   2.0000      -0.339866        -9.2482
  84   2.0000      -0.331471        -9.0198
  85   2.0000      -0.321870        -8.7585
  86   2.0000      -0.318070        -8.6551
  87   2.0000      -0.301643        -8.2081
  88   2.0000      -0.297233        -8.0881
  89   2.0000      -0.296427        -8.0662
  90   2.0000      -0.293416        -7.9843
  91   2.0000      -0.276853        -7.5336
  92   2.0000      -0.273767        -7.4496
  93   2.0000      -0.267729        -7.2853
  94   2.0000      -0.263201        -7.1621
  95   2.0000      -0.237912        -6.4739
  96   2.0000      -0.221406        -6.0248
  97   2.0000      -0.211204        -5.7471
  98   2.0000      -0.207098        -5.6354
  99   2.0000      -0.206292        -5.6135
 100   2.0000      -0.200720        -5.4619
 101   0.0000      -0.041872        -1.1394
 102   0.0000      -0.030398        -0.8272
 103   0.0000      -0.019234        -0.5234
 104   0.0000       0.003509         0.0955
 105   0.0000       0.013988         0.3806

MULLIKEN ATOMIC CHARGES
-----------------------
   0 C :   -0.275980
   1 C :   -0.012707
   2 O :   -0.379697
   3 P :    0.598031
   4 S :   -0.321239
   5 O :   -0.389810
   6 C :   -0.000932
   7 C :   -0.339977
   8 S :   -0.048914
   9 C :   -0.360345
  10 S :   -0.098466
  11 P :    0.597552
  12 S :   -0.304168
  13 O :   -0.348141
  14 C :   -0.025687
  15 C :   -0.286732
  16 O :   -0.381034
  17 C :   -0.001039
  18 C :   -0.320567
  19 H :    0.115116
  20 H :    0.124009
  21 H :    0.111179
  22 H :    0.106414
  23 H :    0.100328
  24 H :    0.102158
  25 H :    0.111102
  26 H :    0.109389
  27 H :    0.128535
  28 H :    0.132882
  29 H :    0.190527
  30 H :    0.198982
  31 H :    0.109769
  32 H :    0.120325
  33 H :    0.119450
  34 H :    0.110292
  35 H :    0.121739
  36 H :    0.107106
  37 H :    0.116029
  38 H :    0.130534
  39 H :    0.117338
  40 H :    0.116651
Sum of atomic charges:   -0.0000000

LOEWDIN ATOMIC CHARGES
----------------------
   0 C :   -0.349945
   1 C :   -0.117758
   2 O :   -0.252100
   3 P :    0.562610
   4 S :   -0.320885
   5 O :   -0.253722
   6 C :   -0.121272
   7 C :   -0.374321
   8 S :    0.101107
   9 C :   -0.479916
  10 S :    0.088221
  11 P :    0.569076
  12 S :   -0.303048
  13 O :   -0.230602
  14 C :   -0.116584
  15 C :   -0.359051
  16 O :   -0.246179
  17 C :   -0.115553
  18 C :   -0.371499
  19 H :    0.126315
  20 H :    0.131063
  21 H :    0.130679
  22 H :    0.109055
  23 H :    0.111020
  24 H :    0.117183
  25 H :    0.108989
  26 H :    0.129587
  27 H :    0.121012
  28 H :    0.115494
  29 H :    0.135071
  30 H :    0.130181
  31 H :    0.104764
  32 H :    0.123202
  33 H :    0.125119
  34 H :    0.130000
  35 H :    0.129748
  36 H :    0.119452
  37 H :    0.114958
  38 H :    0.122482
  39 H :    0.123051
  40 H :    0.132994

  Mayer bond orders larger than 0.100000
B(  0-C ,  1-C ) :   1.1625 B(  0-C , 19-H ) :   0.9510 B(  0-C , 20-H ) :   0.9500
B(  0-C , 21-H ) :   0.9414 B(  1-C ,  2-O ) :   0.8987 B(  1-C , 22-H ) :   0.9095
B(  1-C , 23-H ) :   0.9314 B(  2-O ,  3-P ) :   1.0980 B(  3-P ,  4-S ) :   1.6525
B(  3-P ,  5-O ) :   1.0569 B(  3-P ,  8-S ) :   1.0040 B(  5-O ,  6-C ) :   0.9132
B(  6-C ,  7-C ) :   1.1637 B(  6-C , 24-H ) :   0.9330 B(  6-C , 25-H ) :   0.9109
B(  7-C , 26-H ) :   0.9370 B(  7-C , 27-H ) :   0.9354 B(  7-C , 28-H ) :   0.9293
B(  8-S ,  9-C ) :   0.9689 B(  9-C , 10-S ) :   1.0057 B(  9-C , 29-H ) :   0.8901
B(  9-C , 30-H ) :   0.8669 B( 10-S , 11-P ) :   0.9445 B( 10-S , 12-S ) :   0.1078
B( 11-P , 12-S ) :   1.6427 B( 11-P , 13-O ) :   1.1475 B( 11-P , 16-O ) :   1.0881
B( 13-O , 14-C ) :   0.8892 B( 14-C , 15-C ) :   1.1614 B( 14-C , 31-H ) :   0.9100
B( 14-C , 32-H ) :   0.9324 B( 15-C , 33-H ) :   0.9418 B( 15-C , 34-H ) :   0.9400
B( 15-C , 35-H ) :   0.9467 B( 16-O , 17-C ) :   0.9024 B( 17-C , 18-C ) :   1.1664
B( 17-C , 36-H ) :   0.9339 B( 17-C , 37-H ) :   0.9190 B( 18-C , 38-H ) :   0.9344
B( 18-C , 39-H ) :   0.9436 B( 18-C , 40-H ) :   0.9367

Dispersion correction           -0.062758425
FINAL SINGLE POINT ENERGY     -2929.519924023394

DIPOLE MOMENT
-------------

Method             : SCF
Type of density    : Electron Density
Multiplicity       :   1
Irrep              :   0
Energy             : -2929.6423915924578978 Eh
Relativity type    :
Basis              : AO
                                X                 Y                 Z
Electronic contribution:      2.863336675       9.460007142      -9.529983436
Nuclear contribution   :     -3.335536918     -11.038224860      10.727259460
                        -----------------------------------------
Total Dipole Moment    :     -0.472200243      -1.578217719       1.197276024
                        -----------------------------------------
Magnitude (a.u.)       :      2.036470995
Magnitude (Debye)      :      5.176297903

Rotational constants in cm-1:             0.012736             0.004277             0.003874
Rotational constants in MHz :           381.830383           128.208824           116.136483

                             ****ORCA TERMINATED NORMALLY****
TOTAL RUN TIME: 0 days 0 hours 0 minutes 20 seconds 773 msec
