                         Program Version 6.0.1  -  RELEASE   -
|  1> ! pbe def2-sv(p) def2/J RI DEFGRID1 loosescf d4 GCP(DFT/SV(P)) printgap
|  2> %output
|  3>     printlevel normal
|  4> end
|  5> * xyz 0 1
|  6> C 5.0170583723 -0.6391621994 0.5206009327
|  7> C 4.5455308967 -1.7292060294 -0.428161686
|  8> O 3.1082643336 -1.8312518515 -0.4129987668
|  9> C 2.4164564975 -1.0597307816 -1.22376257
| 10> O 2.8979122269 -0.2862425523 -2.0229293115
| 11> C 0.9244206693 -1.2879973334 -1.0625351021
| 12> C 0.188067447 0.0229744337 -1.2972776269
| 13> H 0.5445529799 0.4674293161 -2.2348455482
| 14> C 0.4143212176 1.0517678772 -0.2062427374
| 15> O -0.4050347961 1.9111900527 0.0537860043
| 16> O 1.5815346368 0.9197504338 0.3664666089
| 17> C 1.9356617391 1.8524362596 1.4083289016
| 18> C 2.4955169074 3.1392678425 0.8264636923
| 19> S -1.6043137406 -0.1841275549 -1.5227559865
| 20> P -2.2663966729 -0.0923080651 0.4953570016
| 21> S -1.018726691 -0.6556654662 1.8942128716
| 22> O -2.9471981677 1.2966375597 0.8033088969
| 23> C -3.8333431278 1.9565386843 -0.1216159984
| 24> O -3.5772920218 -1.0112423921 0.4057612946
| 25> C -3.4850400944 -2.4264779947 0.2090807579
| 26> H 4.6485383587 -0.834488844 1.5239402329
| 27> H 6.101669362 -0.6159445695 0.5336981747
| 28> H 4.6443543178 0.3266408413 0.1877746552
| 29> H 4.8932831226 -2.7122888984 -0.1107832465
| 30> H 4.8695903438 -1.5195997504 -1.4515770571
| 31> H 0.7286374202 -1.6903181286 -0.067794605
| 32> H 0.6082433029 -2.0154785617 -1.8128910629
| 33> H 1.0435797875 2.0463372524 2.0112679958
| 34> H 2.6795004994 1.3189207645 2.000018873
| 35> H 2.8395573845 3.7754906076 1.6349363217
| 36> H 3.3272994962 2.9191352545 0.1621396568
| 37> H 1.7253684406 3.663969627 0.2656852591
| 38> H -4.6102967667 1.2701182071 -0.4533385062
| 39> H -3.2593130182 2.3246974765 -0.9716021531
| 40> H -4.2586163157 2.7849155079 0.4387555232
| 41> H -3.1897776667 -2.638638847 -0.8180724463
| 42> H -4.4799886534 -2.8145537866 0.4112375434
| 43> H -2.7610271993 -2.8542224384 0.9042506317
| 44> *
| 45>
| 46>                          ****END OF INPUT****

CARTESIAN COORDINATES (ANGSTROEM)
---------------------------------
  C      5.017058   -0.639162    0.520601
  C      4.545531   -1.729206   -0.428162
  O      3.108264   -1.831252   -0.412999
  C      2.416456   -1.059731   -1.223763
  O      2.897912   -0.286243   -2.022929
  C      0.924421   -1.287997   -1.062535
  C      0.188067    0.022974   -1.297278
  H      0.544553    0.467429   -2.234846
  C      0.414321    1.051768   -0.206243
  O     -0.405035    1.911190    0.053786
  O      1.581535    0.919750    0.366467
  C      1.935662    1.852436    1.408329
  C      2.495517    3.139268    0.826464
  S     -1.604314   -0.184128   -1.522756
  P     -2.266397   -0.092308    0.495357
  S     -1.018727   -0.655665    1.894213
  O     -2.947198    1.296638    0.803309
  C     -3.833343    1.956539   -0.121616
  O     -3.577292   -1.011242    0.405761
  C     -3.485040   -2.426478    0.209081
  H      4.648538   -0.834489    1.523940
  H      6.101669   -0.615945    0.533698
  H      4.644354    0.326641    0.187775
  H      4.893283   -2.712289   -0.110783
  H      4.869590   -1.519600   -1.451577
  H      0.728637   -1.690318   -0.067795
  H      0.608243   -2.015479   -1.812891
  H      1.043580    2.046337    2.011268
  H      2.679500    1.318921    2.000019
  H      2.839557    3.775491    1.634936
  H      3.327299    2.919135    0.162140
  H      1.725368    3.663970    0.265685
  H     -4.610297    1.270118   -0.453339
  H     -3.259313    2.324697   -0.971602
  H     -4.258616    2.784916    0.438756
  H     -3.189778   -2.638639   -0.818072
  H     -4.479989   -2.814554    0.411238
  H     -2.761027   -2.854222    0.904251

 Total Charge           Charge          ....    0
 Multiplicity           Mult            ....    1
 Number of Electrons    NEL             ....  174
 Basis Dimension        Dim             ....  316

ORBITAL ENERGIES
----------------

  NO   OCC          E(Eh)            E(eV)
   0   2.0000     -88.039911     -2395.6878
   1   2.0000     -87.981298     -2394.0928
   2   2.0000     -76.423984     -2079.6023
   3   2.0000     -18.811331      -511.8823
   4   2.0000     -18.800825      -511.5965
   5   2.0000     -18.788459      -511.2600
   6   2.0000     -18.786472      -511.2059
   7   2.0000     -18.738976      -509.9135
   8   2.0000     -18.738126      -509.8903
   9   2.0000     -10.018527      -272.6180
  10   2.0000     -10.009051      -272.3601
  11   2.0000      -9.948627      -270.7159
  12   2.0000      -9.948371      -270.7089
  13   2.0000      -9.946347      -270.6539
  14   2.0000      -9.943469      -270.5755
  15   2.0000      -9.942122      -270.5389
  16   2.0000      -9.903360      -269.4841
  17   2.0000      -9.889601      -269.1097
  18   2.0000      -9.886315      -269.0203
  19   2.0000      -7.684845      -209.1153
  20   2.0000      -7.626471      -207.5268
  21   2.0000      -6.420718      -174.7166
  22   2.0000      -5.712769      -155.4523
  23   2.0000      -5.709343      -155.3591
  24   2.0000      -5.701795      -155.1537
  25   2.0000      -5.655575      -153.8960
  26   2.0000      -5.646953      -153.6614
  27   2.0000      -5.646486      -153.6487
  28   2.0000      -4.643399      -126.3533
  29   2.0000      -4.642691      -126.3340
  30   2.0000      -4.641095      -126.2906
  31   2.0000      -1.020025       -27.7563
  32   2.0000      -1.009155       -27.4605
  33   2.0000      -0.982053       -26.7230
  34   2.0000      -0.937734       -25.5170
  35   2.0000      -0.921064       -25.0634
  36   2.0000      -0.915014       -24.8988
  37   2.0000      -0.763848       -20.7854
  38   2.0000      -0.711604       -19.3637
  39   2.0000      -0.706506       -19.2250
  40   2.0000      -0.690832       -18.7985
  41   2.0000      -0.658349       -17.9146
  42   2.0000      -0.632792       -17.2192
  43   2.0000      -0.623138       -16.9564
  44   2.0000      -0.616846       -16.7852
  45   2.0000      -0.595653       -16.2085
  46   2.0000      -0.565811       -15.3965
  47   2.0000      -0.512533       -13.9467
  48   2.0000      -0.501859       -13.6563
  49   2.0000      -0.497576       -13.5397
  50   2.0000      -0.478976       -13.0336
  51   2.0000      -0.470391       -12.8000
  52   2.0000      -0.462738       -12.5917
  53   2.0000      -0.440265       -11.9802
  54   2.0000      -0.432028       -11.7561
  55   2.0000      -0.428781       -11.6677
  56   2.0000      -0.424027       -11.5384
  57   2.0000      -0.421056       -11.4575
  58   2.0000      -0.415068       -11.2946
  59   2.0000      -0.411376       -11.1941
  60   2.0000      -0.400990       -10.9115
  61   2.0000      -0.395782       -10.7698
  62   2.0000      -0.394232       -10.7276
  63   2.0000      -0.385900       -10.5009
  64   2.0000      -0.379888       -10.3373
  65   2.0000      -0.364543        -9.9197
  66   2.0000      -0.358777        -9.7628
  67   2.0000      -0.351732        -9.5711
  68   2.0000      -0.345062        -9.3896
  69   2.0000      -0.340387        -9.2624
  70   2.0000      -0.334314        -9.0971
  71   2.0000      -0.330865        -9.0033
  72   2.0000      -0.319841        -8.7033
  73   2.0000      -0.313850        -8.5403
  74   2.0000      -0.300784        -8.1848
  75   2.0000      -0.296585        -8.0705
  76   2.0000      -0.293423        -7.9845
  77   2.0000      -0.290378        -7.9016
  78   2.0000      -0.272210        -7.4072
  79   2.0000      -0.262476        -7.1423
  80   2.0000      -0.257656        -7.0112
  81   2.0000      -0.255934        -6.9643
  82   2.0000      -0.236351        -6.4314
  83   2.0000      -0.228377        -6.2145
  84   2.0000      -0.215540        -5.8651
  85   2.0000      -0.199060        -5.4167
  86   2.0000      -0.197188        -5.3658
  87   0.0000      -0.043798        -1.1918
  88   0.0000      -0.027893        -0.7590
  89   0.0000      -0.015202        -0.4137
  90   0.0000       0.008279         0.2253
  91   0.0000       0.023333         0.6349

MULLIKEN ATOMIC CHARGES
-----------------------
   0 C :   -0.320590
   1 C :   -0.013451
   2 O :   -0.223843
   3 C :    0.116118
   4 O :   -0.217217
   5 C :   -0.046903
   6 C :   -0.300987
   7 H :    0.166026
   8 C :    0.173374
   9 O :   -0.195818
  10 O :   -0.216312
  11 C :   -0.006641
  12 C :   -0.316093
  13 S :   -0.091480
  14 P :    0.608012
  15 S :   -0.316433
  16 O :   -0.349136
  17 C :   -0.101572
  18 O :   -0.387178
  19 C :   -0.100527
  20 H :    0.120432
  21 H :    0.112955
  22 H :    0.136618
  23 H :    0.104155
  24 H :    0.107870
  25 H :    0.119338
  26 H :    0.115338
  27 H :    0.120831
  28 H :    0.105521
  29 H :    0.114435
  30 H :    0.123986
  31 H :    0.128796
  32 H :    0.117364
  33 H :    0.128061
  34 H :    0.130434
  35 H :    0.113380
  36 H :    0.124637
  37 H :    0.116501
Sum of atomic charges:   -0.0000000

LOEWDIN ATOMIC CHARGES
----------------------
   0 C :   -0.356864
   1 C :   -0.109911
   2 O :   -0.053618
   3 C :    0.029597
   4 O :   -0.178498
   5 C :   -0.259378
   6 C :   -0.266021
   7 H :    0.157634
   8 C :    0.003349
   9 O :   -0.172193
  10 O :   -0.028776
  11 C :   -0.106200
  12 C :   -0.357154
  13 S :    0.103372
  14 P :    0.584361
  15 S :   -0.304778
  16 O :   -0.227541
  17 C :   -0.207261
  18 O :   -0.262496
  19 C :   -0.217807
  20 H :    0.125648
  21 H :    0.130637
  22 H :    0.129446
  23 H :    0.118345
  24 H :    0.119720
  25 H :    0.133817
  26 H :    0.144486
  27 H :    0.125788
  28 H :    0.118005
  29 H :    0.131799
  30 H :    0.126253
  31 H :    0.131729
  32 H :    0.111807
  33 H :    0.116268
  34 H :    0.126601
  35 H :    0.106998
  36 H :    0.122193
  37 H :    0.110643

  Mayer bond orders larger than 0.100000
B(  0-C ,  1-C ) :   1.1750 B(  0-C , 20-H ) :   0.9453 B(  0-C , 21-H ) :   0.9420
B(  0-C , 22-H ) :   0.9394 B(  1-C ,  2-O ) :   0.9177 B(  1-C , 23-H ) :   0.9374
B(  1-C , 24-H ) :   0.9129 B(  2-O ,  3-C ) :   1.2483 B(  3-C ,  4-O ) :   2.0239
B(  3-C ,  5-C ) :   0.9933 B(  5-C ,  6-C ) :   1.0310 B(  5-C , 25-H ) :   0.8865
B(  5-C , 26-H ) :   0.8764 B(  6-C ,  7-H ) :   0.8476 B(  6-C ,  8-C ) :   0.9054
B(  6-C , 13-S ) :   1.0127 B(  8-C ,  9-O ) :   2.0062 B(  8-C , 10-O ) :   1.2638
B( 10-O , 11-C ) :   0.9006 B( 11-C , 12-C ) :   1.1738 B( 11-C , 27-H ) :   0.9127
B( 11-C , 28-H ) :   0.9328 B( 12-C , 29-H ) :   0.9435 B( 12-C , 30-H ) :   0.9465
B( 12-C , 31-H ) :   0.9425 B( 13-S , 14-P ) :   0.9515 B( 13-S , 15-S ) :   0.1121
B( 14-P , 15-S ) :   1.6049 B( 14-P , 16-O ) :   1.1473 B( 14-P , 18-O ) :   1.0692
B( 16-O , 17-C ) :   0.9171 B( 17-C , 32-H ) :   0.9452 B( 17-C , 33-H ) :   0.9428
B( 17-C , 34-H ) :   0.9595 B( 18-O , 19-C ) :   0.9343 B( 19-C , 35-H ) :   0.9463
B( 19-C , 36-H ) :   0.9587 B( 19-C , 37-H ) :   0.9351

Dispersion correction           -0.052982902
FINAL SINGLE POINT ENERGY     -1979.019653692055

DIPOLE MOMENT
-------------

Method             : SCF
Type of density    : Electron Density
Multiplicity       :   1
Irrep              :   0
Energy             : -1979.1499305854390514 Eh
Relativity type    :
Basis              : AO
                                X                 Y                 Z
Electronic contribution:    -16.890842529      -3.394139557      -1.841439611
Nuclear contribution   :     17.210734532       3.125719883       1.554391724
                        -----------------------------------------
Total Dipole Moment    :      0.319892003      -0.268419673      -0.287047887
                        -----------------------------------------
Magnitude (a.u.)       :      0.506731195
Magnitude (Debye)      :      1.288008338

Rotational constants in cm-1:             0.016396             0.006380             0.005673
Rotational constants in MHz :           491.544413           191.273059           170.073608

                             ****ORCA TERMINATED NORMALLY****
TOTAL RUN TIME: 0 days 0 hours 0 minutes 44 seconds 689 msec
