                         Program Version 6.0.0  -   RELEASE  -
|  1> ! wb97x-v def2-tzvp def2/J RIJCOSX DEFGRID2 scfconv7 GCP(DFT/TZ) printgap
|  2> %output
|  3>     printlevel normal
|  4> end
|  5> * xyz 0 1
|  6> C -1.431109024300941 0.6357503834866365 -1.3760201739989435
|  7> C -1.0033470916476637 0.1328418931839296 0.016377554992759544
|  8> C -1.8397106322063408 -1.0946333308721687 0.4048975001871007
|  9> C -1.1942795986842405 1.2439146353971748 1.05065877461077
| 10> C 0.4480164951356617 -0.30656015228312944 -0.12090834901859907
| 11> O 0.8011743028489591 -1.3046411730703773 -0.7307069766659662
| 12> O 1.3221059989926118 0.5298672609419801 0.4626758243023782
| 13> C 2.724314523369153 0.18719791489044238 0.31317678407531085
| 14> H -0.8217095637094863 1.48933837814216 -1.6909917581540268
| 15> H -1.3400348016256294 -0.1564744986326056 -2.1249125869679846
| 16> H -2.4769578883445553 0.9564790207564956 -1.3342474556263086
| 17> H -1.5268807569028242 -1.4905304848766872 1.376804030881872
| 18> H -1.750222429426835 -1.8891776677255236 -0.3405380032903086
| 19> H -2.8924306591576405 -0.8036960439923617 0.4750440279925386
| 20> H -0.8550481531223445 0.9300792050065104 2.0425498834275326
| 21> H -0.6583078538989602 2.1551396126161544 0.77202722507272
| 22> H -2.260148304539982 1.4850457524274605 1.1162013129584647
| 23> H 3.001788312014534 0.19142990980321448 -0.7437035721311793
| 24> H 2.921898068476427 -0.7944809803970108 0.7502768813086934
| 25> H 3.268606587750661 0.9612679578344901 0.853169385839382
| 26> *
| 27>
| 28>                          ****END OF INPUT****

CARTESIAN COORDINATES (ANGSTROEM)
---------------------------------
  C     -1.431109    0.635750   -1.376020
  C     -1.003347    0.132842    0.016378
  C     -1.839711   -1.094633    0.404898
  C     -1.194280    1.243915    1.050659
  C      0.448016   -0.306560   -0.120908
  O      0.801174   -1.304641   -0.730707
  O      1.322106    0.529867    0.462676
  C      2.724315    0.187198    0.313177
  H     -0.821710    1.489338   -1.690992
  H     -1.340035   -0.156474   -2.124913
  H     -2.476958    0.956479   -1.334247
  H     -1.526881   -1.490530    1.376804
  H     -1.750222   -1.889178   -0.340538
  H     -2.892431   -0.803696    0.475044
  H     -0.855048    0.930079    2.042550
  H     -0.658308    2.155140    0.772027
  H     -2.260148    1.485046    1.116201
  H      3.001788    0.191430   -0.743704
  H      2.921898   -0.794481    0.750277
  H      3.268607    0.961268    0.853169

 Total Charge           Charge          ....    0
 Multiplicity           Mult            ....    1
 Number of Electrons    NEL             ....   64
 Basis Dimension        Dim             ....  320

ORBITAL ENERGIES
----------------

  NO   OCC          E(Eh)            E(eV)
   0   2.0000     -21.720409      -591.0424
   1   2.0000     -21.651855      -589.1769
   2   2.0000     -12.171580      -331.2055
   3   2.0000     -12.103744      -329.3596
   4   2.0000     -12.074263      -328.5574
   5   2.0000     -12.042825      -327.7019
   6   2.0000     -12.038352      -327.5802
   7   2.0000     -12.037876      -327.5673
   8   2.0000      -1.758566       -47.8530
   9   2.0000      -1.688282       -45.9405
  10   2.0000      -1.346525       -36.6408
  11   2.0000      -1.272521       -34.6271
  12   2.0000      -1.185605       -32.2620
  13   2.0000      -1.183440       -32.2030
  14   2.0000      -1.136190       -30.9173
  15   2.0000      -1.084813       -29.5193
  16   2.0000      -1.054314       -28.6893
  17   2.0000      -0.995971       -27.1018
  18   2.0000      -0.991176       -26.9713
  19   2.0000      -0.936666       -25.4880
  20   2.0000      -0.901183       -24.5224
  21   2.0000      -0.881998       -24.0004
  22   2.0000      -0.871063       -23.7028
  23   2.0000      -0.867701       -23.6113
  24   2.0000      -0.843670       -22.9574
  25   2.0000      -0.825473       -22.4622
  26   2.0000      -0.818760       -22.2796
  27   2.0000      -0.816249       -22.2113
  28   2.0000      -0.801104       -21.7991
  29   2.0000      -0.790071       -21.4989
  30   2.0000      -0.780567       -21.2403
  31   2.0000      -0.778346       -21.1799
  32   0.0000      -0.306188        -8.3318
  33   0.0000      -0.184203        -5.0124
  34   0.0000      -0.105689        -2.8759
  35   0.0000      -0.049876        -1.3572
  36   0.0000      -0.031087        -0.8459

MULLIKEN ATOMIC CHARGES
-----------------------
   0 C :   -0.380232
   1 C :    0.121003
   2 C :   -0.369291
   3 C :   -0.342574
   4 C :    0.282503
   5 O :   -0.360425
   6 O :   -0.226534
   7 C :   -0.196290
   8 H :    0.117548
   9 H :    0.137896
  10 H :    0.115864
  11 H :    0.113226
  12 H :    0.138882
  13 H :    0.113714
  14 H :    0.114253
  15 H :    0.118524
  16 H :    0.112624
  17 H :    0.129607
  18 H :    0.131484
  19 H :    0.128218
Sum of atomic charges:   -0.0000000

LOEWDIN ATOMIC CHARGES
----------------------
   0 C :   -0.242045
   1 C :   -0.325376
   2 C :   -0.244668
   3 C :   -0.254154
   4 C :   -0.422345
   5 O :    0.085405
   6 O :    0.237116
   7 C :   -0.285619
   8 H :    0.123588
   9 H :    0.128558
  10 H :    0.123865
  11 H :    0.123347
  12 H :    0.128688
  13 H :    0.122308
  14 H :    0.122775
  15 H :    0.122920
  16 H :    0.122477
  17 H :    0.111669
  18 H :    0.111997
  19 H :    0.109495

  Mayer bond orders larger than 0.100000
B(  0-C ,  1-C ) :   0.9509 B(  0-C ,  8-H ) :   0.9733 B(  0-C ,  9-H ) :   0.9755
B(  0-C , 10-H ) :   0.9773 B(  1-C ,  2-C ) :   0.9749 B(  1-C ,  3-C ) :   0.9933
B(  1-C ,  4-C ) :   0.9330 B(  2-C , 11-H ) :   0.9757 B(  2-C , 12-H ) :   0.9718
B(  2-C , 13-H ) :   0.9784 B(  3-C , 14-H ) :   0.9749 B(  3-C , 15-H ) :   0.9711
B(  3-C , 16-H ) :   0.9750 B(  4-C ,  5-O ) :   2.0459 B(  4-C ,  6-O ) :   1.2182
B(  6-O ,  7-C ) :   0.9061 B(  7-C , 17-H ) :   0.9773 B(  7-C , 18-H ) :   0.9777
B(  7-C , 19-H ) :   0.9735

FINAL SINGLE POINT ENERGY      -386.352744691609

DIPOLE MOMENT
-------------

Method             : SCF
Type of density    : Electron Density
Multiplicity       :   1
Irrep              :   0
Energy             :  -386.3669088979091271 Eh
Relativity type    :
Basis              : AO
                                X                 Y                 Z
Electronic contribution:      5.168112229      -2.181404687      -0.693070885
Nuclear contribution   :     -5.118055517       2.810680229       1.044056721
                        -----------------------------------------
Total Dipole Moment    :      0.050056713       0.629275542       0.350985836
                        -----------------------------------------
Magnitude (a.u.)       :      0.722277260
Magnitude (Debye)      :      1.835882894

Rotational constants in cm-1:             0.105228             0.049641             0.043729
Rotational constants in MHz :          3154.651811          1488.201847          1310.956209

                             ****ORCA TERMINATED NORMALLY****
TOTAL RUN TIME: 0 days 0 hours 3 minutes 31 seconds 990 msec
