                         Program Version 6.0.0  -   RELEASE  -
|  1> ! wb97x-v def2-tzvp def2/J RIJCOSX DEFGRID2 scfconv7 GCP(DFT/TZ) printgap
|  2> %output
|  3>     printlevel normal
|  4> end
|  5> %cpcm
|  6>     smd true
|  7>     smdsolvent "water"
|  8> end
|  9> * xyz 0 1
| 10> C -1.431109024300941 0.6357503834866365 -1.3760201739989435
| 11> C -1.0033470916476637 0.1328418931839296 0.016377554992759544
| 12> C -1.8397106322063408 -1.0946333308721687 0.4048975001871007
| 13> C -1.1942795986842405 1.2439146353971748 1.05065877461077
| 14> C 0.4480164951356617 -0.30656015228312944 -0.12090834901859907
| 15> O 0.8011743028489591 -1.3046411730703773 -0.7307069766659662
| 16> O 1.3221059989926118 0.5298672609419801 0.4626758243023782
| 17> C 2.724314523369153 0.18719791489044238 0.31317678407531085
| 18> H -0.8217095637094863 1.48933837814216 -1.6909917581540268
| 19> H -1.3400348016256294 -0.1564744986326056 -2.1249125869679846
| 20> H -2.4769578883445553 0.9564790207564956 -1.3342474556263086
| 21> H -1.5268807569028242 -1.4905304848766872 1.376804030881872
| 22> H -1.750222429426835 -1.8891776677255236 -0.3405380032903086
| 23> H -2.8924306591576405 -0.8036960439923617 0.4750440279925386
| 24> H -0.8550481531223445 0.9300792050065104 2.0425498834275326
| 25> H -0.6583078538989602 2.1551396126161544 0.77202722507272
| 26> H -2.260148304539982 1.4850457524274605 1.1162013129584647
| 27> H 3.001788312014534 0.19142990980321448 -0.7437035721311793
| 28> H 2.921898068476427 -0.7944809803970108 0.7502768813086934
| 29> H 3.268606587750661 0.9612679578344901 0.853169385839382
| 30> *
| 31>
| 32>                          ****END OF INPUT****

CARTESIAN COORDINATES (ANGSTROEM)
---------------------------------
  C     -1.431109    0.635750   -1.376020
  C     -1.003347    0.132842    0.016378
  C     -1.839711   -1.094633    0.404898
  C     -1.194280    1.243915    1.050659
  C      0.448016   -0.306560   -0.120908
  O      0.801174   -1.304641   -0.730707
  O      1.322106    0.529867    0.462676
  C      2.724315    0.187198    0.313177
  H     -0.821710    1.489338   -1.690992
  H     -1.340035   -0.156474   -2.124913
  H     -2.476958    0.956479   -1.334247
  H     -1.526881   -1.490530    1.376804
  H     -1.750222   -1.889178   -0.340538
  H     -2.892431   -0.803696    0.475044
  H     -0.855048    0.930079    2.042550
  H     -0.658308    2.155140    0.772027
  H     -2.260148    1.485046    1.116201
  H      3.001788    0.191430   -0.743704
  H      2.921898   -0.794481    0.750277
  H      3.268607    0.961268    0.853169

 Total Charge           Charge          ....    0
 Multiplicity           Mult            ....    1
 Number of Electrons    NEL             ....   64
 Basis Dimension        Dim             ....  320

ORBITAL ENERGIES
----------------

  NO   OCC          E(Eh)            E(eV)
   0   2.0000     -21.724446      -591.1522
   1   2.0000     -21.666037      -589.5628
   2   2.0000     -12.181895      -331.4862
   3   2.0000     -12.092618      -329.0569
   4   2.0000     -12.070392      -328.4521
   5   2.0000     -12.034103      -327.4646
   6   2.0000     -12.031242      -327.3867
   7   2.0000     -12.029336      -327.3349
   8   2.0000      -1.765222       -48.0341
   9   2.0000      -1.700802       -46.2812
  10   2.0000      -1.342740       -36.5378
  11   2.0000      -1.269524       -34.5455
  12   2.0000      -1.177880       -32.0517
  13   2.0000      -1.176870       -32.0243
  14   2.0000      -1.139284       -31.0015
  15   2.0000      -1.086399       -29.5624
  16   2.0000      -1.064896       -28.9773
  17   2.0000      -0.998465       -27.1696
  18   2.0000      -0.989182       -26.9170
  19   2.0000      -0.939333       -25.5606
  20   2.0000      -0.914617       -24.8880
  21   2.0000      -0.884940       -24.0804
  22   2.0000      -0.867000       -23.5923
  23   2.0000      -0.866026       -23.5658
  24   2.0000      -0.833681       -22.6856
  25   2.0000      -0.817450       -22.2439
  26   2.0000      -0.810801       -22.0630
  27   2.0000      -0.808117       -21.9900
  28   2.0000      -0.793356       -21.5883
  29   2.0000      -0.786074       -21.3902
  30   2.0000      -0.773751       -21.0548
  31   2.0000      -0.771168       -20.9846
  32   0.0000      -0.311493        -8.4761
  33   0.0000      -0.178100        -4.8463
  34   0.0000      -0.107882        -2.9356
  35   0.0000      -0.048000        -1.3062
  36   0.0000      -0.022371        -0.6088

MULLIKEN ATOMIC CHARGES
-----------------------
   0 C :   -0.423535
   1 C :    0.169427
   2 C :   -0.425016
   3 C :   -0.415934
   4 C :    0.364282
   5 O :   -0.480279
   6 O :   -0.247993
   7 C :   -0.236974
   8 H :    0.140220
   9 H :    0.138112
  10 H :    0.141392
  11 H :    0.137957
  12 H :    0.134033
  13 H :    0.140791
  14 H :    0.135136
  15 H :    0.132600
  16 H :    0.137975
  17 H :    0.150423
  18 H :    0.150403
  19 H :    0.156979
Sum of atomic charges:   -0.0000000

LOEWDIN ATOMIC CHARGES
----------------------
   0 C :   -0.243853
   1 C :   -0.322734
   2 C :   -0.249455
   3 C :   -0.257639
   4 C :   -0.403500
   5 O :    0.023725
   6 O :    0.235336
   7 C :   -0.282269
   8 H :    0.128657
   9 H :    0.127008
  10 H :    0.130752
  11 H :    0.127923
  12 H :    0.124958
  13 H :    0.129698
  14 H :    0.125648
  15 H :    0.124341
  16 H :    0.129226
  17 H :    0.116518
  18 H :    0.116284
  19 H :    0.119377

  Mayer bond orders larger than 0.100000
B(  0-C ,  1-C ) :   0.9390 B(  0-C ,  8-H ) :   0.9705 B(  0-C ,  9-H ) :   0.9712
B(  0-C , 10-H ) :   0.9743 B(  1-C ,  2-C ) :   0.9559 B(  1-C ,  3-C ) :   0.9716
B(  1-C ,  4-C ) :   0.9450 B(  2-C , 11-H ) :   0.9752 B(  2-C , 12-H ) :   0.9694
B(  2-C , 13-H ) :   0.9762 B(  3-C , 14-H ) :   0.9756 B(  3-C , 15-H ) :   0.9700
B(  3-C , 16-H ) :   0.9727 B(  4-C ,  5-O ) :   1.9172 B(  4-C ,  6-O ) :   1.2402
B(  6-O ,  7-C ) :   0.8805 B(  7-C , 17-H ) :   0.9718 B(  7-C , 18-H ) :   0.9722
B(  7-C , 19-H ) :   0.9684

FINAL SINGLE POINT ENERGY      -386.357327435181

DIPOLE MOMENT
-------------

Method             : SCF
Type of density    : Electron Density
Multiplicity       :   1
Irrep              :   0
Energy             :  -386.3714916414805316 Eh
Relativity type    :
Basis              : AO
                                X                 Y                 Z
Electronic contribution:      5.094541586      -1.865216332      -0.512302735
Nuclear contribution   :     -5.118055517       2.810680229       1.044056721
                        -----------------------------------------
Total Dipole Moment    :     -0.023513931       0.945463897       0.531753986
                        -----------------------------------------
Magnitude (a.u.)       :      1.084996400
Magnitude (Debye)      :      2.757841680

Rotational constants in cm-1:             0.105228             0.049641             0.043729
Rotational constants in MHz :          3154.651811          1488.201847          1310.956209

                             ****ORCA TERMINATED NORMALLY****
TOTAL RUN TIME: 0 days 0 hours 3 minutes 22 seconds 583 msec
