                         Program Version 6.0.0  -   RELEASE  -
|  1> ! r2scan-3c def2/J RI DEFGRID2 scfconv6 printgap
|  2> %output
|  3>     printlevel normal
|  4> end
|  5> * xyz 0 1
|  6> C -3.9890514558 -0.6924548949 -0.0004426321
|  7> C -3.9888655387 0.6966608988 -0.0019977077
|  8> C -2.7917209045 1.3842553437 -0.0019340215
|  9> C -1.5780743009 0.6958130892 -0.0004674683
| 10> C -1.5768585521 -0.7031734983 0.000495205
| 11> C -2.7931948443 -1.3839691985 0.0006734759
| 12> C -0.3223127306 -1.4749736524 0.0009547659
| 13> O -0.3764754466 -2.7183541312 0.0017366459
| 14> C 0.9199655371 -0.7346866261 0.0002503317
| 15> C 2.1574010829 -1.4273658502 -0.0007484127
| 16> C 3.3630838157 -0.675457852 -0.0025136374
| 17> C 3.3528721195 0.6829254135 -0.0019679829
| 18> C 2.1325198128 1.3939040514 0.0002823724
| 19> C 0.9174897748 0.6915189428 0.000523811
| 20> C -0.322748452 1.4479992686 0.0004691391
| 21> O -0.3394379447 2.6946482767 0.001928045
| 22> O 2.2166478261 2.7256321676 0.0014512065
| 23> N 2.2344701099 -2.7607811305 0.0003393217
| 24> H -4.9227194973 -1.2328084383 -4.78149e-05
| 25> H -4.9214692166 1.2386596229 -0.0031277993
| 26> H -2.7643388226 2.4639466573 -0.0030528837
| 27> H -2.769908331 -2.4636528211 0.0014891551
| 28> H 4.299328405 -1.2114953042 -0.004198644
| 29> H 4.2631398653 1.2606330514 -0.003317566
| 30> H 1.2969696183 3.1028057595 0.0023759248
| 31> H 1.370116485 -3.2896787229 0.0012391728
| 32> H 3.1321606566 -3.2126135659 -0.0007456746
| 33> *
| 34>
| 35>                          ****END OF INPUT****

CARTESIAN COORDINATES (ANGSTROEM)
---------------------------------
  C     -3.989051   -0.692455   -0.000443
  C     -3.988866    0.696661   -0.001998
  C     -2.791721    1.384255   -0.001934
  C     -1.578074    0.695813   -0.000467
  C     -1.576859   -0.703173    0.000495
  C     -2.793195   -1.383969    0.000673
  C     -0.322313   -1.474974    0.000955
  O     -0.376475   -2.718354    0.001737
  C      0.919966   -0.734687    0.000250
  C      2.157401   -1.427366   -0.000748
  C      3.363084   -0.675458   -0.002514
  C      3.352872    0.682925   -0.001968
  C      2.132520    1.393904    0.000282
  C      0.917490    0.691519    0.000524
  C     -0.322748    1.447999    0.000469
  O     -0.339438    2.694648    0.001928
  O      2.216648    2.725632    0.001451
  N      2.234470   -2.760781    0.000339
  H     -4.922719   -1.232808   -0.000048
  H     -4.921469    1.238660   -0.003128
  H     -2.764339    2.463947   -0.003053
  H     -2.769908   -2.463653    0.001489
  H      4.299328   -1.211495   -0.004199
  H      4.263140    1.260633   -0.003318
  H      1.296970    3.102806    0.002376
  H      1.370116   -3.289679    0.001239
  H      3.132161   -3.212614   -0.000746

 Total Charge           Charge          ....    0
 Multiplicity           Mult            ....    1
 Number of Electrons    NEL             ....  124
 Basis Dimension        Dim             ....  407

ORBITAL ENERGIES
----------------

  NO   OCC          E(Eh)            E(eV)
   0   2.0000     -18.982209      -516.5322
   1   2.0000     -18.947783      -515.5954
   2   2.0000     -18.936381      -515.2851
   3   2.0000     -14.187616      -386.0647
   4   2.0000     -10.127881      -275.5937
   5   2.0000     -10.120360      -275.3890
   6   2.0000     -10.118159      -275.3291
   7   2.0000     -10.106993      -275.0253
   8   2.0000     -10.064683      -273.8740
   9   2.0000     -10.060222      -273.7526
  10   2.0000     -10.059877      -273.7432
  11   2.0000     -10.058711      -273.7114
  12   2.0000     -10.058260      -273.6992
  13   2.0000     -10.058059      -273.6937
  14   2.0000     -10.053766      -273.5769
  15   2.0000     -10.052969      -273.5552
  16   2.0000     -10.050905      -273.4990
  17   2.0000     -10.049135      -273.4509
  18   2.0000      -1.040153       -28.3040
  19   2.0000      -1.003379       -27.3033
  20   2.0000      -1.000577       -27.2271
  21   2.0000      -0.918931       -25.0054
  22   2.0000      -0.851061       -23.1586
  23   2.0000      -0.829318       -22.5669
  24   2.0000      -0.778541       -21.1852
  25   2.0000      -0.738285       -20.0898
  26   2.0000      -0.736100       -20.0303
  27   2.0000      -0.715882       -19.4801
  28   2.0000      -0.658179       -17.9100
  29   2.0000      -0.633078       -17.2269
  30   2.0000      -0.619627       -16.8609
  31   2.0000      -0.585007       -15.9188
  32   2.0000      -0.560060       -15.2400
  33   2.0000      -0.543963       -14.8020
  34   2.0000      -0.521612       -14.1938
  35   2.0000      -0.512046       -13.9335
  36   2.0000      -0.499500       -13.5921
  37   2.0000      -0.469930       -12.7874
  38   2.0000      -0.453780       -12.3480
  39   2.0000      -0.446635       -12.1535
  40   2.0000      -0.441963       -12.0264
  41   2.0000      -0.426294       -11.6001
  42   2.0000      -0.410175       -11.1614
  43   2.0000      -0.406884       -11.0719
  44   2.0000      -0.405920       -11.0457
  45   2.0000      -0.399890       -10.8815
  46   2.0000      -0.393326       -10.7029
  47   2.0000      -0.387202       -10.5363
  48   2.0000      -0.382664       -10.4128
  49   2.0000      -0.366187        -9.9644
  50   2.0000      -0.351389        -9.5618
  51   2.0000      -0.342206        -9.3119
  52   2.0000      -0.339544        -9.2395
  53   2.0000      -0.337415        -9.1815
  54   2.0000      -0.324113        -8.8196
  55   2.0000      -0.281504        -7.6601
  56   2.0000      -0.264209        -7.1895
  57   2.0000      -0.253216        -6.8904
  58   2.0000      -0.250653        -6.8206
  59   2.0000      -0.239989        -6.5304
  60   2.0000      -0.225466        -6.1352
  61   2.0000      -0.190716        -5.1896
  62   0.0000      -0.129078        -3.5124
  63   0.0000      -0.079310        -2.1581
  64   0.0000      -0.053646        -1.4598
  65   0.0000      -0.023909        -0.6506
  66   0.0000       0.021184         0.5764

MULLIKEN ATOMIC CHARGES
-----------------------
   0 C :   -0.126848
   1 C :   -0.131167
   2 C :   -0.232344
   3 C :    0.124839
   4 C :    0.176822
   5 C :   -0.230473
   6 C :    0.004620
   7 O :   -0.445409
   8 C :    0.007187
   9 C :    0.514079
  10 C :   -0.361509
  11 C :   -0.281570
  12 C :    0.240360
  13 C :   -0.010445
  14 C :    0.130672
  15 O :   -0.467408
  16 O :   -0.368046
  17 N :   -0.434254
  18 H :    0.148749
  19 H :    0.148754
  20 H :    0.180298
  21 H :    0.182816
  22 H :    0.142205
  23 H :    0.164326
  24 H :    0.374443
  25 H :    0.306244
  26 H :    0.243060
Sum of atomic charges:   -0.0000000

LOEWDIN ATOMIC CHARGES
----------------------
   0 C :   -0.140013
   1 C :   -0.144021
   2 C :   -0.099079
   3 C :   -0.032072
   4 C :   -0.023617
   5 C :   -0.101369
   6 C :    0.264755
   7 O :   -0.542599
   8 C :   -0.038209
   9 C :    0.179724
  10 C :   -0.108352
  11 C :   -0.094511
  12 C :    0.227995
  13 C :   -0.036703
  14 C :    0.275983
  15 O :   -0.538629
  16 O :   -0.462969
  17 N :   -0.532001
  18 H :    0.170555
  19 H :    0.170646
  20 H :    0.192058
  21 H :    0.193062
  22 H :    0.174899
  23 H :    0.187586
  24 H :    0.311836
  25 H :    0.286781
  26 H :    0.258262

  Mayer bond orders larger than 0.100000
B(  0-C ,  1-C ) :   1.3126 B(  0-C ,  5-C ) :   1.3563 B(  0-C , 18-H ) :   0.9555
B(  1-C ,  2-C ) :   1.3629 B(  1-C , 19-H ) :   0.9553 B(  2-C ,  3-C ) :   1.3365
B(  2-C , 15-O ) :   0.1061 B(  2-C , 20-H ) :   0.9653 B(  3-C ,  4-C ) :   1.5252
B(  3-C , 14-C ) :   0.9825 B(  3-C , 15-O ) :  -0.1942 B(  4-C ,  5-C ) :   1.3415
B(  4-C ,  6-C ) :   0.9378 B(  4-C ,  7-O ) :  -0.2117 B(  5-C ,  7-O ) :   0.1056
B(  5-C , 21-H ) :   0.9614 B(  6-C ,  7-O ) :   1.8850 B(  6-C ,  8-C ) :   0.9954
B(  6-C , 13-C ) :  -0.1019 B(  7-O ,  8-C ) :  -0.1355 B(  7-O ,  9-C ) :   0.1032
B(  8-C ,  9-C ) :   1.3026 B(  8-C , 13-C ) :   0.9506 B(  8-C , 14-C ) :  -0.1228
B(  9-C , 10-C ) :   1.0809 B(  9-C , 17-N ) :   1.0748 B( 10-C , 11-C ) :   1.4397
B( 10-C , 22-H ) :   0.9494 B( 11-C , 12-C ) :   1.2463 B( 11-C , 23-H ) :   0.9388
B( 12-C , 13-C ) :   1.3074 B( 12-C , 16-O ) :   1.1476 B( 13-C , 14-C ) :   1.0070
B( 13-C , 15-O ) :  -0.1200 B( 14-C , 15-O ) :   1.8120 B( 15-O , 24-H ) :   0.1263
B( 16-O , 24-H ) :   0.7335 B( 17-N , 25-H ) :   0.8458 B( 17-N , 26-H ) :   0.9337

Dispersion correction           -0.013289622
FINAL SINGLE POINT ENERGY      -819.220580879325

DIPOLE MOMENT
-------------

Method             : SCF
Type of density    : Electron Density
Multiplicity       :   1
Irrep              :   0
Energy             :  -819.2201773157153184 Eh
Relativity type    :
Basis              : AO
                                X                 Y                 Z
Electronic contribution:      1.355534067       2.255188922       0.005987297
Nuclear contribution   :     -0.919363128      -3.112616523      -0.008728214
                        -----------------------------------------
Total Dipole Moment    :      0.436170940      -0.857427601      -0.002740917
                        -----------------------------------------
Magnitude (a.u.)       :      0.961995162
Magnitude (Debye)      :      2.445197379

Rotational constants in cm-1:             0.024040             0.012959             0.008420
Rotational constants in MHz :           720.714066           388.494413           252.426411

                             ****ORCA TERMINATED NORMALLY****
TOTAL RUN TIME: 0 days 0 hours 1 minutes 29 seconds 757 msec
