                         Program Version 6.0.0  -   RELEASE  -
|  1> ! r2scan-3c def2/J RI DEFGRID2 scfconv6 printgap
|  2> %output
|  3>     printlevel normal
|  4> end
|  5> %cpcm
|  6>     smd true
|  7>     smdsolvent "water"
|  8> end
|  9> * xyz 0 1
| 10> C -3.9890514558 -0.6924548949 -0.0004426321
| 11> C -3.9888655387 0.6966608988 -0.0019977077
| 12> C -2.7917209045 1.3842553437 -0.0019340215
| 13> C -1.5780743009 0.6958130892 -0.0004674683
| 14> C -1.5768585521 -0.7031734983 0.000495205
| 15> C -2.7931948443 -1.3839691985 0.0006734759
| 16> C -0.3223127306 -1.4749736524 0.0009547659
| 17> O -0.3764754466 -2.7183541312 0.0017366459
| 18> C 0.9199655371 -0.7346866261 0.0002503317
| 19> C 2.1574010829 -1.4273658502 -0.0007484127
| 20> C 3.3630838157 -0.675457852 -0.0025136374
| 21> C 3.3528721195 0.6829254135 -0.0019679829
| 22> C 2.1325198128 1.3939040514 0.0002823724
| 23> C 0.9174897748 0.6915189428 0.000523811
| 24> C -0.322748452 1.4479992686 0.0004691391
| 25> O -0.3394379447 2.6946482767 0.001928045
| 26> O 2.2166478261 2.7256321676 0.0014512065
| 27> N 2.2344701099 -2.7607811305 0.0003393217
| 28> H -4.9227194973 -1.2328084383 -4.78149e-05
| 29> H -4.9214692166 1.2386596229 -0.0031277993
| 30> H -2.7643388226 2.4639466573 -0.0030528837
| 31> H -2.769908331 -2.4636528211 0.0014891551
| 32> H 4.299328405 -1.2114953042 -0.004198644
| 33> H 4.2631398653 1.2606330514 -0.003317566
| 34> H 1.2969696183 3.1028057595 0.0023759248
| 35> H 1.370116485 -3.2896787229 0.0012391728
| 36> H 3.1321606566 -3.2126135659 -0.0007456746
| 37> *
| 38>
| 39>                          ****END OF INPUT****

CARTESIAN COORDINATES (ANGSTROEM)
---------------------------------
  C     -3.989051   -0.692455   -0.000443
  C     -3.988866    0.696661   -0.001998
  C     -2.791721    1.384255   -0.001934
  C     -1.578074    0.695813   -0.000467
  C     -1.576859   -0.703173    0.000495
  C     -2.793195   -1.383969    0.000673
  C     -0.322313   -1.474974    0.000955
  O     -0.376475   -2.718354    0.001737
  C      0.919966   -0.734687    0.000250
  C      2.157401   -1.427366   -0.000748
  C      3.363084   -0.675458   -0.002514
  C      3.352872    0.682925   -0.001968
  C      2.132520    1.393904    0.000282
  C      0.917490    0.691519    0.000524
  C     -0.322748    1.447999    0.000469
  O     -0.339438    2.694648    0.001928
  O      2.216648    2.725632    0.001451
  N      2.234470   -2.760781    0.000339
  H     -4.922719   -1.232808   -0.000048
  H     -4.921469    1.238660   -0.003128
  H     -2.764339    2.463947   -0.003053
  H     -2.769908   -2.463653    0.001489
  H      4.299328   -1.211495   -0.004199
  H      4.263140    1.260633   -0.003318
  H      1.296970    3.102806    0.002376
  H      1.370116   -3.289679    0.001239
  H      3.132161   -3.212614   -0.000746

 Total Charge           Charge          ....    0
 Multiplicity           Mult            ....    1
 Number of Electrons    NEL             ....  124
 Basis Dimension        Dim             ....  407

ORBITAL ENERGIES
----------------

  NO   OCC          E(Eh)            E(eV)
   0   2.0000     -18.988707      -516.7090
   1   2.0000     -18.952373      -515.7203
   2   2.0000     -18.940125      -515.3870
   3   2.0000     -14.179063      -385.8319
   4   2.0000     -10.131109      -275.6815
   5   2.0000     -10.122579      -275.4494
   6   2.0000     -10.119241      -275.3586
   7   2.0000     -10.102820      -274.9117
   8   2.0000     -10.059541      -273.7340
   9   2.0000     -10.058006      -273.6923
  10   2.0000     -10.057582      -273.6807
  11   2.0000     -10.056295      -273.6457
  12   2.0000     -10.055526      -273.6248
  13   2.0000     -10.053855      -273.5793
  14   2.0000     -10.048514      -273.4340
  15   2.0000     -10.048291      -273.4279
  16   2.0000     -10.047185      -273.3978
  17   2.0000     -10.046677      -273.3840
  18   2.0000      -1.045768       -28.4568
  19   2.0000      -1.009383       -27.4667
  20   2.0000      -1.006073       -27.3766
  21   2.0000      -0.911148       -24.7936
  22   2.0000      -0.849821       -23.1248
  23   2.0000      -0.826098       -22.4793
  24   2.0000      -0.775036       -21.0898
  25   2.0000      -0.736998       -20.0547
  26   2.0000      -0.732584       -19.9346
  27   2.0000      -0.713195       -19.4070
  28   2.0000      -0.656155       -17.8549
  29   2.0000      -0.628866       -17.1123
  30   2.0000      -0.617018       -16.7899
  31   2.0000      -0.581560       -15.8251
  32   2.0000      -0.558842       -15.2069
  33   2.0000      -0.536681       -14.6038
  34   2.0000      -0.518487       -14.1087
  35   2.0000      -0.510011       -13.8781
  36   2.0000      -0.493593       -13.4313
  37   2.0000      -0.469181       -12.7671
  38   2.0000      -0.449515       -12.2319
  39   2.0000      -0.442012       -12.0278
  40   2.0000      -0.436325       -11.8730
  41   2.0000      -0.427812       -11.6414
  42   2.0000      -0.415588       -11.3087
  43   2.0000      -0.406271       -11.0552
  44   2.0000      -0.404276       -11.0009
  45   2.0000      -0.398408       -10.8412
  46   2.0000      -0.390865       -10.6360
  47   2.0000      -0.390807       -10.6344
  48   2.0000      -0.383669       -10.4402
  49   2.0000      -0.360590        -9.8121
  50   2.0000      -0.353640        -9.6230
  51   2.0000      -0.343814        -9.3557
  52   2.0000      -0.340080        -9.2540
  53   2.0000      -0.333955        -9.0874
  54   2.0000      -0.321887        -8.7590
  55   2.0000      -0.281185        -7.6514
  56   2.0000      -0.264042        -7.1850
  57   2.0000      -0.251499        -6.8436
  58   2.0000      -0.250861        -6.8263
  59   2.0000      -0.246296        -6.7021
  60   2.0000      -0.230217        -6.2645
  61   2.0000      -0.190027        -5.1709
  62   0.0000      -0.130065        -3.5392
  63   0.0000      -0.079172        -2.1544
  64   0.0000      -0.050563        -1.3759
  65   0.0000      -0.022350        -0.6082
  66   0.0000       0.024346         0.6625

MULLIKEN ATOMIC CHARGES
-----------------------
   0 C :   -0.161758
   1 C :   -0.168555
   2 C :   -0.248486
   3 C :    0.127610
   4 C :    0.184965
   5 C :   -0.249615
   6 C :    0.014796
   7 O :   -0.512422
   8 C :   -0.014481
   9 C :    0.498188
  10 C :   -0.354686
  11 C :   -0.291556
  12 C :    0.257480
  13 C :   -0.006789
  14 C :    0.146161
  15 O :   -0.528048
  16 O :   -0.406898
  17 N :   -0.482901
  18 H :    0.184677
  19 H :    0.184488
  20 H :    0.195603
  21 H :    0.196512
  22 H :    0.192974
  23 H :    0.196735
  24 H :    0.401768
  25 H :    0.334881
  26 H :    0.309356
Sum of atomic charges:   -0.0000000

LOEWDIN ATOMIC CHARGES
----------------------
   0 C :   -0.135610
   1 C :   -0.141012
   2 C :   -0.105931
   3 C :   -0.037150
   4 C :   -0.028616
   5 C :   -0.110902
   6 C :    0.262691
   7 O :   -0.596728
   8 C :   -0.045864
   9 C :    0.182800
  10 C :   -0.086667
  11 C :   -0.092433
  12 C :    0.228034
  13 C :   -0.038837
  14 C :    0.278078
  15 O :   -0.581975
  16 O :   -0.480279
  17 N :   -0.505860
  18 H :    0.183915
  19 H :    0.183886
  20 H :    0.195611
  21 H :    0.195782
  22 H :    0.195909
  23 H :    0.199305
  24 H :    0.316040
  25 H :    0.288252
  26 H :    0.277561

  Mayer bond orders larger than 0.100000
B(  0-C ,  1-C ) :   1.2988 B(  0-C ,  5-C ) :   1.3513 B(  0-C , 18-H ) :   0.9604
B(  1-C ,  2-C ) :   1.3567 B(  1-C , 19-H ) :   0.9608 B(  2-C ,  3-C ) :   1.2792
B(  2-C , 15-O ) :   0.1024 B(  2-C , 20-H ) :   0.9765 B(  3-C ,  4-C ) :   1.5158
B(  3-C , 14-C ) :   0.9805 B(  3-C , 15-O ) :  -0.1926 B(  4-C ,  5-C ) :   1.2804
B(  4-C ,  6-C ) :   0.9303 B(  4-C ,  7-O ) :  -0.2153 B(  5-C ,  7-O ) :   0.1035
B(  5-C , 21-H ) :   0.9741 B(  6-C ,  7-O ) :   1.8706 B(  6-C ,  8-C ) :   1.0113
B(  6-C , 13-C ) :  -0.1036 B(  7-O ,  8-C ) :  -0.1409 B(  8-C ,  9-C ) :   1.2640
B(  8-C , 13-C ) :   0.9333 B(  8-C , 14-C ) :  -0.1231 B(  9-C , 10-C ) :   1.0939
B(  9-C , 17-N ) :   1.0888 B( 10-C , 11-C ) :   1.4372 B( 10-C , 22-H ) :   0.9567
B( 11-C , 12-C ) :   1.1811 B( 11-C , 23-H ) :   0.9544 B( 12-C , 13-C ) :   1.2897
B( 12-C , 16-O ) :   1.1374 B( 13-C , 14-C ) :   1.0131 B( 13-C , 15-O ) :  -0.1295
B( 14-C , 15-O ) :   1.7981 B( 15-O , 24-H ) :   0.1084 B( 16-O , 24-H ) :   0.7290
B( 17-N , 25-H ) :   0.8396 B( 17-N , 26-H ) :   0.9087

Dispersion correction           -0.013289622
FINAL SINGLE POINT ENERGY      -819.234839805917

DIPOLE MOMENT
-------------

Method             : SCF
Type of density    : Electron Density
Multiplicity       :   1
Irrep              :   0
Energy             :  -819.2344362423078792 Eh
Relativity type    :
Basis              : AO
                                X                 Y                 Z
Electronic contribution:      1.866218681       1.887110671       0.004550537
Nuclear contribution   :     -0.919363128      -3.112616523      -0.008728214
                        -----------------------------------------
Total Dipole Moment    :      0.946855554      -1.225505853      -0.004177677
                        -----------------------------------------
Magnitude (a.u.)       :      1.548682500
Magnitude (Debye)      :      3.936438082

Rotational constants in cm-1:             0.024040             0.012959             0.008420
Rotational constants in MHz :           720.714066           388.494413           252.426411

                             ****ORCA TERMINATED NORMALLY****
TOTAL RUN TIME: 0 days 0 hours 1 minutes 50 seconds 321 msec
