                         Program Version 6.0.0  -   RELEASE  -
|  1> ! wb97x-v def2-tzvp def2/J RIJCOSX DEFGRID2 scfconv7 GCP(DFT/TZ) printgap
|  2> %output
|  3>     printlevel normal
|  4> end
|  5> %cpcm
|  6>     smd true
|  7>     smdsolvent "water"
|  8> end
|  9> * xyz 0 1
| 10> C -0.5970398991920738 -0.01050586568621954 -0.47143375445539987
| 11> C 0.597010180356009 0.010523874273681788 0.47142222022866387
| 12> O 1.833605230350003 -0.011710695301721837 -0.25927007719897976
| 13> O -1.833638897207371 0.011725836435616607 0.25925380037667434
| 14> H -0.5986278391126976 -0.9388559282792343 -1.0530627885810058
| 15> H -0.5390528617169255 0.8350984404592746 -1.1706898931430687
| 16> H 0.5390241627726131 -0.8350789355431743 1.1706797298350151
| 17> H 0.598600149167353 0.9388748681734909 1.0530510267386146
| 18> H 1.8855514201718206 -0.8648138677883092 -0.7099386155618451
| 19> H -1.8855211501526685 0.8647746931999111 0.7100358233630737
| 20> *
| 21>
| 22>                          ****END OF INPUT****

CARTESIAN COORDINATES (ANGSTROEM)
---------------------------------
  C     -0.597040   -0.010506   -0.471434
  C      0.597010    0.010524    0.471422
  O      1.833605   -0.011711   -0.259270
  O     -1.833639    0.011726    0.259254
  H     -0.598628   -0.938856   -1.053063
  H     -0.539053    0.835098   -1.170690
  H      0.539024   -0.835079    1.170680
  H      0.598600    0.938875    1.053051
  H      1.885551   -0.864814   -0.709939
  H     -1.885521    0.864775    0.710036

 Total Charge           Charge          ....    0
 Multiplicity           Mult            ....    1
 Number of Electrons    NEL             ....   34
 Basis Dimension        Dim             ....  160

ORBITAL ENERGIES
----------------

  NO   OCC          E(Eh)            E(eV)
   0   2.0000     -21.676808      -589.8559
   1   2.0000     -21.676745      -589.8542
   2   2.0000     -12.087041      -328.9051
   3   2.0000     -12.085783      -328.8709
   4   2.0000      -1.678197       -45.6661
   5   2.0000      -1.672470       -45.5102
   6   2.0000      -1.264819       -34.4175
   7   2.0000      -1.155883       -31.4532
   8   2.0000      -1.048136       -28.5212
   9   2.0000      -1.015302       -27.6278
  10   2.0000      -0.971861       -26.4457
  11   2.0000      -0.951210       -25.8837
  12   2.0000      -0.930365       -25.3165
  13   2.0000      -0.908847       -24.7310
  14   2.0000      -0.847833       -23.0707
  15   2.0000      -0.794785       -21.6272
  16   2.0000      -0.768308       -20.9067
  17   0.0000      -0.190628        -5.1873
  18   0.0000      -0.071064        -1.9338
  19   0.0000      -0.029756        -0.8097
  20   0.0000      -0.014783        -0.4023
  21   0.0000       0.011854         0.3226

MULLIKEN ATOMIC CHARGES
-----------------------
   0 C :   -0.036322
   1 C :   -0.036329
   2 O :   -0.558782
   3 O :   -0.558780
   4 H :    0.123895
   5 H :    0.108797
   6 H :    0.108803
   7 H :    0.123895
   8 H :    0.362413
   9 H :    0.362410
Sum of atomic charges:    0.0000000

LOEWDIN ATOMIC CHARGES
----------------------
   0 C :   -0.342064
   1 C :   -0.342064
   2 O :   -0.096218
   3 O :   -0.096220
   4 H :    0.127876
   5 H :    0.118818
   6 H :    0.118819
   7 H :    0.127876
   8 H :    0.191588
   9 H :    0.191589

  Mayer bond orders larger than 0.100000
B(  0-C ,  1-C ) :   0.9904 B(  0-C ,  3-O ) :   0.9697 B(  0-C ,  4-H ) :   0.9621
B(  0-C ,  5-H ) :   0.9700 B(  1-C ,  2-O ) :   0.9697 B(  1-C ,  6-H ) :   0.9700
B(  1-C ,  7-H ) :   0.9621 B(  2-O ,  8-H ) :   0.8666 B(  3-O ,  9-H ) :   0.8666

FINAL SINGLE POINT ENERGY      -230.283208894633

DIPOLE MOMENT
-------------

Method             : SCF
Type of density    : Electron Density
Multiplicity       :   1
Irrep              :   0
Energy             :  -230.2900244530327711 Eh
Relativity type    :
Basis              : AO
                                X                 Y                 Z
Electronic contribution:      0.000001627      -0.000008109      -0.000003282
Nuclear contribution   :      0.000059048      -0.000042198       0.000099841
                        -----------------------------------------
Total Dipole Moment    :      0.000060674      -0.000050308       0.000096559
                        -----------------------------------------
Magnitude (a.u.)       :      0.000124643
Magnitude (Debye)      :      0.000316817

Rotational constants in cm-1:             0.967391             0.129863             0.121797
Rotational constants in MHz :         29001.642309          3893.180914          3651.375123

                             ****ORCA TERMINATED NORMALLY****
TOTAL RUN TIME: 0 days 0 hours 0 minutes 42 seconds 197 msec
