                         Program Version 6.0.1  -  RELEASE   -
|  1> ! pbe def2-sv(p) def2/J RI DEFGRID1 loosescf d4 GCP(DFT/SV(P)) printgap
|  2> %output
|  3>     printlevel normal
|  4> end
|  5> * xyz 0 1
|  6> C 4.9047388354 -2.7262430214 -2.0236923967
|  7> C 4.9388302921 -2.0692376985 -0.6533051404
|  8> O 3.6670637522 -2.206556889 0.0126411048
|  9> C 2.7430726334 -1.2949090629 -0.1915487812
| 10> O 2.8785713103 -0.3161180522 -0.8988656541
| 11> C 1.4826610909 -1.5866269147 0.5939765664
| 12> C 0.324942354 -0.8188315558 -0.0232140175
| 13> H 0.007997865 -1.239882982 -0.9818734961
| 14> C 0.6533182044 0.6463220755 -0.2398964885
| 15> O 0.3381361783 1.2491441913 -1.2441263115
| 16> O 1.1943613878 1.1969947542 0.824692882
| 17> C 1.5219006957 2.5980385735 0.7549412128
| 18> C 1.7685714838 3.0985397907 2.1646051877
| 19> S -1.1126357414 -0.8400102785 1.1022819876
| 20> P -2.4209608071 0.3180721372 -0.1075646082
| 21> S -2.4886102112 -0.1511756503 -2.0029938441
| 22> O -3.8047112402 0.1508960127 0.6699053515
| 23> C -4.527901071 -1.0866754181 0.6321436055
| 24> O -2.1026264072 1.8402723239 0.1915440467
| 25> C -2.2080430005 2.3841461034 1.5261056001
| 26> H 4.1916394801 -2.2145227616 -2.6668184426
| 27> H 5.8895033887 -2.6669960649 -2.4751561224
| 28> H 4.613894873 -3.7689379836 -1.9322217899
| 29> H 5.1753321706 -1.005078212 -0.7396804663
| 30> H 5.6469158414 -2.5669167994 0.0091718852
| 31> H 1.642944125 -1.2495434737 1.6211811207
| 32> H 1.2880591783 -2.6578689279 0.6092252369
| 33> H 2.4105990505 2.6967137225 0.1235430935
| 34> H 0.6942663874 3.1197843028 0.2630423585
| 35> H 0.8808146733 2.9624942344 2.7749600443
| 36> H 2.5916738459 2.5509038099 2.6130447183
| 37> H 2.0193670102 4.1532857572 2.1269544501
| 38> H -4.5636220018 -1.4676689896 -0.3894676773
| 39> H -5.5279710736 -0.8513927762 0.9868998507
| 40> H -4.0458160099 -1.8125349148 1.2857067192
| 41> H -1.6370972207 1.7713439526 2.2248780005
| 42> H -3.2534169735 2.4146975886 1.8253756233
| 43> H -1.7952346253 3.3875307262 1.4584586201
| 44> *
| 45>
| 46>                          ****END OF INPUT****

CARTESIAN COORDINATES (ANGSTROEM)
---------------------------------
  C      4.904739   -2.726243   -2.023692
  C      4.938830   -2.069238   -0.653305
  O      3.667064   -2.206557    0.012641
  C      2.743073   -1.294909   -0.191549
  O      2.878571   -0.316118   -0.898866
  C      1.482661   -1.586627    0.593977
  C      0.324942   -0.818832   -0.023214
  H      0.007998   -1.239883   -0.981873
  C      0.653318    0.646322   -0.239896
  O      0.338136    1.249144   -1.244126
  O      1.194361    1.196995    0.824693
  C      1.521901    2.598039    0.754941
  C      1.768571    3.098540    2.164605
  S     -1.112636   -0.840010    1.102282
  P     -2.420961    0.318072   -0.107565
  S     -2.488610   -0.151176   -2.002994
  O     -3.804711    0.150896    0.669905
  C     -4.527901   -1.086675    0.632144
  O     -2.102626    1.840272    0.191544
  C     -2.208043    2.384146    1.526106
  H      4.191639   -2.214523   -2.666818
  H      5.889503   -2.666996   -2.475156
  H      4.613895   -3.768938   -1.932222
  H      5.175332   -1.005078   -0.739680
  H      5.646916   -2.566917    0.009172
  H      1.642944   -1.249543    1.621181
  H      1.288059   -2.657869    0.609225
  H      2.410599    2.696714    0.123543
  H      0.694266    3.119784    0.263042
  H      0.880815    2.962494    2.774960
  H      2.591674    2.550904    2.613045
  H      2.019367    4.153286    2.126954
  H     -4.563622   -1.467669   -0.389468
  H     -5.527971   -0.851393    0.986900
  H     -4.045816   -1.812535    1.285707
  H     -1.637097    1.771344    2.224878
  H     -3.253417    2.414698    1.825376
  H     -1.795235    3.387531    1.458459

 Total Charge           Charge          ....    0
 Multiplicity           Mult            ....    1
 Number of Electrons    NEL             ....  174
 Basis Dimension        Dim             ....  316

ORBITAL ENERGIES
----------------

  NO   OCC          E(Eh)            E(eV)
   0   2.0000     -88.039688     -2395.6817
   1   2.0000     -87.973869     -2393.8907
   2   2.0000     -76.420580     -2079.5097
   3   2.0000     -18.814770      -511.9759
   4   2.0000     -18.795157      -511.4422
   5   2.0000     -18.792970      -511.3827
   6   2.0000     -18.790960      -511.3280
   7   2.0000     -18.750640      -510.2308
   8   2.0000     -18.715868      -509.2847
   9   2.0000     -10.022757      -272.7331
  10   2.0000     -10.000217      -272.1197
  11   2.0000      -9.956758      -270.9372
  12   2.0000      -9.948055      -270.7003
  13   2.0000      -9.944993      -270.6170
  14   2.0000      -9.942189      -270.5407
  15   2.0000      -9.939772      -270.4749
  16   2.0000      -9.918583      -269.8984
  17   2.0000      -9.893280      -269.2098
  18   2.0000      -9.888797      -269.0878
  19   2.0000      -7.684414      -209.1035
  20   2.0000      -7.619274      -207.3310
  21   2.0000      -6.417831      -174.6381
  22   2.0000      -5.711915      -155.4291
  23   2.0000      -5.709102      -155.3526
  24   2.0000      -5.701651      -155.1498
  25   2.0000      -5.648434      -153.7017
  26   2.0000      -5.639552      -153.4600
  27   2.0000      -5.639479      -153.4580
  28   2.0000      -4.640760      -126.2815
  29   2.0000      -4.639719      -126.2532
  30   2.0000      -4.637873      -126.2029
  31   2.0000      -1.023058       -27.8388
  32   2.0000      -1.002110       -27.2688
  33   2.0000      -0.985744       -26.8235
  34   2.0000      -0.941434       -25.6177
  35   2.0000      -0.928034       -25.2531
  36   2.0000      -0.898653       -24.4536
  37   2.0000      -0.765922       -20.8418
  38   2.0000      -0.720055       -19.5937
  39   2.0000      -0.702794       -19.1240
  40   2.0000      -0.692971       -18.8567
  41   2.0000      -0.662598       -18.0302
  42   2.0000      -0.637612       -17.3503
  43   2.0000      -0.619573       -16.8594
  44   2.0000      -0.610176       -16.6037
  45   2.0000      -0.595282       -16.1985
  46   2.0000      -0.560023       -15.2390
  47   2.0000      -0.513932       -13.9848
  48   2.0000      -0.508652       -13.8411
  49   2.0000      -0.503072       -13.6893
  50   2.0000      -0.478425       -13.0186
  51   2.0000      -0.474592       -12.9143
  52   2.0000      -0.457797       -12.4573
  53   2.0000      -0.445389       -12.1197
  54   2.0000      -0.442351       -12.0370
  55   2.0000      -0.433850       -11.8057
  56   2.0000      -0.428488       -11.6598
  57   2.0000      -0.422263       -11.4904
  58   2.0000      -0.414278       -11.2731
  59   2.0000      -0.409714       -11.1489
  60   2.0000      -0.400572       -10.9001
  61   2.0000      -0.399468       -10.8701
  62   2.0000      -0.388108       -10.5610
  63   2.0000      -0.381493       -10.3810
  64   2.0000      -0.375162       -10.2087
  65   2.0000      -0.367031        -9.9874
  66   2.0000      -0.360085        -9.7984
  67   2.0000      -0.353120        -9.6089
  68   2.0000      -0.347319        -9.4510
  69   2.0000      -0.343000        -9.3335
  70   2.0000      -0.333655        -9.0792
  71   2.0000      -0.329251        -8.9594
  72   2.0000      -0.324496        -8.8300
  73   2.0000      -0.311029        -8.4635
  74   2.0000      -0.304191        -8.2775
  75   2.0000      -0.301655        -8.2084
  76   2.0000      -0.298271        -8.1164
  77   2.0000      -0.290008        -7.8915
  78   2.0000      -0.271929        -7.3996
  79   2.0000      -0.270870        -7.3707
  80   2.0000      -0.259816        -7.0700
  81   2.0000      -0.247327        -6.7301
  82   2.0000      -0.235430        -6.4064
  83   2.0000      -0.229915        -6.2563
  84   2.0000      -0.209701        -5.7063
  85   2.0000      -0.190625        -5.1872
  86   2.0000      -0.183262        -4.9868
  87   0.0000      -0.041714        -1.1351
  88   0.0000      -0.031978        -0.8702
  89   0.0000      -0.011574        -0.3150
  90   0.0000       0.011237         0.3058
  91   0.0000       0.026661         0.7255

MULLIKEN ATOMIC CHARGES
-----------------------
   0 C :   -0.306691
   1 C :   -0.014722
   2 O :   -0.224396
   3 C :    0.124084
   4 O :   -0.194687
   5 C :   -0.058507
   6 C :   -0.287190
   7 H :    0.144423
   8 C :    0.170597
   9 O :   -0.174056
  10 O :   -0.246569
  11 C :   -0.029817
  12 C :   -0.279876
  13 S :   -0.115415
  14 P :    0.600773
  15 S :   -0.279801
  16 O :   -0.392425
  17 C :   -0.100504
  18 O :   -0.358906
  19 C :   -0.115789
  20 H :    0.133288
  21 H :    0.117084
  22 H :    0.117042
  23 H :    0.112336
  24 H :    0.106679
  25 H :    0.127424
  26 H :    0.122006
  27 H :    0.108932
  28 H :    0.117635
  29 H :    0.110446
  30 H :    0.111839
  31 H :    0.110694
  32 H :    0.120197
  33 H :    0.125557
  34 H :    0.115922
  35 H :    0.122880
  36 H :    0.127584
  37 H :    0.131931
Sum of atomic charges:    0.0000000

LOEWDIN ATOMIC CHARGES
----------------------
   0 C :   -0.355102
   1 C :   -0.109345
   2 O :   -0.053340
   3 C :    0.043608
   4 O :   -0.146477
   5 C :   -0.254186
   6 C :   -0.257729
   7 H :    0.139318
   8 C :   -0.014158
   9 O :   -0.146297
  10 O :   -0.066702
  11 C :   -0.106475
  12 C :   -0.351569
  13 S :    0.085304
  14 P :    0.570355
  15 S :   -0.288951
  16 O :   -0.259820
  17 C :   -0.214898
  18 O :   -0.234987
  19 C :   -0.213381
  20 H :    0.133491
  21 H :    0.132886
  22 H :    0.126307
  23 H :    0.121612
  24 H :    0.119709
  25 H :    0.148945
  26 H :    0.142420
  27 H :    0.119717
  28 H :    0.118678
  29 H :    0.121857
  30 H :    0.125335
  31 H :    0.130280
  32 H :    0.112753
  33 H :    0.122586
  34 H :    0.110288
  35 H :    0.107178
  36 H :    0.117605
  37 H :    0.123186

  Mayer bond orders larger than 0.100000
B(  0-C ,  1-C ) :   1.1757 B(  0-C , 20-H ) :   0.9460 B(  0-C , 21-H ) :   0.9436
B(  0-C , 22-H ) :   0.9485 B(  1-C ,  2-O ) :   0.9067 B(  1-C , 23-H ) :   0.9139
B(  1-C , 24-H ) :   0.9365 B(  2-O ,  3-C ) :   1.2559 B(  3-C ,  4-O ) :   1.9927
B(  3-C ,  5-C ) :   1.0166 B(  5-C ,  6-C ) :   1.0353 B(  5-C , 25-H ) :   0.8665
B(  5-C , 26-H ) :   0.8995 B(  6-C ,  7-H ) :   0.8700 B(  6-C ,  8-C ) :   0.9093
B(  6-C , 13-S ) :   1.0144 B(  8-C ,  9-O ) :   2.0568 B(  8-C , 10-O ) :   1.2023
B( 10-O , 11-C ) :   0.9115 B( 11-C , 12-C ) :   1.1521 B( 11-C , 27-H ) :   0.9325
B( 11-C , 28-H ) :   0.9194 B( 12-C , 29-H ) :   0.9500 B( 12-C , 30-H ) :   0.9478
B( 12-C , 31-H ) :   0.9443 B( 13-S , 14-P ) :   0.9528 B( 13-S , 15-S ) :   0.1137
B( 14-P , 15-S ) :   1.7001 B( 14-P , 16-O ) :   1.0657 B( 14-P , 18-O ) :   1.1045
B( 16-O , 17-C ) :   0.9292 B( 17-C , 32-H ) :   0.9315 B( 17-C , 33-H ) :   0.9587
B( 17-C , 34-H ) :   0.9507 B( 18-O , 19-C ) :   0.9186 B( 19-C , 35-H ) :   0.9290
B( 19-C , 36-H ) :   0.9472 B( 19-C , 37-H ) :   0.9541

Dispersion correction           -0.051323702
FINAL SINGLE POINT ENERGY     -1979.013599555268

DIPOLE MOMENT
-------------

Method             : SCF
Type of density    : Electron Density
Multiplicity       :   1
Irrep              :   0
Energy             : -1979.1451825841145364 Eh
Relativity type    :
Basis              : AO
                                X                 Y                 Z
Electronic contribution:    -16.583795595      -1.783205532      -6.396745773
Nuclear contribution   :     17.525925142       1.232091264       8.312618312
                        -----------------------------------------
Total Dipole Moment    :      0.942129547      -0.551114268       1.915872539
                        -----------------------------------------
Magnitude (a.u.)       :      2.204972246
Magnitude (Debye)      :      5.604594045

Rotational constants in cm-1:             0.015253             0.005890             0.005037
Rotational constants in MHz :           457.273497           176.584082           151.006678

                             ****ORCA TERMINATED NORMALLY****
TOTAL RUN TIME: 0 days 0 hours 0 minutes 29 seconds 874 msec
