                         Program Version 6.0.0  -   RELEASE  -
|  1> ! pbe def2-sv(p) def2/J RI DEFGRID1 loosescf d4 GCP(DFT/SV(P)) printgap
|  2> %output
|  3>     printlevel normal
|  4> end
|  5> * xyz 0 1
|  6> C 4.8855023632 1.3235381419 0.01412913
|  7> C 3.5921598624 1.4910067875 -0.7548978918
|  8> O 2.8649503237 0.2479077679 -0.8498156177
|  9> P 2.1665593017 -0.4059055439 0.4112383236
| 10> S 1.5409814588 0.8371856193 1.7996809967
| 11> O 3.2716015909 -1.4247466725 0.9298763675
| 12> C 3.1838450522 -2.0507583241 2.220256799
| 13> C 2.0204597161 -3.0183558002 2.2956627189
| 14> S 0.7750227417 -1.6606500363 -0.585080322
| 15> C 0.1469399199 -0.4871612469 -1.822302011
| 16> S -0.5250531243 1.0315207793 -1.115420408
| 17> P -2.5443101969 0.4019878382 -0.7746242428
| 18> S -3.0900665056 -1.1357565361 -1.8558895506
| 19> O -3.4476224558 1.6430021419 -1.1189017454
| 20> C -3.6074598124 2.834207223 -0.3099624627
| 21> C -2.3114174001 3.5954676024 -0.129552326
| 22> O -2.7342689589 0.3226992068 0.804236563
| 23> C -2.0064340567 -0.5084585047 1.7201352043
| 24> C -2.2729326085 -1.9852252788 1.5122542241
| 25> H 5.4765268974 0.5190718276 -0.415688711
| 26> H 5.4501889224 2.2497568038 -0.0245208549
| 27> H 4.6690125208 1.0838587447 1.0544031103
| 28> H 3.7707545493 1.7709937118 -1.7938431487
| 29> H 2.9467553953 2.2342650524 -0.2755974548
| 30> H 4.1424831954 -2.5580196272 2.3346929429
| 31> H 3.0818023785 -1.2676342361 2.9789625663
| 32> H 2.0831215324 -3.7502851527 1.4944821041
| 33> H 2.0324990314 -3.5273596096 3.2539718776
| 34> H 1.0820237297 -2.4728264289 2.1944024768
| 35> H -0.6475919997 -1.0137267689 -2.3573097003
| 36> H 0.9557771516 -0.2020740379 -2.4891331315
| 37> H -4.3391865989 3.4164517488 -0.8721010546
| 38> H -4.0261604708 2.5389480467 0.653694336
| 39> H -1.8646591327 3.82005381 -1.0950082501
| 40> H -2.5154307414 4.524025728 0.3946878793
| 41> H -1.6019328493 3.0126826291 0.456732537
| 42> H -0.9390743243 -0.2807748929 1.6322071861
| 43> H -2.3576891849 -0.1767182611 2.6992995499
| 44> H -1.8557350304 -2.3242151469 0.5656704106
| 45> H -1.814443673 -2.5474378418 2.3196727503
| 46> H -3.3435692172 -2.1739256747 1.5061916873
| 47> *
| 48>
| 49>                          ****END OF INPUT****

CARTESIAN COORDINATES (ANGSTROEM)
---------------------------------
  C      4.885502    1.323538    0.014129
  C      3.592160    1.491007   -0.754898
  O      2.864950    0.247908   -0.849816
  P      2.166559   -0.405906    0.411238
  S      1.540981    0.837186    1.799681
  O      3.271602   -1.424747    0.929876
  C      3.183845   -2.050758    2.220257
  C      2.020460   -3.018356    2.295663
  S      0.775023   -1.660650   -0.585080
  C      0.146940   -0.487161   -1.822302
  S     -0.525053    1.031521   -1.115420
  P     -2.544310    0.401988   -0.774624
  S     -3.090067   -1.135757   -1.855890
  O     -3.447622    1.643002   -1.118902
  C     -3.607460    2.834207   -0.309962
  C     -2.311417    3.595468   -0.129552
  O     -2.734269    0.322699    0.804237
  C     -2.006434   -0.508459    1.720135
  C     -2.272933   -1.985225    1.512254
  H      5.476527    0.519072   -0.415689
  H      5.450189    2.249757   -0.024521
  H      4.669013    1.083859    1.054403
  H      3.770755    1.770994   -1.793843
  H      2.946755    2.234265   -0.275597
  H      4.142483   -2.558020    2.334693
  H      3.081802   -1.267634    2.978963
  H      2.083122   -3.750285    1.494482
  H      2.032499   -3.527360    3.253972
  H      1.082024   -2.472826    2.194402
  H     -0.647592   -1.013727   -2.357310
  H      0.955777   -0.202074   -2.489133
  H     -4.339187    3.416452   -0.872101
  H     -4.026160    2.538948    0.653694
  H     -1.864659    3.820054   -1.095008
  H     -2.515431    4.524026    0.394688
  H     -1.601933    3.012683    0.456733
  H     -0.939074   -0.280775    1.632207
  H     -2.357689   -0.176718    2.699300
  H     -1.855735   -2.324215    0.565670
  H     -1.814444   -2.547438    2.319673
  H     -3.343569   -2.173926    1.506192

 Total Charge           Charge          ....    0
 Multiplicity           Mult            ....    1
 Number of Electrons    NEL             ....  202
 Basis Dimension        Dim             ....  334

ORBITAL ENERGIES
----------------

  NO   OCC          E(Eh)            E(eV)
   0   2.0000     -88.044025     -2395.7997
   1   2.0000     -88.039703     -2395.6821
   2   2.0000     -87.993396     -2394.4220
   3   2.0000     -87.981272     -2394.0921
   4   2.0000     -76.432669     -2079.8387
   5   2.0000     -76.424262     -2079.6099
   6   2.0000     -18.800483      -511.5872
   7   2.0000     -18.797259      -511.4994
   8   2.0000     -18.788960      -511.2736
   9   2.0000     -18.788688      -511.2662
  10   2.0000      -9.958099      -270.9736
  11   2.0000      -9.957840      -270.9666
  12   2.0000      -9.955535      -270.9039
  13   2.0000      -9.952267      -270.8150
  14   2.0000      -9.943345      -270.5722
  15   2.0000      -9.891915      -269.1727
  16   2.0000      -9.889048      -269.0947
  17   2.0000      -9.888829      -269.0887
  18   2.0000      -9.872238      -268.6373
  19   2.0000      -7.688849      -209.2242
  20   2.0000      -7.684251      -209.0991
  21   2.0000      -7.637897      -207.8378
  22   2.0000      -7.626494      -207.5274
  23   2.0000      -6.430081      -174.9714
  24   2.0000      -6.421374      -174.7345
  25   2.0000      -5.716887      -155.5644
  26   2.0000      -5.713393      -155.4693
  27   2.0000      -5.712218      -155.4374
  28   2.0000      -5.708703      -155.3417
  29   2.0000      -5.705667      -155.2591
  30   2.0000      -5.701299      -155.1402
  31   2.0000      -5.666696      -154.1986
  32   2.0000      -5.658634      -153.9793
  33   2.0000      -5.658133      -153.9656
  34   2.0000      -5.655493      -153.8938
  35   2.0000      -5.647037      -153.6637
  36   2.0000      -5.646592      -153.6516
  37   2.0000      -4.652722      -126.6070
  38   2.0000      -4.651855      -126.5834
  39   2.0000      -4.650480      -126.5460
  40   2.0000      -4.644248      -126.3764
  41   2.0000      -4.643143      -126.3463
  42   2.0000      -4.641639      -126.3054
  43   2.0000      -0.994139       -27.0519
  44   2.0000      -0.984926       -26.8012
  45   2.0000      -0.954378       -25.9699
  46   2.0000      -0.939524       -25.5657
  47   2.0000      -0.762418       -20.7464
  48   2.0000      -0.722642       -19.6641
  49   2.0000      -0.711101       -19.3500
  50   2.0000      -0.693523       -18.8717
  51   2.0000      -0.686026       -18.6677
  52   2.0000      -0.674079       -18.3426
  53   2.0000      -0.656031       -17.8515
  54   2.0000      -0.638060       -17.3625
  55   2.0000      -0.604501       -16.4493
  56   2.0000      -0.589808       -16.0495
  57   2.0000      -0.579194       -15.7607
  58   2.0000      -0.576297       -15.6818
  59   2.0000      -0.560652       -15.2561
  60   2.0000      -0.501114       -13.6360
  61   2.0000      -0.491772       -13.3818
  62   2.0000      -0.480330       -13.0704
  63   2.0000      -0.468772       -12.7559
  64   2.0000      -0.459602       -12.5064
  65   2.0000      -0.446254       -12.1432
  66   2.0000      -0.445457       -12.1215
  67   2.0000      -0.437388       -11.9019
  68   2.0000      -0.421581       -11.4718
  69   2.0000      -0.421021       -11.4566
  70   2.0000      -0.414256       -11.2725
  71   2.0000      -0.399663       -10.8754
  72   2.0000      -0.398639       -10.8475
  73   2.0000      -0.394593       -10.7374
  74   2.0000      -0.384340       -10.4584
  75   2.0000      -0.377502       -10.2723
  76   2.0000      -0.365720        -9.9517
  77   2.0000      -0.359994        -9.7959
  78   2.0000      -0.355265        -9.6673
  79   2.0000      -0.353520        -9.6198
  80   2.0000      -0.350380        -9.5343
  81   2.0000      -0.347037        -9.4434
  82   2.0000      -0.340488        -9.2651
  83   2.0000      -0.337438        -9.1822
  84   2.0000      -0.331122        -9.0103
  85   2.0000      -0.321955        -8.7608
  86   2.0000      -0.309118        -8.4115
  87   2.0000      -0.301437        -8.2025
  88   2.0000      -0.292697        -7.9647
  89   2.0000      -0.291016        -7.9189
  90   2.0000      -0.287049        -7.8110
  91   2.0000      -0.279812        -7.6141
  92   2.0000      -0.273448        -7.4409
  93   2.0000      -0.267941        -7.2910
  94   2.0000      -0.256312        -6.9746
  95   2.0000      -0.243088        -6.6148
  96   2.0000      -0.221586        -6.0297
  97   2.0000      -0.206495        -5.6190
  98   2.0000      -0.203465        -5.5366
  99   2.0000      -0.201038        -5.4705
 100   2.0000      -0.192065        -5.2263
 101   0.0000      -0.049743        -1.3536
 102   0.0000      -0.024274        -0.6605
 103   0.0000      -0.019501        -0.5306
 104   0.0000       0.000025         0.0007
 105   0.0000       0.009613         0.2616

MULLIKEN ATOMIC CHARGES
-----------------------
   0 C :   -0.306303
   1 C :   -0.006879
   2 O :   -0.372875
   3 P :    0.612756
   4 S :   -0.318378
   5 O :   -0.366352
   6 C :   -0.003170
   7 C :   -0.338836
   8 S :   -0.098341
   9 C :   -0.331947
  10 S :   -0.118263
  11 P :    0.623869
  12 S :   -0.312793
  13 O :   -0.361798
  14 C :    0.007405
  15 C :   -0.340804
  16 O :   -0.382151
  17 C :   -0.032296
  18 C :   -0.310437
  19 H :    0.119592
  20 H :    0.114392
  21 H :    0.123207
  22 H :    0.107022
  23 H :    0.115610
  24 H :    0.108896
  25 H :    0.110364
  26 H :    0.127004
  27 H :    0.118524
  28 H :    0.137225
  29 H :    0.192873
  30 H :    0.188727
  31 H :    0.110693
  32 H :    0.112202
  33 H :    0.128040
  34 H :    0.117822
  35 H :    0.140406
  36 H :    0.133004
  37 H :    0.098046
  38 H :    0.130851
  39 H :    0.108854
  40 H :    0.114240
Sum of atomic charges:   -0.0000000

LOEWDIN ATOMIC CHARGES
----------------------
   0 C :   -0.364166
   1 C :   -0.117594
   2 O :   -0.238983
   3 P :    0.573460
   4 S :   -0.311147
   5 O :   -0.241472
   6 C :   -0.120816
   7 C :   -0.371408
   8 S :    0.092483
   9 C :   -0.484503
  10 S :    0.076158
  11 P :    0.571947
  12 S :   -0.300848
  13 O :   -0.235831
  14 C :   -0.108423
  15 C :   -0.373682
  16 O :   -0.243193
  17 C :   -0.123271
  18 C :   -0.371156
  19 H :    0.127995
  20 H :    0.131765
  21 H :    0.122940
  22 H :    0.119320
  23 H :    0.112126
  24 H :    0.120620
  25 H :    0.109321
  26 H :    0.128005
  27 H :    0.133970
  28 H :    0.120403
  29 H :    0.127698
  30 H :    0.134361
  31 H :    0.122804
  32 H :    0.115905
  33 H :    0.127957
  34 H :    0.134005
  35 H :    0.122365
  36 H :    0.097654
  37 H :    0.117050
  38 H :    0.114154
  39 H :    0.126412
  40 H :    0.125616

  Mayer bond orders larger than 0.100000
B(  0-C ,  1-C ) :   1.1652 B(  0-C , 19-H ) :   0.9457 B(  0-C , 20-H ) :   0.9387
B(  0-C , 21-H ) :   0.9362 B(  1-C ,  2-O ) :   0.8988 B(  1-C , 22-H ) :   0.9337
B(  1-C , 23-H ) :   0.9155 B(  2-O ,  3-P ) :   1.1163 B(  3-P ,  4-S ) :   1.5941
B(  3-P ,  5-O ) :   1.1062 B(  3-P ,  8-S ) :   0.9665 B(  4-S ,  8-S ) :   0.1066
B(  5-O ,  6-C ) :   0.9097 B(  6-C ,  7-C ) :   1.1625 B(  6-C , 24-H ) :   0.9321
B(  6-C , 25-H ) :   0.9134 B(  7-C , 26-H ) :   0.9426 B(  7-C , 27-H ) :   0.9377
B(  7-C , 28-H ) :   0.9287 B(  8-S ,  9-C ) :   0.9913 B(  9-C , 10-S ) :   1.0230
B(  9-C , 29-H ) :   0.8531 B(  9-C , 30-H ) :   0.8978 B( 10-S , 11-P ) :   0.9297
B( 10-S , 12-S ) :   0.1139 B( 11-P , 12-S ) :   1.6444 B( 11-P , 13-O ) :   1.1457
B( 11-P , 16-O ) :   1.0818 B( 12-S , 29-H ) :   0.1171 B( 13-O , 14-C ) :   0.8995
B( 14-C , 15-C ) :   1.1699 B( 14-C , 31-H ) :   0.9338 B( 14-C , 32-H ) :   0.9270
B( 15-C , 33-H ) :   0.9416 B( 15-C , 34-H ) :   0.9352 B( 15-C , 35-H ) :   0.9309
B( 16-O , 17-C ) :   0.9051 B( 17-C , 18-C ) :   1.1682 B( 17-C , 36-H ) :   0.8950
B( 17-C , 37-H ) :   0.9349 B( 18-C , 38-H ) :   0.9275 B( 18-C , 39-H ) :   0.9336
B( 18-C , 40-H ) :   0.9423

Dispersion correction           -0.066748602
FINAL SINGLE POINT ENERGY     -2929.518996183131

DIPOLE MOMENT
-------------

Method             : SCF
Type of density    : Electron Density
Multiplicity       :   1
Irrep              :   0
Energy             : -2929.6381498560540422 Eh
Relativity type    :
Basis              : AO
                                X                 Y                 Z
Electronic contribution:     -8.861627333      -2.098730583     -12.847775576
Nuclear contribution   :     10.117813750       2.739385615      13.708992202
                        -----------------------------------------
Total Dipole Moment    :      1.256186418       0.640655033       0.861216626
                        -----------------------------------------
Magnitude (a.u.)       :      1.652312701
Magnitude (Debye)      :      4.199845120

Rotational constants in cm-1:             0.012090             0.005257             0.004685
Rotational constants in MHz :           362.452286           157.613611           140.447158

                             ****ORCA TERMINATED NORMALLY****
TOTAL RUN TIME: 0 days 0 hours 0 minutes 21 seconds 498 msec
