                         Program Version 6.0.0  -   RELEASE  -
|  1> ! pbe def2-sv(p) def2/J RI DEFGRID1 loosescf d4 GCP(DFT/SV(P)) printgap
|  2> %output
|  3>     printlevel normal
|  4> end
|  5> * xyz 0 1
|  6> C 2.2164522606 1.3630334815 -2.9825167353
|  7> C 2.5144951181 0.4536805198 -1.810668773
|  8> O 1.7764711033 0.9645719554 -0.6690596073
|  9> P 1.8057434649 0.293853945 0.7527671433
| 10> S 1.1013846427 1.4269104935 2.1782246107
| 11> O 3.3581662299 -0.0363517451 0.8955831112
| 12> C 3.8889791794 -0.5926490823 2.115742655
| 13> C 5.3998605902 -0.502213583 2.0499584301
| 14> S 0.9814549315 -1.6761263934 0.6463693917
| 15> C -0.4932350091 -1.4678042022 1.6788871386
| 16> S -2.0701118499 -1.5545161257 0.7812532694
| 17> P -1.6738186731 -0.1897355684 -0.8122162124
| 18> S -0.6644109123 -0.9218047932 -2.3227965714
| 19> O -1.015570597 1.0963275618 -0.1771759171
| 20> C -1.753917397 2.2296731102 0.3535763092
| 21> C -2.5274869215 1.8897065781 1.6088951486
| 22> O -3.1258808929 0.3085037436 -1.2080987656
| 23> C -4.0301964906 -0.5471425624 -1.9380026611
| 24> C -5.1347227215 0.3204167953 -2.5054199402
| 25> H 2.7926386954 1.0334663229 -3.840829376
| 26> H 1.1579844889 1.3151842787 -3.2255928633
| 27> H 2.4788323573 2.388128739 -2.7370516288
| 28> H 3.5755254477 0.4519348814 -1.5563564555
| 29> H 2.1803801373 -0.5686481379 -2.0086874229
| 30> H 3.4886335982 -0.0215486274 2.9599426989
| 31> H 3.552466546 -1.6303411262 2.1928841326
| 32> H 5.8193480888 -0.9174157802 2.9602882468
| 33> H 5.769354798 -1.06166844 1.195336438
| 34> H 5.7078195765 0.5352277584 1.9531503189
| 35> H -0.4122256636 -0.5084533584 2.1982064389
| 36> H -0.5205336908 -2.2944458699 2.3846546468
| 37> H -0.9685500277 2.9596456429 0.5569851981
| 38> H -2.4149347198 2.5954824328 -0.4327186872
| 39> H -3.0448208552 2.7815521864 1.9483427506
| 40> H -3.2582190938 1.1093240686 1.4088226273
| 41> H -1.8499525834 1.5602986199 2.3932033102
| 42> H -3.4679712871 -1.0540215662 -2.7293306213
| 43> H -4.4224290558 -1.2948311096 -1.2435800567
| 44> H -5.8343599212 -0.3076322564 -3.046880929
| 45> H -5.6573462233 0.831581604 -1.7022346403
| 46> H -4.7185175178 1.059697857 -3.184079944
| 47> *
| 48>
| 49>                          ****END OF INPUT****

CARTESIAN COORDINATES (ANGSTROEM)
---------------------------------
  C      2.216452    1.363033   -2.982517
  C      2.514495    0.453681   -1.810669
  O      1.776471    0.964572   -0.669060
  P      1.805743    0.293854    0.752767
  S      1.101385    1.426910    2.178225
  O      3.358166   -0.036352    0.895583
  C      3.888979   -0.592649    2.115743
  C      5.399861   -0.502214    2.049958
  S      0.981455   -1.676126    0.646369
  C     -0.493235   -1.467804    1.678887
  S     -2.070112   -1.554516    0.781253
  P     -1.673819   -0.189736   -0.812216
  S     -0.664411   -0.921805   -2.322797
  O     -1.015571    1.096328   -0.177176
  C     -1.753917    2.229673    0.353576
  C     -2.527487    1.889707    1.608895
  O     -3.125881    0.308504   -1.208099
  C     -4.030196   -0.547143   -1.938003
  C     -5.134723    0.320417   -2.505420
  H      2.792639    1.033466   -3.840829
  H      1.157984    1.315184   -3.225593
  H      2.478832    2.388129   -2.737052
  H      3.575525    0.451935   -1.556356
  H      2.180380   -0.568648   -2.008687
  H      3.488634   -0.021549    2.959943
  H      3.552467   -1.630341    2.192884
  H      5.819348   -0.917416    2.960288
  H      5.769355   -1.061668    1.195336
  H      5.707820    0.535228    1.953150
  H     -0.412226   -0.508453    2.198206
  H     -0.520534   -2.294446    2.384655
  H     -0.968550    2.959646    0.556985
  H     -2.414935    2.595482   -0.432719
  H     -3.044821    2.781552    1.948343
  H     -3.258219    1.109324    1.408823
  H     -1.849953    1.560299    2.393203
  H     -3.467971   -1.054022   -2.729331
  H     -4.422429   -1.294831   -1.243580
  H     -5.834360   -0.307632   -3.046881
  H     -5.657346    0.831582   -1.702235
  H     -4.718518    1.059698   -3.184080

 Total Charge           Charge          ....    0
 Multiplicity           Mult            ....    1
 Number of Electrons    NEL             ....  202
 Basis Dimension        Dim             ....  334

ORBITAL ENERGIES
----------------

  NO   OCC          E(Eh)            E(eV)
   0   2.0000     -88.040385     -2395.7007
   1   2.0000     -88.035877     -2395.5780
   2   2.0000     -87.985923     -2394.2187
   3   2.0000     -87.978751     -2394.0235
   4   2.0000     -76.424495     -2079.6162
   5   2.0000     -76.423429     -2079.5872
   6   2.0000     -18.795403      -511.4489
   7   2.0000     -18.790120      -511.3052
   8   2.0000     -18.787930      -511.2456
   9   2.0000     -18.784704      -511.1578
  10   2.0000      -9.955873      -270.9131
  11   2.0000      -9.953540      -270.8496
  12   2.0000      -9.950052      -270.7547
  13   2.0000      -9.947638      -270.6890
  14   2.0000      -9.944119      -270.5932
  15   2.0000      -9.890951      -269.1465
  16   2.0000      -9.887476      -269.0519
  17   2.0000      -9.877534      -268.7814
  18   2.0000      -9.874468      -268.6979
  19   2.0000      -7.684938      -209.1178
  20   2.0000      -7.681271      -209.0180
  21   2.0000      -7.631063      -207.6518
  22   2.0000      -7.623855      -207.4557
  23   2.0000      -6.421807      -174.7462
  24   2.0000      -6.420803      -174.7189
  25   2.0000      -5.712722      -155.4511
  26   2.0000      -5.709465      -155.3625
  27   2.0000      -5.709168      -155.3544
  28   2.0000      -5.705900      -155.2654
  29   2.0000      -5.702038      -155.1603
  30   2.0000      -5.698084      -155.0527
  31   2.0000      -5.659912      -154.0140
  32   2.0000      -5.652801      -153.8205
  33   2.0000      -5.651667      -153.7897
  34   2.0000      -5.651178      -153.7764
  35   2.0000      -5.644634      -153.5983
  36   2.0000      -5.643765      -153.5746
  37   2.0000      -4.645209      -126.4026
  38   2.0000      -4.643587      -126.3584
  39   2.0000      -4.643532      -126.3569
  40   2.0000      -4.642421      -126.3267
  41   2.0000      -4.641565      -126.3034
  42   2.0000      -4.641249      -126.2948
  43   2.0000      -0.988589       -26.9009
  44   2.0000      -0.984066       -26.7778
  45   2.0000      -0.943729       -25.6802
  46   2.0000      -0.938138       -25.5280
  47   2.0000      -0.758073       -20.6282
  48   2.0000      -0.719183       -19.5700
  49   2.0000      -0.709027       -19.2936
  50   2.0000      -0.690579       -18.7916
  51   2.0000      -0.686463       -18.6796
  52   2.0000      -0.670261       -18.2387
  53   2.0000      -0.645884       -17.5754
  54   2.0000      -0.634446       -17.2642
  55   2.0000      -0.588407       -16.0114
  56   2.0000      -0.581293       -15.8178
  57   2.0000      -0.572130       -15.5684
  58   2.0000      -0.563932       -15.3454
  59   2.0000      -0.561212       -15.2714
  60   2.0000      -0.509676       -13.8690
  61   2.0000      -0.504175       -13.7193
  62   2.0000      -0.477286       -12.9876
  63   2.0000      -0.471267       -12.8238
  64   2.0000      -0.449556       -12.2330
  65   2.0000      -0.446104       -12.1391
  66   2.0000      -0.442425       -12.0390
  67   2.0000      -0.435327       -11.8458
  68   2.0000      -0.427708       -11.6385
  69   2.0000      -0.413228       -11.2445
  70   2.0000      -0.404440       -11.0054
  71   2.0000      -0.394781       -10.7425
  72   2.0000      -0.393469       -10.7068
  73   2.0000      -0.376902       -10.2560
  74   2.0000      -0.372492       -10.1360
  75   2.0000      -0.367161        -9.9910
  76   2.0000      -0.363863        -9.9012
  77   2.0000      -0.356253        -9.6941
  78   2.0000      -0.351845        -9.5742
  79   2.0000      -0.345887        -9.4121
  80   2.0000      -0.344065        -9.3625
  81   2.0000      -0.340903        -9.2765
  82   2.0000      -0.336620        -9.1599
  83   2.0000      -0.333436        -9.0732
  84   2.0000      -0.327110        -8.9011
  85   2.0000      -0.321991        -8.7618
  86   2.0000      -0.311103        -8.4655
  87   2.0000      -0.304201        -8.2777
  88   2.0000      -0.300896        -8.1878
  89   2.0000      -0.294069        -8.0020
  90   2.0000      -0.286582        -7.7983
  91   2.0000      -0.271989        -7.4012
  92   2.0000      -0.262253        -7.1363
  93   2.0000      -0.257747        -7.0136
  94   2.0000      -0.254230        -6.9179
  95   2.0000      -0.237592        -6.4652
  96   2.0000      -0.222345        -6.0503
  97   2.0000      -0.206530        -5.6200
  98   2.0000      -0.203816        -5.5461
  99   2.0000      -0.190671        -5.1884
 100   2.0000      -0.184042        -5.0080
 101   0.0000      -0.047490        -1.2923
 102   0.0000      -0.031260        -0.8506
 103   0.0000      -0.011074        -0.3013
 104   0.0000       0.005835         0.1588
 105   0.0000       0.021554         0.5865

MULLIKEN ATOMIC CHARGES
-----------------------
   0 C :   -0.281616
   1 C :   -0.016175
   2 O :   -0.354727
   3 P :    0.635810
   4 S :   -0.324583
   5 O :   -0.390299
   6 C :   -0.007790
   7 C :   -0.280642
   8 S :   -0.103208
   9 C :   -0.348348
  10 S :   -0.121853
  11 P :    0.614470
  12 S :   -0.306852
  13 O :   -0.364632
  14 C :    0.019213
  15 C :   -0.330796
  16 O :   -0.385716
  17 C :   -0.014510
  18 C :   -0.281897
  19 H :    0.104151
  20 H :    0.126793
  21 H :    0.111779
  22 H :    0.105614
  23 H :    0.115313
  24 H :    0.103072
  25 H :    0.098993
  26 H :    0.111481
  27 H :    0.115346
  28 H :    0.120095
  29 H :    0.202234
  30 H :    0.179321
  31 H :    0.115099
  32 H :    0.105553
  33 H :    0.107672
  34 H :    0.120056
  35 H :    0.134478
  36 H :    0.109154
  37 H :    0.105805
  38 H :    0.113956
  39 H :    0.116184
  40 H :    0.122004
Sum of atomic charges:    0.0000000

LOEWDIN ATOMIC CHARGES
----------------------
   0 C :   -0.353406
   1 C :   -0.116632
   2 O :   -0.225296
   3 P :    0.579068
   4 S :   -0.297102
   5 O :   -0.251947
   6 C :   -0.123465
   7 C :   -0.350559
   8 S :    0.078537
   9 C :   -0.481323
  10 S :    0.048366
  11 P :    0.567936
  12 S :   -0.305178
  13 O :   -0.233233
  14 C :   -0.110570
  15 C :   -0.371476
  16 O :   -0.247401
  17 C :   -0.121019
  18 C :   -0.350556
  19 H :    0.128301
  20 H :    0.126039
  21 H :    0.125324
  22 H :    0.109750
  23 H :    0.108238
  24 H :    0.107545
  25 H :    0.105126
  26 H :    0.130694
  27 H :    0.125978
  28 H :    0.128514
  29 H :    0.118627
  30 H :    0.137758
  31 H :    0.121519
  32 H :    0.112834
  33 H :    0.130237
  34 H :    0.116582
  35 H :    0.123782
  36 H :    0.109886
  37 H :    0.110447
  38 H :    0.132148
  39 H :    0.126309
  40 H :    0.129618

  Mayer bond orders larger than 0.100000
B(  0-C ,  1-C ) :   1.1707 B(  0-C , 19-H ) :   0.9404 B(  0-C , 20-H ) :   0.9384
B(  0-C , 21-H ) :   0.9495 B(  1-C ,  2-O ) :   0.8808 B(  1-C , 22-H ) :   0.9255
B(  1-C , 23-H ) :   0.9109 B(  2-O ,  3-P ) :   1.1597 B(  3-P ,  4-S ) :   1.6057
B(  3-P ,  5-O ) :   1.0700 B(  3-P ,  8-S ) :   0.9520 B(  4-S ,  8-S ) :   0.1174
B(  4-S , 29-H ) :   0.1135 B(  5-O ,  6-C ) :   0.9086 B(  6-C ,  7-C ) :   1.1594
B(  6-C , 24-H ) :   0.9118 B(  6-C , 25-H ) :   0.9224 B(  7-C , 26-H ) :   0.9422
B(  7-C , 27-H ) :   0.9512 B(  7-C , 28-H ) :   0.9511 B(  8-S ,  9-C ) :   1.0191
B(  9-C , 10-S ) :   0.9871 B(  9-C , 29-H ) :   0.8451 B(  9-C , 30-H ) :   0.9123
B( 10-S , 11-P ) :   0.9505 B( 10-S , 12-S ) :   0.1100 B( 11-P , 12-S ) :   1.6559
B( 11-P , 13-O ) :   1.1310 B( 11-P , 16-O ) :   1.0678 B( 13-O , 14-C ) :   0.8795
B( 14-C , 15-C ) :   1.1776 B( 14-C , 31-H ) :   0.9195 B( 14-C , 32-H ) :   0.9273
B( 15-C , 33-H ) :   0.9360 B( 15-C , 34-H ) :   0.9356 B( 15-C , 35-H ) :   0.9334
B( 16-O , 17-C ) :   0.9034 B( 17-C , 18-C ) :   1.1615 B( 17-C , 36-H ) :   0.9062
B( 17-C , 37-H ) :   0.9288 B( 18-C , 38-H ) :   0.9413 B( 18-C , 39-H ) :   0.9513
B( 18-C , 40-H ) :   0.9508

Dispersion correction           -0.067378881
FINAL SINGLE POINT ENERGY     -2929.513811013051

DIPOLE MOMENT
-------------

Method             : SCF
Type of density    : Electron Density
Multiplicity       :   1
Irrep              :   0
Energy             : -2929.6330791634995876 Eh
Relativity type    :
Basis              : AO
                                X                 Y                 Z
Electronic contribution:     -0.106852277      -8.486879247       3.500693866
Nuclear contribution   :     -0.128280424       8.428801065      -3.336878162
                        -----------------------------------------
Total Dipole Moment    :     -0.235132701      -0.058078182       0.163815704
                        -----------------------------------------
Magnitude (a.u.)       :      0.292397071
Magnitude (Debye)      :      0.743214291

Rotational constants in cm-1:             0.013111             0.005328             0.004933
Rotational constants in MHz :           393.061694           159.737823           147.895261

                             ****ORCA TERMINATED NORMALLY****
TOTAL RUN TIME: 0 days 0 hours 0 minutes 21 seconds 799 msec
