                         Program Version 6.0.0  -   RELEASE  -
|  1> ! pbe def2-sv(p) def2/J RI DEFGRID1 loosescf d4 GCP(DFT/SV(P)) printgap
|  2> %output
|  3>     printlevel normal
|  4> end
|  5> * xyz 0 1
|  6> C 5.8107149285 -0.3042361806 -0.4033238892
|  7> C 4.3923550766 -0.6583187327 -0.8010871332
|  8> O 3.5019777932 0.2556238672 -0.1285273772
|  9> P 1.9832101191 0.406868252 -0.5846646262
| 10> S 1.7404361543 0.7565885608 -2.4929556382
| 11> O 1.5059629274 1.5695460806 0.3614276199
| 12> C 1.7810766402 1.5671462483 1.7876508264
| 13> C 0.9697437324 2.6825968487 2.4108609888
| 14> S 1.1624875851 -1.4233257827 0.123673471
| 15> C -0.0945355121 -1.7497812245 -1.1531937829
| 16> S -1.7568880529 -1.9226043449 -0.477512424
| 17> P -1.9862398215 0.065603297 0.2488160592
| 18> S -1.4568494703 1.4674293529 -1.0174796646
| 19> O -1.1775653183 0.1733428129 1.6003674369
| 20> C -1.5885231241 -0.358864454 2.8874536693
| 21> C -1.5597714108 -1.8723863646 2.9280305682
| 22> O -3.4893085223 0.1196497767 0.7567786872
| 23> C -4.5918173188 0.4531974327 -0.1052269298
| 24> C -4.8212263463 -0.5899025392 -1.1790979439
| 25> H 5.9281620729 -0.391266931 0.6727963659
| 26> H 6.4972899047 -0.9839324874 -0.8969222596
| 27> H 6.0381641635 0.715089853 -0.7025947332
| 28> H 4.1317875246 -1.6745549469 -0.4930278374
| 29> H 4.239121774 -0.5594417078 -1.8808019573
| 30> H 1.5000406961 0.5883195095 2.187223799
| 31> H 2.8531143557 1.7212914849 1.92234079
| 32> H -0.0882369458 2.5223600843 2.2190611585
| 33> H 1.1484674673 2.7008621504 3.4811121933
| 34> H 1.256631379 3.6369879503 1.9784178689
| 35> H 0.1415399084 -2.7006602041 -1.6239715245
| 36> H -0.0624264276 -0.9325966797 -1.8798631029
| 37> H -0.8600717308 0.0732530889 3.5757792201
| 38> H -2.585628349 0.022832379 3.1120198848
| 39> H -1.7174620025 -2.1975469961 3.9516814917
| 40> H -2.3442876014 -2.2876143774 2.2999415708
| 41> H -0.5980529941 -2.2429092602 2.5795830068
| 42> H -5.4401289941 0.5223816424 0.5773822292
| 43> H -4.39329249 1.4307454032 -0.5552466499
| 44> H -3.9965152815 -0.5800083991 -1.8901137358
| 45> H -4.8927855832 -1.5807496662 -0.7379203089
| 46> H -5.7412552573 -0.361945831 -1.7077232904
| 47> *
| 48>
| 49>                          ****END OF INPUT****

CARTESIAN COORDINATES (ANGSTROEM)
---------------------------------
  C      5.810715   -0.304236   -0.403324
  C      4.392355   -0.658319   -0.801087
  O      3.501978    0.255624   -0.128527
  P      1.983210    0.406868   -0.584665
  S      1.740436    0.756589   -2.492956
  O      1.505963    1.569546    0.361428
  C      1.781077    1.567146    1.787651
  C      0.969744    2.682597    2.410861
  S      1.162488   -1.423326    0.123673
  C     -0.094536   -1.749781   -1.153194
  S     -1.756888   -1.922604   -0.477512
  P     -1.986240    0.065603    0.248816
  S     -1.456849    1.467429   -1.017480
  O     -1.177565    0.173343    1.600367
  C     -1.588523   -0.358864    2.887454
  C     -1.559771   -1.872386    2.928031
  O     -3.489309    0.119650    0.756779
  C     -4.591817    0.453197   -0.105227
  C     -4.821226   -0.589903   -1.179098
  H      5.928162   -0.391267    0.672796
  H      6.497290   -0.983932   -0.896922
  H      6.038164    0.715090   -0.702595
  H      4.131788   -1.674555   -0.493028
  H      4.239122   -0.559442   -1.880802
  H      1.500041    0.588320    2.187224
  H      2.853114    1.721291    1.922341
  H     -0.088237    2.522360    2.219061
  H      1.148467    2.700862    3.481112
  H      1.256631    3.636988    1.978418
  H      0.141540   -2.700660   -1.623972
  H     -0.062426   -0.932597   -1.879863
  H     -0.860072    0.073253    3.575779
  H     -2.585628    0.022832    3.112020
  H     -1.717462   -2.197547    3.951681
  H     -2.344288   -2.287614    2.299942
  H     -0.598053   -2.242909    2.579583
  H     -5.440129    0.522382    0.577382
  H     -4.393292    1.430745   -0.555247
  H     -3.996515   -0.580008   -1.890114
  H     -4.892786   -1.580750   -0.737920
  H     -5.741255   -0.361946   -1.707723

 Total Charge           Charge          ....    0
 Multiplicity           Mult            ....    1
 Number of Electrons    NEL             ....  202
 Basis Dimension        Dim             ....  334

ORBITAL ENERGIES
----------------

  NO   OCC          E(Eh)            E(eV)
   0   2.0000     -88.041270     -2395.7247
   1   2.0000     -88.038013     -2395.6361
   2   2.0000     -87.978248     -2394.0098
   3   2.0000     -87.976617     -2393.9654
   4   2.0000     -76.424614     -2079.6195
   5   2.0000     -76.418175     -2079.4443
   6   2.0000     -18.796593      -511.4813
   7   2.0000     -18.790871      -511.3256
   8   2.0000     -18.786807      -511.2150
   9   2.0000     -18.783231      -511.1177
  10   2.0000      -9.959051      -270.9996
  11   2.0000      -9.955546      -270.9042
  12   2.0000      -9.951103      -270.7833
  13   2.0000      -9.948980      -270.7255
  14   2.0000      -9.947436      -270.6835
  15   2.0000      -9.887753      -269.0594
  16   2.0000      -9.885692      -269.0033
  17   2.0000      -9.885237      -268.9910
  18   2.0000      -9.879640      -268.8387
  19   2.0000      -7.686229      -209.1529
  20   2.0000      -7.682744      -209.0581
  21   2.0000      -7.623136      -207.4361
  22   2.0000      -7.621841      -207.4008
  23   2.0000      -6.421768      -174.7452
  24   2.0000      -6.415719      -174.5806
  25   2.0000      -5.714118      -155.4891
  26   2.0000      -5.710684      -155.3956
  27   2.0000      -5.710528      -155.3914
  28   2.0000      -5.707161      -155.2998
  29   2.0000      -5.703252      -155.1934
  30   2.0000      -5.699924      -155.1028
  31   2.0000      -5.652186      -153.8038
  32   2.0000      -5.650956      -153.7703
  33   2.0000      -5.643852      -153.5770
  34   2.0000      -5.643111      -153.5569
  35   2.0000      -5.642309      -153.5350
  36   2.0000      -5.641911      -153.5242
  37   2.0000      -4.644896      -126.3940
  38   2.0000      -4.643360      -126.3522
  39   2.0000      -4.641885      -126.3121
  40   2.0000      -4.638489      -126.2197
  41   2.0000      -4.637449      -126.1914
  42   2.0000      -4.636023      -126.1526
  43   2.0000      -0.989787       -26.9335
  44   2.0000      -0.981928       -26.7196
  45   2.0000      -0.945692       -25.7336
  46   2.0000      -0.936568       -25.4853
  47   2.0000      -0.759640       -20.6709
  48   2.0000      -0.718563       -19.5531
  49   2.0000      -0.710221       -19.3261
  50   2.0000      -0.692422       -18.8418
  51   2.0000      -0.686376       -18.6772
  52   2.0000      -0.674992       -18.3675
  53   2.0000      -0.646165       -17.5831
  54   2.0000      -0.628191       -17.0940
  55   2.0000      -0.595629       -16.2079
  56   2.0000      -0.581352       -15.8194
  57   2.0000      -0.578284       -15.7359
  58   2.0000      -0.563596       -15.3362
  59   2.0000      -0.560367       -15.2484
  60   2.0000      -0.505637       -13.7591
  61   2.0000      -0.497997       -13.5512
  62   2.0000      -0.476955       -12.9786
  63   2.0000      -0.472298       -12.8519
  64   2.0000      -0.452420       -12.3110
  65   2.0000      -0.447475       -12.1764
  66   2.0000      -0.443722       -12.0743
  67   2.0000      -0.434401       -11.8207
  68   2.0000      -0.428968       -11.6728
  69   2.0000      -0.418816       -11.3966
  70   2.0000      -0.408546       -11.1171
  71   2.0000      -0.401099       -10.9144
  72   2.0000      -0.393490       -10.7074
  73   2.0000      -0.377949       -10.2845
  74   2.0000      -0.372477       -10.1356
  75   2.0000      -0.367349        -9.9961
  76   2.0000      -0.361951        -9.8492
  77   2.0000      -0.357216        -9.7203
  78   2.0000      -0.353441        -9.6176
  79   2.0000      -0.349461        -9.5093
  80   2.0000      -0.346507        -9.4289
  81   2.0000      -0.344542        -9.3755
  82   2.0000      -0.336546        -9.1579
  83   2.0000      -0.335978        -9.1424
  84   2.0000      -0.331820        -9.0293
  85   2.0000      -0.318922        -8.6783
  86   2.0000      -0.310538        -8.4502
  87   2.0000      -0.300624        -8.1804
  88   2.0000      -0.296685        -8.0732
  89   2.0000      -0.294547        -8.0150
  90   2.0000      -0.292002        -7.9458
  91   2.0000      -0.272968        -7.4278
  92   2.0000      -0.263604        -7.1730
  93   2.0000      -0.261516        -7.1162
  94   2.0000      -0.253482        -6.8976
  95   2.0000      -0.231729        -6.3057
  96   2.0000      -0.218695        -5.9510
  97   2.0000      -0.210850        -5.7375
  98   2.0000      -0.196713        -5.3528
  99   2.0000      -0.186811        -5.0834
 100   2.0000      -0.180804        -4.9199
 101   0.0000      -0.040137        -1.0922
 102   0.0000      -0.029425        -0.8007
 103   0.0000      -0.005703        -0.1552
 104   0.0000       0.009857         0.2682
 105   0.0000       0.022804         0.6205

MULLIKEN ATOMIC CHARGES
-----------------------
   0 C :   -0.279905
   1 C :   -0.006681
   2 O :   -0.393202
   3 P :    0.610659
   4 S :   -0.290207
   5 O :   -0.347203
   6 C :   -0.014014
   7 C :   -0.286921
   8 S :   -0.130620
   9 C :   -0.345098
  10 S :   -0.108991
  11 P :    0.599051
  12 S :   -0.278621
  13 O :   -0.359403
  14 C :   -0.002337
  15 C :   -0.313645
  16 O :   -0.387225
  17 C :    0.001582
  18 C :   -0.322974
  19 H :    0.111867
  20 H :    0.110859
  21 H :    0.120979
  22 H :    0.097455
  23 H :    0.103043
  24 H :    0.100455
  25 H :    0.106682
  26 H :    0.134160
  27 H :    0.100466
  28 H :    0.120093
  29 H :    0.179288
  30 H :    0.207268
  31 H :    0.106040
  32 H :    0.111952
  33 H :    0.110594
  34 H :    0.123325
  35 H :    0.127006
  36 H :    0.103380
  37 H :    0.113868
  38 H :    0.134923
  39 H :    0.116350
  40 H :    0.115699
Sum of atomic charges:   -0.0000000

LOEWDIN ATOMIC CHARGES
----------------------
   0 C :   -0.350712
   1 C :   -0.123106
   2 O :   -0.254473
   3 P :    0.568722
   4 S :   -0.294789
   5 O :   -0.225903
   6 C :   -0.113106
   7 C :   -0.353478
   8 S :    0.054998
   9 C :   -0.481312
  10 S :    0.078090
  11 P :    0.561207
  12 S :   -0.287398
  13 O :   -0.235774
  14 C :   -0.108732
  15 C :   -0.370134
  16 O :   -0.249126
  17 C :   -0.116173
  18 C :   -0.372178
  19 H :    0.124430
  20 H :    0.130298
  21 H :    0.129030
  22 H :    0.105176
  23 H :    0.107805
  24 H :    0.102555
  25 H :    0.112094
  26 H :    0.129922
  27 H :    0.125050
  28 H :    0.130166
  29 H :    0.136590
  30 H :    0.125270
  31 H :    0.116876
  32 H :    0.114817
  33 H :    0.129613
  34 H :    0.118320
  35 H :    0.123922
  36 H :    0.117807
  37 H :    0.114100
  38 H :    0.124321
  39 H :    0.122553
  40 H :    0.132662

  Mayer bond orders larger than 0.100000
B(  0-C ,  1-C ) :   1.1593 B(  0-C , 19-H ) :   0.9514 B(  0-C , 20-H ) :   0.9424
B(  0-C , 21-H ) :   0.9509 B(  1-C ,  2-O ) :   0.9091 B(  1-C , 22-H ) :   0.9252
B(  1-C , 23-H ) :   0.9090 B(  2-O ,  3-P ) :   1.0654 B(  3-P ,  4-S ) :   1.6498
B(  3-P ,  5-O ) :   1.1462 B(  3-P ,  8-S ) :   0.9469 B(  4-S ,  8-S ) :   0.1151
B(  5-O ,  6-C ) :   0.8923 B(  6-C ,  7-C ) :   1.1676 B(  6-C , 24-H ) :   0.9136
B(  6-C , 25-H ) :   0.9276 B(  7-C , 26-H ) :   0.9394 B(  7-C , 27-H ) :   0.9399
B(  7-C , 28-H ) :   0.9483 B(  8-S ,  9-C ) :   0.9972 B(  9-C , 10-S ) :   1.0025
B(  9-C , 29-H ) :   0.9113 B(  9-C , 30-H ) :   0.8436 B( 10-S , 11-P ) :   0.9354
B( 10-S , 12-S ) :   0.1088 B( 11-P , 12-S ) :   1.6711 B( 11-P , 13-O ) :   1.1111
B( 11-P , 16-O ) :   1.0748 B( 13-O , 14-C ) :   0.8969 B( 14-C , 15-C ) :   1.1754
B( 14-C , 31-H ) :   0.9294 B( 14-C , 32-H ) :   0.9258 B( 15-C , 33-H ) :   0.9355
B( 15-C , 34-H ) :   0.9388 B( 15-C , 35-H ) :   0.9395 B( 16-O , 17-C ) :   0.9035
B( 17-C , 18-C ) :   1.1673 B( 17-C , 36-H ) :   0.9342 B( 17-C , 37-H ) :   0.9168
B( 18-C , 38-H ) :   0.9328 B( 18-C , 39-H ) :   0.9437 B( 18-C , 40-H ) :   0.9367

Dispersion correction           -0.067461536
FINAL SINGLE POINT ENERGY     -2929.514988862015

DIPOLE MOMENT
-------------

Method             : SCF
Type of density    : Electron Density
Multiplicity       :   1
Irrep              :   0
Energy             : -2929.6338901201352201 Eh
Relativity type    :
Basis              : AO
                                X                 Y                 Z
Electronic contribution:     -1.253156618       1.733561177     -13.903118259
Nuclear contribution   :      0.968226357      -2.759188331      15.638509588
                        -----------------------------------------
Total Dipole Moment    :     -0.284930261      -1.025627154       1.735391329
                        -----------------------------------------
Magnitude (a.u.)       :      2.035848564
Magnitude (Debye)      :      5.174715809

Rotational constants in cm-1:             0.012885             0.005279             0.005015
Rotational constants in MHz :           386.281369           158.257106           150.353600

                             ****ORCA TERMINATED NORMALLY****
TOTAL RUN TIME: 0 days 0 hours 0 minutes 21 seconds 368 msec
