                         Program Version 6.0.0  -   RELEASE  -
|  1> ! pbe def2-sv(p) def2/J RI DEFGRID1 loosescf d4 GCP(DFT/SV(P)) printgap
|  2> %output
|  3>     printlevel normal
|  4> end
|  5> * xyz 0 1
|  6> C 4.4429911321 1.5263342398 0.5708853074
|  7> C 3.3298969169 1.3193135352 -0.4358140118
|  8> O 2.725646115 0.0240939524 -0.2745056508
|  9> P 1.6530520086 -0.2803346119 0.8706162944
| 10> S 0.8508934477 1.304648307 1.68233479
| 11> O 2.3440737757 -1.1141941476 2.0282153262
| 12> C 2.8753526538 -2.4569876222 1.9529997604
| 13> C 4.0442827763 -2.5676161003 0.9969387019
| 14> S 0.5051689071 -1.7656549479 -0.1309153282
| 15> C 0.3630715976 -0.9929960256 -1.7660024999
| 16> S -0.2113799758 0.7236337105 -1.7224482005
| 17> P -2.1551454599 0.3044150428 -1.041510389
| 18> S -3.0706148907 -1.2535427137 -1.782328091
| 19> O -2.9842486092 1.6179733823 -1.3585006483
| 20> C -2.4908171573 2.9765318466 -1.272330646
| 21> C -2.2097387797 3.4089040132 0.1519118561
| 22> O -1.8959993188 0.2468268882 0.5347743801
| 23> C -2.876970893 -0.2707387477 1.4547902449
| 24> C -2.498677659 -1.6682048206 1.9031603621
| 25> H 4.0353859964 1.4755618554 1.5801922353
| 26> H 5.2050126604 0.7600522819 0.4571061088
| 27> H 4.8900561516 2.5035189581 0.4191034033
| 28> H 3.7012738501 1.3202161486 -1.4613944996
| 29> H 2.5571301491 2.0859087518 -0.3208138654
| 30> H 3.176932244 -2.6631683193 2.9815115389
| 31> H 2.0672108645 -3.1330484759 1.6631818009
| 32> H 3.7203821053 -2.366269219 -0.0214146494
| 33> H 4.821154434 -1.8579334692 1.269441781
| 34> H 4.4472807387 -3.5744251722 1.0475675404
| 35> H -0.3538575632 -1.6013033322 -2.3193929505
| 36> H 1.3348185355 -0.9816122508 -2.252820217
| 37> H -1.5920547269 3.0561736129 -1.8897759558
| 38> H -3.2975190551 3.5617627519 -1.717224311
| 39> H -3.0918875903 3.2649909937 0.7709171077
| 40> H -1.3845932378 2.8397592442 0.5773003915
| 41> H -1.9418442765 4.4608272392 0.1539856483
| 42> H -2.8709932225 0.4304130747 2.2918412346
| 43> H -3.8597315165 -0.2662858537 0.9727808398
| 44> H -1.5031564637 -1.6591410225 2.3413593238
| 45> H -3.2142735786 -2.013159682 2.6422973961
| 46> H -2.5018308565 -2.3492039115 1.054437886
| 47> *
| 48>
| 49>                          ****END OF INPUT****

CARTESIAN COORDINATES (ANGSTROEM)
---------------------------------
  C      4.442991    1.526334    0.570885
  C      3.329897    1.319314   -0.435814
  O      2.725646    0.024094   -0.274506
  P      1.653052   -0.280335    0.870616
  S      0.850893    1.304648    1.682335
  O      2.344074   -1.114194    2.028215
  C      2.875353   -2.456988    1.953000
  C      4.044283   -2.567616    0.996939
  S      0.505169   -1.765655   -0.130915
  C      0.363072   -0.992996   -1.766002
  S     -0.211380    0.723634   -1.722448
  P     -2.155145    0.304415   -1.041510
  S     -3.070615   -1.253543   -1.782328
  O     -2.984249    1.617973   -1.358501
  C     -2.490817    2.976532   -1.272331
  C     -2.209739    3.408904    0.151912
  O     -1.895999    0.246827    0.534774
  C     -2.876971   -0.270739    1.454790
  C     -2.498678   -1.668205    1.903160
  H      4.035386    1.475562    1.580192
  H      5.205013    0.760052    0.457106
  H      4.890056    2.503519    0.419103
  H      3.701274    1.320216   -1.461394
  H      2.557130    2.085909   -0.320814
  H      3.176932   -2.663168    2.981512
  H      2.067211   -3.133048    1.663182
  H      3.720382   -2.366269   -0.021415
  H      4.821154   -1.857933    1.269442
  H      4.447281   -3.574425    1.047568
  H     -0.353858   -1.601303   -2.319393
  H      1.334819   -0.981612   -2.252820
  H     -1.592055    3.056174   -1.889776
  H     -3.297519    3.561763   -1.717224
  H     -3.091888    3.264991    0.770917
  H     -1.384593    2.839759    0.577300
  H     -1.941844    4.460827    0.153986
  H     -2.870993    0.430413    2.291841
  H     -3.859732   -0.266286    0.972781
  H     -1.503156   -1.659141    2.341359
  H     -3.214274   -2.013160    2.642297
  H     -2.501831   -2.349204    1.054438

 Total Charge           Charge          ....    0
 Multiplicity           Mult            ....    1
 Number of Electrons    NEL             ....  202
 Basis Dimension        Dim             ....  334

ORBITAL ENERGIES
----------------

  NO   OCC          E(Eh)            E(eV)
   0   2.0000     -88.045768     -2395.8471
   1   2.0000     -88.044059     -2395.8007
   2   2.0000     -87.980762     -2394.0782
   3   2.0000     -87.979189     -2394.0354
   4   2.0000     -76.427064     -2079.6861
   5   2.0000     -76.421386     -2079.5316
   6   2.0000     -18.796580      -511.4809
   7   2.0000     -18.793087      -511.3859
   8   2.0000     -18.789182      -511.2796
   9   2.0000     -18.778454      -510.9877
  10   2.0000      -9.961203      -271.0581
  11   2.0000      -9.959905      -271.0228
  12   2.0000      -9.956755      -270.9371
  13   2.0000      -9.953437      -270.8468
  14   2.0000      -9.942796      -270.5572
  15   2.0000      -9.891388      -269.1584
  16   2.0000      -9.886694      -269.0306
  17   2.0000      -9.882054      -268.9044
  18   2.0000      -9.870168      -268.5809
  19   2.0000      -7.690949      -209.2814
  20   2.0000      -7.688785      -209.2225
  21   2.0000      -7.625869      -207.5104
  22   2.0000      -7.624561      -207.4749
  23   2.0000      -6.424124      -174.8093
  24   2.0000      -6.419234      -174.6762
  25   2.0000      -5.718764      -155.6155
  26   2.0000      -5.716858      -155.5636
  27   2.0000      -5.715569      -155.5285
  28   2.0000      -5.713186      -155.4637
  29   2.0000      -5.707786      -155.3168
  30   2.0000      -5.705667      -155.2591
  31   2.0000      -5.654965      -153.8794
  32   2.0000      -5.653616      -153.8427
  33   2.0000      -5.646313      -153.6440
  34   2.0000      -5.645934      -153.6337
  35   2.0000      -5.645577      -153.6239
  36   2.0000      -5.644120      -153.5843
  37   2.0000      -4.647205      -126.4569
  38   2.0000      -4.645818      -126.4191
  39   2.0000      -4.644277      -126.3772
  40   2.0000      -4.642201      -126.3207
  41   2.0000      -4.640789      -126.2823
  42   2.0000      -4.639549      -126.2485
  43   2.0000      -0.985634       -26.8205
  44   2.0000      -0.977178       -26.5904
  45   2.0000      -0.949034       -25.8245
  46   2.0000      -0.937121       -25.5004
  47   2.0000      -0.767744       -20.8914
  48   2.0000      -0.722022       -19.6472
  49   2.0000      -0.709106       -19.2958
  50   2.0000      -0.694840       -18.9076
  51   2.0000      -0.684771       -18.6336
  52   2.0000      -0.670309       -18.2400
  53   2.0000      -0.649899       -17.6846
  54   2.0000      -0.637844       -17.3566
  55   2.0000      -0.595001       -16.1908
  56   2.0000      -0.586925       -15.9710
  57   2.0000      -0.579517       -15.7695
  58   2.0000      -0.575810       -15.6686
  59   2.0000      -0.558883       -15.2080
  60   2.0000      -0.502000       -13.6601
  61   2.0000      -0.493200       -13.4207
  62   2.0000      -0.480928       -13.0867
  63   2.0000      -0.472860       -12.8672
  64   2.0000      -0.459691       -12.5088
  65   2.0000      -0.447128       -12.1670
  66   2.0000      -0.439652       -11.9635
  67   2.0000      -0.434021       -11.8103
  68   2.0000      -0.423679       -11.5289
  69   2.0000      -0.413384       -11.2488
  70   2.0000      -0.402664       -10.9570
  71   2.0000      -0.401315       -10.9203
  72   2.0000      -0.392228       -10.6731
  73   2.0000      -0.390385       -10.6229
  74   2.0000      -0.384334       -10.4583
  75   2.0000      -0.371733       -10.1154
  76   2.0000      -0.361596        -9.8395
  77   2.0000      -0.355720        -9.6796
  78   2.0000      -0.355108        -9.6630
  79   2.0000      -0.350657        -9.5419
  80   2.0000      -0.348151        -9.4737
  81   2.0000      -0.345303        -9.3962
  82   2.0000      -0.340884        -9.2759
  83   2.0000      -0.337050        -9.1716
  84   2.0000      -0.331546        -9.0218
  85   2.0000      -0.319181        -8.6854
  86   2.0000      -0.309436        -8.4202
  87   2.0000      -0.306581        -8.3425
  88   2.0000      -0.300394        -8.1741
  89   2.0000      -0.283061        -7.7025
  90   2.0000      -0.277267        -7.5448
  91   2.0000      -0.273584        -7.4446
  92   2.0000      -0.270524        -7.3613
  93   2.0000      -0.264825        -7.2063
  94   2.0000      -0.263636        -7.1739
  95   2.0000      -0.233305        -6.3485
  96   2.0000      -0.219491        -5.9727
  97   2.0000      -0.205291        -5.5863
  98   2.0000      -0.196752        -5.3539
  99   2.0000      -0.192277        -5.2321
 100   2.0000      -0.189867        -5.1665
 101   0.0000      -0.052297        -1.4231
 102   0.0000      -0.022761        -0.6194
 103   0.0000      -0.014970        -0.4074
 104   0.0000       0.003090         0.0841
 105   0.0000       0.017448         0.4748

MULLIKEN ATOMIC CHARGES
-----------------------
   0 C :   -0.308166
   1 C :   -0.012533
   2 O :   -0.391772
   3 P :    0.631409
   4 S :   -0.296912
   5 O :   -0.368823
   6 C :   -0.016172
   7 C :   -0.314934
   8 S :   -0.104092
   9 C :   -0.327667
  10 S :   -0.113250
  11 P :    0.628849
  12 S :   -0.324664
  13 O :   -0.369797
  14 C :   -0.024195
  15 C :   -0.329725
  16 O :   -0.363715
  17 C :   -0.008240
  18 C :   -0.284161
  19 H :    0.127611
  20 H :    0.116045
  21 H :    0.112395
  22 H :    0.100257
  23 H :    0.114794
  24 H :    0.112196
  25 H :    0.119719
  26 H :    0.124411
  27 H :    0.122447
  28 H :    0.113659
  29 H :    0.192593
  30 H :    0.185093
  31 H :    0.117368
  32 H :    0.113153
  33 H :    0.115494
  34 H :    0.159494
  35 H :    0.110521
  36 H :    0.103822
  37 H :    0.100934
  38 H :    0.112624
  39 H :    0.101746
  40 H :    0.122179
Sum of atomic charges:    0.0000000

LOEWDIN ATOMIC CHARGES
----------------------
   0 C :   -0.363581
   1 C :   -0.124902
   2 O :   -0.251260
   3 P :    0.567415
   4 S :   -0.294361
   5 O :   -0.242926
   6 C :   -0.116237
   7 C :   -0.366358
   8 S :    0.090738
   9 C :   -0.472088
  10 S :    0.087491
  11 P :    0.570862
  12 S :   -0.320746
  13 O :   -0.244985
  14 C :   -0.114296
  15 C :   -0.370670
  16 O :   -0.244222
  17 C :   -0.115071
  18 C :   -0.361443
  19 H :    0.126251
  20 H :    0.122361
  21 H :    0.131166
  22 H :    0.115204
  23 H :    0.108616
  24 H :    0.122919
  25 H :    0.109228
  26 H :    0.122605
  27 H :    0.126193
  28 H :    0.131546
  29 H :    0.132428
  30 H :    0.132819
  31 H :    0.107230
  32 H :    0.123074
  33 H :    0.126144
  34 H :    0.126778
  35 H :    0.130722
  36 H :    0.116681
  37 H :    0.107018
  38 H :    0.120212
  39 H :    0.125094
  40 H :    0.122353

  Mayer bond orders larger than 0.100000
B(  0-C ,  1-C ) :   1.1652 B(  0-C , 19-H ) :   0.9364 B(  0-C , 20-H ) :   0.9433
B(  0-C , 21-H ) :   0.9396 B(  1-C ,  2-O ) :   0.9014 B(  1-C , 22-H ) :   0.9326
B(  1-C , 23-H ) :   0.9063 B(  2-O ,  3-P ) :   1.0576 B(  3-P ,  4-S ) :   1.6382
B(  3-P ,  5-O ) :   1.1251 B(  3-P ,  8-S ) :   0.9483 B(  4-S ,  8-S ) :   0.1041
B(  5-O ,  6-C ) :   0.9053 B(  6-C ,  7-C ) :   1.1655 B(  6-C , 24-H ) :   0.9337
B(  6-C , 25-H ) :   0.9211 B(  7-C , 26-H ) :   0.9368 B(  7-C , 27-H ) :   0.9425
B(  7-C , 28-H ) :   0.9364 B(  8-S ,  9-C ) :   1.0025 B(  9-C , 10-S ) :   1.0192
B(  9-C , 29-H ) :   0.8783 B(  9-C , 30-H ) :   0.9039 B( 10-S , 11-P ) :   0.9502
B( 10-S , 12-S ) :   0.1008 B( 11-P , 12-S ) :   1.6261 B( 11-P , 13-O ) :   1.1245
B( 11-P , 16-O ) :   1.1043 B( 13-O , 14-C ) :   0.9084 B( 14-C , 15-C ) :   1.1623
B( 14-C , 31-H ) :   0.9188 B( 14-C , 32-H ) :   0.9353 B( 15-C , 33-H ) :   0.9451
B( 15-C , 34-H ) :   0.9242 B( 15-C , 35-H ) :   0.9361 B( 16-O , 17-C ) :   0.8997
B( 17-C , 18-C ) :   1.1743 B( 17-C , 36-H ) :   0.9301 B( 17-C , 37-H ) :   0.9143
B( 18-C , 38-H ) :   0.9441 B( 18-C , 39-H ) :   0.9399 B( 18-C , 40-H ) :   0.9375

Dispersion correction           -0.068719779
FINAL SINGLE POINT ENERGY     -2929.513778014594

DIPOLE MOMENT
-------------

Method             : SCF
Type of density    : Electron Density
Multiplicity       :   1
Irrep              :   0
Energy             : -2929.6307143665899275 Eh
Relativity type    :
Basis              : AO
                                X                 Y                 Z
Electronic contribution:    -12.485829573      -2.843505705      -9.680269998
Nuclear contribution   :     13.965156150       3.108636531       9.830067677
                        -----------------------------------------
Total Dipole Moment    :      1.479326577       0.265130826       0.149797679
                        -----------------------------------------
Magnitude (a.u.)       :      1.510344603
Magnitude (Debye)      :      3.838990892

Rotational constants in cm-1:             0.012177             0.005763             0.005164
Rotational constants in MHz :           365.054548           172.773728           154.813853

                             ****ORCA TERMINATED NORMALLY****
TOTAL RUN TIME: 0 days 0 hours 0 minutes 21 seconds 867 msec
