                         Program Version 6.0.0  -   RELEASE  -
|  1> ! pbe def2-sv(p) def2/J RI DEFGRID1 loosescf d4 GCP(DFT/SV(P)) printgap
|  2> %output
|  3>     printlevel normal
|  4> end
|  5> * xyz 0 1
|  6> C 3.6441435996 -1.2152133189 -2.6909758829
|  7> C 3.9905277785 0.1060056983 -2.0366491404
|  8> O 3.5869823507 0.1543535228 -0.655582538
|  9> P 2.0631570275 0.112947513 -0.2071773681
| 10> S 0.8697563164 1.1730372605 -1.3395465564
| 11> O 2.099611219 0.6610396616 1.2681939046
| 12> C 2.907351496 0.1163693506 2.3401726128
| 13> C 4.2398968264 0.8302467916 2.4328665645
| 14> S 1.717079119 -1.9797093752 -0.0164922837
| 15> C 0.0254445009 -1.9721869818 0.6298531406
| 16> S -1.2217242251 -1.5099635692 -0.6154378666
| 17> P -2.0222134092 0.1939607163 0.3324510408
| 18> S -1.0680760392 0.9603501201 1.8604227023
| 19> O -3.4287447753 -0.4476483232 0.759389024
| 20> C -4.230726552 0.0886022249 1.8231782966
| 21> C -4.8779233789 1.4016052037 1.4305590979
| 22> O -2.3243747565 1.2770140195 -0.7806956155
| 23> C -2.5680267446 1.0223847779 -2.1817065841
| 24> C -3.7613800049 0.1190344747 -2.4094204003
| 25> H 4.0267348542 -2.0434344308 -2.0997345795
| 26> H 2.563008076 -1.3146826924 -2.7778244581
| 27> H 4.0801710801 -1.2474079257 -3.6842426917
| 28> H 3.5083846196 0.9349609585 -2.5637635857
| 29> H 5.0686519921 0.2673004153 -1.99699418
| 30> H 2.301761144 0.2794045823 3.2343819559
| 31> H 3.0455381604 -0.9554544117 2.1713275012
| 32> H 4.081815611 1.8995701218 2.544583348
| 33> H 4.7810350477 0.4555385895 3.2960721554
| 34> H 4.8259756003 0.6529943532 1.5351871081
| 35> H -0.0479795356 -1.2744238613 1.469047143
| 36> H -0.1737139098 -2.9940234549 0.9412441606
| 37> H -4.971489639 -0.6888052248 2.0149811723
| 38> H -3.5947402383 0.2238669231 2.7043106292
| 39> H -5.489519063 1.7634838213 2.2510403439
| 40> H -4.1053248346 2.1388803762 1.210863884
| 41> H -5.4989693466 1.2700661471 0.5484883781
| 42> H -2.7278434379 2.0211050459 -2.5911150197
| 43> H -1.6565903658 0.5988339886 -2.6126772781
| 44> H -3.5867219347 -0.8577437924 -1.9603634159
| 45> H -4.6549899408 0.5552567903 -1.970604102
| 46> H -3.9098328451 -0.0049468808 -3.4774598061
| 47> *
| 48>
| 49>                          ****END OF INPUT****

CARTESIAN COORDINATES (ANGSTROEM)
---------------------------------
  C      3.644144   -1.215213   -2.690976
  C      3.990528    0.106006   -2.036649
  O      3.586982    0.154354   -0.655583
  P      2.063157    0.112948   -0.207177
  S      0.869756    1.173037   -1.339547
  O      2.099611    0.661040    1.268194
  C      2.907351    0.116369    2.340173
  C      4.239897    0.830247    2.432867
  S      1.717079   -1.979709   -0.016492
  C      0.025445   -1.972187    0.629853
  S     -1.221724   -1.509964   -0.615438
  P     -2.022213    0.193961    0.332451
  S     -1.068076    0.960350    1.860423
  O     -3.428745   -0.447648    0.759389
  C     -4.230727    0.088602    1.823178
  C     -4.877923    1.401605    1.430559
  O     -2.324375    1.277014   -0.780696
  C     -2.568027    1.022385   -2.181707
  C     -3.761380    0.119034   -2.409420
  H      4.026735   -2.043434   -2.099735
  H      2.563008   -1.314683   -2.777824
  H      4.080171   -1.247408   -3.684243
  H      3.508385    0.934961   -2.563764
  H      5.068652    0.267300   -1.996994
  H      2.301761    0.279405    3.234382
  H      3.045538   -0.955454    2.171328
  H      4.081816    1.899570    2.544583
  H      4.781035    0.455539    3.296072
  H      4.825976    0.652994    1.535187
  H     -0.047980   -1.274424    1.469047
  H     -0.173714   -2.994023    0.941244
  H     -4.971490   -0.688805    2.014981
  H     -3.594740    0.223867    2.704311
  H     -5.489519    1.763484    2.251040
  H     -4.105325    2.138880    1.210864
  H     -5.498969    1.270066    0.548488
  H     -2.727843    2.021105   -2.591115
  H     -1.656590    0.598834   -2.612677
  H     -3.586722   -0.857744   -1.960363
  H     -4.654990    0.555257   -1.970604
  H     -3.909833   -0.004947   -3.477460

 Total Charge           Charge          ....    0
 Multiplicity           Mult            ....    1
 Number of Electrons    NEL             ....  202
 Basis Dimension        Dim             ....  334

ORBITAL ENERGIES
----------------

  NO   OCC          E(Eh)            E(eV)
   0   2.0000     -88.042274     -2395.7521
   1   2.0000     -88.037302     -2395.6168
   2   2.0000     -87.978247     -2394.0098
   3   2.0000     -87.977529     -2393.9903
   4   2.0000     -76.421855     -2079.5444
   5   2.0000     -76.418194     -2079.4448
   6   2.0000     -18.790613      -511.3186
   7   2.0000     -18.785747      -511.1862
   8   2.0000     -18.785061      -511.1675
   9   2.0000     -18.776289      -510.9288
  10   2.0000      -9.955535      -270.9039
  11   2.0000      -9.951953      -270.8064
  12   2.0000      -9.950616      -270.7700
  13   2.0000      -9.950429      -270.7649
  14   2.0000      -9.942053      -270.5370
  15   2.0000      -9.886540      -269.0264
  16   2.0000      -9.884002      -268.9574
  17   2.0000      -9.882044      -268.9041
  18   2.0000      -9.878565      -268.8094
  19   2.0000      -7.687175      -209.1787
  20   2.0000      -7.682592      -209.0540
  21   2.0000      -7.623141      -207.4362
  22   2.0000      -7.622703      -207.4243
  23   2.0000      -6.419244      -174.6765
  24   2.0000      -6.415794      -174.5826
  25   2.0000      -5.714837      -155.5086
  26   2.0000      -5.711613      -155.4209
  27   2.0000      -5.710508      -155.3908
  28   2.0000      -5.707335      -155.3045
  29   2.0000      -5.704443      -155.2258
  30   2.0000      -5.699201      -155.0831
  31   2.0000      -5.652168      -153.8033
  32   2.0000      -5.651716      -153.7910
  33   2.0000      -5.643819      -153.5761
  34   2.0000      -5.643627      -153.5709
  35   2.0000      -5.643323      -153.5626
  36   2.0000      -5.642166      -153.5311
  37   2.0000      -4.642237      -126.3217
  38   2.0000      -4.641072      -126.2900
  39   2.0000      -4.639292      -126.2415
  40   2.0000      -4.638544      -126.2212
  41   2.0000      -4.637381      -126.1896
  42   2.0000      -4.636291      -126.1599
  43   2.0000      -0.984119       -26.7792
  44   2.0000      -0.974474       -26.5168
  45   2.0000      -0.942127       -25.6366
  46   2.0000      -0.934979       -25.4421
  47   2.0000      -0.759885       -20.6775
  48   2.0000      -0.716269       -19.4907
  49   2.0000      -0.706746       -19.2315
  50   2.0000      -0.688316       -18.7300
  51   2.0000      -0.687453       -18.7066
  52   2.0000      -0.670474       -18.2445
  53   2.0000      -0.647481       -17.6189
  54   2.0000      -0.632451       -17.2099
  55   2.0000      -0.596078       -16.2201
  56   2.0000      -0.587296       -15.9811
  57   2.0000      -0.573885       -15.6162
  58   2.0000      -0.569369       -15.4933
  59   2.0000      -0.557852       -15.1799
  60   2.0000      -0.497886       -13.5482
  61   2.0000      -0.487478       -13.2650
  62   2.0000      -0.472032       -12.8446
  63   2.0000      -0.467685       -12.7264
  64   2.0000      -0.450242       -12.2517
  65   2.0000      -0.446829       -12.1588
  66   2.0000      -0.441027       -12.0009
  67   2.0000      -0.427398       -11.6301
  68   2.0000      -0.425793       -11.5864
  69   2.0000      -0.418057       -11.3759
  70   2.0000      -0.407606       -11.0915
  71   2.0000      -0.396686       -10.7944
  72   2.0000      -0.389162       -10.5896
  73   2.0000      -0.382061       -10.3964
  74   2.0000      -0.378120       -10.2892
  75   2.0000      -0.365988        -9.9590
  76   2.0000      -0.362275        -9.8580
  77   2.0000      -0.356299        -9.6954
  78   2.0000      -0.351309        -9.5596
  79   2.0000      -0.350460        -9.5365
  80   2.0000      -0.349136        -9.5005
  81   2.0000      -0.343909        -9.3582
  82   2.0000      -0.340016        -9.2523
  83   2.0000      -0.335634        -9.1331
  84   2.0000      -0.331986        -9.0338
  85   2.0000      -0.313377        -8.5274
  86   2.0000      -0.304535        -8.2868
  87   2.0000      -0.300249        -8.1702
  88   2.0000      -0.292397        -7.9565
  89   2.0000      -0.287565        -7.8250
  90   2.0000      -0.272695        -7.4204
  91   2.0000      -0.266411        -7.2494
  92   2.0000      -0.265491        -7.2244
  93   2.0000      -0.259329        -7.0567
  94   2.0000      -0.257235        -6.9997
  95   2.0000      -0.239045        -6.5047
  96   2.0000      -0.215815        -5.8726
  97   2.0000      -0.202734        -5.5167
  98   2.0000      -0.198136        -5.3916
  99   2.0000      -0.186484        -5.0745
 100   2.0000      -0.181894        -4.9496
 101   0.0000      -0.038708        -1.0533
 102   0.0000      -0.027582        -0.7505
 103   0.0000      -0.009145        -0.2489
 104   0.0000       0.004037         0.1099
 105   0.0000       0.026528         0.7219

MULLIKEN ATOMIC CHARGES
-----------------------
   0 C :   -0.326036
   1 C :    0.001507
   2 O :   -0.381407
   3 P :    0.607469
   4 S :   -0.303285
   5 O :   -0.341548
   6 C :   -0.014186
   7 C :   -0.290772
   8 S :   -0.111674
   9 C :   -0.338976
  10 S :   -0.091170
  11 P :    0.619924
  12 S :   -0.303452
  13 O :   -0.382868
  14 C :   -0.004920
  15 C :   -0.318013
  16 O :   -0.367517
  17 C :   -0.015601
  18 C :   -0.323000
  19 H :    0.118745
  20 H :    0.132278
  21 H :    0.114485
  22 H :    0.113285
  23 H :    0.103823
  24 H :    0.111017
  25 H :    0.098193
  26 H :    0.121840
  27 H :    0.107411
  28 H :    0.121054
  29 H :    0.190745
  30 H :    0.183332
  31 H :    0.099385
  32 H :    0.106452
  33 H :    0.108930
  34 H :    0.130618
  35 H :    0.114860
  36 H :    0.110919
  37 H :    0.129165
  38 H :    0.133010
  39 H :    0.121736
  40 H :    0.114240
Sum of atomic charges:   -0.0000000

LOEWDIN ATOMIC CHARGES
----------------------
   0 C :   -0.373570
   1 C :   -0.117873
   2 O :   -0.247772
   3 P :    0.568108
   4 S :   -0.299279
   5 O :   -0.224253
   6 C :   -0.116738
   7 C :   -0.360084
   8 S :    0.074043
   9 C :   -0.479959
  10 S :    0.083262
  11 P :    0.576007
  12 S :   -0.294819
  13 O :   -0.261544
  14 C :   -0.123746
  15 C :   -0.365868
  16 O :   -0.233026
  17 C :   -0.118484
  18 C :   -0.367528
  19 H :    0.122825
  20 H :    0.123020
  21 H :    0.132003
  22 H :    0.112864
  23 H :    0.117865
  24 H :    0.121035
  25 H :    0.100687
  26 H :    0.129619
  27 H :    0.128560
  28 H :    0.125321
  29 H :    0.121439
  30 H :    0.138085
  31 H :    0.115576
  32 H :    0.105929
  33 H :    0.128949
  34 H :    0.126488
  35 H :    0.120974
  36 H :    0.123458
  37 H :    0.110624
  38 H :    0.119774
  39 H :    0.125775
  40 H :    0.132252

  Mayer bond orders larger than 0.100000
B(  0-C ,  1-C ) :   1.1657 B(  0-C , 19-H ) :   0.9425 B(  0-C , 20-H ) :   0.9326
B(  0-C , 21-H ) :   0.9371 B(  1-C ,  2-O ) :   0.9050 B(  1-C , 22-H ) :   0.9164
B(  1-C , 23-H ) :   0.9335 B(  2-O ,  3-P ) :   1.0801 B(  3-P ,  4-S ) :   1.6479
B(  3-P ,  5-O ) :   1.1440 B(  3-P ,  8-S ) :   0.9479 B(  4-S ,  8-S ) :   0.1141
B(  5-O ,  6-C ) :   0.8987 B(  6-C ,  7-C ) :   1.1662 B(  6-C , 24-H ) :   0.9326
B(  6-C , 25-H ) :   0.9074 B(  7-C , 26-H ) :   0.9475 B(  7-C , 27-H ) :   0.9395
B(  7-C , 28-H ) :   0.9414 B(  8-S ,  9-C ) :   0.9891 B(  9-C , 10-S ) :   1.0073
B(  9-C , 29-H ) :   0.8497 B(  9-C , 30-H ) :   0.9120 B( 10-S , 11-P ) :   0.9525
B( 10-S , 12-S ) :   0.1081 B( 11-P , 12-S ) :   1.6076 B( 11-P , 13-O ) :   1.0698
B( 11-P , 16-O ) :   1.1216 B( 12-S , 29-H ) :   0.1166 B( 13-O , 14-C ) :   0.9233
B( 14-C , 15-C ) :   1.1601 B( 14-C , 31-H ) :   0.9343 B( 14-C , 32-H ) :   0.9090
B( 15-C , 33-H ) :   0.9393 B( 15-C , 34-H ) :   0.9367 B( 15-C , 35-H ) :   0.9441
B( 16-O , 17-C ) :   0.9019 B( 17-C , 18-C ) :   1.1621 B( 17-C , 36-H ) :   0.9349
B( 17-C , 37-H ) :   0.9129 B( 18-C , 38-H ) :   0.9347 B( 18-C , 39-H ) :   0.9413
B( 18-C , 40-H ) :   0.9360

Dispersion correction           -0.067695680
FINAL SINGLE POINT ENERGY     -2929.511026570085

DIPOLE MOMENT
-------------

Method             : SCF
Type of density    : Electron Density
Multiplicity       :   1
Irrep              :   0
Energy             : -2929.6290294138379977 Eh
Relativity type    :
Basis              : AO
                                X                 Y                 Z
Electronic contribution:      2.202695086      -2.162841245       1.605487455
Nuclear contribution   :     -2.048824917       1.365842861      -1.801102025
                        -----------------------------------------
Total Dipole Moment    :      0.153870169      -0.796998384      -0.195614571
                        -----------------------------------------
Magnitude (a.u.)       :      0.834953600
Magnitude (Debye)      :      2.122283390

Rotational constants in cm-1:             0.013314             0.005237             0.004646
Rotational constants in MHz :           399.141306           157.004679           139.291120

                             ****ORCA TERMINATED NORMALLY****
TOTAL RUN TIME: 0 days 0 hours 0 minutes 21 seconds 266 msec
