                         Program Version 6.0.0  -   RELEASE  -
|  1> ! pbe def2-sv(p) def2/J RI DEFGRID1 loosescf d4 GCP(DFT/SV(P)) printgap
|  2> %output
|  3>     printlevel normal
|  4> end
|  5> * xyz 0 1
|  6> C 4.4995848021 0.7755398632 -1.2517744993
|  7> C 4.4221944387 0.8309205772 0.260402503
|  8> O 3.4855273162 -0.1140278442 0.8031963382
|  9> P 1.9144433127 -0.0261263618 0.5417068047
| 10> S 1.1965742576 1.7925003573 0.5629898572
| 11> O 1.3649806309 -0.946827082 1.7003525215
| 12> C 1.8167347199 -2.3086565704 1.8939770355
| 13> C 2.8411255013 -2.3795518059 3.0076776614
| 14> S 1.661468487 -1.1580147368 -1.254039835
| 15> C 0.4359931018 -0.1473992254 -2.1157987588
| 16> S -1.2168514983 -0.9208667892 -2.1940998925
| 17> P -2.1734981323 0.0222781923 -0.5875605304
| 18> S -4.0714875815 -0.4045938705 -0.3786570288
| 19> O -1.8537635028 1.5776755284 -0.7513147163
| 20> C -2.7492988542 2.4870354424 -1.4208313125
| 21> C -3.5473922899 3.2762864544 -0.4020536558
| 22> O -1.2034618917 -0.3733386895 0.6102576207
| 23> C -1.5999408072 -0.0290468864 1.9603100745
| 24> C -2.1806873327 -1.2358606144 2.6657072924
| 25> H 5.3182720655 1.4031532057 -1.5890588549
| 26> H 4.665056404 -0.2452376486 -1.5867258773
| 27> H 3.5722086527 1.1450518417 -1.6864705976
| 28> H 4.1314410027 1.8320064817 0.5934153009
| 29> H 5.3707178344 0.5493342939 0.7200222088
| 30> H 0.9142343269 -2.8685259726 2.1479445386
| 31> H 2.2259663644 -2.6873956406 0.9530651686
| 32> H 2.4287307202 -1.9587697852 3.9205776325
| 33> H 3.1056862809 -3.4183107894 3.1789949722
| 34> H 3.7327629606 -1.8220320205 2.7347175554
| 35> H 0.7638959276 -0.0490730164 -3.1468479766
| 36> H 0.3601679315 0.8228684735 -1.6184083219
| 37> H -2.1030425424 3.1375697033 -2.0124455868
| 38> H -3.413410324 1.920724041 -2.0801718695
| 39> H -2.8742505691 3.7735131178 0.2913731769
| 40> H -4.1498560724 4.0180796881 -0.915985193
| 41> H -4.2037734563 2.609855431 0.1541956666
| 42> H -0.6860123513 0.3221491289 2.4430039752
| 43> H -2.3225007813 0.7907597791 1.9192222499
| 44> H -2.4186880318 -0.9679556641 3.690111409
| 45> H -3.0880199846 -1.5627026483 2.1616710649
| 46> H -1.4628568819 -2.0510856478 2.6631013558
| 47> *
| 48>
| 49>                          ****END OF INPUT****

CARTESIAN COORDINATES (ANGSTROEM)
---------------------------------
  C      4.499585    0.775540   -1.251774
  C      4.422194    0.830921    0.260403
  O      3.485527   -0.114028    0.803196
  P      1.914443   -0.026126    0.541707
  S      1.196574    1.792500    0.562990
  O      1.364981   -0.946827    1.700353
  C      1.816735   -2.308657    1.893977
  C      2.841126   -2.379552    3.007678
  S      1.661468   -1.158015   -1.254040
  C      0.435993   -0.147399   -2.115799
  S     -1.216851   -0.920867   -2.194100
  P     -2.173498    0.022278   -0.587561
  S     -4.071488   -0.404594   -0.378657
  O     -1.853764    1.577676   -0.751315
  C     -2.749299    2.487035   -1.420831
  C     -3.547392    3.276286   -0.402054
  O     -1.203462   -0.373339    0.610258
  C     -1.599941   -0.029047    1.960310
  C     -2.180687   -1.235861    2.665707
  H      5.318272    1.403153   -1.589059
  H      4.665056   -0.245238   -1.586726
  H      3.572209    1.145052   -1.686471
  H      4.131441    1.832006    0.593415
  H      5.370718    0.549334    0.720022
  H      0.914234   -2.868526    2.147945
  H      2.225966   -2.687396    0.953065
  H      2.428731   -1.958770    3.920578
  H      3.105686   -3.418311    3.178995
  H      3.732763   -1.822032    2.734718
  H      0.763896   -0.049073   -3.146848
  H      0.360168    0.822868   -1.618408
  H     -2.103043    3.137570   -2.012446
  H     -3.413410    1.920724   -2.080172
  H     -2.874251    3.773513    0.291373
  H     -4.149856    4.018080   -0.915985
  H     -4.203773    2.609855    0.154196
  H     -0.686012    0.322149    2.443004
  H     -2.322501    0.790760    1.919222
  H     -2.418688   -0.967956    3.690111
  H     -3.088020   -1.562703    2.161671
  H     -1.462857   -2.051086    2.663101

 Total Charge           Charge          ....    0
 Multiplicity           Mult            ....    1
 Number of Electrons    NEL             ....  202
 Basis Dimension        Dim             ....  334

ORBITAL ENERGIES
----------------

  NO   OCC          E(Eh)            E(eV)
   0   2.0000     -88.045046     -2395.8275
   1   2.0000     -88.039032     -2395.6639
   2   2.0000     -87.993017     -2394.4117
   3   2.0000     -87.982370     -2394.1220
   4   2.0000     -76.431399     -2079.8041
   5   2.0000     -76.419983     -2079.4934
   6   2.0000     -18.796882      -511.4892
   7   2.0000     -18.795845      -511.4609
   8   2.0000     -18.785257      -511.1728
   9   2.0000     -18.781539      -511.0716
  10   2.0000      -9.961816      -271.0748
  11   2.0000      -9.957118      -270.9470
  12   2.0000      -9.956994      -270.9436
  13   2.0000      -9.948274      -270.7063
  14   2.0000      -9.939311      -270.4624
  15   2.0000      -9.890478      -269.1336
  16   2.0000      -9.888119      -269.0694
  17   2.0000      -9.878091      -268.7965
  18   2.0000      -9.873968      -268.6843
  19   2.0000      -7.690065      -209.2573
  20   2.0000      -7.684856      -209.1156
  21   2.0000      -7.638036      -207.8415
  22   2.0000      -7.627578      -207.5570
  23   2.0000      -6.428694      -174.9337
  24   2.0000      -6.418074      -174.6447
  25   2.0000      -5.717940      -155.5930
  26   2.0000      -5.714539      -155.5005
  27   2.0000      -5.713127      -155.4621
  28   2.0000      -5.708972      -155.3490
  29   2.0000      -5.707064      -155.2971
  30   2.0000      -5.701700      -155.1511
  31   2.0000      -5.667065      -154.2087
  32   2.0000      -5.658776      -153.9831
  33   2.0000      -5.657903      -153.9594
  34   2.0000      -5.656545      -153.9224
  35   2.0000      -5.648205      -153.6955
  36   2.0000      -5.647654      -153.6805
  37   2.0000      -4.651450      -126.5724
  38   2.0000      -4.650280      -126.5406
  39   2.0000      -4.649195      -126.5110
  40   2.0000      -4.640489      -126.2741
  41   2.0000      -4.639996      -126.2607
  42   2.0000      -4.638517      -126.2205
  43   2.0000      -0.993187       -27.0260
  44   2.0000      -0.978166       -26.6173
  45   2.0000      -0.949106       -25.8265
  46   2.0000      -0.936033       -25.4707
  47   2.0000      -0.761661       -20.7258
  48   2.0000      -0.723025       -19.6745
  49   2.0000      -0.707091       -19.2409
  50   2.0000      -0.694242       -18.8913
  51   2.0000      -0.679469       -18.4893
  52   2.0000      -0.674455       -18.3529
  53   2.0000      -0.653429       -17.7807
  54   2.0000      -0.639600       -17.4044
  55   2.0000      -0.599549       -16.3146
  56   2.0000      -0.583886       -15.8883
  57   2.0000      -0.578659       -15.7461
  58   2.0000      -0.568739       -15.4762
  59   2.0000      -0.557451       -15.1690
  60   2.0000      -0.506710       -13.7883
  61   2.0000      -0.497462       -13.5366
  62   2.0000      -0.478768       -13.0279
  63   2.0000      -0.469053       -12.7636
  64   2.0000      -0.457057       -12.4372
  65   2.0000      -0.451815       -12.2945
  66   2.0000      -0.439580       -11.9616
  67   2.0000      -0.430512       -11.7148
  68   2.0000      -0.429404       -11.6847
  69   2.0000      -0.418771       -11.3953
  70   2.0000      -0.413896       -11.2627
  71   2.0000      -0.397980       -10.8296
  72   2.0000      -0.388206       -10.5636
  73   2.0000      -0.386803       -10.5254
  74   2.0000      -0.377069       -10.2606
  75   2.0000      -0.370448       -10.0804
  76   2.0000      -0.362171        -9.8552
  77   2.0000      -0.358099        -9.7444
  78   2.0000      -0.356824        -9.7097
  79   2.0000      -0.351559        -9.5664
  80   2.0000      -0.349513        -9.5107
  81   2.0000      -0.346930        -9.4405
  82   2.0000      -0.342119        -9.3095
  83   2.0000      -0.333844        -9.0843
  84   2.0000      -0.322912        -8.7869
  85   2.0000      -0.320665        -8.7257
  86   2.0000      -0.310849        -8.4586
  87   2.0000      -0.300613        -8.1801
  88   2.0000      -0.294141        -8.0040
  89   2.0000      -0.289844        -7.8871
  90   2.0000      -0.285780        -7.7765
  91   2.0000      -0.272848        -7.4246
  92   2.0000      -0.268986        -7.3195
  93   2.0000      -0.265165        -7.2155
  94   2.0000      -0.259974        -7.0743
  95   2.0000      -0.233758        -6.3609
  96   2.0000      -0.219882        -5.9833
  97   2.0000      -0.211181        -5.7465
  98   2.0000      -0.207688        -5.6515
  99   2.0000      -0.200268        -5.4496
 100   2.0000      -0.196566        -5.3488
 101   0.0000      -0.040097        -1.0911
 102   0.0000      -0.028492        -0.7753
 103   0.0000      -0.014880        -0.4049
 104   0.0000       0.002646         0.0720
 105   0.0000       0.009662         0.2629

MULLIKEN ATOMIC CHARGES
-----------------------
   0 C :   -0.311853
   1 C :    0.001370
   2 O :   -0.382798
   3 P :    0.612683
   4 S :   -0.297947
   5 O :   -0.357899
   6 C :   -0.024992
   7 C :   -0.286379
   8 S :   -0.096178
   9 C :   -0.368387
  10 S :   -0.068732
  11 P :    0.605936
  12 S :   -0.325510
  13 O :   -0.372817
  14 C :   -0.004662
  15 C :   -0.293641
  16 O :   -0.377468
  17 C :   -0.006995
  18 C :   -0.293770
  19 H :    0.113534
  20 H :    0.118797
  21 H :    0.119196
  22 H :    0.111494
  23 H :    0.104337
  24 H :    0.122648
  25 H :    0.107957
  26 H :    0.118907
  27 H :    0.111490
  28 H :    0.122442
  29 H :    0.182730
  30 H :    0.208714
  31 H :    0.102028
  32 H :    0.102685
  33 H :    0.115845
  34 H :    0.107327
  35 H :    0.124121
  36 H :    0.113756
  37 H :    0.102518
  38 H :    0.104183
  39 H :    0.123021
  40 H :    0.112306
Sum of atomic charges:    0.0000000

LOEWDIN ATOMIC CHARGES
----------------------
   0 C :   -0.370434
   1 C :   -0.117314
   2 O :   -0.251145
   3 P :    0.580931
   4 S :   -0.284350
   5 O :   -0.229135
   6 C :   -0.112467
   7 C :   -0.358131
   8 S :    0.075970
   9 C :   -0.483029
  10 S :    0.084482
  11 P :    0.564883
  12 S :   -0.321834
  13 O :   -0.245949
  14 C :   -0.117502
  15 C :   -0.361090
  16 O :   -0.247233
  17 C :   -0.122350
  18 C :   -0.359994
  19 H :    0.130917
  20 H :    0.123696
  21 H :    0.118865
  22 H :    0.111682
  23 H :    0.118176
  24 H :    0.120780
  25 H :    0.105567
  26 H :    0.128517
  27 H :    0.130408
  28 H :    0.127018
  29 H :    0.137671
  30 H :    0.126821
  31 H :    0.116001
  32 H :    0.108127
  33 H :    0.125966
  34 H :    0.128464
  35 H :    0.124199
  36 H :    0.112874
  37 H :    0.107458
  38 H :    0.127625
  39 H :    0.124096
  40 H :    0.120762

  Mayer bond orders larger than 0.100000
B(  0-C ,  1-C ) :   1.1668 B(  0-C , 19-H ) :   0.9369 B(  0-C , 20-H ) :   0.9420
B(  0-C , 21-H ) :   0.9387 B(  1-C ,  2-O ) :   0.9123 B(  1-C , 22-H ) :   0.9180
B(  1-C , 23-H ) :   0.9340 B(  2-O ,  3-P ) :   1.0712 B(  3-P ,  4-S ) :   1.6246
B(  3-P ,  5-O ) :   1.1206 B(  3-P ,  8-S ) :   0.9574 B(  4-S ,  8-S ) :   0.1137
B(  5-O ,  6-C ) :   0.8962 B(  6-C ,  7-C ) :   1.1643 B(  6-C , 24-H ) :   0.9254
B(  6-C , 25-H ) :   0.9137 B(  7-C , 26-H ) :   0.9470 B(  7-C , 27-H ) :   0.9397
B(  7-C , 28-H ) :   0.9418 B(  8-S ,  9-C ) :   1.0029 B(  9-C , 10-S ) :   0.9787
B(  9-C , 29-H ) :   0.9102 B(  9-C , 30-H ) :   0.8461 B( 10-S , 11-P ) :   1.0033
B( 11-P , 12-S ) :   1.6265 B( 11-P , 13-O ) :   1.0776 B( 11-P , 16-O ) :   1.1162
B( 13-O , 14-C ) :   0.9049 B( 14-C , 15-C ) :   1.1690 B( 14-C , 31-H ) :   0.9329
B( 14-C , 32-H ) :   0.9110 B( 15-C , 33-H ) :   0.9470 B( 15-C , 34-H ) :   0.9404
B( 15-C , 35-H ) :   0.9375 B( 16-O , 17-C ) :   0.8758 B( 17-C , 18-C ) :   1.1743
B( 17-C , 36-H ) :   0.9140 B( 17-C , 37-H ) :   0.9116 B( 18-C , 38-H ) :   0.9405
B( 18-C , 39-H ) :   0.9329 B( 18-C , 40-H ) :   0.9434

Dispersion correction           -0.066604421
FINAL SINGLE POINT ENERGY     -2929.518862680049

DIPOLE MOMENT
-------------

Method             : SCF
Type of density    : Electron Density
Multiplicity       :   1
Irrep              :   0
Energy             : -2929.6403113755077356 Eh
Relativity type    :
Basis              : AO
                                X                 Y                 Z
Electronic contribution:     -7.875447750      -4.271583426     -12.124006225
Nuclear contribution   :      9.585063341       4.429321346      12.305973194
                        -----------------------------------------
Total Dipole Moment    :      1.709615591       0.157737920       0.181966969
                        -----------------------------------------
Magnitude (a.u.)       :      1.726493180
Magnitude (Debye)      :      4.388396911

Rotational constants in cm-1:             0.011976             0.005451             0.004940
Rotational constants in MHz :           359.032369           163.421937           148.094899

                             ****ORCA TERMINATED NORMALLY****
TOTAL RUN TIME: 0 days 0 hours 0 minutes 21 seconds 804 msec
