                         Program Version 6.0.0  -   RELEASE  -
|  1> ! pbe def2-sv(p) def2/J RI DEFGRID1 loosescf d4 GCP(DFT/SV(P)) printgap
|  2> %output
|  3>     printlevel normal
|  4> end
|  5> * xyz 0 1
|  6> C 5.8036831517 -0.6134787667 -0.9078219296
|  7> C 4.3179058149 -0.8986096866 -0.9964306471
|  8> O 3.6187678928 0.1841429004 -0.35570724
|  9> P 2.0694829515 0.4411302475 -0.6204941103
| 10> S 1.6262152268 0.5482266609 -2.5234770606
| 11> O 1.8468221109 1.7905491603 0.151066491
| 12> C 1.6874790637 1.9482379929 1.579772199
| 13> C 2.8335817111 1.3579063258 2.3710304986
| 14> S 1.134374871 -1.1385966087 0.4797267759
| 15> C 0.0786507021 -1.8485324894 -0.8178837048
| 16> S -1.623803671 -2.1466600788 -0.273492881
| 17> P -2.1502044255 -0.2113718015 0.352774793
| 18> S -1.3192824895 1.3577024754 -0.5081110846
| 19> O -1.8536668813 -0.3700336607 1.8987437625
| 20> C -1.9595030837 0.7243434723 2.8347838629
| 21> C -3.3542862029 0.8128172237 3.4201064219
| 22> O -3.739491981 -0.1957742843 0.310398781
| 23> C -4.4795169452 0.2102846146 -0.8531815407
| 24> C -4.2690164073 -0.7294402569 -2.0225586573
| 25> H 6.0332843127 0.3204324993 -1.4131189379
| 26> H 6.1063348135 -0.5352176834 0.1321441167
| 27> H 6.3500991135 -1.4215741667 -1.382753256
| 28> H 4.0577971522 -1.8254904203 -0.4773262922
| 29> H 3.9839027792 -0.9631734328 -2.0378429316
| 30> H 1.6201830103 3.030395236 1.7019512934
| 31> H 0.7362190659 1.4886464163 1.8633873879
| 32> H 3.7783825585 1.7615825668 2.0170921406
| 33> H 2.7039804305 1.6064441617 3.4198568503
| 34> H 2.8477601523 0.2745439143 2.2617751352
| 35> H 0.4685211486 -2.8255666388 -1.0928693219
| 36> H 0.0909713484 -1.1673337228 -1.6745233926
| 37> H -1.2201331946 0.4940083007 3.6044030776
| 38> H -1.6876799487 1.6542973518 2.322407144
| 39> H -4.0760305323 1.0578417485 2.6448636585
| 40> H -3.628962288 -0.1390651341 3.8655034334
| 41> H -3.3714677231 1.5863505334 4.18160369
| 42> H -5.5173061332 0.2086874921 -0.517147625
| 43> H -4.1737572535 1.2275379487 -1.118474901
| 44> H -3.2418867797 -0.6552983119 -2.3794601923
| 45> H -4.463003847 -1.7563027093 -1.7228737212
| 46> H -4.9395098864 -0.4546680285 -2.8305835499
| 47> *
| 48>
| 49>                          ****END OF INPUT****

CARTESIAN COORDINATES (ANGSTROEM)
---------------------------------
  C      5.803683   -0.613479   -0.907822
  C      4.317906   -0.898610   -0.996431
  O      3.618768    0.184143   -0.355707
  P      2.069483    0.441130   -0.620494
  S      1.626215    0.548227   -2.523477
  O      1.846822    1.790549    0.151066
  C      1.687479    1.948238    1.579772
  C      2.833582    1.357906    2.371030
  S      1.134375   -1.138597    0.479727
  C      0.078651   -1.848532   -0.817884
  S     -1.623804   -2.146660   -0.273493
  P     -2.150204   -0.211372    0.352775
  S     -1.319282    1.357702   -0.508111
  O     -1.853667   -0.370034    1.898744
  C     -1.959503    0.724343    2.834784
  C     -3.354286    0.812817    3.420106
  O     -3.739492   -0.195774    0.310399
  C     -4.479517    0.210285   -0.853182
  C     -4.269016   -0.729440   -2.022559
  H      6.033284    0.320432   -1.413119
  H      6.106335   -0.535218    0.132144
  H      6.350099   -1.421574   -1.382753
  H      4.057797   -1.825490   -0.477326
  H      3.983903   -0.963173   -2.037843
  H      1.620183    3.030395    1.701951
  H      0.736219    1.488646    1.863387
  H      3.778383    1.761583    2.017092
  H      2.703980    1.606444    3.419857
  H      2.847760    0.274544    2.261775
  H      0.468521   -2.825567   -1.092869
  H      0.090971   -1.167334   -1.674523
  H     -1.220133    0.494008    3.604403
  H     -1.687680    1.654297    2.322407
  H     -4.076031    1.057842    2.644864
  H     -3.628962   -0.139065    3.865503
  H     -3.371468    1.586351    4.181604
  H     -5.517306    0.208687   -0.517148
  H     -4.173757    1.227538   -1.118475
  H     -3.241887   -0.655298   -2.379460
  H     -4.463004   -1.756303   -1.722874
  H     -4.939510   -0.454668   -2.830584

 Total Charge           Charge          ....    0
 Multiplicity           Mult            ....    1
 Number of Electrons    NEL             ....  202
 Basis Dimension        Dim             ....  334

ORBITAL ENERGIES
----------------

  NO   OCC          E(Eh)            E(eV)
   0   2.0000     -88.043899     -2395.7963
   1   2.0000     -88.041456     -2395.7298
   2   2.0000     -87.984122     -2394.1697
   3   2.0000     -87.978118     -2394.0063
   4   2.0000     -76.425009     -2079.6302
   5   2.0000     -76.421456     -2079.5336
   6   2.0000     -18.792234      -511.3627
   7   2.0000     -18.788787      -511.2689
   8   2.0000     -18.788074      -511.2495
   9   2.0000     -18.784424      -511.1502
  10   2.0000      -9.954419      -270.8735
  11   2.0000      -9.953868      -270.8585
  12   2.0000      -9.953059      -270.8365
  13   2.0000      -9.951987      -270.8073
  14   2.0000      -9.946863      -270.6679
  15   2.0000      -9.888355      -269.0758
  16   2.0000      -9.886461      -269.0243
  17   2.0000      -9.884830      -268.9799
  18   2.0000      -9.882966      -268.9292
  19   2.0000      -7.689494      -209.2418
  20   2.0000      -7.685626      -209.1365
  21   2.0000      -7.628524      -207.5827
  22   2.0000      -7.623373      -207.4425
  23   2.0000      -6.422539      -174.7662
  24   2.0000      -6.418619      -174.6595
  25   2.0000      -5.717519      -155.5816
  26   2.0000      -5.713912      -155.4834
  27   2.0000      -5.713454      -155.4710
  28   2.0000      -5.710171      -155.3817
  29   2.0000      -5.706298      -155.2763
  30   2.0000      -5.702763      -155.1801
  31   2.0000      -5.657405      -153.9458
  32   2.0000      -5.652371      -153.8088
  33   2.0000      -5.649311      -153.7256
  34   2.0000      -5.648671      -153.7081
  35   2.0000      -5.644093      -153.5836
  36   2.0000      -5.643273      -153.5613
  37   2.0000      -4.645064      -126.3986
  38   2.0000      -4.644281      -126.3773
  39   2.0000      -4.643031      -126.3433
  40   2.0000      -4.641278      -126.2956
  41   2.0000      -4.640449      -126.2730
  42   2.0000      -4.638971      -126.2328
  43   2.0000      -0.986197       -26.8358
  44   2.0000      -0.982757       -26.7422
  45   2.0000      -0.945017       -25.7152
  46   2.0000      -0.940126       -25.5821
  47   2.0000      -0.761661       -20.7258
  48   2.0000      -0.719755       -19.5855
  49   2.0000      -0.709878       -19.3168
  50   2.0000      -0.689728       -18.7684
  51   2.0000      -0.688079       -18.7236
  52   2.0000      -0.674632       -18.3577
  53   2.0000      -0.648089       -17.6354
  54   2.0000      -0.632230       -17.2039
  55   2.0000      -0.600616       -16.3436
  56   2.0000      -0.591971       -16.1084
  57   2.0000      -0.573606       -15.6086
  58   2.0000      -0.564917       -15.3722
  59   2.0000      -0.560934       -15.2638
  60   2.0000      -0.500918       -13.6307
  61   2.0000      -0.495320       -13.4783
  62   2.0000      -0.475429       -12.9371
  63   2.0000      -0.471457       -12.8290
  64   2.0000      -0.452971       -12.3260
  65   2.0000      -0.450106       -12.2480
  66   2.0000      -0.436704       -11.8833
  67   2.0000      -0.432576       -11.7710
  68   2.0000      -0.431092       -11.7306
  69   2.0000      -0.417882       -11.3711
  70   2.0000      -0.410209       -11.1624
  71   2.0000      -0.402912       -10.9638
  72   2.0000      -0.391681       -10.6582
  73   2.0000      -0.383420       -10.4334
  74   2.0000      -0.376484       -10.2447
  75   2.0000      -0.375709       -10.2236
  76   2.0000      -0.362152        -9.8547
  77   2.0000      -0.357162        -9.7189
  78   2.0000      -0.354109        -9.6358
  79   2.0000      -0.351594        -9.5674
  80   2.0000      -0.350478        -9.5370
  81   2.0000      -0.346655        -9.4330
  82   2.0000      -0.343008        -9.3337
  83   2.0000      -0.338305        -9.2057
  84   2.0000      -0.334825        -9.1111
  85   2.0000      -0.312335        -8.4991
  86   2.0000      -0.308593        -8.3972
  87   2.0000      -0.296170        -8.0592
  88   2.0000      -0.294634        -8.0174
  89   2.0000      -0.286225        -7.7886
  90   2.0000      -0.283433        -7.7126
  91   2.0000      -0.277794        -7.5592
  92   2.0000      -0.270747        -7.3674
  93   2.0000      -0.261498        -7.1157
  94   2.0000      -0.255199        -6.9443
  95   2.0000      -0.235508        -6.4085
  96   2.0000      -0.221498        -6.0273
  97   2.0000      -0.210400        -5.7253
  98   2.0000      -0.197733        -5.3806
  99   2.0000      -0.195009        -5.3065
 100   2.0000      -0.184449        -5.0191
 101   0.0000      -0.044117        -1.2005
 102   0.0000      -0.031886        -0.8677
 103   0.0000      -0.008977        -0.2443
 104   0.0000       0.009882         0.2689
 105   0.0000       0.019956         0.5430

MULLIKEN ATOMIC CHARGES
-----------------------
   0 C :   -0.279753
   1 C :   -0.006236
   2 O :   -0.375388
   3 P :    0.609088
   4 S :   -0.297010
   5 O :   -0.351210
   6 C :   -0.029567
   7 C :   -0.311739
   8 S :   -0.132003
   9 C :   -0.335735
  10 S :   -0.089567
  11 P :    0.604713
  12 S :   -0.310954
  13 O :   -0.365199
  14 C :   -0.034454
  15 C :   -0.268479
  16 O :   -0.374079
  17 C :   -0.002341
  18 C :   -0.320864
  19 H :    0.121094
  20 H :    0.113030
  21 H :    0.109680
  22 H :    0.093154
  23 H :    0.100874
  24 H :    0.110654
  25 H :    0.138232
  26 H :    0.125453
  27 H :    0.111913
  28 H :    0.123578
  29 H :    0.177678
  30 H :    0.204596
  31 H :    0.106430
  32 H :    0.107530
  33 H :    0.120398
  34 H :    0.116042
  35 H :    0.107878
  36 H :    0.104067
  37 H :    0.112238
  38 H :    0.133385
  39 H :    0.118473
  40 H :    0.114398
Sum of atomic charges:    0.0000000

LOEWDIN ATOMIC CHARGES
----------------------
   0 C :   -0.350256
   1 C :   -0.125064
   2 O :   -0.249744
   3 P :    0.574607
   4 S :   -0.294333
   5 O :   -0.223350
   6 C :   -0.115218
   7 C :   -0.366404
   8 S :    0.057312
   9 C :   -0.479990
  10 S :    0.094235
  11 P :    0.562300
  12 S :   -0.304773
  13 O :   -0.241900
  14 C :   -0.120912
  15 C :   -0.358022
  16 O :   -0.245670
  17 C :   -0.119710
  18 C :   -0.370499
  19 H :    0.129242
  20 H :    0.124806
  21 H :    0.129639
  22 H :    0.104517
  23 H :    0.105559
  24 H :    0.123795
  25 H :    0.110432
  26 H :    0.130017
  27 H :    0.130665
  28 H :    0.117064
  29 H :    0.135163
  30 H :    0.123269
  31 H :    0.116957
  32 H :    0.105439
  33 H :    0.125885
  34 H :    0.127640
  35 H :    0.128889
  36 H :    0.117993
  37 H :    0.111412
  38 H :    0.123503
  39 H :    0.123749
  40 H :    0.131756

  Mayer bond orders larger than 0.100000
B(  0-C ,  1-C ) :   1.1606 B(  0-C , 19-H ) :   0.9510 B(  0-C , 20-H ) :   0.9518
B(  0-C , 21-H ) :   0.9424 B(  1-C ,  2-O ) :   0.9115 B(  1-C , 22-H ) :   0.9249
B(  1-C , 23-H ) :   0.9060 B(  2-O ,  3-P ) :   1.0792 B(  3-P ,  4-S ) :   1.6317
B(  3-P ,  5-O ) :   1.1524 B(  3-P ,  8-S ) :   0.9275 B(  4-S ,  8-S ) :   0.1187
B(  4-S , 30-H ) :   0.1182 B(  5-O ,  6-C ) :   0.8990 B(  6-C ,  7-C ) :   1.1652
B(  6-C , 24-H ) :   0.9343 B(  6-C , 25-H ) :   0.9079 B(  7-C , 26-H ) :   0.9415
B(  7-C , 27-H ) :   0.9356 B(  7-C , 28-H ) :   0.9375 B(  8-S ,  9-C ) :   1.0005
B(  9-C , 10-S ) :   0.9949 B(  9-C , 29-H ) :   0.9114 B(  9-C , 30-H ) :   0.8443
B( 10-S , 11-P ) :   0.9618 B( 10-S , 12-S ) :   0.1153 B( 11-P , 12-S ) :   1.6145
B( 11-P , 13-O ) :   1.1220 B( 11-P , 16-O ) :   1.0973 B( 13-O , 14-C ) :   0.9033
B( 14-C , 15-C ) :   1.1641 B( 14-C , 31-H ) :   0.9339 B( 14-C , 32-H ) :   0.8982
B( 15-C , 33-H ) :   0.9421 B( 15-C , 34-H ) :   0.9465 B( 15-C , 35-H ) :   0.9401
B( 16-O , 17-C ) :   0.9062 B( 17-C , 18-C ) :   1.1668 B( 17-C , 36-H ) :   0.9336
B( 17-C , 37-H ) :   0.9156 B( 18-C , 38-H ) :   0.9344 B( 18-C , 39-H ) :   0.9438
B( 18-C , 40-H ) :   0.9373

Dispersion correction           -0.066068524
FINAL SINGLE POINT ENERGY     -2929.516934351881

DIPOLE MOMENT
-------------

Method             : SCF
Type of density    : Electron Density
Multiplicity       :   1
Irrep              :   0
Energy             : -2929.6353768174553807 Eh
Relativity type    :
Basis              : AO
                                X                 Y                 Z
Electronic contribution:     -2.543430701      -3.053082698      -9.718317355
Nuclear contribution   :      2.381261634       2.639132045      11.015831882
                        -----------------------------------------
Total Dipole Moment    :     -0.162169067      -0.413950653       1.297514527
                        -----------------------------------------
Magnitude (a.u.)       :      1.371567678
Magnitude (Debye)      :      3.486247982

Rotational constants in cm-1:             0.012983             0.005114             0.004517
Rotational constants in MHz :           389.220727           153.312862           135.403328

                             ****ORCA TERMINATED NORMALLY****
TOTAL RUN TIME: 0 days 0 hours 0 minutes 21 seconds 278 msec
