                         Program Version 6.0.0  -   RELEASE  -
|  1> ! wb97x-v def2-tzvp def2/J RIJCOSX DEFGRID2 scfconv7 GCP(DFT/TZ) printgap
|  2> %output
|  3>     printlevel normal
|  4> end
|  5> * xyz 0 1
|  6> C 0.5399706238352429 -1.28498945871408 -5.32822999447107e-05
|  7> C -0.8428298877553956 -1.110048197194209 -0.00013248165991743707
|  8> C -1.3828132418824444 0.17495827023064475 -9.817504400276664e-05
|  9> C -0.5399719822346244 1.2849911467256636 3.228710707231084e-05
| 10> C 0.8428316311601969 1.1100492894793037 8.760385251587316e-05
| 11> C 1.3828127087301283 -0.17495937758920949 3.6618980723058374e-05
| 12> H 0.9604504582847627 -2.2860135573444955 -9.48303482159797e-05
| 13> H -1.499381355241205 -1.974831401240334 -0.00019765724198235707
| 14> H -2.460002052919839 0.31117939126044697 -0.00012616584014376036
| 15> H -0.9604508107215212 2.286017829799774 4.347961159191457e-05
| 16> H 1.499384057249825 1.974833877388913 0.00015555757479342747
| 17> H 2.4600014462466526 -0.31117871080587073 9.061824600033639e-05
| 18> *
| 19>
| 20>                          ****END OF INPUT****

CARTESIAN COORDINATES (ANGSTROEM)
---------------------------------
  C      0.539971   -1.284989   -0.000053
  C     -0.842830   -1.110048   -0.000132
  C     -1.382813    0.174958   -0.000098
  C     -0.539972    1.284991    0.000032
  C      0.842832    1.110049    0.000088
  C      1.382813   -0.174959    0.000037
  H      0.960450   -2.286014   -0.000095
  H     -1.499381   -1.974831   -0.000198
  H     -2.460002    0.311179   -0.000126
  H     -0.960451    2.286018    0.000043
  H      1.499384    1.974834    0.000156
  H      2.460001   -0.311179    0.000091

 Total Charge           Charge          ....    0
 Multiplicity           Mult            ....    1
 Number of Electrons    NEL             ....   42
 Basis Dimension        Dim             ....  222

ORBITAL ENERGIES
----------------

  NO   OCC          E(Eh)            E(eV)
   0   2.0000     -12.053893      -328.0031
   1   2.0000     -12.053582      -327.9946
   2   2.0000     -12.053573      -327.9944
   3   2.0000     -12.051304      -327.9327
   4   2.0000     -12.051295      -327.9324
   5   2.0000     -12.050114      -327.9003
   6   2.0000      -1.381041       -37.5800
   7   2.0000      -1.272874       -34.6367
   8   2.0000      -1.272830       -34.6355
   9   2.0000      -1.104012       -30.0417
  10   2.0000      -1.103992       -30.0411
  11   2.0000      -0.968279       -26.3482
  12   2.0000      -0.947378       -25.7795
  13   2.0000      -0.918141       -24.9839
  14   2.0000      -0.875264       -23.8171
  15   2.0000      -0.875224       -23.8160
  16   2.0000      -0.808020       -21.9873
  17   2.0000      -0.808008       -21.9870
  18   2.0000      -0.769540       -20.9403
  19   2.0000      -0.637813       -17.3558
  20   2.0000      -0.637775       -17.3547
  21   0.0000      -0.235906        -6.4193
  22   0.0000      -0.235883        -6.4187
  23   0.0000      -0.064523        -1.7558
  24   0.0000      -0.034410        -0.9364
  25   0.0000       0.013865         0.3773

MULLIKEN ATOMIC CHARGES
-----------------------
   0 C :   -0.117931
   1 C :   -0.117959
   2 C :   -0.117610
   3 C :   -0.117880
   4 C :   -0.118011
   5 C :   -0.117557
   6 H :    0.117979
   7 H :    0.117746
   8 H :    0.117741
   9 H :    0.117991
  10 H :    0.117748
  11 H :    0.117744
Sum of atomic charges:    0.0000000

LOEWDIN ATOMIC CHARGES
----------------------
   0 C :   -0.141054
   1 C :   -0.140993
   2 C :   -0.140995
   3 C :   -0.141052
   4 C :   -0.140992
   5 C :   -0.140995
   6 H :    0.141022
   7 H :    0.141010
   8 H :    0.141009
   9 H :    0.141022
  10 H :    0.141010
  11 H :    0.141008

  Mayer bond orders larger than 0.100000
B(  0-C ,  1-C ) :   1.4314 B(  0-C ,  5-C ) :   1.4316 B(  0-C ,  6-H ) :   0.9705
B(  1-C ,  2-C ) :   1.4310 B(  1-C ,  7-H ) :   0.9708 B(  2-C ,  3-C ) :   1.4316
B(  2-C ,  8-H ) :   0.9707 B(  3-C ,  4-C ) :   1.4314 B(  3-C ,  9-H ) :   0.9705
B(  4-C ,  5-C ) :   1.4310 B(  4-C , 10-H ) :   0.9708 B(  5-C , 11-H ) :   0.9707

FINAL SINGLE POINT ENERGY      -232.253716093478

DIPOLE MOMENT
-------------

Method             : SCF
Type of density    : Electron Density
Multiplicity       :   1
Irrep              :   0
Energy             :  -232.2594986772784296 Eh
Relativity type    :
Basis              : AO
                                X                 Y                 Z
Electronic contribution:     -0.000001552      -0.000001460       0.000000671
Nuclear contribution   :      0.000001637       0.000004982      -0.000001358
                        -----------------------------------------
Total Dipole Moment    :      0.000000085       0.000003522      -0.000000687
                        -----------------------------------------
Magnitude (a.u.)       :      0.000003589
Magnitude (Debye)      :      0.000009123

Rotational constants in cm-1:             0.190291             0.190268             0.095140
Rotational constants in MHz :          5704.778197          5704.104614          2852.220693

                             ****ORCA TERMINATED NORMALLY****
TOTAL RUN TIME: 0 days 0 hours 1 minutes 17 seconds 456 msec
