                         Program Version 6.0.0  -   RELEASE  -
|  1> ! wb97x-v def2-tzvp def2/J RIJCOSX DEFGRID2 scfconv7 GCP(DFT/TZ) printgap
|  2> %output
|  3>     printlevel normal
|  4> end
|  5> %cpcm
|  6>     smd true
|  7>     smdsolvent "water"
|  8> end
|  9> * xyz 0 1
| 10> C 0.5399706238352429 -1.28498945871408 -5.32822999447107e-05
| 11> C -0.8428298877553956 -1.110048197194209 -0.00013248165991743707
| 12> C -1.3828132418824444 0.17495827023064475 -9.817504400276664e-05
| 13> C -0.5399719822346244 1.2849911467256636 3.228710707231084e-05
| 14> C 0.8428316311601969 1.1100492894793037 8.760385251587316e-05
| 15> C 1.3828127087301283 -0.17495937758920949 3.6618980723058374e-05
| 16> H 0.9604504582847627 -2.2860135573444955 -9.48303482159797e-05
| 17> H -1.499381355241205 -1.974831401240334 -0.00019765724198235707
| 18> H -2.460002052919839 0.31117939126044697 -0.00012616584014376036
| 19> H -0.9604508107215212 2.286017829799774 4.347961159191457e-05
| 20> H 1.499384057249825 1.974833877388913 0.00015555757479342747
| 21> H 2.4600014462466526 -0.31117871080587073 9.061824600033639e-05
| 22> *
| 23>
| 24>                          ****END OF INPUT****

CARTESIAN COORDINATES (ANGSTROEM)
---------------------------------
  C      0.539971   -1.284989   -0.000053
  C     -0.842830   -1.110048   -0.000132
  C     -1.382813    0.174958   -0.000098
  C     -0.539972    1.284991    0.000032
  C      0.842832    1.110049    0.000088
  C      1.382813   -0.174959    0.000037
  H      0.960450   -2.286014   -0.000095
  H     -1.499381   -1.974831   -0.000198
  H     -2.460002    0.311179   -0.000126
  H     -0.960451    2.286018    0.000043
  H      1.499384    1.974834    0.000156
  H      2.460001   -0.311179    0.000091

 Total Charge           Charge          ....    0
 Multiplicity           Mult            ....    1
 Number of Electrons    NEL             ....   42
 Basis Dimension        Dim             ....  222

ORBITAL ENERGIES
----------------

  NO   OCC          E(Eh)            E(eV)
   0   2.0000     -12.050964      -327.9234
   1   2.0000     -12.050652      -327.9149
   2   2.0000     -12.050645      -327.9147
   3   2.0000     -12.048392      -327.8534
   4   2.0000     -12.048385      -327.8532
   5   2.0000     -12.047217      -327.8214
   6   2.0000      -1.380250       -37.5585
   7   2.0000      -1.271234       -34.5920
   8   2.0000      -1.271190       -34.5908
   9   2.0000      -1.101290       -29.9676
  10   2.0000      -1.101273       -29.9672
  11   2.0000      -0.964432       -26.2435
  12   2.0000      -0.945299       -25.7229
  13   2.0000      -0.912829       -24.8393
  14   2.0000      -0.871219       -23.7071
  15   2.0000      -0.871175       -23.7059
  16   2.0000      -0.803598       -21.8670
  17   2.0000      -0.803590       -21.8668
  18   2.0000      -0.770244       -20.9594
  19   2.0000      -0.637879       -17.3576
  20   2.0000      -0.637838       -17.3564
  21   0.0000      -0.235593        -6.4108
  22   0.0000      -0.235576        -6.4103
  23   0.0000      -0.063452        -1.7266
  24   0.0000      -0.023125        -0.6293
  25   0.0000       0.020597         0.5605

MULLIKEN ATOMIC CHARGES
-----------------------
   0 C :   -0.161815
   1 C :   -0.161426
   2 C :   -0.160957
   3 C :   -0.161760
   4 C :   -0.161487
   5 C :   -0.160899
   6 H :    0.161493
   7 H :    0.161303
   8 H :    0.161363
   9 H :    0.161508
  10 H :    0.161310
  11 H :    0.161366
Sum of atomic charges:    0.0000000

LOEWDIN ATOMIC CHARGES
----------------------
   0 C :   -0.150574
   1 C :   -0.150489
   2 C :   -0.150465
   3 C :   -0.150574
   4 C :   -0.150490
   5 C :   -0.150464
   6 H :    0.150509
   7 H :    0.150515
   8 H :    0.150504
   9 H :    0.150509
  10 H :    0.150515
  11 H :    0.150504

  Mayer bond orders larger than 0.100000
B(  0-C ,  1-C ) :   1.4087 B(  0-C ,  5-C ) :   1.4090 B(  0-C ,  6-H ) :   0.9723
B(  1-C ,  2-C ) :   1.4081 B(  1-C ,  7-H ) :   0.9726 B(  2-C ,  3-C ) :   1.4090
B(  2-C ,  8-H ) :   0.9725 B(  3-C ,  4-C ) :   1.4087 B(  3-C ,  9-H ) :   0.9723
B(  4-C ,  5-C ) :   1.4081 B(  4-C , 10-H ) :   0.9726 B(  5-C , 11-H ) :   0.9724

FINAL SINGLE POINT ENERGY      -232.255694773208

DIPOLE MOMENT
-------------

Method             : SCF
Type of density    : Electron Density
Multiplicity       :   1
Irrep              :   0
Energy             :  -232.2614773570084594 Eh
Relativity type    :
Basis              : AO
                                X                 Y                 Z
Electronic contribution:     -0.000001208      -0.000006331       0.000000502
Nuclear contribution   :      0.000001637       0.000004982      -0.000001358
                        -----------------------------------------
Total Dipole Moment    :      0.000000429      -0.000001349      -0.000000856
                        -----------------------------------------
Magnitude (a.u.)       :      0.000001654
Magnitude (Debye)      :      0.000004203

Rotational constants in cm-1:             0.190291             0.190268             0.095140
Rotational constants in MHz :          5704.778197          5704.104614          2852.220693

                             ****ORCA TERMINATED NORMALLY****
TOTAL RUN TIME: 0 days 0 hours 1 minutes 14 seconds 291 msec
