                         Program Version 6.0.0  -   RELEASE  -
|  1> ! pbe def2-sv(p) def2/J RI DEFGRID1 loosescf d4 GCP(DFT/SV(P)) printgap
|  2> %output
|  3>     printlevel normal
|  4> end
|  5> * xyz 0 1
|  6> C 3.003580097 0.185554524 3.3325129979
|  7> C 1.6837138106 -0.2792745579 2.7549969945
|  8> O 1.4383279215 0.3276242554 1.4713200754
|  9> P 2.2384572811 -0.0984523259 0.1712328947
| 10> S 2.8869451412 -1.9534710029 0.2057299347
| 11> O 3.3136786229 1.0674742558 0.0956146317
| 12> C 4.0239628278 1.4809054197 -1.085160984
| 13> C 4.6954615317 0.3294402681 -1.8045136481
| 14> S 0.8717053247 0.3862376345 -1.3741149273
| 15> C -0.0510633592 -1.1690758719 -1.2939987539
| 16> S -1.1032769395 -1.2904566568 0.1719312502
| 17> P -2.4852684877 0.2240042861 -0.4311738066
| 18> S -2.8950470295 0.2913179208 -2.3399322375
| 19> O -1.883344347 1.5830574789 0.0945798482
| 20> C -1.6444814626 1.8489343123 1.4999353779
| 21> C -0.6375876364 2.9760019403 1.5925018568
| 22> O -3.720045322 0.0170448737 0.549858211
| 23> C -4.8155083503 -0.8680005269 0.2488740634
| 24> C -4.3875856616 -2.3197793126 0.1925442805
| 25> H 3.8182920307 -0.1430414819 2.6878853443
| 26> H 3.025637851 1.2698541846 3.3980123864
| 27> H 3.1383609487 -0.2422854587 4.3208212543
| 28> H 0.8377506721 0.0350627166 3.3673555107
| 29> H 1.6719293395 -1.3676827356 2.6364422936
| 30> H 3.3167189992 1.9896032529 -1.7466260806
| 31> H 4.7562605207 2.1963523827 -0.7064252726
| 32> H 5.3432864793 -0.2184762119 -1.1242357615
| 33> H 3.9460414719 -0.3573793767 -2.1962765808
| 34> H 5.2854134365 0.7150254791 -2.6298399655
| 35> H 0.6484083487 -2.0049387796 -1.2522187998
| 36> H -0.6730130225 -1.2095489613 -2.1883689977
| 37> H -2.6003113153 2.1206340655 1.9518305747
| 38> H -1.2700044651 0.9338712482 1.9685628791
| 39> H -0.9990126436 3.8403281814 1.042760679
| 40> H -0.4959614207 3.2432370799 2.6347611411
| 41> H 0.3141535018 2.6645520014 1.1690956487
| 42> H -5.5223876608 -0.6869795328 1.0598224889
| 43> H -5.253799368 -0.5592507975 -0.7048406967
| 44> H -3.7379802611 -2.4838573409 -0.6659335101
| 45> H -3.8499626443 -2.5933513992 1.097042149
| 46> H -5.2668951329 -2.9477106848 0.0912312036
| 47> *
| 48>
| 49>                          ****END OF INPUT****

CARTESIAN COORDINATES (ANGSTROEM)
---------------------------------
  C      3.003580    0.185555    3.332513
  C      1.683714   -0.279275    2.754997
  O      1.438328    0.327624    1.471320
  P      2.238457   -0.098452    0.171233
  S      2.886945   -1.953471    0.205730
  O      3.313679    1.067474    0.095615
  C      4.023963    1.480905   -1.085161
  C      4.695462    0.329440   -1.804514
  S      0.871705    0.386238   -1.374115
  C     -0.051063   -1.169076   -1.293999
  S     -1.103277   -1.290457    0.171931
  P     -2.485268    0.224004   -0.431174
  S     -2.895047    0.291318   -2.339932
  O     -1.883344    1.583057    0.094580
  C     -1.644481    1.848934    1.499935
  C     -0.637588    2.976002    1.592502
  O     -3.720045    0.017045    0.549858
  C     -4.815508   -0.868001    0.248874
  C     -4.387586   -2.319779    0.192544
  H      3.818292   -0.143041    2.687885
  H      3.025638    1.269854    3.398012
  H      3.138361   -0.242285    4.320821
  H      0.837751    0.035063    3.367356
  H      1.671929   -1.367683    2.636442
  H      3.316719    1.989603   -1.746626
  H      4.756261    2.196352   -0.706425
  H      5.343286   -0.218476   -1.124236
  H      3.946041   -0.357379   -2.196277
  H      5.285413    0.715025   -2.629840
  H      0.648408   -2.004939   -1.252219
  H     -0.673013   -1.209549   -2.188369
  H     -2.600311    2.120634    1.951831
  H     -1.270004    0.933871    1.968563
  H     -0.999013    3.840328    1.042761
  H     -0.495961    3.243237    2.634761
  H      0.314154    2.664552    1.169096
  H     -5.522388   -0.686980    1.059822
  H     -5.253799   -0.559251   -0.704841
  H     -3.737980   -2.483857   -0.665934
  H     -3.849963   -2.593351    1.097042
  H     -5.266895   -2.947711    0.091231

 Total Charge           Charge          ....    0
 Multiplicity           Mult            ....    1
 Number of Electrons    NEL             ....  202
 Basis Dimension        Dim             ....  334

ORBITAL ENERGIES
----------------

  NO   OCC          E(Eh)            E(eV)
   0   2.0000     -88.044245     -2395.8057
   1   2.0000     -88.040972     -2395.7166
   2   2.0000     -87.990383     -2394.3400
   3   2.0000     -87.986600     -2394.2371
   4   2.0000     -76.430416     -2079.7774
   5   2.0000     -76.425417     -2079.6413
   6   2.0000     -18.797698      -511.5114
   7   2.0000     -18.795372      -511.4481
   8   2.0000     -18.793021      -511.3841
   9   2.0000     -18.788363      -511.2574
  10   2.0000      -9.961244      -271.0592
  11   2.0000      -9.954903      -270.8867
  12   2.0000      -9.953125      -270.8383
  13   2.0000      -9.952142      -270.8115
  14   2.0000      -9.951315      -270.7891
  15   2.0000      -9.885535      -268.9991
  16   2.0000      -9.885418      -268.9959
  17   2.0000      -9.884898      -268.9818
  18   2.0000      -9.881496      -268.8892
  19   2.0000      -7.689303      -209.2366
  20   2.0000      -7.685762      -209.1402
  21   2.0000      -7.635256      -207.7659
  22   2.0000      -7.631899      -207.6745
  23   2.0000      -6.427668      -174.9057
  24   2.0000      -6.422938      -174.7770
  25   2.0000      -5.717043      -155.5687
  26   2.0000      -5.713913      -155.4835
  27   2.0000      -5.713478      -155.4716
  28   2.0000      -5.710386      -155.3875
  29   2.0000      -5.706314      -155.2767
  30   2.0000      -5.702815      -155.1815
  31   2.0000      -5.664140      -154.1291
  32   2.0000      -5.660825      -154.0389
  33   2.0000      -5.655956      -153.9064
  34   2.0000      -5.655396      -153.8911
  35   2.0000      -5.652432      -153.8105
  36   2.0000      -5.652098      -153.8014
  37   2.0000      -4.650184      -126.5379
  38   2.0000      -4.649584      -126.5216
  39   2.0000      -4.648061      -126.4802
  40   2.0000      -4.645854      -126.4201
  41   2.0000      -4.644561      -126.3849
  42   2.0000      -4.643238      -126.3489
  43   2.0000      -0.990931       -26.9646
  44   2.0000      -0.987737       -26.8777
  45   2.0000      -0.949699       -25.8426
  46   2.0000      -0.943535       -25.6749
  47   2.0000      -0.765268       -20.8240
  48   2.0000      -0.722176       -19.6514
  49   2.0000      -0.710790       -19.3416
  50   2.0000      -0.690294       -18.7838
  51   2.0000      -0.688722       -18.7411
  52   2.0000      -0.677028       -18.4229
  53   2.0000      -0.652417       -17.7532
  54   2.0000      -0.639390       -17.3987
  55   2.0000      -0.601699       -16.3731
  56   2.0000      -0.593183       -16.1413
  57   2.0000      -0.576634       -15.6910
  58   2.0000      -0.568715       -15.4755
  59   2.0000      -0.561688       -15.2843
  60   2.0000      -0.505750       -13.7622
  61   2.0000      -0.496834       -13.5195
  62   2.0000      -0.474171       -12.9028
  63   2.0000      -0.473593       -12.8871
  64   2.0000      -0.463242       -12.6055
  65   2.0000      -0.446879       -12.1602
  66   2.0000      -0.441545       -12.0151
  67   2.0000      -0.438569       -11.9341
  68   2.0000      -0.429246       -11.6804
  69   2.0000      -0.420990       -11.4557
  70   2.0000      -0.414389       -11.2761
  71   2.0000      -0.395169       -10.7531
  72   2.0000      -0.390163       -10.6169
  73   2.0000      -0.388917       -10.5830
  74   2.0000      -0.379970       -10.3395
  75   2.0000      -0.376526       -10.2458
  76   2.0000      -0.364684        -9.9236
  77   2.0000      -0.361949        -9.8491
  78   2.0000      -0.352122        -9.5817
  79   2.0000      -0.350297        -9.5321
  80   2.0000      -0.349407        -9.5079
  81   2.0000      -0.345536        -9.4025
  82   2.0000      -0.344099        -9.3634
  83   2.0000      -0.338296        -9.2055
  84   2.0000      -0.336157        -9.1473
  85   2.0000      -0.320782        -8.7289
  86   2.0000      -0.310626        -8.4526
  87   2.0000      -0.301074        -8.1926
  88   2.0000      -0.299967        -8.1625
  89   2.0000      -0.295424        -8.0389
  90   2.0000      -0.291020        -7.9191
  91   2.0000      -0.278409        -7.5759
  92   2.0000      -0.270314        -7.3556
  93   2.0000      -0.264769        -7.2047
  94   2.0000      -0.257108        -6.9963
  95   2.0000      -0.234737        -6.3875
  96   2.0000      -0.219377        -5.9695
  97   2.0000      -0.212452        -5.7811
  98   2.0000      -0.204870        -5.5748
  99   2.0000      -0.203529        -5.5383
 100   2.0000      -0.200919        -5.4673
 101   0.0000      -0.045575        -1.2402
 102   0.0000      -0.024846        -0.6761
 103   0.0000      -0.006320        -0.1720
 104   0.0000      -0.000964        -0.0262
 105   0.0000       0.013728         0.3736

MULLIKEN ATOMIC CHARGES
-----------------------
   0 C :   -0.300528
   1 C :   -0.012030
   2 O :   -0.360331
   3 P :    0.615879
   4 S :   -0.329878
   5 O :   -0.377189
   6 C :   -0.013021
   7 C :   -0.311285
   8 S :   -0.072248
   9 C :   -0.372747
  10 S :   -0.091225
  11 P :    0.605454
  12 S :   -0.314140
  13 O :   -0.353752
  14 C :   -0.015670
  15 C :   -0.284937
  16 O :   -0.386843
  17 C :    0.000169
  18 C :   -0.318418
  19 H :    0.123972
  20 H :    0.114648
  21 H :    0.111629
  22 H :    0.104030
  23 H :    0.115022
  24 H :    0.118021
  25 H :    0.110401
  26 H :    0.125907
  27 H :    0.127181
  28 H :    0.113531
  29 H :    0.192900
  30 H :    0.194906
  31 H :    0.104445
  32 H :    0.109038
  33 H :    0.116918
  34 H :    0.101430
  35 H :    0.129036
  36 H :    0.104772
  37 H :    0.113679
  38 H :    0.129285
  39 H :    0.117706
  40 H :    0.114281
Sum of atomic charges:   -0.0000000

LOEWDIN ATOMIC CHARGES
----------------------
   0 C :   -0.363149
   1 C :   -0.120899
   2 O :   -0.233899
   3 P :    0.574676
   4 S :   -0.316179
   5 O :   -0.243839
   6 C :   -0.113493
   7 C :   -0.369648
   8 S :    0.092098
   9 C :   -0.488362
  10 S :    0.077220
  11 P :    0.572104
  12 S :   -0.310199
  13 O :   -0.234781
  14 C :   -0.113526
  15 C :   -0.354093
  16 O :   -0.250101
  17 C :   -0.115336
  18 C :   -0.371037
  19 H :    0.123644
  20 H :    0.125454
  21 H :    0.130305
  22 H :    0.114072
  23 H :    0.110007
  24 H :    0.111790
  25 H :    0.122091
  26 H :    0.129432
  27 H :    0.121960
  28 H :    0.131094
  29 H :    0.128057
  30 H :    0.128926
  31 H :    0.112954
  32 H :    0.103851
  33 H :    0.127992
  34 H :    0.126347
  35 H :    0.124883
  36 H :    0.118660
  37 H :    0.113754
  38 H :    0.122095
  39 H :    0.123343
  40 H :    0.131733

  Mayer bond orders larger than 0.100000
B(  0-C ,  1-C ) :   1.1649 B(  0-C , 19-H ) :   0.9350 B(  0-C , 20-H ) :   0.9473
B(  0-C , 21-H ) :   0.9395 B(  1-C ,  2-O ) :   0.9023 B(  1-C , 22-H ) :   0.9287
B(  1-C , 23-H ) :   0.9106 B(  2-O ,  3-P ) :   1.1058 B(  3-P ,  4-S ) :   1.5919
B(  3-P ,  5-O ) :   1.1081 B(  3-P ,  8-S ) :   0.9592 B(  4-S ,  8-S ) :   0.1091
B(  5-O ,  6-C ) :   0.9119 B(  6-C ,  7-C ) :   1.1654 B(  6-C , 24-H ) :   0.9280
B(  6-C , 25-H ) :   0.9339 B(  7-C , 26-H ) :   0.9427 B(  7-C , 27-H ) :   0.9327
B(  7-C , 28-H ) :   0.9348 B(  8-S ,  9-C ) :   1.0064 B(  9-C , 10-S ) :   1.0064
B(  9-C , 29-H ) :   0.8703 B(  9-C , 30-H ) :   0.8730 B( 10-S , 11-P ) :   0.9448
B( 10-S , 12-S ) :   0.1088 B( 11-P , 12-S ) :   1.6355 B( 11-P , 13-O ) :   1.1424
B( 11-P , 16-O ) :   1.0853 B( 13-O , 14-C ) :   0.8888 B( 14-C , 15-C ) :   1.1682
B( 14-C , 31-H ) :   0.9310 B( 14-C , 32-H ) :   0.9083 B( 15-C , 33-H ) :   0.9478
B( 15-C , 34-H ) :   0.9408 B( 15-C , 35-H ) :   0.9382 B( 16-O , 17-C ) :   0.9069
B( 17-C , 18-C ) :   1.1660 B( 17-C , 36-H ) :   0.9345 B( 17-C , 37-H ) :   0.9198
B( 18-C , 38-H ) :   0.9345 B( 18-C , 39-H ) :   0.9437 B( 18-C , 40-H ) :   0.9367

Dispersion correction           -0.066238019
FINAL SINGLE POINT ENERGY     -2929.523047386182

DIPOLE MOMENT
-------------

Method             : SCF
Type of density    : Electron Density
Multiplicity       :   1
Irrep              :   0
Energy             : -2929.6425989718372875 Eh
Relativity type    :
Basis              : AO
                                X                 Y                 Z
Electronic contribution:     -6.104314403      -3.517517718     -12.457619802
Nuclear contribution   :      6.250045253       3.941176812      13.693814722
                        -----------------------------------------
Total Dipole Moment    :      0.145730851       0.423659094       1.236194919
                        -----------------------------------------
Magnitude (a.u.)       :      1.314877328
Magnitude (Debye)      :      3.342152562

Rotational constants in cm-1:             0.012852             0.004884             0.004677
Rotational constants in MHz :           385.306851           146.404647           140.224780

                             ****ORCA TERMINATED NORMALLY****
TOTAL RUN TIME: 0 days 0 hours 0 minutes 21 seconds 706 msec
