                         Program Version 6.0.0  -   RELEASE  -
|  1> ! pbe def2-sv(p) def2/J RI DEFGRID1 loosescf d4 GCP(DFT/SV(P)) printgap
|  2> %output
|  3>     printlevel normal
|  4> end
|  5> * xyz 0 1
|  6> C 2.5571380281 -0.3245927313 -3.033480229
|  7> C 3.2504379954 -0.5594313231 -1.7078939626
|  8> O 2.7191617861 0.3847472643 -0.7416730313
|  9> P 2.4678277892 0.017539157 0.7686721016
| 10> S 1.7970676548 1.5415953328 1.7911533533
| 11> O 3.8882312896 -0.5499183592 1.2066644038
| 12> C 4.2935881095 -0.686915029 2.5811710303
| 13> C 3.453068462 -1.6957171266 3.3365396721
| 14> S 1.2141276325 -1.709532539 0.7453776872
| 15> C -0.3412568078 -0.8112706009 0.707455114
| 16> S -0.5999399008 -0.0591891419 -0.942022241
| 17> P -2.6624746319 0.3649532136 -0.6792280772
| 18> S -3.5820356077 1.2250482429 -2.1775473281
| 19> O -2.729693092 1.1120531241 0.7230320436
| 20> C -2.7588405723 2.5472042101 0.8067609987
| 21> C -1.4530885477 3.1772164949 0.3638450158
| 22> O -3.284067689 -1.0061988945 -0.1693566465
| 23> C -3.8551160682 -1.9589544279 -1.0862459795
| 24> C -2.8030022542 -2.6201908755 -1.9549498385
| 25> H 1.4876113107 -0.4930949988 -2.9319261866
| 26> H 2.7154339099 0.6989169995 -3.3604608934
| 27> H 2.9618069514 -1.007116604 -3.7736195847
| 28> H 4.3239449746 -0.3746138754 -1.7743074231
| 29> H 3.0786069653 -1.575722533 -1.3417632905
| 30> H 5.3355238472 -1.002498993 2.5110297856
| 31> H 4.2346491554 0.296859031 3.0567563332
| 32> H 3.8870631077 -1.8570096554 4.3181368892
| 33> H 2.4382595001 -1.3205022966 3.4586662969
| 34> H 3.4169683442 -2.6390995059 2.7975841269
| 35> H -0.3132171477 -0.0193096887 1.4578742994
| 36> H -1.139156688 -1.5215714436 0.9091139521
| 37> H -3.5855740857 2.9135310776 0.1897549543
| 38> H -2.9637104039 2.7456958156 1.859573228
| 39> H -1.5094811808 4.2525500351 0.4987007797
| 40> H -0.6167956691 2.794031075 0.9457989349
| 41> H -1.2756155295 2.9646770995 -0.6907968888
| 42> H -4.3549779145 -2.6787023299 -0.4363840932
| 43> H -4.5943584167 -1.4424395249 -1.70638496
| 44> H -2.0293191381 -3.0776679766 -1.3429053458
| 45> H -3.2738102897 -3.3845292877 -2.564927362
| 46> H -2.3448104321 -1.8797765099 -2.6101482463
| 47> *
| 48>
| 49>                          ****END OF INPUT****

CARTESIAN COORDINATES (ANGSTROEM)
---------------------------------
  C      2.557138   -0.324593   -3.033480
  C      3.250438   -0.559431   -1.707894
  O      2.719162    0.384747   -0.741673
  P      2.467828    0.017539    0.768672
  S      1.797068    1.541595    1.791153
  O      3.888231   -0.549918    1.206664
  C      4.293588   -0.686915    2.581171
  C      3.453068   -1.695717    3.336540
  S      1.214128   -1.709533    0.745378
  C     -0.341257   -0.811271    0.707455
  S     -0.599940   -0.059189   -0.942022
  P     -2.662475    0.364953   -0.679228
  S     -3.582036    1.225048   -2.177547
  O     -2.729693    1.112053    0.723032
  C     -2.758841    2.547204    0.806761
  C     -1.453089    3.177216    0.363845
  O     -3.284068   -1.006199   -0.169357
  C     -3.855116   -1.958954   -1.086246
  C     -2.803002   -2.620191   -1.954950
  H      1.487611   -0.493095   -2.931926
  H      2.715434    0.698917   -3.360461
  H      2.961807   -1.007117   -3.773620
  H      4.323945   -0.374614   -1.774307
  H      3.078607   -1.575723   -1.341763
  H      5.335524   -1.002499    2.511030
  H      4.234649    0.296859    3.056756
  H      3.887063   -1.857010    4.318137
  H      2.438260   -1.320502    3.458666
  H      3.416968   -2.639100    2.797584
  H     -0.313217   -0.019310    1.457874
  H     -1.139157   -1.521571    0.909114
  H     -3.585574    2.913531    0.189755
  H     -2.963710    2.745696    1.859573
  H     -1.509481    4.252550    0.498701
  H     -0.616796    2.794031    0.945799
  H     -1.275616    2.964677   -0.690797
  H     -4.354978   -2.678702   -0.436384
  H     -4.594358   -1.442440   -1.706385
  H     -2.029319   -3.077668   -1.342905
  H     -3.273810   -3.384529   -2.564927
  H     -2.344810   -1.879777   -2.610148

 Total Charge           Charge          ....    0
 Multiplicity           Mult            ....    1
 Number of Electrons    NEL             ....  202
 Basis Dimension        Dim             ....  334

ORBITAL ENERGIES
----------------

  NO   OCC          E(Eh)            E(eV)
   0   2.0000     -88.053816     -2396.0661
   1   2.0000     -88.040940     -2395.7158
   2   2.0000     -87.993374     -2394.4214
   3   2.0000     -87.988375     -2394.2854
   4   2.0000     -76.432172     -2079.8251
   5   2.0000     -76.424933     -2079.6281
   6   2.0000     -18.800549      -511.5889
   7   2.0000     -18.796172      -511.4698
   8   2.0000     -18.790068      -511.3037
   9   2.0000     -18.785674      -511.1842
  10   2.0000      -9.959932      -271.0235
  11   2.0000      -9.958611      -270.9876
  12   2.0000      -9.955261      -270.8964
  13   2.0000      -9.953446      -270.8470
  14   2.0000      -9.945004      -270.6173
  15   2.0000      -9.890424      -269.1321
  16   2.0000      -9.886657      -269.0296
  17   2.0000      -9.885715      -269.0040
  18   2.0000      -9.870058      -268.5779
  19   2.0000      -7.698551      -209.4882
  20   2.0000      -7.685491      -209.1328
  21   2.0000      -7.638270      -207.8479
  22   2.0000      -7.633493      -207.7179
  23   2.0000      -6.429854      -174.9652
  24   2.0000      -6.422354      -174.7611
  25   2.0000      -5.726180      -155.8173
  26   2.0000      -5.723144      -155.7347
  27   2.0000      -5.715754      -155.5336
  28   2.0000      -5.713663      -155.4767
  29   2.0000      -5.710022      -155.3776
  30   2.0000      -5.702269      -155.1666
  31   2.0000      -5.667154      -154.2111
  32   2.0000      -5.662482      -154.0840
  33   2.0000      -5.658799      -153.9837
  34   2.0000      -5.658539      -153.9767
  35   2.0000      -5.654001      -153.8532
  36   2.0000      -5.653729      -153.8458
  37   2.0000      -4.652690      -126.6061
  38   2.0000      -4.651512      -126.5741
  39   2.0000      -4.650156      -126.5372
  40   2.0000      -4.644624      -126.3867
  41   2.0000      -4.644539      -126.3843
  42   2.0000      -4.642729      -126.3351
  43   2.0000      -0.994193       -27.0534
  44   2.0000      -0.985860       -26.8266
  45   2.0000      -0.950569       -25.8663
  46   2.0000      -0.942435       -25.6450
  47   2.0000      -0.767147       -20.8751
  48   2.0000      -0.723494       -19.6873
  49   2.0000      -0.711439       -19.3592
  50   2.0000      -0.694269       -18.8920
  51   2.0000      -0.682374       -18.5684
  52   2.0000      -0.675350       -18.3772
  53   2.0000      -0.656329       -17.8596
  54   2.0000      -0.641408       -17.4536
  55   2.0000      -0.600570       -16.3423
  56   2.0000      -0.594027       -16.1643
  57   2.0000      -0.575861       -15.6700
  58   2.0000      -0.565645       -15.3920
  59   2.0000      -0.562552       -15.3078
  60   2.0000      -0.509762       -13.8713
  61   2.0000      -0.492115       -13.3911
  62   2.0000      -0.479257       -13.0413
  63   2.0000      -0.463059       -12.6005
  64   2.0000      -0.458130       -12.4663
  65   2.0000      -0.447955       -12.1895
  66   2.0000      -0.444132       -12.0854
  67   2.0000      -0.439731       -11.9657
  68   2.0000      -0.437456       -11.9038
  69   2.0000      -0.418385       -11.3848
  70   2.0000      -0.415631       -11.3099
  71   2.0000      -0.397899       -10.8274
  72   2.0000      -0.393358       -10.7038
  73   2.0000      -0.387824       -10.5532
  74   2.0000      -0.385572       -10.4919
  75   2.0000      -0.374688       -10.1958
  76   2.0000      -0.370438       -10.0801
  77   2.0000      -0.358646        -9.7593
  78   2.0000      -0.357249        -9.7212
  79   2.0000      -0.350957        -9.5500
  80   2.0000      -0.345421        -9.3994
  81   2.0000      -0.344412        -9.3719
  82   2.0000      -0.343297        -9.3416
  83   2.0000      -0.332710        -9.0535
  84   2.0000      -0.328531        -8.9398
  85   2.0000      -0.320551        -8.7226
  86   2.0000      -0.317618        -8.6428
  87   2.0000      -0.304666        -8.2904
  88   2.0000      -0.301220        -8.1966
  89   2.0000      -0.298502        -8.1227
  90   2.0000      -0.284419        -7.7394
  91   2.0000      -0.276998        -7.5375
  92   2.0000      -0.269793        -7.3414
  93   2.0000      -0.263668        -7.1748
  94   2.0000      -0.256634        -6.9834
  95   2.0000      -0.236453        -6.4342
  96   2.0000      -0.220692        -6.0053
  97   2.0000      -0.212366        -5.7788
  98   2.0000      -0.210638        -5.7317
  99   2.0000      -0.206123        -5.6089
 100   2.0000      -0.203471        -5.5367
 101   0.0000      -0.044188        -1.2024
 102   0.0000      -0.030938        -0.8419
 103   0.0000      -0.019920        -0.5420
 104   0.0000       0.000467         0.0127
 105   0.0000       0.010100         0.2748

MULLIKEN ATOMIC CHARGES
-----------------------
   0 C :   -0.288225
   1 C :   -0.012807
   2 O :   -0.350337
   3 P :    0.596628
   4 S :   -0.297889
   5 O :   -0.382844
   6 C :    0.001068
   7 C :   -0.321894
   8 S :   -0.094655
   9 C :   -0.361141
  10 S :   -0.076885
  11 P :    0.585271
  12 S :   -0.312711
  13 O :   -0.371900
  14 C :   -0.001913
  15 C :   -0.331491
  16 O :   -0.371112
  17 C :   -0.002535
  18 C :   -0.313820
  19 H :    0.131173
  20 H :    0.123270
  21 H :    0.109345
  22 H :    0.110846
  23 H :    0.102086
  24 H :    0.107373
  25 H :    0.114618
  26 H :    0.116927
  27 H :    0.130248
  28 H :    0.118459
  29 H :    0.196520
  30 H :    0.187917
  31 H :    0.109565
  32 H :    0.104840
  33 H :    0.107240
  34 H :    0.141205
  35 H :    0.123194
  36 H :    0.106482
  37 H :    0.114172
  38 H :    0.112019
  39 H :    0.113186
  40 H :    0.128507
Sum of atomic charges:    0.0000000

LOEWDIN ATOMIC CHARGES
----------------------
   0 C :   -0.354464
   1 C :   -0.114232
   2 O :   -0.233712
   3 P :    0.570670
   4 S :   -0.290389
   5 O :   -0.249281
   6 C :   -0.114517
   7 C :   -0.371497
   8 S :    0.087574
   9 C :   -0.482334
  10 S :    0.082237
  11 P :    0.570521
  12 S :   -0.316330
  13 O :   -0.241317
  14 C :   -0.117762
  15 C :   -0.374220
  16 O :   -0.241723
  17 C :   -0.117959
  18 C :   -0.368454
  19 H :    0.123511
  20 H :    0.131180
  21 H :    0.129783
  22 H :    0.118206
  23 H :    0.102526
  24 H :    0.120069
  25 H :    0.114564
  26 H :    0.133091
  27 H :    0.122229
  28 H :    0.123337
  29 H :    0.122132
  30 H :    0.131254
  31 H :    0.109338
  32 H :    0.118846
  33 H :    0.129370
  34 H :    0.121269
  35 H :    0.120355
  36 H :    0.118859
  37 H :    0.112095
  38 H :    0.122224
  39 H :    0.130942
  40 H :    0.122007

  Mayer bond orders larger than 0.100000
B(  0-C ,  1-C ) :   1.1662 B(  0-C , 19-H ) :   0.9392 B(  0-C , 20-H ) :   0.9481
B(  0-C , 21-H ) :   0.9397 B(  1-C ,  2-O ) :   0.8838 B(  1-C , 22-H ) :   0.9321
B(  1-C , 23-H ) :   0.9109 B(  2-O ,  3-P ) :   1.1490 B(  3-P ,  4-S ) :   1.6354
B(  3-P ,  5-O ) :   1.0936 B(  3-P ,  8-S ) :   0.9339 B(  4-S ,  8-S ) :   0.1104
B(  5-O ,  6-C ) :   0.9049 B(  6-C ,  7-C ) :   1.1661 B(  6-C , 24-H ) :   0.9344
B(  6-C , 25-H ) :   0.9201 B(  7-C , 26-H ) :   0.9368 B(  7-C , 27-H ) :   0.9353
B(  7-C , 28-H ) :   0.9434 B(  8-S ,  9-C ) :   1.0149 B(  9-C , 10-S ) :   0.9581
B(  9-C , 29-H ) :   0.8644 B(  9-C , 30-H ) :   0.8889 B( 10-S , 11-P ) :   0.9770
B( 11-P , 12-S ) :   1.6368 B( 11-P , 13-O ) :   1.0960 B( 11-P , 16-O ) :   1.0875
B( 13-O , 14-C ) :   0.9056 B( 14-C , 15-C ) :   1.1624 B( 14-C , 31-H ) :   0.9187
B( 14-C , 32-H ) :   0.9337 B( 15-C , 33-H ) :   0.9368 B( 15-C , 34-H ) :   0.9270
B( 15-C , 35-H ) :   0.9359 B( 16-O , 17-C ) :   0.9093 B( 17-C , 18-C ) :   1.1621
B( 17-C , 36-H ) :   0.9352 B( 17-C , 37-H ) :   0.9161 B( 18-C , 38-H ) :   0.9463
B( 18-C , 39-H ) :   0.9379 B( 18-C , 40-H ) :   0.9355

Dispersion correction           -0.064079514
FINAL SINGLE POINT ENERGY     -2929.520748479845

DIPOLE MOMENT
-------------

Method             : SCF
Type of density    : Electron Density
Multiplicity       :   1
Irrep              :   0
Energy             : -2929.6419490230068732 Eh
Relativity type    :
Basis              : AO
                                X                 Y                 Z
Electronic contribution:     -4.750739918       6.068198111       0.963857936
Nuclear contribution   :      5.732151316      -7.508567123      -0.545781274
                        -----------------------------------------
Total Dipole Moment    :      0.981411398      -1.440369012       0.418076663
                        -----------------------------------------
Magnitude (a.u.)       :      1.792378118
Magnitude (Debye)      :      4.555863117

Rotational constants in cm-1:             0.012226             0.004576             0.004300
Rotational constants in MHz :           366.511769           137.197962           128.907078

                             ****ORCA TERMINATED NORMALLY****
TOTAL RUN TIME: 0 days 0 hours 0 minutes 21 seconds 97 msec
