                         Program Version 6.0.0  -   RELEASE  -
|  1> ! pbe def2-sv(p) def2/J RI DEFGRID1 loosescf d4 GCP(DFT/SV(P)) printgap
|  2> %output
|  3>     printlevel normal
|  4> end
|  5> * xyz 0 1
|  6> C 5.8619150788 -0.1880489087 -0.2622350825
|  7> C 4.468554984 -0.511163177 -0.7618275822
|  8> O 3.5367610334 0.3268176895 -0.047729865
|  9> P 2.0325405372 0.4914027952 -0.5447203964
| 10> S 1.8494699635 0.9976830803 -2.4242644854
| 11> O 1.4988312736 1.5580347345 0.4802943699
| 12> C 1.7236344137 1.4354389697 1.9102987489
| 13> C 0.8622107625 2.4723613581 2.5984656651
| 14> S 1.2248516798 -1.4070377469 -0.0229152658
| 15> C 0.0304938894 -1.653987277 -1.3740300108
| 16> S -1.6472018346 -1.9309125127 -0.7751541975
| 17> P -1.9449125942 -0.0304742859 0.1402433152
| 18> S -1.4086070231 1.4792841896 -0.9927758652
| 19> O -1.2216337467 0.0031606238 1.537423002
| 20> C -1.6593836405 -0.6747393457 2.7464710398
| 21> C -1.5344490005 -2.180367371 2.6456124472
| 22> O -3.4755586026 -0.0785048339 0.5508839694
| 23> C -4.5165108532 -0.0330755406 -0.4472143858
| 24> C -5.8216236555 0.271847171 0.2592159372
| 25> H 6.0911521887 0.857581227 -0.4476626978
| 26> H 5.9286005773 -0.3807906338 0.8044230491
| 27> H 6.5794631093 -0.81040969 -0.7864645956
| 28> H 4.2054384838 -1.5545470531 -0.5675719605
| 29> H 4.3658673712 -0.3080862945 -1.8328488539
| 30> H 1.4542493979 0.4189825194 2.2121265381
| 31> H 2.7859358463 1.6014490402 2.0976814992
| 32> H -0.184029731 2.3047489395 2.3553363122
| 33> H 1.0041299916 2.4006930296 3.6719670604
| 34> H 1.1381421333 3.467505865 2.2612867102
| 35> H 0.3121241558 -2.5525955202 -1.9169349804
| 36> H 0.0609892853 -0.7745216654 -2.0240614908
| 37> H -0.9930003057 -0.2681231181 3.5091505025
| 38> H -2.6879889478 -0.3754555352 2.9512270527
| 39> H -1.7163003471 -2.6126535402 3.6246258703
| 40> H -2.2611289645 -2.5799050926 1.9422842881
| 41> H -0.5361984765 -2.4568247528 2.3127850789
| 42> H -4.2621335073 0.7401189214 -1.1795030088
| 43> H -4.5489192293 -1.0037890784 -0.948709554
| 44> H -6.0352166398 -0.4984447305 0.9942881216
| 45> H -5.7592998792 1.2334033465 0.761016937
| 46> H -6.622152403 0.3020442499 -0.4724635853
| 47> *
| 48>
| 49>                          ****END OF INPUT****

CARTESIAN COORDINATES (ANGSTROEM)
---------------------------------
  C      5.861915   -0.188049   -0.262235
  C      4.468555   -0.511163   -0.761828
  O      3.536761    0.326818   -0.047730
  P      2.032541    0.491403   -0.544720
  S      1.849470    0.997683   -2.424264
  O      1.498831    1.558035    0.480294
  C      1.723634    1.435439    1.910299
  C      0.862211    2.472361    2.598466
  S      1.224852   -1.407038   -0.022915
  C      0.030494   -1.653987   -1.374030
  S     -1.647202   -1.930913   -0.775154
  P     -1.944913   -0.030474    0.140243
  S     -1.408607    1.479284   -0.992776
  O     -1.221634    0.003161    1.537423
  C     -1.659384   -0.674739    2.746471
  C     -1.534449   -2.180367    2.645612
  O     -3.475559   -0.078505    0.550884
  C     -4.516511   -0.033076   -0.447214
  C     -5.821624    0.271847    0.259216
  H      6.091152    0.857581   -0.447663
  H      5.928601   -0.380791    0.804423
  H      6.579463   -0.810410   -0.786465
  H      4.205438   -1.554547   -0.567572
  H      4.365867   -0.308086   -1.832849
  H      1.454249    0.418983    2.212127
  H      2.785936    1.601449    2.097681
  H     -0.184030    2.304749    2.355336
  H      1.004130    2.400693    3.671967
  H      1.138142    3.467506    2.261287
  H      0.312124   -2.552596   -1.916935
  H      0.060989   -0.774522   -2.024061
  H     -0.993000   -0.268123    3.509151
  H     -2.687989   -0.375456    2.951227
  H     -1.716300   -2.612654    3.624626
  H     -2.261129   -2.579905    1.942284
  H     -0.536198   -2.456825    2.312785
  H     -4.262134    0.740119   -1.179503
  H     -4.548919   -1.003789   -0.948710
  H     -6.035217   -0.498445    0.994288
  H     -5.759300    1.233403    0.761017
  H     -6.622152    0.302044   -0.472464

 Total Charge           Charge          ....    0
 Multiplicity           Mult            ....    1
 Number of Electrons    NEL             ....  202
 Basis Dimension        Dim             ....  334

ORBITAL ENERGIES
----------------

  NO   OCC          E(Eh)            E(eV)
   0   2.0000     -88.040407     -2395.7013
   1   2.0000     -88.038240     -2395.6423
   2   2.0000     -87.976265     -2393.9559
   3   2.0000     -87.975593     -2393.9376
   4   2.0000     -76.423512     -2079.5895
   5   2.0000     -76.418073     -2079.4415
   6   2.0000     -18.796662      -511.4832
   7   2.0000     -18.793482      -511.3966
   8   2.0000     -18.786625      -511.2100
   9   2.0000     -18.783033      -511.1123
  10   2.0000      -9.960490      -271.0387
  11   2.0000      -9.956227      -270.9227
  12   2.0000      -9.950850      -270.7764
  13   2.0000      -9.948902      -270.7234
  14   2.0000      -9.947335      -270.6807
  15   2.0000      -9.891649      -269.1655
  16   2.0000      -9.888779      -269.0873
  17   2.0000      -9.885645      -269.0021
  18   2.0000      -9.879287      -268.8291
  19   2.0000      -7.685565      -209.1349
  20   2.0000      -7.682917      -209.0628
  21   2.0000      -7.621509      -207.3918
  22   2.0000      -7.620539      -207.3654
  23   2.0000      -6.420835      -174.7198
  24   2.0000      -6.415586      -174.5770
  25   2.0000      -5.713390      -155.4693
  26   2.0000      -5.710713      -155.3964
  27   2.0000      -5.710009      -155.3772
  28   2.0000      -5.707315      -155.3039
  29   2.0000      -5.702661      -155.1773
  30   2.0000      -5.700111      -155.1079
  31   2.0000      -5.650607      -153.7608
  32   2.0000      -5.649580      -153.7329
  33   2.0000      -5.641990      -153.5263
  34   2.0000      -5.641578      -153.5151
  35   2.0000      -5.641332      -153.5085
  36   2.0000      -5.640432      -153.4839
  37   2.0000      -4.643926      -126.3676
  38   2.0000      -4.642574      -126.3309
  39   2.0000      -4.640789      -126.2823
  40   2.0000      -4.638355      -126.2161
  41   2.0000      -4.637336      -126.1883
  42   2.0000      -4.635879      -126.1487
  43   2.0000      -0.991238       -26.9730
  44   2.0000      -0.981869       -26.7180
  45   2.0000      -0.947368       -25.7792
  46   2.0000      -0.936453       -25.4822
  47   2.0000      -0.759554       -20.6685
  48   2.0000      -0.720357       -19.6019
  49   2.0000      -0.710920       -19.3451
  50   2.0000      -0.695870       -18.9356
  51   2.0000      -0.686253       -18.6739
  52   2.0000      -0.673313       -18.3218
  53   2.0000      -0.644069       -17.5260
  54   2.0000      -0.627684       -17.0801
  55   2.0000      -0.591308       -16.0903
  56   2.0000      -0.578910       -15.7529
  57   2.0000      -0.576563       -15.6891
  58   2.0000      -0.563606       -15.3365
  59   2.0000      -0.562885       -15.3169
  60   2.0000      -0.510252       -13.8847
  61   2.0000      -0.503689       -13.7061
  62   2.0000      -0.478005       -13.0072
  63   2.0000      -0.476799       -12.9743
  64   2.0000      -0.450098       -12.2478
  65   2.0000      -0.447917       -12.1884
  66   2.0000      -0.445342       -12.1184
  67   2.0000      -0.434509       -11.8236
  68   2.0000      -0.432455       -11.7677
  69   2.0000      -0.416047       -11.3212
  70   2.0000      -0.405699       -11.0396
  71   2.0000      -0.400392       -10.8952
  72   2.0000      -0.393708       -10.7133
  73   2.0000      -0.379028       -10.3139
  74   2.0000      -0.372475       -10.1355
  75   2.0000      -0.367705       -10.0058
  76   2.0000      -0.361867        -9.8469
  77   2.0000      -0.355973        -9.6865
  78   2.0000      -0.352347        -9.5879
  79   2.0000      -0.350468        -9.5367
  80   2.0000      -0.346296        -9.4232
  81   2.0000      -0.344834        -9.3834
  82   2.0000      -0.339865        -9.2482
  83   2.0000      -0.335308        -9.1242
  84   2.0000      -0.331367        -9.0170
  85   2.0000      -0.321058        -8.7364
  86   2.0000      -0.310592        -8.4516
  87   2.0000      -0.305120        -8.3027
  88   2.0000      -0.298432        -8.1208
  89   2.0000      -0.296065        -8.0563
  90   2.0000      -0.291754        -7.9390
  91   2.0000      -0.275865        -7.5067
  92   2.0000      -0.263503        -7.1703
  93   2.0000      -0.260463        -7.0876
  94   2.0000      -0.253025        -6.8852
  95   2.0000      -0.232795        -6.3347
  96   2.0000      -0.218737        -5.9521
  97   2.0000      -0.209724        -5.7069
  98   2.0000      -0.195652        -5.3240
  99   2.0000      -0.185369        -5.0442
 100   2.0000      -0.179233        -4.8772
 101   0.0000      -0.041336        -1.1248
 102   0.0000      -0.029315        -0.7977
 103   0.0000      -0.002257        -0.0614
 104   0.0000       0.012104         0.3294
 105   0.0000       0.022199         0.6041

MULLIKEN ATOMIC CHARGES
-----------------------
   0 C :   -0.279607
   1 C :   -0.006751
   2 O :   -0.392893
   3 P :    0.610387
   4 S :   -0.289421
   5 O :   -0.346726
   6 C :   -0.013667
   7 C :   -0.287092
   8 S :   -0.132353
   9 C :   -0.345485
  10 S :   -0.119568
  11 P :    0.595495
  12 S :   -0.278794
  13 O :   -0.356250
  14 C :   -0.001861
  15 C :   -0.316191
  16 O :   -0.389338
  17 C :   -0.012160
  18 C :   -0.281817
  19 H :    0.120833
  20 H :    0.111711
  21 H :    0.110849
  22 H :    0.097211
  23 H :    0.103231
  24 H :    0.099839
  25 H :    0.106611
  26 H :    0.134603
  27 H :    0.100205
  28 H :    0.120168
  29 H :    0.178637
  30 H :    0.210253
  31 H :    0.106488
  32 H :    0.113125
  33 H :    0.111239
  34 H :    0.123767
  35 H :    0.128848
  36 H :    0.109367
  37 H :    0.106392
  38 H :    0.113406
  39 H :    0.122348
  40 H :    0.114961
Sum of atomic charges:   -0.0000000

LOEWDIN ATOMIC CHARGES
----------------------
   0 C :   -0.350615
   1 C :   -0.123112
   2 O :   -0.254412
   3 P :    0.568539
   4 S :   -0.294091
   5 O :   -0.225680
   6 C :   -0.112849
   7 C :   -0.353661
   8 S :    0.054974
   9 C :   -0.479964
  10 S :    0.063464
  11 P :    0.555742
  12 S :   -0.288739
  13 O :   -0.231525
  14 C :   -0.107803
  15 C :   -0.370393
  16 O :   -0.252108
  17 C :   -0.119495
  18 C :   -0.350665
  19 H :    0.128950
  20 H :    0.124362
  21 H :    0.130277
  22 H :    0.104889
  23 H :    0.107976
  24 H :    0.102293
  25 H :    0.112102
  26 H :    0.130125
  27 H :    0.124912
  28 H :    0.130211
  29 H :    0.135933
  30 H :    0.125731
  31 H :    0.117645
  32 H :    0.115301
  33 H :    0.129987
  34 H :    0.118359
  35 H :    0.124412
  36 H :    0.112045
  37 H :    0.109520
  38 H :    0.125140
  39 H :    0.129732
  40 H :    0.132491

  Mayer bond orders larger than 0.100000
B(  0-C ,  1-C ) :   1.1587 B(  0-C , 19-H ) :   0.9511 B(  0-C , 20-H ) :   0.9514
B(  0-C , 21-H ) :   0.9424 B(  1-C ,  2-O ) :   0.9094 B(  1-C , 22-H ) :   0.9247
B(  1-C , 23-H ) :   0.9096 B(  2-O ,  3-P ) :   1.0652 B(  3-P ,  4-S ) :   1.6513
B(  3-P ,  5-O ) :   1.1466 B(  3-P ,  8-S ) :   0.9440 B(  4-S ,  8-S ) :   0.1150
B(  5-O ,  6-C ) :   0.8925 B(  6-C ,  7-C ) :   1.1675 B(  6-C , 24-H ) :   0.9140
B(  6-C , 25-H ) :   0.9278 B(  7-C , 26-H ) :   0.9390 B(  7-C , 27-H ) :   0.9399
B(  7-C , 28-H ) :   0.9482 B(  8-S ,  9-C ) :   0.9981 B(  9-C , 10-S ) :   1.0037
B(  9-C , 29-H ) :   0.9113 B(  9-C , 30-H ) :   0.8427 B( 10-S , 11-P ) :   0.9338
B( 10-S , 12-S ) :   0.1093 B( 11-P , 12-S ) :   1.6863 B( 11-P , 13-O ) :   1.1189
B( 11-P , 16-O ) :   1.0727 B( 13-O , 14-C ) :   0.8929 B( 14-C , 15-C ) :   1.1746
B( 14-C , 31-H ) :   0.9302 B( 14-C , 32-H ) :   0.9267 B( 15-C , 33-H ) :   0.9353
B( 15-C , 34-H ) :   0.9382 B( 15-C , 35-H ) :   0.9395 B( 16-O , 17-C ) :   0.9010
B( 17-C , 18-C ) :   1.1598 B( 17-C , 36-H ) :   0.9094 B( 17-C , 37-H ) :   0.9289
B( 18-C , 38-H ) :   0.9511 B( 18-C , 39-H ) :   0.9508 B( 18-C , 40-H ) :   0.9416

Dispersion correction           -0.066161792
FINAL SINGLE POINT ENERGY     -2929.515094795477

DIPOLE MOMENT
-------------

Method             : SCF
Type of density    : Electron Density
Multiplicity       :   1
Irrep              :   0
Energy             : -2929.6346172632593152 Eh
Relativity type    :
Basis              : AO
                                X                 Y                 Z
Electronic contribution:      1.291169921       1.764794088     -16.948863224
Nuclear contribution   :     -1.650207672      -3.033552574      18.648087963
                        -----------------------------------------
Total Dipole Moment    :     -0.359037751      -1.268758486       1.699224740
                        -----------------------------------------
Magnitude (a.u.)       :      2.150818662
Magnitude (Debye)      :      5.466946574

Rotational constants in cm-1:             0.013328             0.004992             0.004823
Rotational constants in MHz :           399.570596           149.646809           144.590631

                             ****ORCA TERMINATED NORMALLY****
TOTAL RUN TIME: 0 days 0 hours 0 minutes 21 seconds 461 msec
