                         Program Version 6.0.1  -  RELEASE   -
|  1> ! pbe def2-sv(p) def2/J RI DEFGRID1 loosescf d4 GCP(DFT/SV(P)) printgap
|  2> %output
|  3>     printlevel normal
|  4> end
|  5> * xyz 0 1
|  6> C 3.2330514496 -2.9788036049 1.290027441
|  7> C 3.0322253585 -1.4745278531 1.2859202002
|  8> O 2.6418731038 -1.0658775948 -0.0395364101
|  9> C 1.6200621791 -0.2710776927 -0.2010258763
| 10> O 0.9878439221 0.2597945711 0.6996663691
| 11> C 1.3138395611 -0.0094066731 -1.6583115566
| 12> C 0.1778383311 0.997156479 -1.760973689
| 13> H 0.1368041409 1.4254054876 -2.7664019092
| 14> C 0.3406271143 2.1391769789 -0.7637438798
| 15> O -0.5684512524 2.601820383 -0.1141403986
| 16> O 1.5694526946 2.6138770848 -0.7994833684
| 17> C 1.9122879652 3.6987537194 0.0875199128
| 18> C 2.5610839327 3.163724377 1.3535338536
| 19> S -1.487009289 0.27755171 -1.5721318473
| 20> P -1.5488877717 -0.9128042688 0.1888061895
| 21> S -0.3913567228 -2.4865264518 0.3164674885
| 22> O -1.5982138046 -0.0522531114 1.5108515927
| 23> C -2.5504425725 1.002534803 1.7472036237
| 24> O -3.0940451315 -1.3337773438 0.0802956701
| 25> C -3.5491745126 -2.2681528931 -0.9033458115
| 26> H 3.9752239954 -3.2553456406 0.5478432133
| 27> H 3.5669500557 -3.2931330206 2.2730468115
| 28> H 2.2947464011 -3.4761039005 1.0544344152
| 29> H 3.9614831361 -0.9469710532 1.5157938713
| 30> H 2.2516484675 -1.170825621 1.9895635107
| 31> H 1.0577030789 -0.9520156557 -2.1456542079
| 32> H 2.2147848651 0.386822816 -2.1293582878
| 33> H 2.6030791293 4.3176129982 -0.4860278944
| 34> H 1.0010863931 4.2563176623 0.3207530151
| 35> H 1.8888263083 2.4608470402 1.8430216266
| 36> H 3.4877688123 2.6491505493 1.1140742307
| 37> H 2.7698770362 3.9864320098 2.0290591676
| 38> H -3.5467269023 0.6851284834 1.4463057206
| 39> H -2.2453657429 1.8921192474 1.1965607683
| 40> H -2.5069739537 1.183163937 2.8180777674
| 41> H -2.8663097439 -3.1179059802 -0.9549874689
| 42> H -3.6128666357 -1.7801534526 -1.8749973886
| 43> H -4.5316376988 -2.5909010437 -0.5681546929
| 44> *
| 45>
| 46>                          ****END OF INPUT****

CARTESIAN COORDINATES (ANGSTROEM)
---------------------------------
  C      3.233051   -2.978804    1.290027
  C      3.032225   -1.474528    1.285920
  O      2.641873   -1.065878   -0.039536
  C      1.620062   -0.271078   -0.201026
  O      0.987844    0.259795    0.699666
  C      1.313840   -0.009407   -1.658312
  C      0.177838    0.997156   -1.760974
  H      0.136804    1.425405   -2.766402
  C      0.340627    2.139177   -0.763744
  O     -0.568451    2.601820   -0.114140
  O      1.569453    2.613877   -0.799483
  C      1.912288    3.698754    0.087520
  C      2.561084    3.163724    1.353534
  S     -1.487009    0.277552   -1.572132
  P     -1.548888   -0.912804    0.188806
  S     -0.391357   -2.486526    0.316467
  O     -1.598214   -0.052253    1.510852
  C     -2.550443    1.002535    1.747204
  O     -3.094045   -1.333777    0.080296
  C     -3.549175   -2.268153   -0.903346
  H      3.975224   -3.255346    0.547843
  H      3.566950   -3.293133    2.273047
  H      2.294746   -3.476104    1.054434
  H      3.961483   -0.946971    1.515794
  H      2.251648   -1.170826    1.989564
  H      1.057703   -0.952016   -2.145654
  H      2.214785    0.386823   -2.129358
  H      2.603079    4.317613   -0.486028
  H      1.001086    4.256318    0.320753
  H      1.888826    2.460847    1.843022
  H      3.487769    2.649151    1.114074
  H      2.769877    3.986432    2.029059
  H     -3.546727    0.685128    1.446306
  H     -2.245366    1.892119    1.196561
  H     -2.506974    1.183164    2.818078
  H     -2.866310   -3.117906   -0.954987
  H     -3.612867   -1.780153   -1.874997
  H     -4.531638   -2.590901   -0.568155

 Total Charge           Charge          ....    0
 Multiplicity           Mult            ....    1
 Number of Electrons    NEL             ....  174
 Basis Dimension        Dim             ....  316

ORBITAL ENERGIES
----------------

  NO   OCC          E(Eh)            E(eV)
   0   2.0000     -88.032583     -2395.4884
   1   2.0000     -87.972349     -2393.8493
   2   2.0000     -76.419155     -2079.4709
   3   2.0000     -18.805336      -511.7192
   4   2.0000     -18.804197      -511.6882
   5   2.0000     -18.784349      -511.1481
   6   2.0000     -18.779412      -511.0138
   7   2.0000     -18.742376      -510.0060
   8   2.0000     -18.736631      -509.8497
   9   2.0000     -10.015947      -272.5478
  10   2.0000     -10.014818      -272.5170
  11   2.0000      -9.949070      -270.7280
  12   2.0000      -9.947942      -270.6973
  13   2.0000      -9.943859      -270.5862
  14   2.0000      -9.937614      -270.4162
  15   2.0000      -9.927395      -270.1381
  16   2.0000      -9.912479      -269.7323
  17   2.0000      -9.883990      -268.9571
  18   2.0000      -9.880333      -268.8575
  19   2.0000      -7.677386      -208.9123
  20   2.0000      -7.617745      -207.2894
  21   2.0000      -6.415651      -174.5787
  22   2.0000      -5.705543      -155.2557
  23   2.0000      -5.701828      -155.1546
  24   2.0000      -5.694144      -154.9455
  25   2.0000      -5.646803      -153.6573
  26   2.0000      -5.638047      -153.4191
  27   2.0000      -5.637924      -153.4157
  28   2.0000      -4.638697      -126.2254
  29   2.0000      -4.637597      -126.1954
  30   2.0000      -4.635772      -126.1458
  31   2.0000      -1.016246       -27.6535
  32   2.0000      -1.010076       -27.4856
  33   2.0000      -0.975721       -26.5507
  34   2.0000      -0.931076       -25.3359
  35   2.0000      -0.920441       -25.0465
  36   2.0000      -0.916162       -24.9300
  37   2.0000      -0.762093       -20.7376
  38   2.0000      -0.710624       -19.3370
  39   2.0000      -0.703802       -19.1514
  40   2.0000      -0.686449       -18.6792
  41   2.0000      -0.654677       -17.8147
  42   2.0000      -0.627812       -17.0836
  43   2.0000      -0.620371       -16.8811
  44   2.0000      -0.607600       -16.5336
  45   2.0000      -0.588215       -16.0061
  46   2.0000      -0.563515       -15.3340
  47   2.0000      -0.508240       -13.8299
  48   2.0000      -0.505211       -13.7475
  49   2.0000      -0.495646       -13.4872
  50   2.0000      -0.484367       -13.1803
  51   2.0000      -0.464368       -12.6361
  52   2.0000      -0.450680       -12.2636
  53   2.0000      -0.447898       -12.1879
  54   2.0000      -0.435592       -11.8531
  55   2.0000      -0.424953       -11.5636
  56   2.0000      -0.422628       -11.5003
  57   2.0000      -0.417458       -11.3596
  58   2.0000      -0.410077       -11.1588
  59   2.0000      -0.405447       -11.0328
  60   2.0000      -0.400684       -10.9032
  61   2.0000      -0.392423       -10.6784
  62   2.0000      -0.385272       -10.4838
  63   2.0000      -0.382292       -10.4027
  64   2.0000      -0.379287       -10.3209
  65   2.0000      -0.360411        -9.8073
  66   2.0000      -0.356428        -9.6989
  67   2.0000      -0.349313        -9.5053
  68   2.0000      -0.342008        -9.3065
  69   2.0000      -0.336300        -9.1512
  70   2.0000      -0.330511        -8.9936
  71   2.0000      -0.328023        -8.9260
  72   2.0000      -0.316795        -8.6204
  73   2.0000      -0.307807        -8.3759
  74   2.0000      -0.296489        -8.0679
  75   2.0000      -0.295949        -8.0532
  76   2.0000      -0.292107        -7.9486
  77   2.0000      -0.284321        -7.7368
  78   2.0000      -0.263149        -7.1607
  79   2.0000      -0.259499        -7.0613
  80   2.0000      -0.252946        -6.8830
  81   2.0000      -0.249086        -6.7780
  82   2.0000      -0.232116        -6.3162
  83   2.0000      -0.228945        -6.2299
  84   2.0000      -0.218780        -5.9533
  85   2.0000      -0.191911        -5.2222
  86   2.0000      -0.185848        -5.0572
  87   0.0000      -0.037092        -1.0093
  88   0.0000      -0.021356        -0.5811
  89   0.0000      -0.019139        -0.5208
  90   0.0000      -0.005602        -0.1524
  91   0.0000       0.032822         0.8931

MULLIKEN ATOMIC CHARGES
-----------------------
   0 C :   -0.290524
   1 C :   -0.024680
   2 O :   -0.212680
   3 C :    0.128407
   4 O :   -0.212740
   5 C :   -0.075218
   6 C :   -0.293485
   7 H :    0.144334
   8 C :    0.212054
   9 O :   -0.178468
  10 O :   -0.247020
  11 C :   -0.016055
  12 C :   -0.307597
  13 S :   -0.100181
  14 P :    0.637988
  15 S :   -0.350865
  16 O :   -0.351033
  17 C :   -0.124656
  18 O :   -0.393891
  19 C :   -0.103100
  20 H :    0.108927
  21 H :    0.108979
  22 H :    0.133869
  23 H :    0.100764
  24 H :    0.126332
  25 H :    0.138856
  26 H :    0.123968
  27 H :    0.101283
  28 H :    0.111337
  29 H :    0.143575
  30 H :    0.108137
  31 H :    0.110230
  32 H :    0.114857
  33 H :    0.152126
  34 H :    0.119187
  35 H :    0.117539
  36 H :    0.117007
  37 H :    0.122437
Sum of atomic charges:    0.0000000

LOEWDIN ATOMIC CHARGES
----------------------
   0 C :   -0.352717
   1 C :   -0.108495
   2 O :   -0.037804
   3 C :    0.024143
   4 O :   -0.161637
   5 C :   -0.256276
   6 C :   -0.262620
   7 H :    0.151456
   8 C :    0.016533
   9 O :   -0.158762
  10 O :   -0.063689
  11 C :   -0.108427
  12 C :   -0.357855
  13 S :    0.102389
  14 P :    0.579972
  15 S :   -0.321000
  16 O :   -0.225600
  17 C :   -0.214982
  18 O :   -0.261325
  19 C :   -0.218062
  20 H :    0.123357
  21 H :    0.129311
  22 H :    0.128103
  23 H :    0.114461
  24 H :    0.124911
  25 H :    0.148581
  26 H :    0.148334
  27 H :    0.116132
  28 H :    0.120790
  29 H :    0.136328
  30 H :    0.121605
  31 H :    0.128869
  32 H :    0.110321
  33 H :    0.123116
  34 H :    0.121419
  35 H :    0.109496
  36 H :    0.108606
  37 H :    0.121016

  Mayer bond orders larger than 0.100000
B(  0-C ,  1-C ) :   1.1717 B(  0-C , 20-H ) :   0.9485 B(  0-C , 21-H ) :   0.9434
B(  0-C , 22-H ) :   0.9416 B(  1-C ,  2-O ) :   0.8956 B(  1-C , 23-H ) :   0.9348
B(  1-C , 24-H ) :   0.9082 B(  2-O ,  3-C ) :   1.2794 B(  3-C ,  4-O ) :   1.8961
B(  3-C ,  5-C ) :   1.0027 B(  5-C ,  6-C ) :   1.0374 B(  5-C , 25-H ) :   0.8843
B(  5-C , 26-H ) :   0.8754 B(  6-C ,  7-H ) :   0.8653 B(  6-C ,  8-C ) :   0.8665
B(  6-C , 13-S ) :   1.0567 B(  8-C ,  9-O ) :   2.0510 B(  8-C , 10-O ) :   1.2220
B( 10-O , 11-C ) :   0.9126 B( 11-C , 12-C ) :   1.1776 B( 11-C , 27-H ) :   0.9376
B( 11-C , 28-H ) :   0.9097 B( 12-C , 29-H ) :   0.9369 B( 12-C , 30-H ) :   0.9499
B( 12-C , 31-H ) :   0.9428 B( 13-S , 14-P ) :   0.9708 B( 13-S , 15-S ) :   0.1131
B( 14-P , 15-S ) :   1.5952 B( 14-P , 16-O ) :   1.1519 B( 14-P , 18-O ) :   1.0470
B( 16-O , 17-C ) :   0.9106 B( 17-C , 32-H ) :   0.9427 B( 17-C , 33-H ) :   0.9241
B( 17-C , 34-H ) :   0.9589 B( 18-O , 19-C ) :   0.9354 B( 19-C , 35-H ) :   0.9301
B( 19-C , 36-H ) :   0.9493 B( 19-C , 37-H ) :   0.9586

Dispersion correction           -0.055135698
FINAL SINGLE POINT ENERGY     -1979.012888569945

DIPOLE MOMENT
-------------

Method             : SCF
Type of density    : Electron Density
Multiplicity       :   1
Irrep              :   0
Energy             : -1979.1431969966511133 Eh
Relativity type    :
Basis              : AO
                                X                 Y                 Z
Electronic contribution:    -11.888375147      -2.749118034      -7.066014164
Nuclear contribution   :     12.601739846       3.419525664       6.663827878
                        -----------------------------------------
Total Dipole Moment    :      0.713364698       0.670407630      -0.402186286
                        -----------------------------------------
Magnitude (a.u.)       :      1.058342757
Magnitude (Debye)      :      2.690093503

Rotational constants in cm-1:             0.012183             0.009145             0.006664
Rotational constants in MHz :           365.245471           274.155401           199.782270

                             ****ORCA TERMINATED NORMALLY****
TOTAL RUN TIME: 0 days 0 hours 0 minutes 37 seconds 834 msec
