                         Program Version 6.0.0  -   RELEASE  -
|  1> ! pbe def2-sv(p) def2/J RI DEFGRID1 loosescf d4 GCP(DFT/SV(P)) printgap
|  2> %output
|  3>     printlevel normal
|  4> end
|  5> * xyz 0 1
|  6> C 3.9554294449 0.6340552898 -2.4571957921
|  7> C 2.6902214847 -0.192245399 -2.351214875
|  8> O 2.5159456499 -0.7118606439 -1.0189600221
|  9> P 2.0612400725 0.2137687898 0.2027053191
| 10> S 1.1098211309 1.854859248 -0.2723088366
| 11> O 3.3640523852 0.6132930723 1.0105789337
| 12> C 4.3623356539 -0.3442208778 1.4436365314
| 13> C 4.2674628904 -0.565689153 2.9396800508
| 14> S 1.1912790653 -1.2738780541 1.4215350097
| 15> C 0.0762691655 -2.0982316383 0.2267480106
| 16> S -0.6483408606 -1.0152992396 -1.0241583851
| 17> P -2.1628894015 -0.1060872156 0.1832857833
| 18> S -1.687134852 0.5704314416 1.9531750265
| 19> O -3.259616531 -1.230441371 0.2978900986
| 20> C -3.9096309079 -1.8565748134 -0.8379884577
| 21> C -5.2134238758 -1.1588772264 -1.1659539196
| 22> O -2.8038483513 0.9379117619 -0.8232699893
| 23> C -2.2904808955 2.2678092158 -1.0278809616
| 24> C -3.436245138 3.1411313898 -1.4956876423
| 25> H 3.884530165 1.4968448172 -1.7949370787
| 26> H 4.8211868888 0.0409672514 -2.1745161933
| 27> H 4.0746275686 0.982371334 -3.4781314228
| 28> H 2.7271043982 -1.0823953606 -2.9801993418
| 29> H 1.8122227961 0.4086192086 -2.6072263024
| 30> H 4.2248664898 -1.2779582818 0.8929867967
| 31> H 5.3170061761 0.1099190128 1.1723546787
| 32> H 5.0631655466 -1.2344045049 3.2521721615
| 33> H 4.3661887012 0.3816908662 3.4625070913
| 34> H 3.3069181825 -1.0068721225 3.1985711733
| 35> H -0.7126434337 -2.5524310816 0.8246829
| 36> H 0.6461522778 -2.8492776495 -0.3147724429
| 37> H -3.2254385986 -1.8408896722 -1.69068771
| 38> H -4.0807162634 -2.8851785534 -0.5156156983
| 39> H -5.7139673133 -1.6999708067 -1.962896868
| 40> H -5.8543404856 -1.1368722447 -0.2888277147
| 41> H -5.0251997865 -0.1383443813 -1.4875646567
| 42> H -1.8615188606 2.6319009147 -0.0885417905
| 43> H -1.4912269344 2.2165122184 -1.7716057941
| 44> H -4.2149526834 3.1723303898 -0.7384740186
| 45> H -3.0643791298 4.1455634272 -1.6683480475
| 46> H -3.8515300706 2.7471453326 -2.4187607529
| 47> *
| 48>
| 49>                          ****END OF INPUT****

CARTESIAN COORDINATES (ANGSTROEM)
---------------------------------
  C      3.955429    0.634055   -2.457196
  C      2.690221   -0.192245   -2.351215
  O      2.515946   -0.711861   -1.018960
  P      2.061240    0.213769    0.202705
  S      1.109821    1.854859   -0.272309
  O      3.364052    0.613293    1.010579
  C      4.362336   -0.344221    1.443637
  C      4.267463   -0.565689    2.939680
  S      1.191279   -1.273878    1.421535
  C      0.076269   -2.098232    0.226748
  S     -0.648341   -1.015299   -1.024158
  P     -2.162889   -0.106087    0.183286
  S     -1.687135    0.570431    1.953175
  O     -3.259617   -1.230441    0.297890
  C     -3.909631   -1.856575   -0.837988
  C     -5.213424   -1.158877   -1.165954
  O     -2.803848    0.937912   -0.823270
  C     -2.290481    2.267809   -1.027881
  C     -3.436245    3.141131   -1.495688
  H      3.884530    1.496845   -1.794937
  H      4.821187    0.040967   -2.174516
  H      4.074628    0.982371   -3.478131
  H      2.727104   -1.082395   -2.980199
  H      1.812223    0.408619   -2.607226
  H      4.224866   -1.277958    0.892987
  H      5.317006    0.109919    1.172355
  H      5.063166   -1.234405    3.252172
  H      4.366189    0.381691    3.462507
  H      3.306918   -1.006872    3.198571
  H     -0.712643   -2.552431    0.824683
  H      0.646152   -2.849278   -0.314772
  H     -3.225439   -1.840890   -1.690688
  H     -4.080716   -2.885179   -0.515616
  H     -5.713967   -1.699971   -1.962897
  H     -5.854340   -1.136872   -0.288828
  H     -5.025200   -0.138344   -1.487565
  H     -1.861519    2.631901   -0.088542
  H     -1.491227    2.216512   -1.771606
  H     -4.214953    3.172330   -0.738474
  H     -3.064379    4.145563   -1.668348
  H     -3.851530    2.747145   -2.418761

 Total Charge           Charge          ....    0
 Multiplicity           Mult            ....    1
 Number of Electrons    NEL             ....  202
 Basis Dimension        Dim             ....  334

ORBITAL ENERGIES
----------------

  NO   OCC          E(Eh)            E(eV)
   0   2.0000     -88.041506     -2395.7312
   1   2.0000     -88.035488     -2395.5674
   2   2.0000     -87.974214     -2393.9001
   3   2.0000     -87.973491     -2393.8804
   4   2.0000     -76.420805     -2079.5158
   5   2.0000     -76.420051     -2079.4953
   6   2.0000     -18.790558      -511.3171
   7   2.0000     -18.790260      -511.3090
   8   2.0000     -18.788684      -511.2661
   9   2.0000     -18.788574      -511.2631
  10   2.0000      -9.959514      -271.0122
  11   2.0000      -9.954381      -270.8725
  12   2.0000      -9.954026      -270.8628
  13   2.0000      -9.949439      -270.7380
  14   2.0000      -9.944394      -270.6007
  15   2.0000      -9.884938      -268.9828
  16   2.0000      -9.884928      -268.9826
  17   2.0000      -9.883843      -268.9530
  18   2.0000      -9.883050      -268.9315
  19   2.0000      -7.685900      -209.1440
  20   2.0000      -7.680591      -208.9995
  21   2.0000      -7.619505      -207.3373
  22   2.0000      -7.618732      -207.3163
  23   2.0000      -6.418100      -174.6454
  24   2.0000      -6.417468      -174.6282
  25   2.0000      -5.713753      -155.4791
  26   2.0000      -5.710343      -155.3863
  27   2.0000      -5.708733      -155.3425
  28   2.0000      -5.705039      -155.2420
  29   2.0000      -5.702998      -155.1865
  30   2.0000      -5.697311      -155.0317
  31   2.0000      -5.648647      -153.7075
  32   2.0000      -5.647895      -153.6870
  33   2.0000      -5.639976      -153.4715
  34   2.0000      -5.639486      -153.4582
  35   2.0000      -5.639351      -153.4546
  36   2.0000      -5.638643      -153.4353
  37   2.0000      -4.641247      -126.2948
  38   2.0000      -4.640478      -126.2738
  39   2.0000      -4.639681      -126.2521
  40   2.0000      -4.639274      -126.2411
  41   2.0000      -4.638290      -126.2143
  42   2.0000      -4.637469      -126.1920
  43   2.0000      -0.984952       -26.8019
  44   2.0000      -0.981750       -26.7148
  45   2.0000      -0.942604       -25.6496
  46   2.0000      -0.942305       -25.6414
  47   2.0000      -0.760457       -20.6931
  48   2.0000      -0.717914       -19.5354
  49   2.0000      -0.708675       -19.2840
  50   2.0000      -0.689957       -18.7747
  51   2.0000      -0.689150       -18.7527
  52   2.0000      -0.667503       -18.1637
  53   2.0000      -0.645817       -17.5736
  54   2.0000      -0.632986       -17.2244
  55   2.0000      -0.588731       -16.0202
  56   2.0000      -0.582279       -15.8446
  57   2.0000      -0.573380       -15.6025
  58   2.0000      -0.570292       -15.5184
  59   2.0000      -0.561608       -15.2821
  60   2.0000      -0.507152       -13.8003
  61   2.0000      -0.496032       -13.4977
  62   2.0000      -0.480083       -13.0637
  63   2.0000      -0.476390       -12.9632
  64   2.0000      -0.454040       -12.3551
  65   2.0000      -0.441540       -12.0149
  66   2.0000      -0.440963       -11.9992
  67   2.0000      -0.432474       -11.7682
  68   2.0000      -0.427054       -11.6207
  69   2.0000      -0.410678       -11.1751
  70   2.0000      -0.404929       -11.0187
  71   2.0000      -0.398384       -10.8406
  72   2.0000      -0.387839       -10.5536
  73   2.0000      -0.381699       -10.3866
  74   2.0000      -0.374220       -10.1830
  75   2.0000      -0.371430       -10.1071
  76   2.0000      -0.364405        -9.9160
  77   2.0000      -0.355603        -9.6765
  78   2.0000      -0.353486        -9.6188
  79   2.0000      -0.351276        -9.5587
  80   2.0000      -0.348722        -9.4892
  81   2.0000      -0.347053        -9.4438
  82   2.0000      -0.343388        -9.3441
  83   2.0000      -0.341054        -9.2805
  84   2.0000      -0.328804        -8.9472
  85   2.0000      -0.314934        -8.5698
  86   2.0000      -0.312641        -8.5074
  87   2.0000      -0.300497        -8.1769
  88   2.0000      -0.294522        -8.0143
  89   2.0000      -0.289604        -7.8805
  90   2.0000      -0.278190        -7.5699
  91   2.0000      -0.271279        -7.3819
  92   2.0000      -0.266842        -7.2611
  93   2.0000      -0.262387        -7.1399
  94   2.0000      -0.254670        -6.9299
  95   2.0000      -0.244211        -6.6453
  96   2.0000      -0.221047        -6.0150
  97   2.0000      -0.201909        -5.4942
  98   2.0000      -0.185312        -5.0426
  99   2.0000      -0.180853        -4.9213
 100   2.0000      -0.180303        -4.9063
 101   0.0000      -0.046671        -1.2700
 102   0.0000      -0.023307        -0.6342
 103   0.0000      -0.006817        -0.1855
 104   0.0000       0.008957         0.2437
 105   0.0000       0.017978         0.4892

MULLIKEN ATOMIC CHARGES
-----------------------
   0 C :   -0.309303
   1 C :   -0.004566
   2 O :   -0.393266
   3 P :    0.619512
   4 S :   -0.309272
   5 O :   -0.362462
   6 C :   -0.024677
   7 C :   -0.290960
   8 S :   -0.096794
   9 C :   -0.309774
  10 S :   -0.118318
  11 P :    0.604260
  12 S :   -0.285488
  13 O :   -0.359937
  14 C :   -0.011386
  15 C :   -0.293346
  16 O :   -0.387146
  17 C :   -0.024802
  18 C :   -0.279421
  19 H :    0.130720
  20 H :    0.109102
  21 H :    0.111267
  22 H :    0.098434
  23 H :    0.110910
  24 H :    0.104601
  25 H :    0.108047
  26 H :    0.108761
  27 H :    0.122983
  28 H :    0.130615
  29 H :    0.182172
  30 H :    0.182778
  31 H :    0.099429
  32 H :    0.104943
  33 H :    0.107526
  34 H :    0.119995
  35 H :    0.125922
  36 H :    0.123995
  37 H :    0.110649
  38 H :    0.118905
  39 H :    0.113909
  40 H :    0.111483
Sum of atomic charges:   -0.0000000

LOEWDIN ATOMIC CHARGES
----------------------
   0 C :   -0.365308
   1 C :   -0.123000
   2 O :   -0.258792
   3 P :    0.564455
   4 S :   -0.304497
   5 O :   -0.241460
   6 C :   -0.120888
   7 C :   -0.359029
   8 S :    0.084302
   9 C :   -0.468435
  10 S :    0.074771
  11 P :    0.561715
  12 S :   -0.293921
  13 O :   -0.239901
  14 C :   -0.117480
  15 C :   -0.360172
  16 O :   -0.246651
  17 C :   -0.120135
  18 C :   -0.351895
  19 H :    0.126442
  20 H :    0.121666
  21 H :    0.130436
  22 H :    0.114880
  23 H :    0.107802
  24 H :    0.106974
  25 H :    0.119262
  26 H :    0.129555
  27 H :    0.130453
  28 H :    0.121682
  29 H :    0.134034
  30 H :    0.133849
  31 H :    0.101793
  32 H :    0.118673
  33 H :    0.128499
  34 H :    0.128920
  35 H :    0.126450
  36 H :    0.112877
  37 H :    0.109441
  38 H :    0.127831
  39 H :    0.131976
  40 H :    0.122824

  Mayer bond orders larger than 0.100000
B(  0-C ,  1-C ) :   1.1638 B(  0-C , 19-H ) :   0.9341 B(  0-C , 20-H ) :   0.9472
B(  0-C , 21-H ) :   0.9402 B(  1-C ,  2-O ) :   0.9045 B(  1-C , 22-H ) :   0.9345
B(  1-C , 23-H ) :   0.9104 B(  2-O ,  3-P ) :   1.0554 B(  3-P ,  4-S ) :   1.6258
B(  3-P ,  5-O ) :   1.1242 B(  3-P ,  8-S ) :   0.9837 B(  4-S ,  8-S ) :   0.1081
B(  5-O ,  6-C ) :   0.8981 B(  6-C ,  7-C ) :   1.1668 B(  6-C , 24-H ) :   0.9141
B(  6-C , 25-H ) :   0.9319 B(  7-C , 26-H ) :   0.9396 B(  7-C , 27-H ) :   0.9457
B(  7-C , 28-H ) :   0.9379 B(  8-S ,  9-C ) :   0.9749 B(  9-C , 10-S ) :   1.0161
B(  9-C , 29-H ) :   0.9033 B(  9-C , 30-H ) :   0.9103 B( 10-S , 11-P ) :   0.9184
B( 10-S , 12-S ) :   0.1142 B( 11-P , 12-S ) :   1.7081 B( 11-P , 13-O ) :   1.1206
B( 11-P , 16-O ) :   1.0893 B( 13-O , 14-C ) :   0.8968 B( 14-C , 15-C ) :   1.1653
B( 14-C , 31-H ) :   0.9094 B( 14-C , 32-H ) :   0.9366 B( 15-C , 33-H ) :   0.9397
B( 15-C , 34-H ) :   0.9468 B( 15-C , 35-H ) :   0.9410 B( 16-O , 17-C ) :   0.8979
B( 17-C , 18-C ) :   1.1528 B( 17-C , 36-H ) :   0.9100 B( 17-C , 37-H ) :   0.9288
B( 18-C , 38-H ) :   0.9498 B( 18-C , 39-H ) :   0.9423 B( 18-C , 40-H ) :   0.9499

Dispersion correction           -0.066108316
FINAL SINGLE POINT ENERGY     -2929.510604897702

DIPOLE MOMENT
-------------

Method             : SCF
Type of density    : Electron Density
Multiplicity       :   1
Irrep              :   0
Energy             : -2929.6282980162645799 Eh
Relativity type    :
Basis              : AO
                                X                 Y                 Z
Electronic contribution:     -0.742481359      -1.717006396      11.280391144
Nuclear contribution   :      1.166175560       0.484417132     -12.776019062
                        -----------------------------------------
Total Dipole Moment    :      0.423694202      -1.232589265      -1.495627917
                        -----------------------------------------
Magnitude (a.u.)       :      1.983858851
Magnitude (Debye)      :      5.042568459

Rotational constants in cm-1:             0.012904             0.004965             0.004647
Rotational constants in MHz :           386.865968           148.860916           139.315857

                             ****ORCA TERMINATED NORMALLY****
TOTAL RUN TIME: 0 days 0 hours 0 minutes 20 seconds 920 msec
