                         Program Version 6.0.0  -   RELEASE  -
|  1> ! pbe def2-sv(p) def2/J RI DEFGRID1 loosescf d4 GCP(DFT/SV(P)) printgap
|  2> %output
|  3>     printlevel normal
|  4> end
|  5> * xyz 0 1
|  6> C 1.5333934565 -2.529915326 1.2236415844
|  7> C 2.951690663 -2.4070701433 0.7054446021
|  8> O 3.4029337941 -1.0420754457 0.6840034974
|  9> P 2.9262130714 0.0126925228 -0.4081016271
| 10> S 2.793234275 -0.6775864486 -2.2372852505
| 11> O 4.0381698902 1.1249029686 -0.2863393601
| 12> C 4.7282443742 1.4916730542 0.9336150518
| 13> C 3.7861678377 1.9956987324 2.0056330435
| 14> S 1.1463563406 0.9340723914 0.3431453947
| 15> C 0.0038611128 0.6023261994 -1.0200919235
| 16> S -1.1601383714 -0.7441234044 -0.6978321653
| 17> P -2.9180651292 0.3750422563 -0.2086351118
| 18> S -2.746601394 2.3174342829 -0.4022158423
| 19> O -3.4065298432 -0.1259511158 1.2206377453
| 20> C -2.9448796501 0.450003035 2.4544586095
| 21> C -1.5393123856 0.0028604496 2.8003523977
| 22> O -4.0420082715 -0.2046240403 -1.1518902041
| 23> C -4.7582318488 -1.4457177587 -0.9382274435
| 24> C -3.8413917098 -2.6497705676 -0.9174737699
| 25> H 1.4325865954 -2.0075521275 2.1714074188
| 26> H 0.8301343154 -2.1074877242 0.5075118249
| 27> H 1.295578707 -3.5793402853 1.363596734
| 28> H 3.0341853581 -2.81792257 -0.3058267988
| 29> H 3.663856765 -2.904494291 1.3659867564
| 30> H 5.2873939333 0.6213513398 1.2821297829
| 31> H 5.41783708 2.2699945216 0.6034409435
| 32> H 3.1070972602 1.2023374729 2.3128158822
| 33> H 4.3665496971 2.3179293317 2.8645704753
| 34> H 3.1988314238 2.8323536291 1.6358567458
| 35> H 0.5898069175 0.3224703472 -1.8980473611
| 36> H -0.5679911177 1.5158886849 -1.1942252831
| 37> H -2.9981724269 1.5403009966 2.37245556
| 38> H -3.6695075245 0.0987332003 3.1910249879
| 39> H -0.8219614247 0.4380789088 2.1063374502
| 40> H -1.2965934624 0.3373556925 3.8036751032
| 41> H -1.4671690372 -1.0805962104 2.753707714
| 42> H -5.3133565891 -1.3606315163 -0.0021796203
| 43> H -5.4509396332 -1.47998492 -1.7804703276
| 44> H -3.158158281 -2.5876796166 -0.072279292
| 45> H -4.4406447752 -3.5500970402 -0.8235970432
| 46> H -3.2578789043 -2.7015710364 -1.8331819351
| 47> *
| 48>
| 49>                          ****END OF INPUT****

CARTESIAN COORDINATES (ANGSTROEM)
---------------------------------
  C      1.533393   -2.529915    1.223642
  C      2.951691   -2.407070    0.705445
  O      3.402934   -1.042075    0.684003
  P      2.926213    0.012693   -0.408102
  S      2.793234   -0.677586   -2.237285
  O      4.038170    1.124903   -0.286339
  C      4.728244    1.491673    0.933615
  C      3.786168    1.995699    2.005633
  S      1.146356    0.934072    0.343145
  C      0.003861    0.602326   -1.020092
  S     -1.160138   -0.744123   -0.697832
  P     -2.918065    0.375042   -0.208635
  S     -2.746601    2.317434   -0.402216
  O     -3.406530   -0.125951    1.220638
  C     -2.944880    0.450003    2.454459
  C     -1.539312    0.002860    2.800352
  O     -4.042008   -0.204624   -1.151890
  C     -4.758232   -1.445718   -0.938227
  C     -3.841392   -2.649771   -0.917474
  H      1.432587   -2.007552    2.171407
  H      0.830134   -2.107488    0.507512
  H      1.295579   -3.579340    1.363597
  H      3.034185   -2.817923   -0.305827
  H      3.663857   -2.904494    1.365987
  H      5.287394    0.621351    1.282130
  H      5.417837    2.269995    0.603441
  H      3.107097    1.202337    2.312816
  H      4.366550    2.317929    2.864570
  H      3.198831    2.832354    1.635857
  H      0.589807    0.322470   -1.898047
  H     -0.567991    1.515889   -1.194225
  H     -2.998172    1.540301    2.372456
  H     -3.669508    0.098733    3.191025
  H     -0.821961    0.438079    2.106337
  H     -1.296593    0.337356    3.803675
  H     -1.467169   -1.080596    2.753708
  H     -5.313357   -1.360632   -0.002180
  H     -5.450940   -1.479985   -1.780470
  H     -3.158158   -2.587680   -0.072279
  H     -4.440645   -3.550097   -0.823597
  H     -3.257879   -2.701571   -1.833182

 Total Charge           Charge          ....    0
 Multiplicity           Mult            ....    1
 Number of Electrons    NEL             ....  202
 Basis Dimension        Dim             ....  334

ORBITAL ENERGIES
----------------

  NO   OCC          E(Eh)            E(eV)
   0   2.0000     -88.042744     -2395.7649
   1   2.0000     -88.042539     -2395.7593
   2   2.0000     -87.988708     -2394.2945
   3   2.0000     -87.988687     -2394.2939
   4   2.0000     -76.428331     -2079.7206
   5   2.0000     -76.428290     -2079.7195
   6   2.0000     -18.796411      -511.4763
   7   2.0000     -18.796402      -511.4761
   8   2.0000     -18.791685      -511.3477
   9   2.0000     -18.791549      -511.3440
  10   2.0000      -9.959647      -271.0158
  11   2.0000      -9.959560      -271.0134
  12   2.0000      -9.955991      -270.9163
  13   2.0000      -9.955956      -270.9153
  14   2.0000      -9.944061      -270.5917
  15   2.0000      -9.892810      -269.1970
  16   2.0000      -9.892791      -269.1965
  17   2.0000      -9.885745      -269.0048
  18   2.0000      -9.885575      -269.0002
  19   2.0000      -7.686762      -209.1674
  20   2.0000      -7.686558      -209.1619
  21   2.0000      -7.633792      -207.7260
  22   2.0000      -7.633776      -207.7256
  23   2.0000      -6.425860      -174.8566
  24   2.0000      -6.425826      -174.8556
  25   2.0000      -5.714622      -155.5028
  26   2.0000      -5.714425      -155.4974
  27   2.0000      -5.711261      -155.4113
  28   2.0000      -5.711048      -155.4055
  29   2.0000      -5.703956      -155.2125
  30   2.0000      -5.703756      -155.2071
  31   2.0000      -5.662740      -154.0910
  32   2.0000      -5.662738      -154.0909
  33   2.0000      -5.654274      -153.8606
  34   2.0000      -5.654270      -153.8605
  35   2.0000      -5.654041      -153.8543
  36   2.0000      -5.653992      -153.8529
  37   2.0000      -4.648783      -126.4998
  38   2.0000      -4.648751      -126.4989
  39   2.0000      -4.647270      -126.4586
  40   2.0000      -4.647230      -126.4575
  41   2.0000      -4.646326      -126.4330
  42   2.0000      -4.646304      -126.4324
  43   2.0000      -0.990743       -26.9595
  44   2.0000      -0.990682       -26.9578
  45   2.0000      -0.946283       -25.7497
  46   2.0000      -0.946192       -25.7472
  47   2.0000      -0.758433       -20.6380
  48   2.0000      -0.723765       -19.6947
  49   2.0000      -0.714005       -19.4291
  50   2.0000      -0.694399       -18.8956
  51   2.0000      -0.694138       -18.8885
  52   2.0000      -0.680223       -18.5098
  53   2.0000      -0.652543       -17.7566
  54   2.0000      -0.636584       -17.3223
  55   2.0000      -0.604218       -16.4416
  56   2.0000      -0.596358       -16.2277
  57   2.0000      -0.582621       -15.8539
  58   2.0000      -0.582199       -15.8424
  59   2.0000      -0.552998       -15.0478
  60   2.0000      -0.499251       -13.5853
  61   2.0000      -0.498603       -13.5677
  62   2.0000      -0.474320       -12.9069
  63   2.0000      -0.474153       -12.9024
  64   2.0000      -0.458830       -12.4854
  65   2.0000      -0.452706       -12.3187
  66   2.0000      -0.449268       -12.2252
  67   2.0000      -0.442351       -12.0370
  68   2.0000      -0.428943       -11.6721
  69   2.0000      -0.428455       -11.6589
  70   2.0000      -0.413341       -11.2476
  71   2.0000      -0.401981       -10.9385
  72   2.0000      -0.401779       -10.9330
  73   2.0000      -0.387996       -10.5579
  74   2.0000      -0.376697       -10.2504
  75   2.0000      -0.375095       -10.2069
  76   2.0000      -0.369133       -10.0446
  77   2.0000      -0.361750        -9.8437
  78   2.0000      -0.359007        -9.7691
  79   2.0000      -0.354040        -9.6339
  80   2.0000      -0.351878        -9.5751
  81   2.0000      -0.346625        -9.4321
  82   2.0000      -0.344621        -9.3776
  83   2.0000      -0.342765        -9.3271
  84   2.0000      -0.341365        -9.2890
  85   2.0000      -0.317418        -8.6374
  86   2.0000      -0.309580        -8.4241
  87   2.0000      -0.302117        -8.2210
  88   2.0000      -0.298518        -8.1231
  89   2.0000      -0.298419        -8.1204
  90   2.0000      -0.296660        -8.0725
  91   2.0000      -0.276559        -7.5256
  92   2.0000      -0.276137        -7.5141
  93   2.0000      -0.265152        -7.2152
  94   2.0000      -0.256036        -6.9671
  95   2.0000      -0.228809        -6.2262
  96   2.0000      -0.220922        -6.0116
  97   2.0000      -0.210542        -5.7291
  98   2.0000      -0.207811        -5.6548
  99   2.0000      -0.202996        -5.5238
 100   2.0000      -0.200388        -5.4528
 101   0.0000      -0.041599        -1.1320
 102   0.0000      -0.037736        -1.0268
 103   0.0000      -0.016814        -0.4575
 104   0.0000       0.006135         0.1669
 105   0.0000       0.007097         0.1931

MULLIKEN ATOMIC CHARGES
-----------------------
   0 C :   -0.328219
   1 C :    0.000790
   2 O :   -0.385283
   3 P :    0.614521
   4 S :   -0.306564
   5 O :   -0.362417
   6 C :    0.008715
   7 C :   -0.336837
   8 S :   -0.120809
   9 C :   -0.335104
  10 S :   -0.122136
  11 P :    0.614629
  12 S :   -0.306371
  13 O :   -0.385114
  14 C :    0.000571
  15 C :   -0.329502
  16 O :   -0.362565
  17 C :    0.008631
  18 C :   -0.336418
  19 H :    0.117465
  20 H :    0.140364
  21 H :    0.110411
  22 H :    0.112475
  23 H :    0.103169
  24 H :    0.110241
  25 H :    0.113364
  26 H :    0.128352
  27 H :    0.118120
  28 H :    0.134139
  29 H :    0.196071
  30 H :    0.196673
  31 H :    0.112426
  32 H :    0.103148
  33 H :    0.142235
  34 H :    0.110114
  35 H :    0.117133
  36 H :    0.110051
  37 H :    0.113424
  38 H :    0.128318
  39 H :    0.118009
  40 H :    0.133779
Sum of atomic charges:   -0.0000000

LOEWDIN ATOMIC CHARGES
----------------------
   0 C :   -0.370317
   1 C :   -0.116648
   2 O :   -0.248381
   3 P :    0.571035
   4 S :   -0.297033
   5 O :   -0.239042
   6 C :   -0.107630
   7 C :   -0.372787
   8 S :    0.086197
   9 C :   -0.494659
  10 S :    0.085640
  11 P :    0.570827
  12 S :   -0.296916
  13 O :   -0.248224
  14 C :   -0.116666
  15 C :   -0.370793
  16 O :   -0.239257
  17 C :   -0.107733
  18 C :   -0.372573
  19 H :    0.124644
  20 H :    0.111658
  21 H :    0.130549
  22 H :    0.111667
  23 H :    0.117653
  24 H :    0.114945
  25 H :    0.124224
  26 H :    0.117378
  27 H :    0.133910
  28 H :    0.130187
  29 H :    0.125850
  30 H :    0.126194
  31 H :    0.111655
  32 H :    0.117611
  33 H :    0.111568
  34 H :    0.130458
  35 H :    0.124534
  36 H :    0.114854
  37 H :    0.124183
  38 H :    0.117264
  39 H :    0.133845
  40 H :    0.130131

  Mayer bond orders larger than 0.100000
B(  0-C ,  1-C ) :   1.1628 B(  0-C , 19-H ) :   0.9441 B(  0-C , 20-H ) :   0.9263
B(  0-C , 21-H ) :   0.9374 B(  1-C ,  2-O ) :   0.9106 B(  1-C , 22-H ) :   0.9137
B(  1-C , 23-H ) :   0.9339 B(  2-O ,  3-P ) :   1.0685 B(  3-P ,  4-S ) :   1.6365
B(  3-P ,  5-O ) :   1.1399 B(  3-P ,  8-S ) :   0.9480 B(  4-S ,  8-S ) :   0.1159
B(  4-S , 29-H ) :   0.1160 B(  5-O ,  6-C ) :   0.9011 B(  6-C ,  7-C ) :   1.1699
B(  6-C , 24-H ) :   0.9277 B(  6-C , 25-H ) :   0.9334 B(  7-C , 26-H ) :   0.9327
B(  7-C , 27-H ) :   0.9351 B(  7-C , 28-H ) :   0.9404 B(  8-S ,  9-C ) :   1.0136
B(  9-C , 10-S ) :   1.0137 B(  9-C , 29-H ) :   0.8481 B(  9-C , 30-H ) :   0.8496
B( 10-S , 11-P ) :   0.9469 B( 10-S , 12-S ) :   0.1160 B( 11-P , 12-S ) :   1.6381
B( 11-P , 13-O ) :   1.0688 B( 11-P , 16-O ) :   1.1393 B( 12-S , 30-H ) :   0.1131
B( 13-O , 14-C ) :   0.9104 B( 14-C , 15-C ) :   1.1633 B( 14-C , 31-H ) :   0.9135
B( 14-C , 32-H ) :   0.9339 B( 15-C , 33-H ) :   0.9254 B( 15-C , 34-H ) :   0.9373
B( 15-C , 35-H ) :   0.9440 B( 16-O , 17-C ) :   0.9014 B( 17-C , 18-C ) :   1.1698
B( 17-C , 36-H ) :   0.9277 B( 17-C , 37-H ) :   0.9334 B( 18-C , 38-H ) :   0.9327
B( 18-C , 39-H ) :   0.9352 B( 18-C , 40-H ) :   0.9406

Dispersion correction           -0.063582457
FINAL SINGLE POINT ENERGY     -2929.513796693594

DIPOLE MOMENT
-------------

Method             : SCF
Type of density    : Electron Density
Multiplicity       :   1
Irrep              :   0
Energy             : -2929.6366577756475635 Eh
Relativity type    :
Basis              : AO
                                X                 Y                 Z
Electronic contribution:      0.192328450      11.073721526     -17.826779620
Nuclear contribution   :     -0.213346002     -12.299626679      19.806525392
                        -----------------------------------------
Total Dipole Moment    :     -0.021017552      -1.225905153       1.979745773
                        -----------------------------------------
Magnitude (a.u.)       :      2.328664533
Magnitude (Debye)      :      5.918994852

Rotational constants in cm-1:             0.012828             0.004260             0.004035
Rotational constants in MHz :           384.573979           127.701345           120.973114

                             ****ORCA TERMINATED NORMALLY****
TOTAL RUN TIME: 0 days 0 hours 0 minutes 20 seconds 829 msec
