                         Program Version 6.0.0  -   RELEASE  -
|  1> ! wb97x-v def2-tzvp def2/J RIJCOSX DEFGRID2 scfconv7 GCP(DFT/TZ) printgap
|  2> %output
|  3>     printlevel normal
|  4> end
|  5> * xyz 0 1
|  6> C -0.6745221286033629 -0.5320670256076999 0.3518251111479366
|  7> C 0.667127970783253 -0.5561683840694642 -0.3277714725543295
|  8> O 1.4337776650459 0.5808483753394749 0.10792442600847738
|  9> O -1.4256457819737076 0.5948585619347867 -0.13393628397948945
| 10> H -0.5401357179775195 -0.4634919479600518 1.4403243540253639
| 11> H -1.1949869670932984 -1.4724352845516053 0.1243972658783703
| 12> H 0.5332865590403988 -0.5336550206899889 -1.4182662991046429
| 13> H 1.1747927687581114 -1.4926133619757462 -0.059078912620415834
| 14> H 2.249345427001596 0.5936540152642111 -0.4079197022523107
| 15> H -2.240495913715242 0.6418783472452232 0.3809580506415641
| 16> *
| 17>
| 18>                          ****END OF INPUT****

CARTESIAN COORDINATES (ANGSTROEM)
---------------------------------
  C     -0.674522   -0.532067    0.351825
  C      0.667128   -0.556168   -0.327771
  O      1.433778    0.580848    0.107924
  O     -1.425646    0.594859   -0.133936
  H     -0.540136   -0.463492    1.440324
  H     -1.194987   -1.472435    0.124397
  H      0.533287   -0.533655   -1.418266
  H      1.174793   -1.492613   -0.059079
  H      2.249345    0.593654   -0.407920
  H     -2.240496    0.641878    0.380958

 Total Charge           Charge          ....    0
 Multiplicity           Mult            ....    1
 Number of Electrons    NEL             ....   34
 Basis Dimension        Dim             ....  160

ORBITAL ENERGIES
----------------

  NO   OCC          E(Eh)            E(eV)
   0   2.0000     -21.667456      -589.6015
   1   2.0000     -21.667399      -589.5999
   2   2.0000     -12.094665      -329.1126
   3   2.0000     -12.093339      -329.0765
   4   2.0000      -1.669955       -45.4418
   5   2.0000      -1.663081       -45.2547
   6   2.0000      -1.278430       -34.7878
   7   2.0000      -1.138741       -30.9867
   8   2.0000      -1.044132       -28.4123
   9   2.0000      -1.027915       -27.9710
  10   2.0000      -0.962368       -26.1874
  11   2.0000      -0.936679       -25.4883
  12   2.0000      -0.925801       -25.1923
  13   2.0000      -0.905637       -24.6436
  14   2.0000      -0.824322       -22.4309
  15   2.0000      -0.810167       -22.0458
  16   2.0000      -0.782159       -21.2836
  17   0.0000      -0.158505        -4.3131
  18   0.0000      -0.119068        -3.2400
  19   0.0000      -0.040280        -1.0961
  20   0.0000      -0.036029        -0.9804
  21   0.0000       0.009662         0.2629

MULLIKEN ATOMIC CHARGES
-----------------------
   0 C :   -0.028939
   1 C :   -0.028891
   2 O :   -0.440899
   3 O :   -0.440832
   4 H :    0.091267
   5 H :    0.080338
   6 H :    0.091280
   7 H :    0.080309
   8 H :    0.298192
   9 H :    0.298176
Sum of atomic charges:    0.0000000

LOEWDIN ATOMIC CHARGES
----------------------
   0 C :   -0.343554
   1 C :   -0.343484
   2 O :   -0.055998
   3 O :   -0.055882
   4 H :    0.117746
   5 H :    0.115226
   6 H :    0.117756
   7 H :    0.115215
   8 H :    0.166499
   9 H :    0.166477

  Mayer bond orders larger than 0.100000
B(  0-C ,  1-C ) :   1.0084 B(  0-C ,  3-O ) :   1.0661 B(  0-C ,  4-H ) :   0.9674
B(  0-C ,  5-H ) :   0.9600 B(  1-C ,  2-O ) :   1.0661 B(  1-C ,  6-H ) :   0.9674
B(  1-C ,  7-H ) :   0.9600 B(  2-O ,  8-H ) :   0.9079 B(  3-O ,  9-H ) :   0.9079

FINAL SINGLE POINT ENERGY      -230.264368557391

DIPOLE MOMENT
-------------

Method             : SCF
Type of density    : Electron Density
Multiplicity       :   1
Irrep              :   0
Energy             :  -230.2712381323906072 Eh
Relativity type    :
Basis              : AO
                                X                 Y                 Z
Electronic contribution:      0.013560935       2.003426009      -0.044206898
Nuclear contribution   :     -0.019041209      -2.813375342       0.062344696
                        -----------------------------------------
Total Dipole Moment    :     -0.005480274      -0.809949333       0.018137798
                        -----------------------------------------
Magnitude (a.u.)       :      0.810170929
Magnitude (Debye)      :      2.059290847

Rotational constants in cm-1:             0.538833             0.172922             0.148289
Rotational constants in MHz :         16153.820059          5184.067390          4445.596117

                             ****ORCA TERMINATED NORMALLY****
TOTAL RUN TIME: 0 days 0 hours 0 minutes 36 seconds 864 msec
