                         Program Version 6.0.0  -   RELEASE  -
|  1> ! wb97x-v def2-tzvp def2/J RIJCOSX DEFGRID2 scfconv7 GCP(DFT/TZ) printgap
|  2> %output
|  3>     printlevel normal
|  4> end
|  5> %cpcm
|  6>     smd true
|  7>     smdsolvent "water"
|  8> end
|  9> * xyz 0 1
| 10> C -0.6745221286033629 -0.5320670256076999 0.3518251111479366
| 11> C 0.667127970783253 -0.5561683840694642 -0.3277714725543295
| 12> O 1.4337776650459 0.5808483753394749 0.10792442600847738
| 13> O -1.4256457819737076 0.5948585619347867 -0.13393628397948945
| 14> H -0.5401357179775195 -0.4634919479600518 1.4403243540253639
| 15> H -1.1949869670932984 -1.4724352845516053 0.1243972658783703
| 16> H 0.5332865590403988 -0.5336550206899889 -1.4182662991046429
| 17> H 1.1747927687581114 -1.4926133619757462 -0.059078912620415834
| 18> H 2.249345427001596 0.5936540152642111 -0.4079197022523107
| 19> H -2.240495913715242 0.6418783472452232 0.3809580506415641
| 20> *
| 21>
| 22>                          ****END OF INPUT****

CARTESIAN COORDINATES (ANGSTROEM)
---------------------------------
  C     -0.674522   -0.532067    0.351825
  C      0.667128   -0.556168   -0.327771
  O      1.433778    0.580848    0.107924
  O     -1.425646    0.594859   -0.133936
  H     -0.540136   -0.463492    1.440324
  H     -1.194987   -1.472435    0.124397
  H      0.533287   -0.533655   -1.418266
  H      1.174793   -1.492613   -0.059079
  H      2.249345    0.593654   -0.407920
  H     -2.240496    0.641878    0.380958

 Total Charge           Charge          ....    0
 Multiplicity           Mult            ....    1
 Number of Electrons    NEL             ....   34
 Basis Dimension        Dim             ....  160

ORBITAL ENERGIES
----------------

  NO   OCC          E(Eh)            E(eV)
   0   2.0000     -21.673536      -589.7669
   1   2.0000     -21.673474      -589.7652
   2   2.0000     -12.088154      -328.9354
   3   2.0000     -12.086848      -328.8999
   4   2.0000      -1.676185       -45.6113
   5   2.0000      -1.669368       -45.4258
   6   2.0000      -1.275717       -34.7140
   7   2.0000      -1.139502       -31.0074
   8   2.0000      -1.047445       -28.5024
   9   2.0000      -1.031861       -28.0784
  10   2.0000      -0.970427       -26.4066
  11   2.0000      -0.942267       -25.6404
  12   2.0000      -0.932180       -25.3659
  13   2.0000      -0.910149       -24.7664
  14   2.0000      -0.821193       -22.3458
  15   2.0000      -0.808580       -22.0026
  16   2.0000      -0.778568       -21.1859
  17   0.0000      -0.154995        -4.2176
  18   0.0000      -0.114834        -3.1248
  19   0.0000      -0.021628        -0.5885
  20   0.0000      -0.013969        -0.3801
  21   0.0000       0.024119         0.6563

MULLIKEN ATOMIC CHARGES
-----------------------
   0 C :   -0.035603
   1 C :   -0.035453
   2 O :   -0.557365
   3 O :   -0.557255
   4 H :    0.114047
   5 H :    0.115073
   6 H :    0.114036
   7 H :    0.115044
   8 H :    0.363753
   9 H :    0.363721
Sum of atomic charges:    0.0000000

LOEWDIN ATOMIC CHARGES
----------------------
   0 C :   -0.339170
   1 C :   -0.339075
   2 O :   -0.101342
   3 O :   -0.101217
   4 H :    0.123713
   5 H :    0.127138
   6 H :    0.123706
   7 H :    0.127132
   8 H :    0.189567
   9 H :    0.189547

  Mayer bond orders larger than 0.100000
B(  0-C ,  1-C ) :   0.9962 B(  0-C ,  3-O ) :   1.0060 B(  0-C ,  4-H ) :   0.9703
B(  0-C ,  5-H ) :   0.9679 B(  1-C ,  2-O ) :   1.0059 B(  1-C ,  6-H ) :   0.9703
B(  1-C ,  7-H ) :   0.9679 B(  2-O ,  8-H ) :   0.8685 B(  3-O ,  9-H ) :   0.8685

FINAL SINGLE POINT ENERGY      -230.283573698055

DIPOLE MOMENT
-------------

Method             : SCF
Type of density    : Electron Density
Multiplicity       :   1
Irrep              :   0
Energy             :  -230.2904432730551889 Eh
Relativity type    :
Basis              : AO
                                X                 Y                 Z
Electronic contribution:      0.011105040       1.638269976      -0.035957513
Nuclear contribution   :     -0.019041209      -2.813375342       0.062344696
                        -----------------------------------------
Total Dipole Moment    :     -0.007936169      -1.175105366       0.026387184
                        -----------------------------------------
Magnitude (a.u.)       :      1.175428384
Magnitude (Debye)      :      2.987701517

Rotational constants in cm-1:             0.538833             0.172922             0.148289
Rotational constants in MHz :         16153.820059          5184.067390          4445.596117

                             ****ORCA TERMINATED NORMALLY****
TOTAL RUN TIME: 0 days 0 hours 0 minutes 41 seconds 663 msec
