                         Program Version 6.0.1  -  RELEASE   -
|  1> ! r2scan-3c def2/J RI DEFGRID2 scfconv6 printgap
|  2> %output
|  3>     printlevel normal
|  4> end
|  5> * xyz 0 1
|  6> C 5.2627755032 -2.7598495993 -0.4071097117
|  7> C 4.8556300164 -1.7862101667 -1.5012112142
|  8> O 3.4433074653 -1.8860727773 -1.7771345572
|  9> C 2.6084263404 -1.1701804396 -1.0568071406
| 10> O 2.9377563083 -0.3847670639 -0.1916064951
| 11> C 1.1680773374 -1.4495251204 -1.4266295028
| 12> C 0.2745444859 -0.359969968 -0.8521098906
| 13> H 0.3855501597 0.5935304492 -1.3738215492
| 14> C 0.5610586306 -0.1577126483 0.6261952337
| 15> O 0.5740386047 -1.0669272668 1.4283138389
| 16> O 0.6876290281 1.1180248168 0.9108965684
| 17> C 1.0125150167 1.506118968 2.2592723529
| 18> C 2.4381931802 2.02792098 2.3040638171
| 19> S -1.4702678954 -0.8878041192 -0.9748102495
| 20> P -2.3256170933 0.7647612407 0.0524341754
| 21> S -1.7760689128 2.5445757201 -0.5327907242
| 22> O -3.8842208276 0.4544453548 -0.0940276586
| 23> C -4.5508040016 0.6072176851 -1.3549748366
| 24> O -2.1156490935 0.5375817553 1.6048894512
| 25> C -2.5277813674 -0.6610170949 2.2971892018
| 26> H 6.3358278112 -2.7032948165 -0.2573851624
| 27> H 4.7624908905 -2.5058658227 0.5250790314
| 28> H 4.9920148451 -3.7736636757 -0.6882664439
| 29> H 5.334629601 -2.0291486051 -2.4495325911
| 30> H 5.0821712242 -0.7567059767 -1.2099882305
| 31> H 0.8999019826 -2.4121439446 -0.9817061294
| 32> H 1.0608579691 -1.5290925376 -2.5071955005
| 33> H 0.2889173223 2.2812905616 2.5207818703
| 34> H 0.8839023809 0.6352457503 2.9081664195
| 35> H 2.6941372556 2.2900390949 3.3250895884
| 36> H 3.1183993093 1.2599837583 1.9428181845
| 37> H 2.532779067 2.9036249211 1.6686403735
| 38> H -4.2764539407 -0.2122742541 -2.0182450242
| 39> H -4.2791386307 1.5617619614 -1.8077141033
| 40> H -5.6134154305 0.5815648103 -1.1275618701
| 41> H -3.4180066143 -1.0815067205 1.8353500383
| 42> H -2.7346541286 -0.3483583064 3.3173781411
| 43> H -1.7069057841 -1.3788563284 2.2766422928
| 44> *
| 45>
| 46>                          ****END OF INPUT****

CARTESIAN COORDINATES (ANGSTROEM)
---------------------------------
  C      5.262776   -2.759850   -0.407110
  C      4.855630   -1.786210   -1.501211
  O      3.443307   -1.886073   -1.777135
  C      2.608426   -1.170180   -1.056807
  O      2.937756   -0.384767   -0.191606
  C      1.168077   -1.449525   -1.426630
  C      0.274544   -0.359970   -0.852110
  H      0.385550    0.593530   -1.373822
  C      0.561059   -0.157713    0.626195
  O      0.574039   -1.066927    1.428314
  O      0.687629    1.118025    0.910897
  C      1.012515    1.506119    2.259272
  C      2.438193    2.027921    2.304064
  S     -1.470268   -0.887804   -0.974810
  P     -2.325617    0.764761    0.052434
  S     -1.776069    2.544576   -0.532791
  O     -3.884221    0.454445   -0.094028
  C     -4.550804    0.607218   -1.354975
  O     -2.115649    0.537582    1.604889
  C     -2.527781   -0.661017    2.297189
  H      6.335828   -2.703295   -0.257385
  H      4.762491   -2.505866    0.525079
  H      4.992015   -3.773664   -0.688266
  H      5.334630   -2.029149   -2.449533
  H      5.082171   -0.756706   -1.209988
  H      0.899902   -2.412144   -0.981706
  H      1.060858   -1.529093   -2.507196
  H      0.288917    2.281291    2.520782
  H      0.883902    0.635246    2.908166
  H      2.694137    2.290039    3.325090
  H      3.118399    1.259984    1.942818
  H      2.532779    2.903625    1.668640
  H     -4.276454   -0.212274   -2.018245
  H     -4.279139    1.561762   -1.807714
  H     -5.613415    0.581565   -1.127562
  H     -3.418007   -1.081507    1.835350
  H     -2.734654   -0.348358    3.317378
  H     -1.706906   -1.378856    2.276642

 Total Charge           Charge          ....    0
 Multiplicity           Mult            ....    1
 Number of Electrons    NEL             ....  174
 Basis Dimension        Dim             ....  510

ORBITAL ENERGIES
----------------

  NO   OCC          E(Eh)            E(eV)
   0   2.0000     -88.576225     -2410.2816
   1   2.0000     -88.513103     -2408.5640
   2   2.0000     -76.912083     -2092.8842
   3   2.0000     -19.012274      -517.3503
   4   2.0000     -18.993864      -516.8493
   5   2.0000     -18.991938      -516.7969
   6   2.0000     -18.987248      -516.6693
   7   2.0000     -18.945873      -515.5434
   8   2.0000     -18.922438      -514.9057
   9   2.0000     -10.171221      -276.7730
  10   2.0000     -10.153475      -276.2901
  11   2.0000     -10.102148      -274.8934
  12   2.0000     -10.094057      -274.6733
  13   2.0000     -10.091478      -274.6031
  14   2.0000     -10.087708      -274.5005
  15   2.0000     -10.077520      -274.2233
  16   2.0000     -10.066993      -273.9368
  17   2.0000     -10.036246      -273.1001
  18   2.0000     -10.015729      -272.5418
  19   2.0000      -7.870340      -214.1628
  20   2.0000      -7.807820      -212.4616
  21   2.0000      -6.590329      -179.3320
  22   2.0000      -5.817015      -158.2890
  23   2.0000      -5.814465      -158.2196
  24   2.0000      -5.807452      -158.0288
  25   2.0000      -5.755687      -156.6202
  26   2.0000      -5.747885      -156.4079
  27   2.0000      -5.747837      -156.4066
  28   2.0000      -4.736236      -128.8795
  29   2.0000      -4.735432      -128.8577
  30   2.0000      -4.733546      -128.8063
  31   2.0000      -1.089765       -29.6540
  32   2.0000      -1.067256       -29.0415
  33   2.0000      -1.049409       -28.5559
  34   2.0000      -1.008340       -27.4383
  35   2.0000      -0.994780       -27.0693
  36   2.0000      -0.973226       -26.4828
  37   2.0000      -0.810302       -22.0494
  38   2.0000      -0.761083       -20.7101
  39   2.0000      -0.734671       -19.9914
  40   2.0000      -0.731833       -19.9142
  41   2.0000      -0.699931       -19.0461
  42   2.0000      -0.676392       -18.4056
  43   2.0000      -0.656161       -17.8551
  44   2.0000      -0.644948       -17.5499
  45   2.0000      -0.630518       -17.1573
  46   2.0000      -0.585972       -15.9451
  47   2.0000      -0.539178       -14.6718
  48   2.0000      -0.535746       -14.5784
  49   2.0000      -0.515670       -14.0321
  50   2.0000      -0.497999       -13.5512
  51   2.0000      -0.493922       -13.4403
  52   2.0000      -0.487543       -13.2667
  53   2.0000      -0.463984       -12.6256
  54   2.0000      -0.460548       -12.5321
  55   2.0000      -0.451905       -12.2970
  56   2.0000      -0.447200       -12.1689
  57   2.0000      -0.445148       -12.1131
  58   2.0000      -0.432199       -11.7607
  59   2.0000      -0.430191       -11.7061
  60   2.0000      -0.419721       -11.4212
  61   2.0000      -0.416729       -11.3398
  62   2.0000      -0.406262       -11.0549
  63   2.0000      -0.401354       -10.9214
  64   2.0000      -0.393121       -10.6974
  65   2.0000      -0.383940       -10.4475
  66   2.0000      -0.374502       -10.1907
  67   2.0000      -0.363909        -9.9025
  68   2.0000      -0.360655        -9.8139
  69   2.0000      -0.349972        -9.5232
  70   2.0000      -0.346609        -9.4317
  71   2.0000      -0.339751        -9.2451
  72   2.0000      -0.335217        -9.1217
  73   2.0000      -0.325338        -8.8529
  74   2.0000      -0.322656        -8.7799
  75   2.0000      -0.319154        -8.6846
  76   2.0000      -0.313654        -8.5349
  77   2.0000      -0.296670        -8.0728
  78   2.0000      -0.286612        -7.7991
  79   2.0000      -0.285501        -7.7689
  80   2.0000      -0.276769        -7.5313
  81   2.0000      -0.261980        -7.1288
  82   2.0000      -0.253425        -6.8961
  83   2.0000      -0.247932        -6.7466
  84   2.0000      -0.231486        -6.2991
  85   2.0000      -0.210015        -5.7148
  86   2.0000      -0.207552        -5.6478
  87   0.0000      -0.043563        -1.1854
  88   0.0000      -0.027967        -0.7610
  89   0.0000      -0.020697        -0.5632
  90   0.0000       0.006461         0.1758
  91   0.0000       0.024288         0.6609

MULLIKEN ATOMIC CHARGES
-----------------------
   0 C :   -0.462728
   1 C :   -0.141008
   2 O :   -0.166612
   3 C :    0.390011
   4 O :   -0.401297
   5 C :   -0.376878
   6 C :   -0.059426
   7 H :    0.253433
   8 C :    0.233437
   9 O :   -0.395132
  10 O :   -0.100202
  11 C :   -0.176690
  12 C :   -0.470993
  13 S :   -0.194432
  14 P :    0.746594
  15 S :   -0.426224
  16 O :   -0.357454
  17 C :   -0.291816
  18 O :   -0.301544
  19 C :   -0.283716
  20 H :    0.149837
  21 H :    0.173330
  22 H :    0.154116
  23 H :    0.151561
  24 H :    0.168972
  25 H :    0.200872
  26 H :    0.181641
  27 H :    0.164815
  28 H :    0.177249
  29 H :    0.141892
  30 H :    0.174063
  31 H :    0.154078
  32 H :    0.153876
  33 H :    0.179094
  34 H :    0.153044
  35 H :    0.158790
  36 H :    0.151959
  37 H :    0.193490
Sum of atomic charges:   -0.0000000

LOEWDIN ATOMIC CHARGES
----------------------
   0 C :   -0.387005
   1 C :    0.031910
   2 O :   -0.575315
   3 C :    0.379900
   4 O :   -0.425721
   5 C :   -0.207899
   6 C :   -0.189040
   7 H :    0.204962
   8 C :    0.329794
   9 O :   -0.451477
  10 O :   -0.582000
  11 C :    0.029264
  12 C :   -0.386775
  13 S :    0.189483
  14 P :    0.378381
  15 S :   -0.075443
  16 O :   -0.683844
  17 C :   -0.055988
  18 O :   -0.648975
  19 C :   -0.047769
  20 H :    0.160743
  21 H :    0.166528
  22 H :    0.158546
  23 H :    0.179859
  24 H :    0.189053
  25 H :    0.203212
  26 H :    0.189113
  27 H :    0.183329
  28 H :    0.193151
  29 H :    0.155683
  30 H :    0.169626
  31 H :    0.159014
  32 H :    0.167657
  33 H :    0.178801
  34 H :    0.177756
  35 H :    0.173615
  36 H :    0.178525
  37 H :    0.189346

  Mayer bond orders larger than 0.100000
B(  0-C ,  1-C ) :   0.9441 B(  0-C , 20-H ) :   0.9638 B(  0-C , 21-H ) :   0.9688
B(  0-C , 22-H ) :   0.9725 B(  1-C ,  2-O ) :   0.7966 B(  1-C , 23-H ) :   0.9611
B(  1-C , 24-H ) :   0.9660 B(  2-O ,  3-C ) :   1.1364 B(  3-C ,  4-O ) :   1.7613
B(  3-C ,  5-C ) :   1.0156 B(  4-O ,  8-C ) :   0.1070 B(  5-C ,  6-C ) :   0.9292
B(  5-C , 25-H ) :   0.9347 B(  5-C , 26-H ) :   0.9405 B(  6-C ,  7-H ) :   0.9826
B(  6-C ,  8-C ) :   0.7920 B(  6-C ,  9-O ) :  -0.1079 B(  6-C , 13-S ) :   0.8497
B(  8-C ,  9-O ) :   1.8916 B(  8-C , 10-O ) :   1.1082 B( 10-O , 11-C ) :   0.7740
B( 11-C , 12-C ) :   0.9341 B( 11-C , 27-H ) :   0.9506 B( 11-C , 28-H ) :   0.9793
B( 12-C , 29-H ) :   0.9695 B( 12-C , 30-H ) :   0.9701 B( 12-C , 31-H ) :   0.9744
B( 13-S , 14-P ) :   0.9911 B( 14-P , 15-S ) :   1.8786 B( 14-P , 16-O ) :   1.0470
B( 14-P , 18-O ) :   1.1070 B( 16-O , 17-C ) :   0.8281 B( 17-C , 32-H ) :   0.9572
B( 17-C , 33-H ) :   0.9583 B( 17-C , 34-H ) :   0.9669 B( 18-O , 19-C ) :   0.7945
B( 19-C , 35-H ) :   0.9636 B( 19-C , 36-H ) :   0.9669 B( 19-C , 37-H ) :   0.9479

Dispersion correction           -0.017352317
FINAL SINGLE POINT ENERGY     -1981.454754939802

DIPOLE MOMENT
-------------

Method             : SCF
Type of density    : Electron Density
Multiplicity       :   1
Irrep              :   0
Energy             : -1981.4744716418927055 Eh
Relativity type    :
Basis              : AO
                                X                 Y                 Z
Electronic contribution:    -17.115240849       5.791552188      -5.937129414
Nuclear contribution   :     17.528801035      -6.963787783       5.558486712
                        -----------------------------------------
Total Dipole Moment    :      0.413560185      -1.172235594      -0.378642702
                        -----------------------------------------
Magnitude (a.u.)       :      1.299437806
Magnitude (Debye)      :      3.302908416

Rotational constants in cm-1:             0.016938             0.005742             0.005119
Rotational constants in MHz :           507.785064           172.148171           153.463883

                             ****ORCA TERMINATED NORMALLY****
TOTAL RUN TIME: 0 days 0 hours 1 minutes 21 seconds 297 msec
