                         Program Version 6.0.1  -  RELEASE   -
|  1> ! r2scan-3c def2/J RI DEFGRID2 scfconv6 printgap
|  2> %output
|  3>     printlevel normal
|  4> end
|  5> %cpcm
|  6>     smd true
|  7>     smdsolvent "water"
|  8> end
|  9> * xyz 0 1
| 10> C 5.2627755032 -2.7598495993 -0.4071097117
| 11> C 4.8556300164 -1.7862101667 -1.5012112142
| 12> O 3.4433074653 -1.8860727773 -1.7771345572
| 13> C 2.6084263404 -1.1701804396 -1.0568071406
| 14> O 2.9377563083 -0.3847670639 -0.1916064951
| 15> C 1.1680773374 -1.4495251204 -1.4266295028
| 16> C 0.2745444859 -0.359969968 -0.8521098906
| 17> H 0.3855501597 0.5935304492 -1.3738215492
| 18> C 0.5610586306 -0.1577126483 0.6261952337
| 19> O 0.5740386047 -1.0669272668 1.4283138389
| 20> O 0.6876290281 1.1180248168 0.9108965684
| 21> C 1.0125150167 1.506118968 2.2592723529
| 22> C 2.4381931802 2.02792098 2.3040638171
| 23> S -1.4702678954 -0.8878041192 -0.9748102495
| 24> P -2.3256170933 0.7647612407 0.0524341754
| 25> S -1.7760689128 2.5445757201 -0.5327907242
| 26> O -3.8842208276 0.4544453548 -0.0940276586
| 27> C -4.5508040016 0.6072176851 -1.3549748366
| 28> O -2.1156490935 0.5375817553 1.6048894512
| 29> C -2.5277813674 -0.6610170949 2.2971892018
| 30> H 6.3358278112 -2.7032948165 -0.2573851624
| 31> H 4.7624908905 -2.5058658227 0.5250790314
| 32> H 4.9920148451 -3.7736636757 -0.6882664439
| 33> H 5.334629601 -2.0291486051 -2.4495325911
| 34> H 5.0821712242 -0.7567059767 -1.2099882305
| 35> H 0.8999019826 -2.4121439446 -0.9817061294
| 36> H 1.0608579691 -1.5290925376 -2.5071955005
| 37> H 0.2889173223 2.2812905616 2.5207818703
| 38> H 0.8839023809 0.6352457503 2.9081664195
| 39> H 2.6941372556 2.2900390949 3.3250895884
| 40> H 3.1183993093 1.2599837583 1.9428181845
| 41> H 2.532779067 2.9036249211 1.6686403735
| 42> H -4.2764539407 -0.2122742541 -2.0182450242
| 43> H -4.2791386307 1.5617619614 -1.8077141033
| 44> H -5.6134154305 0.5815648103 -1.1275618701
| 45> H -3.4180066143 -1.0815067205 1.8353500383
| 46> H -2.7346541286 -0.3483583064 3.3173781411
| 47> H -1.7069057841 -1.3788563284 2.2766422928
| 48> *
| 49>
| 50>                          ****END OF INPUT****

CARTESIAN COORDINATES (ANGSTROEM)
---------------------------------
  C      5.262776   -2.759850   -0.407110
  C      4.855630   -1.786210   -1.501211
  O      3.443307   -1.886073   -1.777135
  C      2.608426   -1.170180   -1.056807
  O      2.937756   -0.384767   -0.191606
  C      1.168077   -1.449525   -1.426630
  C      0.274544   -0.359970   -0.852110
  H      0.385550    0.593530   -1.373822
  C      0.561059   -0.157713    0.626195
  O      0.574039   -1.066927    1.428314
  O      0.687629    1.118025    0.910897
  C      1.012515    1.506119    2.259272
  C      2.438193    2.027921    2.304064
  S     -1.470268   -0.887804   -0.974810
  P     -2.325617    0.764761    0.052434
  S     -1.776069    2.544576   -0.532791
  O     -3.884221    0.454445   -0.094028
  C     -4.550804    0.607218   -1.354975
  O     -2.115649    0.537582    1.604889
  C     -2.527781   -0.661017    2.297189
  H      6.335828   -2.703295   -0.257385
  H      4.762491   -2.505866    0.525079
  H      4.992015   -3.773664   -0.688266
  H      5.334630   -2.029149   -2.449533
  H      5.082171   -0.756706   -1.209988
  H      0.899902   -2.412144   -0.981706
  H      1.060858   -1.529093   -2.507196
  H      0.288917    2.281291    2.520782
  H      0.883902    0.635246    2.908166
  H      2.694137    2.290039    3.325090
  H      3.118399    1.259984    1.942818
  H      2.532779    2.903625    1.668640
  H     -4.276454   -0.212274   -2.018245
  H     -4.279139    1.561762   -1.807714
  H     -5.613415    0.581565   -1.127562
  H     -3.418007   -1.081507    1.835350
  H     -2.734654   -0.348358    3.317378
  H     -1.706906   -1.378856    2.276642

 Total Charge           Charge          ....    0
 Multiplicity           Mult            ....    1
 Number of Electrons    NEL             ....  174
 Basis Dimension        Dim             ....  510

ORBITAL ENERGIES
----------------

  NO   OCC          E(Eh)            E(eV)
   0   2.0000     -88.584386     -2410.5037
   1   2.0000     -88.528449     -2408.9816
   2   2.0000     -76.922742     -2093.1742
   3   2.0000     -19.010610      -517.3050
   4   2.0000     -19.004503      -517.1388
   5   2.0000     -19.000826      -517.0388
   6   2.0000     -18.998536      -516.9764
   7   2.0000     -18.953358      -515.7471
   8   2.0000     -18.944646      -515.5100
   9   2.0000     -10.175428      -276.8875
  10   2.0000     -10.171961      -276.7931
  11   2.0000     -10.096393      -274.7368
  12   2.0000     -10.087322      -274.4900
  13   2.0000     -10.084278      -274.4072
  14   2.0000     -10.084016      -274.4000
  15   2.0000     -10.083812      -274.3945
  16   2.0000     -10.061469      -273.7865
  17   2.0000     -10.019832      -272.6535
  18   2.0000     -10.018445      -272.6158
  19   2.0000      -7.878393      -214.3820
  20   2.0000      -7.823537      -212.8893
  21   2.0000      -6.601073      -179.6243
  22   2.0000      -5.825072      -158.5083
  23   2.0000      -5.822537      -158.4393
  24   2.0000      -5.815498      -158.2478
  25   2.0000      -5.771278      -157.0445
  26   2.0000      -5.763693      -156.8381
  27   2.0000      -5.763514      -156.8332
  28   2.0000      -4.746932      -129.1706
  29   2.0000      -4.746124      -129.1486
  30   2.0000      -4.744428      -129.1025
  31   2.0000      -1.090572       -29.6760
  32   2.0000      -1.084420       -29.5086
  33   2.0000      -1.055989       -28.7349
  34   2.0000      -1.014232       -27.5986
  35   2.0000      -1.000761       -27.2321
  36   2.0000      -0.994049       -27.0494
  37   2.0000      -0.814584       -22.1660
  38   2.0000      -0.754972       -20.5438
  39   2.0000      -0.741491       -20.1770
  40   2.0000      -0.732464       -19.9314
  41   2.0000      -0.699259       -19.0278
  42   2.0000      -0.673347       -18.3227
  43   2.0000      -0.661186       -17.9918
  44   2.0000      -0.651371       -17.7247
  45   2.0000      -0.626846       -17.0574
  46   2.0000      -0.588312       -16.0088
  47   2.0000      -0.541952       -14.7473
  48   2.0000      -0.530153       -14.4262
  49   2.0000      -0.522444       -14.2164
  50   2.0000      -0.502307       -13.6685
  51   2.0000      -0.496240       -13.5034
  52   2.0000      -0.488895       -13.3035
  53   2.0000      -0.469214       -12.7680
  54   2.0000      -0.467041       -12.7088
  55   2.0000      -0.455214       -12.3870
  56   2.0000      -0.452843       -12.3225
  57   2.0000      -0.450031       -12.2460
  58   2.0000      -0.435685       -11.8556
  59   2.0000      -0.430349       -11.7104
  60   2.0000      -0.423998       -11.5376
  61   2.0000      -0.415032       -11.2936
  62   2.0000      -0.407090       -11.0775
  63   2.0000      -0.403683       -10.9848
  64   2.0000      -0.392321       -10.6756
  65   2.0000      -0.382478       -10.4078
  66   2.0000      -0.370366       -10.0782
  67   2.0000      -0.366137        -9.9631
  68   2.0000      -0.361154        -9.8275
  69   2.0000      -0.349813        -9.5189
  70   2.0000      -0.346336        -9.4243
  71   2.0000      -0.344100        -9.3634
  72   2.0000      -0.336496        -9.1565
  73   2.0000      -0.332425        -9.0457
  74   2.0000      -0.325634        -8.8610
  75   2.0000      -0.317553        -8.6411
  76   2.0000      -0.308969        -8.4075
  77   2.0000      -0.305949        -8.3253
  78   2.0000      -0.292088        -7.9481
  79   2.0000      -0.286153        -7.7866
  80   2.0000      -0.281976        -7.6729
  81   2.0000      -0.277077        -7.5397
  82   2.0000      -0.265680        -7.2295
  83   2.0000      -0.261562        -7.1175
  84   2.0000      -0.246858        -6.7173
  85   2.0000      -0.226565        -6.1651
  86   2.0000      -0.223253        -6.0750
  87   0.0000      -0.052448        -1.4272
  88   0.0000      -0.035898        -0.9768
  89   0.0000      -0.029561        -0.8044
  90   0.0000      -0.002193        -0.0597
  91   0.0000       0.017580         0.4784

MULLIKEN ATOMIC CHARGES
-----------------------
   0 C :   -0.493370
   1 C :   -0.141830
   2 O :   -0.178721
   3 C :    0.426694
   4 O :   -0.469788
   5 C :   -0.387904
   6 C :   -0.057669
   7 H :    0.272183
   8 C :    0.225871
   9 O :   -0.453762
  10 O :   -0.128255
  11 C :   -0.165870
  12 C :   -0.506423
  13 S :   -0.187827
  14 P :    0.768920
  15 S :   -0.483610
  16 O :   -0.378777
  17 C :   -0.303157
  18 O :   -0.331378
  19 C :   -0.295678
  20 H :    0.172306
  21 H :    0.169539
  22 H :    0.167247
  23 H :    0.177462
  24 H :    0.175287
  25 H :    0.228461
  26 H :    0.214321
  27 H :    0.180510
  28 H :    0.185645
  29 H :    0.170960
  30 H :    0.169214
  31 H :    0.169579
  32 H :    0.175898
  33 H :    0.179489
  34 H :    0.181966
  35 H :    0.182366
  36 H :    0.182612
  37 H :    0.187491
Sum of atomic charges:   -0.0000000

LOEWDIN ATOMIC CHARGES
----------------------
   0 C :   -0.390462
   1 C :    0.037847
   2 O :   -0.573988
   3 C :    0.390873
   4 O :   -0.470170
   5 C :   -0.200340
   6 C :   -0.185365
   7 H :    0.210141
   8 C :    0.330156
   9 O :   -0.492560
  10 O :   -0.597536
  11 C :    0.032614
  12 C :   -0.388764
  13 S :    0.201648
  14 P :    0.380621
  15 S :   -0.119526
  16 O :   -0.690658
  17 C :   -0.049893
  18 O :   -0.667046
  19 C :   -0.040717
  20 H :    0.168996
  21 H :    0.163259
  22 H :    0.162667
  23 H :    0.191126
  24 H :    0.191336
  25 H :    0.211080
  26 H :    0.205035
  27 H :    0.189661
  28 H :    0.196306
  29 H :    0.167536
  30 H :    0.165971
  31 H :    0.162724
  32 H :    0.176765
  33 H :    0.179023
  34 H :    0.190282
  35 H :    0.183030
  36 H :    0.191156
  37 H :    0.187171

  Mayer bond orders larger than 0.100000
B(  0-C ,  1-C ) :   0.9381 B(  0-C , 20-H ) :   0.9587 B(  0-C , 21-H ) :   0.9687
B(  0-C , 22-H ) :   0.9692 B(  1-C ,  2-O ) :   0.7807 B(  1-C , 23-H ) :   0.9516
B(  1-C , 24-H ) :   0.9623 B(  2-O ,  3-C ) :   1.1551 B(  3-C ,  4-O ) :   1.7136
B(  3-C ,  5-C ) :   1.0150 B(  4-O ,  8-C ) :   0.1108 B(  5-C ,  6-C ) :   0.9263
B(  5-C , 25-H ) :   0.9394 B(  5-C , 26-H ) :   0.9154 B(  6-C ,  7-H ) :   0.9642
B(  6-C ,  8-C ) :   0.8078 B(  6-C , 13-S ) :   0.8392 B(  8-C ,  9-O ) :   1.8243
B(  8-C , 10-O ) :   1.1060 B( 10-O , 11-C ) :   0.7638 B( 11-C , 12-C ) :   0.9240
B( 11-C , 27-H ) :   0.9441 B( 11-C , 28-H ) :   0.9662 B( 12-C , 29-H ) :   0.9619
B( 12-C , 30-H ) :   0.9699 B( 12-C , 31-H ) :   0.9723 B( 13-S , 14-P ) :   1.0047
B( 14-P , 15-S ) :   1.8438 B( 14-P , 16-O ) :   1.0598 B( 14-P , 18-O ) :   1.1088
B( 16-O , 17-C ) :   0.8180 B( 17-C , 32-H ) :   0.9494 B( 17-C , 33-H ) :   0.9545
B( 17-C , 34-H ) :   0.9563 B( 18-O , 19-C ) :   0.7847 B( 19-C , 35-H ) :   0.9546
B( 19-C , 36-H ) :   0.9553 B( 19-C , 37-H ) :   0.9459

Dispersion correction           -0.017352317
FINAL SINGLE POINT ENERGY     -1981.469157236069

DIPOLE MOMENT
-------------

Method             : SCF
Type of density    : Electron Density
Multiplicity       :   1
Irrep              :   0
Energy             : -1981.4888739381597134 Eh
Relativity type    :
Basis              : AO
                                X                 Y                 Z
Electronic contribution:    -17.231784980       5.336311969      -6.308698236
Nuclear contribution   :     17.528801035      -6.963787783       5.558486712
                        -----------------------------------------
Total Dipole Moment    :      0.297016055      -1.627475814      -0.750211524
                        -----------------------------------------
Magnitude (a.u.)       :      1.816511325
Magnitude (Debye)      :      4.617204852

Rotational constants in cm-1:             0.016938             0.005742             0.005119
Rotational constants in MHz :           507.785064           172.148171           153.463883

                             ****ORCA TERMINATED NORMALLY****
TOTAL RUN TIME: 0 days 0 hours 1 minutes 44 seconds 544 msec
