                         Program Version 6.0.0  -   RELEASE  -
|  1> ! wb97x-v def2-tzvp def2/J RIJCOSX DEFGRID2 scfconv7 GCP(DFT/TZ) printgap
|  2> %output
|  3>     printlevel normal
|  4> end
|  5> * xyz 0 1
|  6> C 0.6709560954148037 1.6783959676013227 -0.023980790809732238
|  7> C 1.3989712876894431 0.36554521132271117 -0.2702375657663449
|  8> H 1.6015329655172508 0.25263406669955785 -1.3462771438148988
|  9> C 0.525904655405987 -0.7911604728215494 0.18810477022040978
| 10> H 0.38624906444893664 -0.7246365847762415 1.2783057292290945
| 11> C -0.8308710702226143 -0.7105755226932625 -0.5110420597516746
| 12> H -0.6787502800780769 -0.8395086895314152 -1.5880969379816532
| 13> C -1.4803456521344363 0.6584195486527323 -0.2951965312617831
| 14> H -2.3630715335622825 0.7714398480494008 -0.934261962335933
| 15> O -0.5954031596088389 1.6959453540362461 -0.7075002133600214
| 16> O -1.835186352481596 0.7607047166790943 1.0707263857567992
| 17> O -1.6976850924928986 -1.7717451812320502 -0.10485612232501887
| 18> O 1.2031277381516987 -2.0099988191408773 -0.1448128606706438
| 19> O 2.6288620584703635 0.43140865199013906 0.461130039351825
| 20> H 1.2443148964140123 2.514871925324714 -0.42910617279386615
| 21> H 0.5310162676027701 1.8327275950584405 1.054072255199047
| 22> H -2.4842427117330153 1.472074550728388 1.1573960324376271
| 23> H -1.9201674171169396 -1.6197154558957472 0.8255482099557633
| 24> H 0.6658144056728016 -2.7383900316551046 0.19546278839160444
| 25> H 3.108150536562705 -0.3908984721942052 0.29291799588219897
| 26> *
| 27>
| 28>                          ****END OF INPUT****

CARTESIAN COORDINATES (ANGSTROEM)
---------------------------------
  C      0.670956    1.678396   -0.023981
  C      1.398971    0.365545   -0.270238
  H      1.601533    0.252634   -1.346277
  C      0.525905   -0.791160    0.188105
  H      0.386249   -0.724637    1.278306
  C     -0.830871   -0.710576   -0.511042
  H     -0.678750   -0.839509   -1.588097
  C     -1.480346    0.658420   -0.295197
  H     -2.363072    0.771440   -0.934262
  O     -0.595403    1.695945   -0.707500
  O     -1.835186    0.760705    1.070726
  O     -1.697685   -1.771745   -0.104856
  O      1.203128   -2.009999   -0.144813
  O      2.628862    0.431409    0.461130
  H      1.244315    2.514872   -0.429106
  H      0.531016    1.832728    1.054072
  H     -2.484243    1.472075    1.157396
  H     -1.920167   -1.619715    0.825548
  H      0.665814   -2.738390    0.195463
  H      3.108151   -0.390898    0.292918

 Total Charge           Charge          ....    0
 Multiplicity           Mult            ....    1
 Number of Electrons    NEL             ....   80
 Basis Dimension        Dim             ....  370

ORBITAL ENERGIES
----------------

  NO   OCC          E(Eh)            E(eV)
   0   2.0000     -21.702816      -590.5637
   1   2.0000     -21.691424      -590.2537
   2   2.0000     -21.686711      -590.1254
   3   2.0000     -21.681932      -589.9954
   4   2.0000     -21.675617      -589.8235
   5   2.0000     -12.160461      -330.9030
   6   2.0000     -12.109377      -329.5129
   7   2.0000     -12.105377      -329.4041
   8   2.0000     -12.103986      -329.3662
   9   2.0000     -12.097739      -329.1962
  10   2.0000      -1.727261       -47.0012
  11   2.0000      -1.691238       -46.0209
  12   2.0000      -1.685609       -45.8677
  13   2.0000      -1.681523       -45.7566
  14   2.0000      -1.674718       -45.5714
  15   2.0000      -1.333384       -36.2832
  16   2.0000      -1.308346       -35.6019
  17   2.0000      -1.200749       -32.6740
  18   2.0000      -1.192864       -32.4595
  19   2.0000      -1.137758       -30.9600
  20   2.0000      -1.077985       -29.3335
  21   2.0000      -1.065734       -29.0001
  22   2.0000      -1.046137       -28.4668
  23   2.0000      -1.037238       -28.2247
  24   2.0000      -1.021171       -27.7875
  25   2.0000      -0.990982       -26.9660
  26   2.0000      -0.986391       -26.8411
  27   2.0000      -0.981123       -26.6977
  28   2.0000      -0.967047       -26.3147
  29   2.0000      -0.959927       -26.1209
  30   2.0000      -0.932236       -25.3674
  31   2.0000      -0.926754       -25.2182
  32   2.0000      -0.921287       -25.0695
  33   2.0000      -0.897228       -24.4148
  34   2.0000      -0.884074       -24.0569
  35   2.0000      -0.848568       -23.0907
  36   2.0000      -0.833946       -22.6928
  37   2.0000      -0.825940       -22.4750
  38   2.0000      -0.800194       -21.7744
  39   2.0000      -0.776019       -21.1166
  40   0.0000      -0.237512        -6.4630
  41   0.0000      -0.173236        -4.7140
  42   0.0000      -0.171025        -4.6538
  43   0.0000      -0.155248        -4.2245
  44   0.0000      -0.120917        -3.2903

MULLIKEN ATOMIC CHARGES
-----------------------
   0 C :   -0.016016
   1 C :    0.051319
   2 H :    0.080736
   3 C :    0.037114
   4 H :    0.092273
   5 C :    0.051691
   6 H :    0.100025
   7 C :    0.096782
   8 H :    0.104536
   9 O :   -0.289352
  10 O :   -0.440126
  11 O :   -0.452695
  12 O :   -0.455216
  13 O :   -0.445088
  14 H :    0.123934
  15 H :    0.100191
  16 H :    0.317302
  17 H :    0.311843
  18 H :    0.314390
  19 H :    0.316357
Sum of atomic charges:    0.0000000

LOEWDIN ATOMIC CHARGES
----------------------
   0 C :   -0.266468
   1 C :   -0.326377
   2 H :    0.140670
   3 C :   -0.320173
   4 H :    0.142415
   5 C :   -0.312491
   6 H :    0.155096
   7 C :   -0.411747
   8 H :    0.132012
   9 O :    0.162446
  10 O :   -0.005621
  11 O :   -0.016281
  12 O :   -0.021711
  13 O :   -0.015907
  14 H :    0.132287
  15 H :    0.127262
  16 H :    0.180070
  17 H :    0.173634
  18 H :    0.174680
  19 H :    0.176205

  Mayer bond orders larger than 0.100000
B(  0-C ,  1-C ) :   0.9582 B(  0-C ,  9-O ) :   0.9697 B(  0-C , 14-H ) :   0.9683
B(  0-C , 15-H ) :   0.9691 B(  1-C ,  2-H ) :   0.9746 B(  1-C ,  3-C ) :   0.9660
B(  1-C , 13-O ) :   1.0937 B(  3-C ,  4-H ) :   0.9532 B(  3-C ,  5-C ) :   0.9857
B(  3-C , 12-O ) :   1.0561 B(  5-C ,  6-H ) :   0.9452 B(  5-C ,  7-C ) :   0.9660
B(  5-C , 11-O ) :   1.0097 B(  7-C ,  8-H ) :   0.9561 B(  7-C ,  9-O ) :   1.0651
B(  7-C , 10-O ) :   1.1773 B( 10-O , 16-H ) :   0.8908 B( 11-O , 17-H ) :   0.8824
B( 12-O , 18-H ) :   0.8870 B( 13-O , 19-H ) :   0.8889

FINAL SINGLE POINT ENERGY      -572.709385779265

DIPOLE MOMENT
-------------

Method             : SCF
Type of density    : Electron Density
Multiplicity       :   1
Irrep              :   0
Energy             :  -572.7249537398653274 Eh
Relativity type    :
Basis              : AO
                                X                 Y                 Z
Electronic contribution:     -0.823011597      -0.374847081      -0.225519924
Nuclear contribution   :      0.158328503       0.443168100       0.562150449
                        -----------------------------------------
Total Dipole Moment    :     -0.664683094       0.068321019       0.336630525
                        -----------------------------------------
Magnitude (a.u.)       :      0.748192146
Magnitude (Debye)      :      1.901753301

Rotational constants in cm-1:             0.056640             0.044002             0.028639
Rotational constants in MHz :          1698.012050          1319.131891           858.581745

                             ****ORCA TERMINATED NORMALLY****
TOTAL RUN TIME: 0 days 0 hours 4 minutes 5 seconds 472 msec
