                         Program Version 6.0.0  -   RELEASE  -
|  1> ! wb97x-v def2-tzvp def2/J RIJCOSX DEFGRID2 scfconv7 GCP(DFT/TZ) printgap
|  2> %output
|  3>     printlevel normal
|  4> end
|  5> %cpcm
|  6>     smd true
|  7>     smdsolvent "water"
|  8> end
|  9> * xyz 0 1
| 10> C 0.6709560954148037 1.6783959676013227 -0.023980790809732238
| 11> C 1.3989712876894431 0.36554521132271117 -0.2702375657663449
| 12> H 1.6015329655172508 0.25263406669955785 -1.3462771438148988
| 13> C 0.525904655405987 -0.7911604728215494 0.18810477022040978
| 14> H 0.38624906444893664 -0.7246365847762415 1.2783057292290945
| 15> C -0.8308710702226143 -0.7105755226932625 -0.5110420597516746
| 16> H -0.6787502800780769 -0.8395086895314152 -1.5880969379816532
| 17> C -1.4803456521344363 0.6584195486527323 -0.2951965312617831
| 18> H -2.3630715335622825 0.7714398480494008 -0.934261962335933
| 19> O -0.5954031596088389 1.6959453540362461 -0.7075002133600214
| 20> O -1.835186352481596 0.7607047166790943 1.0707263857567992
| 21> O -1.6976850924928986 -1.7717451812320502 -0.10485612232501887
| 22> O 1.2031277381516987 -2.0099988191408773 -0.1448128606706438
| 23> O 2.6288620584703635 0.43140865199013906 0.461130039351825
| 24> H 1.2443148964140123 2.514871925324714 -0.42910617279386615
| 25> H 0.5310162676027701 1.8327275950584405 1.054072255199047
| 26> H -2.4842427117330153 1.472074550728388 1.1573960324376271
| 27> H -1.9201674171169396 -1.6197154558957472 0.8255482099557633
| 28> H 0.6658144056728016 -2.7383900316551046 0.19546278839160444
| 29> H 3.108150536562705 -0.3908984721942052 0.29291799588219897
| 30> *
| 31>
| 32>                          ****END OF INPUT****

CARTESIAN COORDINATES (ANGSTROEM)
---------------------------------
  C      0.670956    1.678396   -0.023981
  C      1.398971    0.365545   -0.270238
  H      1.601533    0.252634   -1.346277
  C      0.525905   -0.791160    0.188105
  H      0.386249   -0.724637    1.278306
  C     -0.830871   -0.710576   -0.511042
  H     -0.678750   -0.839509   -1.588097
  C     -1.480346    0.658420   -0.295197
  H     -2.363072    0.771440   -0.934262
  O     -0.595403    1.695945   -0.707500
  O     -1.835186    0.760705    1.070726
  O     -1.697685   -1.771745   -0.104856
  O      1.203128   -2.009999   -0.144813
  O      2.628862    0.431409    0.461130
  H      1.244315    2.514872   -0.429106
  H      0.531016    1.832728    1.054072
  H     -2.484243    1.472075    1.157396
  H     -1.920167   -1.619715    0.825548
  H      0.665814   -2.738390    0.195463
  H      3.108151   -0.390898    0.292918

 Total Charge           Charge          ....    0
 Multiplicity           Mult            ....    1
 Number of Electrons    NEL             ....   80
 Basis Dimension        Dim             ....  370

ORBITAL ENERGIES
----------------

  NO   OCC          E(Eh)            E(eV)
   0   2.0000     -21.691955      -590.2681
   1   2.0000     -21.689000      -590.1877
   2   2.0000     -21.683451      -590.0367
   3   2.0000     -21.680739      -589.9629
   4   2.0000     -21.680247      -589.9495
   5   2.0000     -12.150486      -330.6315
   6   2.0000     -12.101967      -329.3113
   7   2.0000     -12.100764      -329.2785
   8   2.0000     -12.098483      -329.2165
   9   2.0000     -12.093141      -329.0711
  10   2.0000      -1.719587       -46.7923
  11   2.0000      -1.688806       -45.9547
  12   2.0000      -1.684983       -45.8507
  13   2.0000      -1.677081       -45.6357
  14   2.0000      -1.676669       -45.6245
  15   2.0000      -1.328502       -36.1504
  16   2.0000      -1.302981       -35.4559
  17   2.0000      -1.195004       -32.5177
  18   2.0000      -1.189718       -32.3739
  19   2.0000      -1.132632       -30.8205
  20   2.0000      -1.074076       -29.2271
  21   2.0000      -1.060957       -28.8701
  22   2.0000      -1.044970       -28.4351
  23   2.0000      -1.034859       -28.1599
  24   2.0000      -1.015212       -27.6253
  25   2.0000      -0.986465       -26.8431
  26   2.0000      -0.985082       -26.8055
  27   2.0000      -0.981687       -26.7130
  28   2.0000      -0.969620       -26.3847
  29   2.0000      -0.959611       -26.1123
  30   2.0000      -0.930229       -25.3128
  31   2.0000      -0.926235       -25.2041
  32   2.0000      -0.919527       -25.0216
  33   2.0000      -0.896600       -24.3977
  34   2.0000      -0.876094       -23.8397
  35   2.0000      -0.845856       -23.0169
  36   2.0000      -0.828249       -22.5378
  37   2.0000      -0.822523       -22.3820
  38   2.0000      -0.794433       -21.6176
  39   2.0000      -0.770905       -20.9774
  40   0.0000      -0.233681        -6.3588
  41   0.0000      -0.169647        -4.6163
  42   0.0000      -0.161515        -4.3950
  43   0.0000      -0.149542        -4.0692
  44   0.0000      -0.115025        -3.1300

MULLIKEN ATOMIC CHARGES
-----------------------
   0 C :   -0.044142
   1 C :    0.073642
   2 H :    0.102330
   3 C :    0.044270
   4 H :    0.113302
   5 C :    0.082543
   6 H :    0.124567
   7 C :    0.114585
   8 H :    0.136336
   9 O :   -0.356147
  10 O :   -0.507148
  11 O :   -0.532432
  12 O :   -0.535946
  13 O :   -0.533943
  14 H :    0.149925
  15 H :    0.116702
  16 H :    0.371078
  17 H :    0.358154
  18 H :    0.360420
  19 H :    0.361906
Sum of atomic charges:    0.0000000

LOEWDIN ATOMIC CHARGES
----------------------
   0 C :   -0.270550
   1 C :   -0.323759
   2 H :    0.147976
   3 C :   -0.313278
   4 H :    0.149700
   5 C :   -0.310369
   6 H :    0.160356
   7 C :   -0.402387
   8 H :    0.142586
   9 O :    0.138595
  10 O :   -0.019695
  11 O :   -0.043821
  12 O :   -0.048539
  13 O :   -0.047948
  14 H :    0.137325
  15 H :    0.130018
  16 H :    0.200716
  17 H :    0.190960
  18 H :    0.190735
  19 H :    0.191379

  Mayer bond orders larger than 0.100000
B(  0-C ,  1-C ) :   0.9595 B(  0-C ,  9-O ) :   0.9504 B(  0-C , 14-H ) :   0.9624
B(  0-C , 15-H ) :   0.9682 B(  1-C ,  2-H ) :   0.9710 B(  1-C ,  3-C ) :   0.9722
B(  1-C , 13-O ) :   1.0479 B(  3-C ,  4-H ) :   0.9593 B(  3-C ,  5-C ) :   0.9853
B(  3-C , 12-O ) :   1.0254 B(  5-C ,  6-H ) :   0.9400 B(  5-C ,  7-C ) :   0.9692
B(  5-C , 11-O ) :   0.9942 B(  7-C ,  8-H ) :   0.9597 B(  7-C ,  9-O ) :   1.0228
B(  7-C , 10-O ) :   1.1599 B( 10-O , 16-H ) :   0.8550 B( 11-O , 17-H ) :   0.8549
B( 12-O , 18-H ) :   0.8593 B( 13-O , 19-H ) :   0.8604

FINAL SINGLE POINT ENERGY      -572.737719128507

DIPOLE MOMENT
-------------

Method             : SCF
Type of density    : Electron Density
Multiplicity       :   1
Irrep              :   0
Energy             :  -572.7532870891072889 Eh
Relativity type    :
Basis              : AO
                                X                 Y                 Z
Electronic contribution:     -1.065071044      -0.387589077      -0.133111182
Nuclear contribution   :      0.158328503       0.443168100       0.562150449
                        -----------------------------------------
Total Dipole Moment    :     -0.906742541       0.055579023       0.429039267
                        -----------------------------------------
Magnitude (a.u.)       :      1.004662011
Magnitude (Debye)      :      2.553647891

Rotational constants in cm-1:             0.056640             0.044002             0.028639
Rotational constants in MHz :          1698.012050          1319.131891           858.581745

                             ****ORCA TERMINATED NORMALLY****
TOTAL RUN TIME: 0 days 0 hours 4 minutes 12 seconds 511 msec
