                         Program Version 6.0.0  -   RELEASE  -
|  1> ! pbe def2-sv(p) def2/J RI DEFGRID1 loosescf d4 GCP(DFT/SV(P)) printgap
|  2> %output
|  3>     printlevel normal
|  4> end
|  5> * xyz 0 1
|  6> C 2.9789113533 2.6089808862 -0.7444299578
|  7> C 3.7967456882 1.3365933083 -0.8054293354
|  8> O 3.5313986524 0.4483944639 0.2950046086
|  9> P 2.0858232619 -0.0030050822 0.7819545005
| 10> S 1.1428187517 1.2481843274 1.9517203782
| 11> O 2.3773240883 -1.3419586918 1.5589398763
| 12> C 3.269857013 -2.3832997007 1.0846828846
| 13> C 4.6369398109 -2.2366879732 1.7211196581
| 14> S 1.1917951512 -0.6140877102 -1.0786226747
| 15> C 0.0359481768 -1.8681077341 -0.4643776021
| 16> S -1.1457571549 -1.2566531316 0.7706737218
| 17> P -2.1450616029 0.0921909311 -0.5055491674
| 18> S -2.3802571233 -0.4561149616 -2.3756282732
| 19> O -1.2709277675 1.3866751696 -0.258723177
| 20> C -1.2666981986 2.5134871614 -1.1581774782
| 21> C -2.6218990582 3.1823567968 -1.2411962211
| 22> O -3.4869969021 0.4402872109 0.2692177955
| 23> C -4.7046670537 -0.2991302903 0.0697923212
| 24> C -4.6122650643 -1.7098144565 0.6147845757
| 25> H 3.2609914827 3.2620611527 -1.5638899507
| 26> H 1.9189472896 2.3694345927 -0.8285489071
| 27> H 3.1405065454 3.1204601189 0.2016475855
| 28> H 4.8648737709 1.5438185391 -0.7198836936
| 29> H 3.5947913261 0.7948999348 -1.7342059352
| 30> H 2.7920089005 -3.3160590559 1.3911352363
| 31> H 3.3357584225 -2.3339220832 -0.0053961481
| 32> H 5.0916420267 -1.2957679268 1.4233161372
| 33> H 4.5455844502 -2.2521152097 2.8036359448
| 34> H 5.2685052301 -3.0597795187 1.4015835131
| 35> H 0.5776094209 -2.6836437476 0.0071591109
| 36> H -0.506452335 -2.2128350261 -1.3458404588
| 37> H -0.5146441149 3.1787713859 -0.7298912667
| 38> H -0.942877144 2.1635286585 -2.1442128713
| 39> H -2.9708835928 3.4433894139 -0.2452521916
| 40> H -2.5422386426 4.0805192974 -1.8455547437
| 41> H -3.3415408115 2.5066541269 -1.7026808989
| 42> H -5.457102218 0.2890148286 0.5967554707
| 43> H -4.9261163796 -0.3159352105 -1.0023691899
| 44> H -3.8977556265 -2.2888347725 0.0308693848
| 45> H -4.2843395874 -1.6933422433 1.6514276083
| 46> H -5.5863556957 -2.1840835907 0.5513268357
| 47> *
| 48>
| 49>                          ****END OF INPUT****

CARTESIAN COORDINATES (ANGSTROEM)
---------------------------------
  C      2.978911    2.608981   -0.744430
  C      3.796746    1.336593   -0.805429
  O      3.531399    0.448394    0.295005
  P      2.085823   -0.003005    0.781955
  S      1.142819    1.248184    1.951720
  O      2.377324   -1.341959    1.558940
  C      3.269857   -2.383300    1.084683
  C      4.636940   -2.236688    1.721120
  S      1.191795   -0.614088   -1.078623
  C      0.035948   -1.868108   -0.464378
  S     -1.145757   -1.256653    0.770674
  P     -2.145062    0.092191   -0.505549
  S     -2.380257   -0.456115   -2.375628
  O     -1.270928    1.386675   -0.258723
  C     -1.266698    2.513487   -1.158177
  C     -2.621899    3.182357   -1.241196
  O     -3.486997    0.440287    0.269218
  C     -4.704667   -0.299130    0.069792
  C     -4.612265   -1.709814    0.614785
  H      3.260991    3.262061   -1.563890
  H      1.918947    2.369435   -0.828549
  H      3.140507    3.120460    0.201648
  H      4.864874    1.543819   -0.719884
  H      3.594791    0.794900   -1.734206
  H      2.792009   -3.316059    1.391135
  H      3.335758   -2.333922   -0.005396
  H      5.091642   -1.295768    1.423316
  H      4.545584   -2.252115    2.803636
  H      5.268505   -3.059780    1.401584
  H      0.577609   -2.683644    0.007159
  H     -0.506452   -2.212835   -1.345840
  H     -0.514644    3.178771   -0.729891
  H     -0.942877    2.163529   -2.144213
  H     -2.970884    3.443389   -0.245252
  H     -2.542239    4.080519   -1.845555
  H     -3.341541    2.506654   -1.702681
  H     -5.457102    0.289015    0.596755
  H     -4.926116   -0.315935   -1.002369
  H     -3.897756   -2.288835    0.030869
  H     -4.284340   -1.693342    1.651428
  H     -5.586356   -2.184084    0.551327

 Total Charge           Charge          ....    0
 Multiplicity           Mult            ....    1
 Number of Electrons    NEL             ....  202
 Basis Dimension        Dim             ....  334

ORBITAL ENERGIES
----------------

  NO   OCC          E(Eh)            E(eV)
   0   2.0000     -88.040306     -2395.6985
   1   2.0000     -88.039201     -2395.6685
   2   2.0000     -87.986947     -2394.2466
   3   2.0000     -87.971864     -2393.8361
   4   2.0000     -76.423665     -2079.5936
   5   2.0000     -76.422315     -2079.5569
   6   2.0000     -18.792234      -511.3627
   7   2.0000     -18.791682      -511.3477
   8   2.0000     -18.791543      -511.3439
   9   2.0000     -18.782063      -511.0859
  10   2.0000      -9.960208      -271.0310
  11   2.0000      -9.959195      -271.0035
  12   2.0000      -9.959055      -270.9997
  13   2.0000      -9.951191      -270.7857
  14   2.0000      -9.945418      -270.6286
  15   2.0000      -9.887749      -269.0593
  16   2.0000      -9.885757      -269.0051
  17   2.0000      -9.882832      -268.9255
  18   2.0000      -9.879235      -268.8276
  19   2.0000      -7.684738      -209.1123
  20   2.0000      -7.684412      -209.1035
  21   2.0000      -7.631917      -207.6750
  22   2.0000      -7.617248      -207.2759
  23   2.0000      -6.421156      -174.7285
  24   2.0000      -6.419287      -174.6777
  25   2.0000      -5.712555      -155.4465
  26   2.0000      -5.712317      -155.4400
  27   2.0000      -5.709248      -155.3565
  28   2.0000      -5.709086      -155.3521
  29   2.0000      -5.701895      -155.1564
  30   2.0000      -5.701101      -155.1348
  31   2.0000      -5.660590      -154.0325
  32   2.0000      -5.652722      -153.8184
  33   2.0000      -5.652158      -153.8030
  34   2.0000      -5.646481      -153.6485
  35   2.0000      -5.637667      -153.4087
  36   2.0000      -5.637271      -153.3979
  37   2.0000      -4.643549      -126.3574
  38   2.0000      -4.642843      -126.3382
  39   2.0000      -4.642545      -126.3301
  40   2.0000      -4.641876      -126.3119
  41   2.0000      -4.641389      -126.2986
  42   2.0000      -4.638853      -126.2296
  43   2.0000      -0.987907       -26.8823
  44   2.0000      -0.983027       -26.7495
  45   2.0000      -0.945614       -25.7315
  46   2.0000      -0.941590       -25.6220
  47   2.0000      -0.762341       -20.7444
  48   2.0000      -0.719117       -19.5682
  49   2.0000      -0.708274       -19.2731
  50   2.0000      -0.693400       -18.8684
  51   2.0000      -0.684394       -18.6233
  52   2.0000      -0.671555       -18.2739
  53   2.0000      -0.649090       -17.6626
  54   2.0000      -0.637494       -17.3471
  55   2.0000      -0.598539       -16.2871
  56   2.0000      -0.585556       -15.9338
  57   2.0000      -0.577441       -15.7130
  58   2.0000      -0.569510       -15.4972
  59   2.0000      -0.563959       -15.3461
  60   2.0000      -0.506336       -13.7781
  61   2.0000      -0.489004       -13.3065
  62   2.0000      -0.474578       -12.9139
  63   2.0000      -0.470173       -12.7940
  64   2.0000      -0.459098       -12.4927
  65   2.0000      -0.444385       -12.0923
  66   2.0000      -0.438878       -11.9425
  67   2.0000      -0.437147       -11.8954
  68   2.0000      -0.429644       -11.6912
  69   2.0000      -0.413945       -11.2640
  70   2.0000      -0.410924       -11.1818
  71   2.0000      -0.395937       -10.7740
  72   2.0000      -0.390661       -10.6304
  73   2.0000      -0.389301       -10.5934
  74   2.0000      -0.383246       -10.4287
  75   2.0000      -0.376219       -10.2375
  76   2.0000      -0.362595        -9.8667
  77   2.0000      -0.356192        -9.6925
  78   2.0000      -0.353327        -9.6145
  79   2.0000      -0.350566        -9.5394
  80   2.0000      -0.347817        -9.4646
  81   2.0000      -0.344608        -9.3772
  82   2.0000      -0.340601        -9.2682
  83   2.0000      -0.338211        -9.2032
  84   2.0000      -0.332417        -9.0455
  85   2.0000      -0.321398        -8.7457
  86   2.0000      -0.311283        -8.4704
  87   2.0000      -0.296966        -8.0809
  88   2.0000      -0.293443        -7.9850
  89   2.0000      -0.291916        -7.9435
  90   2.0000      -0.279099        -7.5947
  91   2.0000      -0.278087        -7.5671
  92   2.0000      -0.270397        -7.3579
  93   2.0000      -0.262227        -7.1356
  94   2.0000      -0.254832        -6.9343
  95   2.0000      -0.234794        -6.3891
  96   2.0000      -0.215690        -5.8692
  97   2.0000      -0.207514        -5.6467
  98   2.0000      -0.204028        -5.5519
  99   2.0000      -0.188039        -5.1168
 100   2.0000      -0.180779        -4.9192
 101   0.0000      -0.046334        -1.2608
 102   0.0000      -0.019837        -0.5398
 103   0.0000      -0.016355        -0.4450
 104   0.0000       0.004485         0.1220
 105   0.0000       0.020656         0.5621

MULLIKEN ATOMIC CHARGES
-----------------------
   0 C :   -0.338880
   1 C :   -0.006775
   2 O :   -0.382697
   3 P :    0.588221
   4 S :   -0.285270
   5 O :   -0.359885
   6 C :   -0.030675
   7 C :   -0.278643
   8 S :   -0.122657
   9 C :   -0.352074
  10 S :   -0.058782
  11 P :    0.618513
  12 S :   -0.347344
  13 O :   -0.345038
  14 C :   -0.019977
  15 C :   -0.297547
  16 O :   -0.368889
  17 C :   -0.004617
  18 C :   -0.314782
  19 H :    0.111454
  20 H :    0.150392
  21 H :    0.130535
  22 H :    0.110018
  23 H :    0.112727
  24 H :    0.110523
  25 H :    0.100633
  26 H :    0.124134
  27 H :    0.121987
  28 H :    0.107953
  29 H :    0.185913
  30 H :    0.191487
  31 H :    0.119669
  32 H :    0.107792
  33 H :    0.120000
  34 H :    0.108885
  35 H :    0.119597
  36 H :    0.106494
  37 H :    0.110352
  38 H :    0.123756
  39 H :    0.120997
  40 H :    0.112501
Sum of atomic charges:   -0.0000000

LOEWDIN ATOMIC CHARGES
----------------------
   0 C :   -0.372593
   1 C :   -0.115523
   2 O :   -0.249332
   3 P :    0.560786
   4 S :   -0.296655
   5 O :   -0.237567
   6 C :   -0.118690
   7 C :   -0.356732
   8 S :    0.055638
   9 C :   -0.477601
  10 S :    0.107897
  11 P :    0.575924
  12 S :   -0.332914
  13 O :   -0.227014
  14 C :   -0.117133
  15 C :   -0.365777
  16 O :   -0.240638
  17 C :   -0.119149
  18 C :   -0.369509
  19 H :    0.129913
  20 H :    0.122623
  21 H :    0.131759
  22 H :    0.121499
  23 H :    0.107698
  24 H :    0.117736
  25 H :    0.105230
  26 H :    0.128026
  27 H :    0.130113
  28 H :    0.128933
  29 H :    0.129517
  30 H :    0.130729
  31 H :    0.119715
  32 H :    0.109435
  33 H :    0.128049
  34 H :    0.129285
  35 H :    0.120557
  36 H :    0.119347
  37 H :    0.109887
  38 H :    0.119915
  39 H :    0.125801
  40 H :    0.130816

  Mayer bond orders larger than 0.100000
B(  0-C ,  1-C ) :   1.1675 B(  0-C , 19-H ) :   0.9333 B(  0-C , 20-H ) :   0.9260
B(  0-C , 21-H ) :   0.9402 B(  1-C ,  2-O ) :   0.9187 B(  1-C , 22-H ) :   0.9331
B(  1-C , 23-H ) :   0.9232 B(  2-O ,  3-P ) :   1.0600 B(  3-P ,  4-S ) :   1.7113
B(  3-P ,  5-O ) :   1.1158 B(  3-P ,  8-S ) :   0.9218 B(  4-S ,  8-S ) :   0.1129
B(  5-O ,  6-C ) :   0.8936 B(  6-C ,  7-C ) :   1.1694 B(  6-C , 24-H ) :   0.9301
B(  6-C , 25-H ) :   0.9103 B(  7-C , 26-H ) :   0.9418 B(  7-C , 27-H ) :   0.9469
B(  7-C , 28-H ) :   0.9395 B(  8-S ,  9-C ) :   1.0027 B(  9-C , 10-S ) :   1.0151
B(  9-C , 29-H ) :   0.9000 B(  9-C , 30-H ) :   0.8813 B( 10-S , 11-P ) :   0.9602
B( 10-S , 12-S ) :   0.1101 B( 11-P , 12-S ) :   1.5750 B( 11-P , 13-O ) :   1.1491
B( 11-P , 16-O ) :   1.1108 B( 13-O , 14-C ) :   0.9081 B( 14-C , 15-C ) :   1.1630
B( 14-C , 31-H ) :   0.9221 B( 14-C , 32-H ) :   0.9212 B( 15-C , 33-H ) :   0.9444
B( 15-C , 34-H ) :   0.9387 B( 15-C , 35-H ) :   0.9343 B( 16-O , 17-C ) :   0.9083
B( 17-C , 18-C ) :   1.1665 B( 17-C , 36-H ) :   0.9337 B( 17-C , 37-H ) :   0.9155
B( 18-C , 38-H ) :   0.9354 B( 18-C , 39-H ) :   0.9445 B( 18-C , 40-H ) :   0.9379

Dispersion correction           -0.067202506
FINAL SINGLE POINT ENERGY     -2929.512829164496

DIPOLE MOMENT
-------------

Method             : SCF
Type of density    : Electron Density
Multiplicity       :   1
Irrep              :   0
Energy             : -2929.6305447458803428 Eh
Relativity type    :
Basis              : AO
                                X                 Y                 Z
Electronic contribution:     -2.718238457      -3.310219601       3.206883809
Nuclear contribution   :      3.313864862       2.888922944      -3.771545636
                        -----------------------------------------
Total Dipole Moment    :      0.595626405      -0.421296658      -0.564661827
                        -----------------------------------------
Magnitude (a.u.)       :      0.922553341
Magnitude (Debye)      :      2.344944237

Rotational constants in cm-1:             0.012927             0.005248             0.004589
Rotational constants in MHz :           387.538575           157.334745           137.560537

                             ****ORCA TERMINATED NORMALLY****
TOTAL RUN TIME: 0 days 0 hours 0 minutes 21 seconds 283 msec
