                         Program Version 6.0.0  -   RELEASE  -
|  1> ! r2scan-3c def2/J RI DEFGRID2 scfconv6 printgap
|  2> %output
|  3>     printlevel normal
|  4> end
|  5> * xyz 0 1
|  6> C 0.9347501153 1.413880829 3.1769284992
|  7> C 2.0827371317 1.2192450857 2.2074777644
|  8> O 2.1160211396 -0.1799585325 1.826031985
|  9> P 2.6042925671 -0.6826831606 0.4158425333
| 10> S 2.4882101188 -2.6340742921 0.3461110303
| 11> O 4.0338588242 0.0049580275 0.3164615261
| 12> C 4.7880875624 0.1966328846 -0.8956945001
| 13> C 4.9894089111 -1.0884743145 -1.6706398085
| 14> S 1.468351498 0.3648613651 -1.0560977285
| 15> C 0.056198075 -0.7589909999 -1.036575667
| 16> S -0.9642393052 -0.5906342098 0.4539985822
| 17> P -2.6368198811 0.476205747 -0.3451778398
| 18> S -2.7274898433 0.5530340596 -2.3064818002
| 19> O -2.735309504 1.8535987459 0.4197163945
| 20> C -2.2698004435 3.0913391811 -0.1509701673
| 21> C -0.763950117 3.2243304874 -0.0505235376
| 22> O -3.8613019501 -0.2115436537 0.3835473635
| 23> C -4.2430919657 -1.5633092215 0.0592582706
| 24> C -5.5916925551 -1.827084874 0.6975172934
| 25> H -0.0097049531 1.1576233673 2.7021215865
| 26> H 1.0673698095 0.7702840178 4.0417056229
| 27> H 0.910817804 2.4498470826 3.5002138223
| 28> H 3.0433299957 1.4519318824 2.6703797604
| 29> H 1.9580152593 1.8284199082 1.306862373
| 30> H 4.2672533449 0.9392897442 -1.5063571777
| 31> H 5.737558462 0.6038082079 -0.5438427395
| 32> H 5.632839028 -0.898854457 -2.5237073794
| 33> H 5.4439022923 -1.846742589 -1.0372779635
| 34> H 4.0322893406 -1.4682796236 -2.025647739
| 35> H 0.4303248053 -1.7832666031 -1.0588380988
| 36> H -0.5533529832 -0.5327129205 -1.9147549314
| 37> H -2.5953264401 3.142857641 -1.1951112821
| 38> H -2.780857447 3.8576095637 0.4335568412
| 39> H -0.4669742528 4.2080203914 -0.3996460263
| 40> H -0.444530824 3.0969345307 0.9803017849
| 41> H -0.2786117204 2.4725122952 -0.6723460555
| 42> H -4.2899841371 -1.6633088627 -1.0307645522
| 43> H -3.4787963605 -2.2440161106 0.44714284
| 44> H -5.8978913294 -2.8445603111 0.4777963772
| 45> H -5.5231001379 -1.6943150237 1.7731556861
| 46> H -6.3307423874 -1.1350357107 0.3043390027
| 47> *
| 48>
| 49>                          ****END OF INPUT****

CARTESIAN COORDINATES (ANGSTROEM)
---------------------------------
  C      0.934750    1.413881    3.176928
  C      2.082737    1.219245    2.207478
  O      2.116021   -0.179959    1.826032
  P      2.604293   -0.682683    0.415843
  S      2.488210   -2.634074    0.346111
  O      4.033859    0.004958    0.316462
  C      4.788088    0.196633   -0.895695
  C      4.989409   -1.088474   -1.670640
  S      1.468351    0.364861   -1.056098
  C      0.056198   -0.758991   -1.036576
  S     -0.964239   -0.590634    0.453999
  P     -2.636820    0.476206   -0.345178
  S     -2.727490    0.553034   -2.306482
  O     -2.735310    1.853599    0.419716
  C     -2.269800    3.091339   -0.150970
  C     -0.763950    3.224330   -0.050524
  O     -3.861302   -0.211544    0.383547
  C     -4.243092   -1.563309    0.059258
  C     -5.591693   -1.827085    0.697517
  H     -0.009705    1.157623    2.702122
  H      1.067370    0.770284    4.041706
  H      0.910818    2.449847    3.500214
  H      3.043330    1.451932    2.670380
  H      1.958015    1.828420    1.306862
  H      4.267253    0.939290   -1.506357
  H      5.737558    0.603808   -0.543843
  H      5.632839   -0.898854   -2.523707
  H      5.443902   -1.846743   -1.037278
  H      4.032289   -1.468280   -2.025648
  H      0.430325   -1.783267   -1.058838
  H     -0.553353   -0.532713   -1.914755
  H     -2.595326    3.142858   -1.195111
  H     -2.780857    3.857610    0.433557
  H     -0.466974    4.208020   -0.399646
  H     -0.444531    3.096935    0.980302
  H     -0.278612    2.472512   -0.672346
  H     -4.289984   -1.663309   -1.030765
  H     -3.478796   -2.244016    0.447143
  H     -5.897891   -2.844560    0.477796
  H     -5.523100   -1.694315    1.773156
  H     -6.330742   -1.135036    0.304339

 Total Charge           Charge          ....    0
 Multiplicity           Mult            ....    1
 Number of Electrons    NEL             ....  202
 Basis Dimension        Dim             ....  539

ORBITAL ENERGIES
----------------

  NO   OCC          E(Eh)            E(eV)
   0   2.0000     -88.579309     -2410.3655
   1   2.0000     -88.577702     -2410.3218
   2   2.0000     -88.527824     -2408.9646
   3   2.0000     -88.518284     -2408.7050
   4   2.0000     -76.916786     -2093.0121
   5   2.0000     -76.915381     -2092.9739
   6   2.0000     -18.997312      -516.9431
   7   2.0000     -18.995423      -516.8917
   8   2.0000     -18.993366      -516.8358
   9   2.0000     -18.991722      -516.7910
  10   2.0000     -10.107719      -275.0450
  11   2.0000     -10.102620      -274.9063
  12   2.0000     -10.102482      -274.9025
  13   2.0000     -10.102351      -274.8989
  14   2.0000     -10.098779      -274.8018
  15   2.0000     -10.032985      -273.0114
  16   2.0000     -10.032343      -272.9939
  17   2.0000     -10.031940      -272.9830
  18   2.0000     -10.029702      -272.9221
  19   2.0000      -7.873760      -214.2559
  20   2.0000      -7.871568      -214.1963
  21   2.0000      -7.822568      -212.8629
  22   2.0000      -7.813041      -212.6037
  23   2.0000      -6.595594      -179.4752
  24   2.0000      -6.593785      -179.4260
  25   2.0000      -5.820375      -158.3804
  26   2.0000      -5.818432      -158.3276
  27   2.0000      -5.817508      -158.3024
  28   2.0000      -5.815330      -158.2432
  29   2.0000      -5.811235      -158.1318
  30   2.0000      -5.808880      -158.0677
  31   2.0000      -5.770059      -157.0113
  32   2.0000      -5.762858      -156.8153
  33   2.0000      -5.762721      -156.8116
  34   2.0000      -5.760861      -156.7610
  35   2.0000      -5.753277      -156.5546
  36   2.0000      -5.752929      -156.5452
  37   2.0000      -4.740785      -129.0033
  38   2.0000      -4.740624      -128.9990
  39   2.0000      -4.739583      -128.9706
  40   2.0000      -4.739461      -128.9673
  41   2.0000      -4.739042      -128.9559
  42   2.0000      -4.736943      -128.8988
  43   2.0000      -1.056227       -28.7414
  44   2.0000      -1.053954       -28.6795
  45   2.0000      -1.014078       -27.5945
  46   2.0000      -1.012203       -27.5434
  47   2.0000      -0.801485       -21.8095
  48   2.0000      -0.762719       -20.7546
  49   2.0000      -0.756079       -20.5740
  50   2.0000      -0.736582       -20.0434
  51   2.0000      -0.732625       -19.9357
  52   2.0000      -0.715104       -19.4590
  53   2.0000      -0.687175       -18.6990
  54   2.0000      -0.671410       -18.2700
  55   2.0000      -0.635134       -17.2829
  56   2.0000      -0.622935       -16.9509
  57   2.0000      -0.606879       -16.5140
  58   2.0000      -0.600168       -16.3314
  59   2.0000      -0.595749       -16.2111
  60   2.0000      -0.536439       -14.5973
  61   2.0000      -0.528933       -14.3930
  62   2.0000      -0.496220       -13.5028
  63   2.0000      -0.495275       -13.4771
  64   2.0000      -0.481739       -13.1088
  65   2.0000      -0.465062       -12.6550
  66   2.0000      -0.461167       -12.5490
  67   2.0000      -0.455202       -12.3867
  68   2.0000      -0.450800       -12.2669
  69   2.0000      -0.441541       -12.0150
  70   2.0000      -0.435753       -11.8575
  71   2.0000      -0.417087       -11.3495
  72   2.0000      -0.411278       -11.1914
  73   2.0000      -0.404875       -11.0172
  74   2.0000      -0.401495       -10.9252
  75   2.0000      -0.391687       -10.6583
  76   2.0000      -0.377208       -10.2643
  77   2.0000      -0.372608       -10.1392
  78   2.0000      -0.370075       -10.0703
  79   2.0000      -0.367175        -9.9913
  80   2.0000      -0.364509        -9.9188
  81   2.0000      -0.361312        -9.8318
  82   2.0000      -0.358613        -9.7584
  83   2.0000      -0.356912        -9.7121
  84   2.0000      -0.350909        -9.5487
  85   2.0000      -0.336232        -9.1493
  86   2.0000      -0.327038        -8.8992
  87   2.0000      -0.321373        -8.7450
  88   2.0000      -0.315011        -8.5719
  89   2.0000      -0.313559        -8.5324
  90   2.0000      -0.311139        -8.4665
  91   2.0000      -0.293994        -8.0000
  92   2.0000      -0.287585        -7.8256
  93   2.0000      -0.281260        -7.6535
  94   2.0000      -0.271374        -7.3845
  95   2.0000      -0.248104        -6.7513
  96   2.0000      -0.238688        -6.4950
  97   2.0000      -0.228720        -6.2238
  98   2.0000      -0.223105        -6.0710
  99   2.0000      -0.215884        -5.8745
 100   2.0000      -0.212600        -5.7851
 101   0.0000      -0.047199        -1.2843
 102   0.0000      -0.033562        -0.9133
 103   0.0000      -0.013708        -0.3730
 104   0.0000      -0.000896        -0.0244
 105   0.0000       0.008771         0.2387

MULLIKEN ATOMIC CHARGES
-----------------------
   0 C :   -0.463421
   1 C :   -0.107658
   2 O :   -0.266952
   3 P :    0.646835
   4 S :   -0.424523
   5 O :   -0.292799
   6 C :   -0.161192
   7 C :   -0.425421
   8 S :   -0.179204
   9 C :   -0.252222
  10 S :   -0.119891
  11 P :    0.707101
  12 S :   -0.482887
  13 O :   -0.296342
  14 C :   -0.140142
  15 C :   -0.449345
  16 O :   -0.294246
  17 C :   -0.145426
  18 C :   -0.436118
  19 H :    0.171187
  20 H :    0.158348
  21 H :    0.145997
  22 H :    0.155287
  23 H :    0.152380
  24 H :    0.150836
  25 H :    0.150451
  26 H :    0.146926
  27 H :    0.165605
  28 H :    0.169277
  29 H :    0.217247
  30 H :    0.220182
  31 H :    0.173740
  32 H :    0.150620
  33 H :    0.148829
  34 H :    0.157273
  35 H :    0.170614
  36 H :    0.163582
  37 H :    0.158385
  38 H :    0.146445
  39 H :    0.154062
  40 H :    0.156579
Sum of atomic charges:    0.0000000

LOEWDIN ATOMIC CHARGES
----------------------
   0 C :   -0.396676
   1 C :    0.021795
   2 O :   -0.654416
   3 P :    0.373260
   4 S :   -0.098863
   5 O :   -0.660745
   6 C :    0.024419
   7 C :   -0.405147
   8 S :    0.112976
   9 C :   -0.428622
  10 S :    0.157025
  11 P :    0.383667
  12 S :   -0.134956
  13 O :   -0.647233
  14 C :    0.023980
  15 C :   -0.406132
  16 O :   -0.655462
  17 C :    0.019979
  18 C :   -0.383878
  19 H :    0.165924
  20 H :    0.163475
  21 H :    0.158268
  22 H :    0.175033
  23 H :    0.174257
  24 H :    0.171134
  25 H :    0.181683
  26 H :    0.158707
  27 H :    0.166158
  28 H :    0.167031
  29 H :    0.193602
  30 H :    0.196909
  31 H :    0.180947
  32 H :    0.180478
  33 H :    0.160005
  34 H :    0.161034
  35 H :    0.166060
  36 H :    0.178058
  37 H :    0.174357
  38 H :    0.160131
  39 H :    0.160530
  40 H :    0.161248

  Mayer bond orders larger than 0.100000
B(  0-C ,  1-C ) :   0.9473 B(  0-C , 19-H ) :   0.9645 B(  0-C , 20-H ) :   0.9667
B(  0-C , 21-H ) :   0.9684 B(  1-C ,  2-O ) :   0.7348 B(  1-C , 22-H ) :   0.9483
B(  1-C , 23-H ) :   0.9529 B(  2-O ,  3-P ) :   1.1501 B(  3-P ,  4-S ) :   1.8738
B(  3-P ,  5-O ) :   1.0428 B(  3-P ,  8-S ) :   0.9818 B(  5-O ,  6-C ) :   0.8041
B(  6-C ,  7-C ) :   0.9441 B(  6-C , 24-H ) :   0.9617 B(  6-C , 25-H ) :   0.9583
B(  7-C , 26-H ) :   0.9618 B(  7-C , 27-H ) :   0.9655 B(  7-C , 28-H ) :   0.9539
B(  8-S ,  9-C ) :   0.9187 B(  9-C , 10-S ) :   0.9213 B(  9-C , 29-H ) :   0.9086
B(  9-C , 30-H ) :   0.8860 B( 10-S , 11-P ) :   1.0275 B( 11-P , 12-S ) :   1.7320
B( 11-P , 13-O ) :   1.1519 B( 11-P , 16-O ) :   1.1369 B( 13-O , 14-C ) :   0.7974
B( 14-C , 15-C ) :   0.9334 B( 14-C , 31-H ) :   0.9660 B( 14-C , 32-H ) :   0.9594
B( 15-C , 33-H ) :   0.9617 B( 15-C , 34-H ) :   0.9673 B( 15-C , 35-H ) :   0.9533
B( 16-O , 17-C ) :   0.7837 B( 17-C , 18-C ) :   0.9602 B( 17-C , 36-H ) :   0.9517
B( 17-C , 37-H ) :   0.9417 B( 18-C , 38-H ) :   0.9639 B( 18-C , 39-H ) :   0.9712
B( 18-C , 40-H ) :   0.9719

Dispersion correction           -0.020936151
FINAL SINGLE POINT ENERGY     -2932.462233045506

DIPOLE MOMENT
-------------

Method             : SCF
Type of density    : Electron Density
Multiplicity       :   1
Irrep              :   0
Energy             : -2932.4880664803022228 Eh
Relativity type    :
Basis              : AO
                                X                 Y                 Z
Electronic contribution:      0.400492192      -8.152926988      -4.261943182
Nuclear contribution   :     -0.103590707       9.530914843       4.491543093
                        -----------------------------------------
Total Dipole Moment    :      0.296901485       1.377987855       0.229599911
                        -----------------------------------------
Magnitude (a.u.)       :      1.428186661
Magnitude (Debye)      :      3.630162000

Rotational constants in cm-1:             0.012378             0.004350             0.004152
Rotational constants in MHz :           371.089826           130.420909           124.487383

                             ****ORCA TERMINATED NORMALLY****
TOTAL RUN TIME: 0 days 0 hours 1 minutes 20 seconds 185 msec
