                         Program Version 6.0.0  -   RELEASE  -
|  1> ! r2scan-3c def2/J RI DEFGRID2 scfconv6 printgap
|  2> %output
|  3>     printlevel normal
|  4> end
|  5> %cpcm
|  6>     smd true
|  7>     smdsolvent "water"
|  8> end
|  9> * xyz 0 1
| 10> C 0.9347501153 1.413880829 3.1769284992
| 11> C 2.0827371317 1.2192450857 2.2074777644
| 12> O 2.1160211396 -0.1799585325 1.826031985
| 13> P 2.6042925671 -0.6826831606 0.4158425333
| 14> S 2.4882101188 -2.6340742921 0.3461110303
| 15> O 4.0338588242 0.0049580275 0.3164615261
| 16> C 4.7880875624 0.1966328846 -0.8956945001
| 17> C 4.9894089111 -1.0884743145 -1.6706398085
| 18> S 1.468351498 0.3648613651 -1.0560977285
| 19> C 0.056198075 -0.7589909999 -1.036575667
| 20> S -0.9642393052 -0.5906342098 0.4539985822
| 21> P -2.6368198811 0.476205747 -0.3451778398
| 22> S -2.7274898433 0.5530340596 -2.3064818002
| 23> O -2.735309504 1.8535987459 0.4197163945
| 24> C -2.2698004435 3.0913391811 -0.1509701673
| 25> C -0.763950117 3.2243304874 -0.0505235376
| 26> O -3.8613019501 -0.2115436537 0.3835473635
| 27> C -4.2430919657 -1.5633092215 0.0592582706
| 28> C -5.5916925551 -1.827084874 0.6975172934
| 29> H -0.0097049531 1.1576233673 2.7021215865
| 30> H 1.0673698095 0.7702840178 4.0417056229
| 31> H 0.910817804 2.4498470826 3.5002138223
| 32> H 3.0433299957 1.4519318824 2.6703797604
| 33> H 1.9580152593 1.8284199082 1.306862373
| 34> H 4.2672533449 0.9392897442 -1.5063571777
| 35> H 5.737558462 0.6038082079 -0.5438427395
| 36> H 5.632839028 -0.898854457 -2.5237073794
| 37> H 5.4439022923 -1.846742589 -1.0372779635
| 38> H 4.0322893406 -1.4682796236 -2.025647739
| 39> H 0.4303248053 -1.7832666031 -1.0588380988
| 40> H -0.5533529832 -0.5327129205 -1.9147549314
| 41> H -2.5953264401 3.142857641 -1.1951112821
| 42> H -2.780857447 3.8576095637 0.4335568412
| 43> H -0.4669742528 4.2080203914 -0.3996460263
| 44> H -0.444530824 3.0969345307 0.9803017849
| 45> H -0.2786117204 2.4725122952 -0.6723460555
| 46> H -4.2899841371 -1.6633088627 -1.0307645522
| 47> H -3.4787963605 -2.2440161106 0.44714284
| 48> H -5.8978913294 -2.8445603111 0.4777963772
| 49> H -5.5231001379 -1.6943150237 1.7731556861
| 50> H -6.3307423874 -1.1350357107 0.3043390027
| 51> *
| 52>
| 53>                          ****END OF INPUT****

CARTESIAN COORDINATES (ANGSTROEM)
---------------------------------
  C      0.934750    1.413881    3.176928
  C      2.082737    1.219245    2.207478
  O      2.116021   -0.179959    1.826032
  P      2.604293   -0.682683    0.415843
  S      2.488210   -2.634074    0.346111
  O      4.033859    0.004958    0.316462
  C      4.788088    0.196633   -0.895695
  C      4.989409   -1.088474   -1.670640
  S      1.468351    0.364861   -1.056098
  C      0.056198   -0.758991   -1.036576
  S     -0.964239   -0.590634    0.453999
  P     -2.636820    0.476206   -0.345178
  S     -2.727490    0.553034   -2.306482
  O     -2.735310    1.853599    0.419716
  C     -2.269800    3.091339   -0.150970
  C     -0.763950    3.224330   -0.050524
  O     -3.861302   -0.211544    0.383547
  C     -4.243092   -1.563309    0.059258
  C     -5.591693   -1.827085    0.697517
  H     -0.009705    1.157623    2.702122
  H      1.067370    0.770284    4.041706
  H      0.910818    2.449847    3.500214
  H      3.043330    1.451932    2.670380
  H      1.958015    1.828420    1.306862
  H      4.267253    0.939290   -1.506357
  H      5.737558    0.603808   -0.543843
  H      5.632839   -0.898854   -2.523707
  H      5.443902   -1.846743   -1.037278
  H      4.032289   -1.468280   -2.025648
  H      0.430325   -1.783267   -1.058838
  H     -0.553353   -0.532713   -1.914755
  H     -2.595326    3.142858   -1.195111
  H     -2.780857    3.857610    0.433557
  H     -0.466974    4.208020   -0.399646
  H     -0.444531    3.096935    0.980302
  H     -0.278612    2.472512   -0.672346
  H     -4.289984   -1.663309   -1.030765
  H     -3.478796   -2.244016    0.447143
  H     -5.897891   -2.844560    0.477796
  H     -5.523100   -1.694315    1.773156
  H     -6.330742   -1.135036    0.304339

 Total Charge           Charge          ....    0
 Multiplicity           Mult            ....    1
 Number of Electrons    NEL             ....  202
 Basis Dimension        Dim             ....  539

ORBITAL ENERGIES
----------------

  NO   OCC          E(Eh)            E(eV)
   0   2.0000     -88.581319     -2410.4202
   1   2.0000     -88.581250     -2410.4184
   2   2.0000     -88.534280     -2409.1402
   3   2.0000     -88.529165     -2409.0011
   4   2.0000     -76.921584     -2093.1427
   5   2.0000     -76.921349     -2093.1363
   6   2.0000     -18.997811      -516.9567
   7   2.0000     -18.997759      -516.9553
   8   2.0000     -18.997288      -516.9425
   9   2.0000     -18.995589      -516.8962
  10   2.0000     -10.103516      -274.9306
  11   2.0000     -10.094208      -274.6774
  12   2.0000     -10.091780      -274.6113
  13   2.0000     -10.091551      -274.6051
  14   2.0000     -10.091060      -274.5917
  15   2.0000     -10.019956      -272.6569
  16   2.0000     -10.019307      -272.6392
  17   2.0000     -10.019140      -272.6347
  18   2.0000     -10.018933      -272.6290
  19   2.0000      -7.875614      -214.3063
  20   2.0000      -7.875264      -214.2968
  21   2.0000      -7.829258      -213.0449
  22   2.0000      -7.824317      -212.9105
  23   2.0000      -6.600456      -179.6075
  24   2.0000      -6.599804      -179.5898
  25   2.0000      -5.822284      -158.4324
  26   2.0000      -5.822140      -158.4285
  27   2.0000      -5.819405      -158.3541
  28   2.0000      -5.819044      -158.3442
  29   2.0000      -5.812997      -158.1797
  30   2.0000      -5.812546      -158.1674
  31   2.0000      -5.776708      -157.1922
  32   2.0000      -5.771994      -157.0639
  33   2.0000      -5.769563      -156.9978
  34   2.0000      -5.769393      -156.9932
  35   2.0000      -5.764570      -156.8619
  36   2.0000      -5.764256      -156.8534
  37   2.0000      -4.745634      -129.1353
  38   2.0000      -4.745544      -129.1328
  39   2.0000      -4.745475      -129.1309
  40   2.0000      -4.745002      -129.1181
  41   2.0000      -4.744363      -129.1007
  42   2.0000      -4.743120      -129.0669
  43   2.0000      -1.059182       -28.8218
  44   2.0000      -1.055600       -28.7243
  45   2.0000      -1.016104       -27.6496
  46   2.0000      -1.013256       -27.5721
  47   2.0000      -0.803620       -21.8676
  48   2.0000      -0.758908       -20.6509
  49   2.0000      -0.749789       -20.4028
  50   2.0000      -0.726545       -19.7703
  51   2.0000      -0.722291       -19.6545
  52   2.0000      -0.714357       -19.4386
  53   2.0000      -0.690689       -18.7946
  54   2.0000      -0.676647       -18.4125
  55   2.0000      -0.631006       -17.1705
  56   2.0000      -0.619203       -16.8494
  57   2.0000      -0.600834       -16.3495
  58   2.0000      -0.596297       -16.2261
  59   2.0000      -0.589803       -16.0494
  60   2.0000      -0.532276       -14.4840
  61   2.0000      -0.524813       -14.2809
  62   2.0000      -0.491954       -13.3868
  63   2.0000      -0.490595       -13.3498
  64   2.0000      -0.481742       -13.1089
  65   2.0000      -0.461687       -12.5632
  66   2.0000      -0.457483       -12.4487
  67   2.0000      -0.448178       -12.1956
  68   2.0000      -0.445436       -12.1209
  69   2.0000      -0.436793       -11.8858
  70   2.0000      -0.432472       -11.7682
  71   2.0000      -0.412586       -11.2270
  72   2.0000      -0.408464       -11.1149
  73   2.0000      -0.400320       -10.8933
  74   2.0000      -0.398740       -10.8503
  75   2.0000      -0.389055       -10.5867
  76   2.0000      -0.375102       -10.2070
  77   2.0000      -0.365133        -9.9358
  78   2.0000      -0.361466        -9.8360
  79   2.0000      -0.359147        -9.7729
  80   2.0000      -0.356770        -9.7082
  81   2.0000      -0.353544        -9.6204
  82   2.0000      -0.350828        -9.5465
  83   2.0000      -0.349531        -9.5112
  84   2.0000      -0.345019        -9.3885
  85   2.0000      -0.331386        -9.0175
  86   2.0000      -0.324185        -8.8215
  87   2.0000      -0.317744        -8.6463
  88   2.0000      -0.312207        -8.4956
  89   2.0000      -0.309258        -8.4153
  90   2.0000      -0.306771        -8.3477
  91   2.0000      -0.290857        -7.9146
  92   2.0000      -0.285675        -7.7736
  93   2.0000      -0.281541        -7.6611
  94   2.0000      -0.272950        -7.4274
  95   2.0000      -0.249924        -6.8008
  96   2.0000      -0.243872        -6.6361
  97   2.0000      -0.236661        -6.4399
  98   2.0000      -0.230313        -6.2671
  99   2.0000      -0.226493        -6.1632
 100   2.0000      -0.221891        -6.0380
 101   0.0000      -0.052142        -1.4189
 102   0.0000      -0.038759        -1.0547
 103   0.0000      -0.015964        -0.4344
 104   0.0000      -0.005505        -0.1498
 105   0.0000       0.005603         0.1525

MULLIKEN ATOMIC CHARGES
-----------------------
   0 C :   -0.493450
   1 C :   -0.105774
   2 O :   -0.299474
   3 P :    0.665408
   4 S :   -0.490906
   5 O :   -0.313717
   6 C :   -0.161794
   7 C :   -0.464040
   8 S :   -0.165227
   9 C :   -0.252490
  10 S :   -0.134820
  11 P :    0.732507
  12 S :   -0.517982
  13 O :   -0.326037
  14 C :   -0.134420
  15 C :   -0.480161
  16 O :   -0.326142
  17 C :   -0.135800
  18 C :   -0.478778
  19 H :    0.166859
  20 H :    0.168184
  21 H :    0.172575
  22 H :    0.176991
  23 H :    0.170918
  24 H :    0.172869
  25 H :    0.178165
  26 H :    0.174096
  27 H :    0.170892
  28 H :    0.164403
  29 H :    0.229477
  30 H :    0.229400
  31 H :    0.176059
  32 H :    0.176451
  33 H :    0.173755
  34 H :    0.176993
  35 H :    0.161448
  36 H :    0.170606
  37 H :    0.171447
  38 H :    0.169458
  39 H :    0.165948
  40 H :    0.166104
Sum of atomic charges:    0.0000000

LOEWDIN ATOMIC CHARGES
----------------------
   0 C :   -0.398794
   1 C :    0.029419
   2 O :   -0.676433
   3 P :    0.376306
   4 S :   -0.148670
   5 O :   -0.668095
   6 C :    0.031805
   7 C :   -0.408894
   8 S :    0.127592
   9 C :   -0.424659
  10 S :    0.149055
  11 P :    0.386936
  12 S :   -0.158005
  13 O :   -0.662047
  14 C :    0.029101
  15 C :   -0.405985
  16 O :   -0.673719
  17 C :    0.024465
  18 C :   -0.387893
  19 H :    0.162927
  20 H :    0.164441
  21 H :    0.169775
  22 H :    0.184682
  23 H :    0.181830
  24 H :    0.179675
  25 H :    0.193557
  26 H :    0.169013
  27 H :    0.164600
  28 H :    0.161987
  29 H :    0.196592
  30 H :    0.200208
  31 H :    0.182230
  32 H :    0.191656
  33 H :    0.169728
  34 H :    0.167134
  35 H :    0.161550
  36 H :    0.181157
  37 H :    0.180065
  38 H :    0.169200
  39 H :    0.163420
  40 H :    0.163088

  Mayer bond orders larger than 0.100000
B(  0-C ,  1-C ) :   0.9393 B(  0-C , 19-H ) :   0.9650 B(  0-C , 20-H ) :   0.9672
B(  0-C , 21-H ) :   0.9605 B(  1-C ,  2-O ) :   0.7267 B(  1-C , 22-H ) :   0.9379
B(  1-C , 23-H ) :   0.9456 B(  2-O ,  3-P ) :   1.1576 B(  3-P ,  4-S ) :   1.8344
B(  3-P ,  5-O ) :   1.0605 B(  3-P ,  8-S ) :   0.9984 B(  5-O ,  6-C ) :   0.7923
B(  6-C ,  7-C ) :   0.9222 B(  6-C , 24-H ) :   0.9573 B(  6-C , 25-H ) :   0.9486
B(  7-C , 26-H ) :   0.9558 B(  7-C , 27-H ) :   0.9666 B(  7-C , 28-H ) :   0.9572
B(  8-S ,  9-C ) :   0.9126 B(  9-C , 10-S ) :   0.9107 B(  9-C , 29-H ) :   0.9054
B(  9-C , 30-H ) :   0.8853 B( 10-S , 11-P ) :   1.0352 B( 11-P , 12-S ) :   1.7124
B( 11-P , 13-O ) :   1.1587 B( 11-P , 16-O ) :   1.1393 B( 13-O , 14-C ) :   0.7846
B( 14-C , 15-C ) :   0.9246 B( 14-C , 31-H ) :   0.9613 B( 14-C , 32-H ) :   0.9491
B( 15-C , 33-H ) :   0.9561 B( 15-C , 34-H ) :   0.9647 B( 15-C , 35-H ) :   0.9543
B( 16-O , 17-C ) :   0.7789 B( 17-C , 18-C ) :   0.9543 B( 17-C , 36-H ) :   0.9465
B( 17-C , 37-H ) :   0.9349 B( 18-C , 38-H ) :   0.9580 B( 18-C , 39-H ) :   0.9689
B( 18-C , 40-H ) :   0.9700

Dispersion correction           -0.020936151
FINAL SINGLE POINT ENERGY     -2932.471460903913

DIPOLE MOMENT
-------------

Method             : SCF
Type of density    : Electron Density
Multiplicity       :   1
Irrep              :   0
Energy             : -2932.4972943387087980 Eh
Relativity type    :
Basis              : AO
                                X                 Y                 Z
Electronic contribution:      0.640130989      -7.428059459      -4.407365682
Nuclear contribution   :     -0.103590707       9.530914843       4.491543093
                        -----------------------------------------
Total Dipole Moment    :      0.536540282       2.102855384       0.084177411
                        -----------------------------------------
Magnitude (a.u.)       :      2.171856827
Magnitude (Debye)      :      5.520421340

Rotational constants in cm-1:             0.012378             0.004350             0.004152
Rotational constants in MHz :           371.089826           130.420909           124.487383

                             ****ORCA TERMINATED NORMALLY****
TOTAL RUN TIME: 0 days 0 hours 1 minutes 45 seconds 54 msec
