                         Program Version 6.0.0  -   RELEASE  -
|  1> ! pbe def2-sv(p) def2/J RI DEFGRID1 loosescf d4 GCP(DFT/SV(P)) printgap
|  2> %output
|  3>     printlevel normal
|  4> end
|  5> * xyz 0 1
|  6> C 4.2568923049 0.0033939415 -2.655164458
|  7> C 2.7874533558 -0.1211375485 -2.3092059137
|  8> O 2.4553468909 0.7343312195 -1.190157576
|  9> P 2.2620315421 0.2183651622 0.2813630147
| 10> S 1.6972425746 1.6729268248 1.4576589502
| 11> O 3.6988476782 -0.418991114 0.5602121912
| 12> C 4.0208942302 -1.3236982716 1.6317120948
| 13> C 3.7904264091 -0.7203016169 3.001941782
| 14> S 1.012646833 -1.5118174804 0.2305954719
| 15> C -0.2771848266 -0.9890048671 1.4080302884
| 16> S -1.9568509932 -1.3173008514 0.8360674811
| 17> P -2.2322200673 0.1694820826 -0.6667906852
| 18> S -0.6488739325 1.1217172995 -1.3260994732
| 19> O -3.4115592509 1.0855362312 -0.1106387574
| 20> C -3.4372934547 1.7116642929 1.181748128
| 21> C -2.3797103175 2.7863463929 1.3383413242
| 22> O -2.9204199141 -0.5614593265 -1.8747171177
| 23> C -3.8696669358 -1.6571876727 -1.8108872364
| 24> C -5.0357885802 -1.39037083 -0.8845993433
| 25> H 4.4993488438 1.0407931919 -2.8684642866
| 26> H 4.8687210949 -0.3352855823 -1.823221874
| 27> H 4.4677802138 -0.6032424437 -3.5301811649
| 28> H 2.5216879581 -1.1534594138 -2.0621230337
| 29> H 2.1484499807 0.2318716219 -3.121691004
| 30> H 3.4277897382 -2.2338640137 1.5022774675
| 31> H 5.0772250025 -1.5455140236 1.4693483389
| 32> H 4.1306200901 -1.4161315712 3.7620250147
| 33> H 4.3351597727 0.2155977524 3.0991291248
| 34> H 2.7322463865 -0.513880272 3.1527779647
| 35> H -0.1346625086 0.076127707 1.6115773179
| 36> H -0.1707946091 -1.5811949219 2.3139797295
| 37> H -4.4397973092 2.139398627 1.2399786865
| 38> H -3.3214522591 0.9372153132 1.9464249617
| 39> H -1.3768646789 2.3614537387 1.30304197
| 40> H -2.4620017476 3.5170811478 0.5373360636
| 41> H -2.5097029723 3.285158239 2.2933616995
| 42> H -4.1946282742 -1.7593115336 -2.8474474574
| 43> H -3.3249668262 -2.5528640312 -1.5026179571
| 44> H -4.696608841 -1.3460582101 0.1486858584
| 45> H -5.5154972498 -0.4500089424 -1.143030425
| 46> H -5.7536108482 -2.1989458609 -0.9832376741
| 47> *
| 48>
| 49>                          ****END OF INPUT****

CARTESIAN COORDINATES (ANGSTROEM)
---------------------------------
  C      4.256892    0.003394   -2.655164
  C      2.787453   -0.121138   -2.309206
  O      2.455347    0.734331   -1.190158
  P      2.262032    0.218365    0.281363
  S      1.697243    1.672927    1.457659
  O      3.698848   -0.418991    0.560212
  C      4.020894   -1.323698    1.631712
  C      3.790426   -0.720302    3.001942
  S      1.012647   -1.511817    0.230595
  C     -0.277185   -0.989005    1.408030
  S     -1.956851   -1.317301    0.836067
  P     -2.232220    0.169482   -0.666791
  S     -0.648874    1.121717   -1.326099
  O     -3.411559    1.085536   -0.110639
  C     -3.437293    1.711664    1.181748
  C     -2.379710    2.786346    1.338341
  O     -2.920420   -0.561459   -1.874717
  C     -3.869667   -1.657188   -1.810887
  C     -5.035789   -1.390371   -0.884599
  H      4.499349    1.040793   -2.868464
  H      4.868721   -0.335286   -1.823222
  H      4.467780   -0.603242   -3.530181
  H      2.521688   -1.153459   -2.062123
  H      2.148450    0.231872   -3.121691
  H      3.427790   -2.233864    1.502277
  H      5.077225   -1.545514    1.469348
  H      4.130620   -1.416132    3.762025
  H      4.335160    0.215598    3.099129
  H      2.732246   -0.513880    3.152778
  H     -0.134663    0.076128    1.611577
  H     -0.170795   -1.581195    2.313980
  H     -4.439797    2.139399    1.239979
  H     -3.321452    0.937215    1.946425
  H     -1.376865    2.361454    1.303042
  H     -2.462002    3.517081    0.537336
  H     -2.509703    3.285158    2.293362
  H     -4.194628   -1.759312   -2.847447
  H     -3.324967   -2.552864   -1.502618
  H     -4.696609   -1.346058    0.148686
  H     -5.515497   -0.450009   -1.143030
  H     -5.753611   -2.198946   -0.983238

 Total Charge           Charge          ....    0
 Multiplicity           Mult            ....    1
 Number of Electrons    NEL             ....  202
 Basis Dimension        Dim             ....  334

ORBITAL ENERGIES
----------------

  NO   OCC          E(Eh)            E(eV)
   0   2.0000     -88.048349     -2395.9174
   1   2.0000     -88.040629     -2395.7073
   2   2.0000     -87.980871     -2394.0812
   3   2.0000     -87.973526     -2393.8814
   4   2.0000     -76.423206     -2079.5812
   5   2.0000     -76.420635     -2079.5112
   6   2.0000     -18.787681      -511.2388
   7   2.0000     -18.786411      -511.2042
   8   2.0000     -18.785335      -511.1749
   9   2.0000     -18.784500      -511.1522
  10   2.0000      -9.957486      -270.9570
  11   2.0000      -9.957202      -270.9492
  12   2.0000      -9.953144      -270.8388
  13   2.0000      -9.950947      -270.7790
  14   2.0000      -9.950270      -270.7606
  15   2.0000      -9.891241      -269.1543
  16   2.0000      -9.882257      -268.9099
  17   2.0000      -9.881830      -268.8983
  18   2.0000      -9.873396      -268.6688
  19   2.0000      -7.692933      -209.3353
  20   2.0000      -7.685227      -209.1257
  21   2.0000      -7.626101      -207.5168
  22   2.0000      -7.618283      -207.3040
  23   2.0000      -6.420115      -174.7002
  24   2.0000      -6.417779      -174.6366
  25   2.0000      -5.720772      -155.6701
  26   2.0000      -5.717099      -155.5702
  27   2.0000      -5.713058      -155.4602
  28   2.0000      -5.710371      -155.3871
  29   2.0000      -5.709835      -155.3725
  30   2.0000      -5.702242      -155.1659
  31   2.0000      -5.655125      -153.8838
  32   2.0000      -5.647537      -153.6773
  33   2.0000      -5.646879      -153.6594
  34   2.0000      -5.645897      -153.6327
  35   2.0000      -5.638991      -153.4447
  36   2.0000      -5.638074      -153.4198
  37   2.0000      -4.642773      -126.3363
  38   2.0000      -4.642110      -126.3182
  39   2.0000      -4.640465      -126.2735
  40   2.0000      -4.640388      -126.2714
  41   2.0000      -4.639992      -126.2606
  42   2.0000      -4.637747      -126.1995
  43   2.0000      -0.983304       -26.7571
  44   2.0000      -0.981497       -26.7079
  45   2.0000      -0.939892       -25.5758
  46   2.0000      -0.939058       -25.5531
  47   2.0000      -0.761013       -20.7082
  48   2.0000      -0.718149       -19.5418
  49   2.0000      -0.711158       -19.3516
  50   2.0000      -0.687432       -18.7060
  51   2.0000      -0.686974       -18.6935
  52   2.0000      -0.676264       -18.4021
  53   2.0000      -0.647582       -17.6216
  54   2.0000      -0.634502       -17.2657
  55   2.0000      -0.589083       -16.0298
  56   2.0000      -0.585317       -15.9273
  57   2.0000      -0.572658       -15.5828
  58   2.0000      -0.570881       -15.5345
  59   2.0000      -0.570032       -15.5114
  60   2.0000      -0.502248       -13.6669
  61   2.0000      -0.491029       -13.3616
  62   2.0000      -0.470974       -12.8159
  63   2.0000      -0.470833       -12.8120
  64   2.0000      -0.452325       -12.3084
  65   2.0000      -0.446496       -12.1498
  66   2.0000      -0.440632       -11.9902
  67   2.0000      -0.434378       -11.8200
  68   2.0000      -0.429367       -11.6837
  69   2.0000      -0.416664       -11.3380
  70   2.0000      -0.405177       -11.0254
  71   2.0000      -0.401990       -10.9387
  72   2.0000      -0.398569       -10.8456
  73   2.0000      -0.394263       -10.7284
  74   2.0000      -0.382247       -10.4015
  75   2.0000      -0.360112        -9.7991
  76   2.0000      -0.358119        -9.7449
  77   2.0000      -0.354474        -9.6457
  78   2.0000      -0.351840        -9.5740
  79   2.0000      -0.348244        -9.4762
  80   2.0000      -0.345885        -9.4120
  81   2.0000      -0.340960        -9.2780
  82   2.0000      -0.339539        -9.2393
  83   2.0000      -0.336518        -9.1571
  84   2.0000      -0.330134        -8.9834
  85   2.0000      -0.315841        -8.5945
  86   2.0000      -0.314819        -8.5667
  87   2.0000      -0.293191        -7.9781
  88   2.0000      -0.289309        -7.8725
  89   2.0000      -0.285320        -7.7640
  90   2.0000      -0.282186        -7.6787
  91   2.0000      -0.274577        -7.4716
  92   2.0000      -0.271622        -7.3912
  93   2.0000      -0.260439        -7.0869
  94   2.0000      -0.254808        -6.9337
  95   2.0000      -0.238290        -6.4842
  96   2.0000      -0.222348        -6.0504
  97   2.0000      -0.207274        -5.6402
  98   2.0000      -0.198889        -5.4121
  99   2.0000      -0.182856        -4.9758
 100   2.0000      -0.180270        -4.9054
 101   0.0000      -0.043026        -1.1708
 102   0.0000      -0.032290        -0.8787
 103   0.0000      -0.016177        -0.4402
 104   0.0000       0.006588         0.1793
 105   0.0000       0.018681         0.5083

MULLIKEN ATOMIC CHARGES
-----------------------
   0 C :   -0.285078
   1 C :   -0.011830
   2 O :   -0.344957
   3 P :    0.608954
   4 S :   -0.292277
   5 O :   -0.378588
   6 C :   -0.005608
   7 C :   -0.305643
   8 S :   -0.113515
   9 C :   -0.327211
  10 S :   -0.143987
  11 P :    0.589272
  12 S :   -0.290100
  13 O :   -0.370013
  14 C :   -0.009674
  15 C :   -0.324718
  16 O :   -0.355619
  17 C :   -0.003213
  18 C :   -0.320231
  19 H :    0.121542
  20 H :    0.117469
  21 H :    0.108278
  22 H :    0.101682
  23 H :    0.118032
  24 H :    0.104067
  25 H :    0.104413
  26 H :    0.107679
  27 H :    0.124828
  28 H :    0.117942
  29 H :    0.201852
  30 H :    0.176785
  31 H :    0.103222
  32 H :    0.099596
  33 H :    0.153719
  34 H :    0.121627
  35 H :    0.105795
  36 H :    0.112904
  37 H :    0.113540
  38 H :    0.124339
  39 H :    0.129009
  40 H :    0.115717
Sum of atomic charges:   -0.0000000

LOEWDIN ATOMIC CHARGES
----------------------
   0 C :   -0.358073
   1 C :   -0.110717
   2 O :   -0.223981
   3 P :    0.573654
   4 S :   -0.286297
   5 O :   -0.249679
   6 C :   -0.120517
   7 C :   -0.368234
   8 S :    0.063272
   9 C :   -0.480480
  10 S :    0.066956
  11 P :    0.555621
  12 S :   -0.291935
  13 O :   -0.243808
  14 C :   -0.119777
  15 C :   -0.369987
  16 O :   -0.234242
  17 C :   -0.112670
  18 C :   -0.368595
  19 H :    0.129857
  20 H :    0.125364
  21 H :    0.128528
  22 H :    0.103306
  23 H :    0.123795
  24 H :    0.102204
  25 H :    0.118400
  26 H :    0.128026
  27 H :    0.130393
  28 H :    0.117580
  29 H :    0.121148
  30 H :    0.133964
  31 H :    0.118225
  32 H :    0.100472
  33 H :    0.123098
  34 H :    0.130473
  35 H :    0.127873
  36 H :    0.124069
  37 H :    0.111876
  38 H :    0.116781
  39 H :    0.131658
  40 H :    0.132400

  Mayer bond orders larger than 0.100000
B(  0-C ,  1-C ) :   1.1630 B(  0-C , 19-H ) :   0.9470 B(  0-C , 20-H ) :   0.9429
B(  0-C , 21-H ) :   0.9407 B(  1-C ,  2-O ) :   0.8917 B(  1-C , 22-H ) :   0.9166
B(  1-C , 23-H ) :   0.9323 B(  2-O ,  3-P ) :   1.1458 B(  3-P ,  4-S ) :   1.6266
B(  3-P ,  5-O ) :   1.0703 B(  3-P ,  8-S ) :   0.9422 B(  4-S ,  8-S ) :   0.1182
B(  4-S , 29-H ) :   0.1182 B(  5-O ,  6-C ) :   0.9210 B(  6-C ,  7-C ) :   1.1649
B(  6-C , 24-H ) :   0.9176 B(  6-C , 25-H ) :   0.9331 B(  7-C , 26-H ) :   0.9360
B(  7-C , 27-H ) :   0.9449 B(  7-C , 28-H ) :   0.9338 B(  8-S ,  9-C ) :   0.9948
B(  9-C , 10-S ) :   0.9990 B(  9-C , 29-H ) :   0.8444 B(  9-C , 30-H ) :   0.9068
B( 10-S , 11-P ) :   0.9216 B( 10-S , 12-S ) :   0.1146 B( 11-P , 12-S ) :   1.6788
B( 11-P , 13-O ) :   1.0821 B( 11-P , 16-O ) :   1.1439 B( 13-O , 14-C ) :   0.9212
B( 14-C , 15-C ) :   1.1622 B( 14-C , 31-H ) :   0.9339 B( 14-C , 32-H ) :   0.9172
B( 15-C , 33-H ) :   0.9232 B( 15-C , 34-H ) :   0.9435 B( 15-C , 35-H ) :   0.9361
B( 16-O , 17-C ) :   0.9050 B( 17-C , 18-C ) :   1.1668 B( 17-C , 36-H ) :   0.9348
B( 17-C , 37-H ) :   0.9257 B( 18-C , 38-H ) :   0.9390 B( 18-C , 39-H ) :   0.9413
B( 18-C , 40-H ) :   0.9344

Dispersion correction           -0.066021398
FINAL SINGLE POINT ENERGY     -2929.508599271951

DIPOLE MOMENT
-------------

Method             : SCF
Type of density    : Electron Density
Multiplicity       :   1
Irrep              :   0
Energy             : -2929.6269994727708763 Eh
Relativity type    :
Basis              : AO
                                X                 Y                 Z
Electronic contribution:     -0.685663253       2.365156302      -4.068804352
Nuclear contribution   :      0.257085533      -3.977970815       4.490793727
                        -----------------------------------------
Total Dipole Moment    :     -0.428577720      -1.612814513       0.421989376
                        -----------------------------------------
Magnitude (a.u.)       :      1.721314773
Magnitude (Debye)      :      4.375234447

Rotational constants in cm-1:             0.012833             0.004810             0.004582
Rotational constants in MHz :           384.725002           144.200896           137.365712

                             ****ORCA TERMINATED NORMALLY****
TOTAL RUN TIME: 0 days 0 hours 0 minutes 20 seconds 864 msec
