                         Program Version 6.0.0  -   RELEASE  -
|  1> ! wb97x-v def2-tzvp def2/J RIJCOSX DEFGRID2 scfconv7 GCP(DFT/TZ) printgap
|  2> %output
|  3>     printlevel normal
|  4> end
|  5> * xyz 0 1
|  6> C -0.6437424536000721 -0.9882312963508562 -0.3839393411387387
|  7> C 0.6435056365895852 -0.9880259539013803 0.3842464874834025
|  8> Cl 1.7186440852393288 0.4213572949564905 -0.06523473551701768
|  9> Cl -1.7188569140828058 0.4214401134464407 0.06470151622342514
| 10> H -1.2000465400029514 -1.8953861599880188 -0.1331904197283041
| 11> H -0.48783123814280605 -0.9360808576191567 -1.4620691386013165
| 12> H 0.48759255937779683 -0.9352168181941186 1.462343289985012
| 13> H 1.1997904780491628 -1.8953438169394299 0.13404282072308304
| 14> *
| 15>
| 16>                          ****END OF INPUT****

CARTESIAN COORDINATES (ANGSTROEM)
---------------------------------
  C     -0.643742   -0.988231   -0.383939
  C      0.643506   -0.988026    0.384246
  Cl     1.718644    0.421357   -0.065235
  Cl    -1.718857    0.421440    0.064702
  H     -1.200047   -1.895386   -0.133190
  H     -0.487831   -0.936081   -1.462069
  H      0.487593   -0.935217    1.462343
  H      1.199790   -1.895344    0.134043

 Total Charge           Charge          ....    0
 Multiplicity           Mult            ....    1
 Number of Electrons    NEL             ....   50
 Basis Dimension        Dim             ....  160

ORBITAL ENERGIES
----------------

  NO   OCC          E(Eh)            E(eV)
   0   2.0000    -107.136438     -2915.3307
   1   2.0000    -107.136428     -2915.3304
   2   2.0000     -12.130979      -330.1007
   3   2.0000     -12.129646      -330.0644
   4   2.0000     -11.289532      -307.2038
   5   2.0000     -11.289411      -307.2005
   6   2.0000      -9.081082      -247.1088
   7   2.0000      -9.080711      -247.0987
   8   2.0000      -9.078452      -247.0373
   9   2.0000      -9.078208      -247.0306
  10   2.0000      -9.078136      -247.0287
  11   2.0000      -9.077842      -247.0206
  12   2.0000      -1.416318       -38.5400
  13   2.0000      -1.387868       -37.7658
  14   2.0000      -1.270064       -34.5602
  15   2.0000      -1.117125       -30.3985
  16   2.0000      -0.935433       -25.4544
  17   2.0000      -0.926826       -25.2202
  18   2.0000      -0.908613       -24.7246
  19   2.0000      -0.854146       -23.2425
  20   2.0000      -0.853616       -23.2281
  21   2.0000      -0.784692       -21.3525
  22   2.0000      -0.772131       -21.0107
  23   2.0000      -0.771684       -20.9986
  24   2.0000      -0.770511       -20.9667
  25   0.0000      -0.286814        -7.8046
  26   0.0000      -0.258292        -7.0285
  27   0.0000      -0.039984        -1.0880
  28   0.0000      -0.032926        -0.8960
  29   0.0000       0.004686         0.1275

MULLIKEN ATOMIC CHARGES
-----------------------
   0 C :   -0.127010
   1 C :   -0.127012
   2 Cl:   -0.146474
   3 Cl:   -0.146473
   4 H :    0.133239
   5 H :    0.140245
   6 H :    0.140247
   7 H :    0.133239
Sum of atomic charges:   -0.0000000

LOEWDIN ATOMIC CHARGES
----------------------
   0 C :   -0.491756
   1 C :   -0.491756
   2 Cl:    0.235616
   3 Cl:    0.235616
   4 H :    0.129549
   5 H :    0.126591
   6 H :    0.126591
   7 H :    0.129549

  Mayer bond orders larger than 0.100000
B(  0-C ,  1-C ) :   1.0104 B(  0-C ,  3-Cl) :   1.0689 B(  0-C ,  4-H ) :   0.9561
B(  0-C ,  5-H ) :   0.9625 B(  1-C ,  2-Cl) :   1.0689 B(  1-C ,  6-H ) :   0.9625
B(  1-C ,  7-H ) :   0.9561

FINAL SINGLE POINT ENERGY      -998.913383277297

DIPOLE MOMENT
-------------

Method             : SCF
Type of density    : Electron Density
Multiplicity       :   1
Irrep              :   0
Energy             :  -998.9184478076967935 Eh
Relativity type    :
Basis              : AO
                                X                 Y                 Z
Electronic contribution:      0.000046287       5.288792745      -0.001577773
Nuclear contribution   :     -0.000060950      -6.447891576       0.001924587
                        -----------------------------------------
Total Dipole Moment    :     -0.000014663      -1.159098830       0.000346813
                        -----------------------------------------
Magnitude (a.u.)       :      1.159098882
Magnitude (Debye)      :      2.946195221

Rotational constants in cm-1:             0.316630             0.072981             0.062937
Rotational constants in MHz :          9492.329093          2187.918139          1886.808999

                             ****ORCA TERMINATED NORMALLY****
TOTAL RUN TIME: 0 days 0 hours 1 minutes 15 seconds 861 msec
