                         Program Version 6.0.0  -   RELEASE  -
|  1> ! wb97x-v def2-tzvp def2/J RIJCOSX DEFGRID2 scfconv7 GCP(DFT/TZ) printgap
|  2> %output
|  3>     printlevel normal
|  4> end
|  5> %cpcm
|  6>     smd true
|  7>     smdsolvent "water"
|  8> end
|  9> * xyz 0 1
| 10> C -0.6437424536000721 -0.9882312963508562 -0.3839393411387387
| 11> C 0.6435056365895852 -0.9880259539013803 0.3842464874834025
| 12> Cl 1.7186440852393288 0.4213572949564905 -0.06523473551701768
| 13> Cl -1.7188569140828058 0.4214401134464407 0.06470151622342514
| 14> H -1.2000465400029514 -1.8953861599880188 -0.1331904197283041
| 15> H -0.48783123814280605 -0.9360808576191567 -1.4620691386013165
| 16> H 0.48759255937779683 -0.9352168181941186 1.462343289985012
| 17> H 1.1997904780491628 -1.8953438169394299 0.13404282072308304
| 18> *
| 19>
| 20>                          ****END OF INPUT****

CARTESIAN COORDINATES (ANGSTROEM)
---------------------------------
  C     -0.643742   -0.988231   -0.383939
  C      0.643506   -0.988026    0.384246
  Cl     1.718644    0.421357   -0.065235
  Cl    -1.718857    0.421440    0.064702
  H     -1.200047   -1.895386   -0.133190
  H     -0.487831   -0.936081   -1.462069
  H      0.487593   -0.935217    1.462343
  H      1.199790   -1.895344    0.134043

 Total Charge           Charge          ....    0
 Multiplicity           Mult            ....    1
 Number of Electrons    NEL             ....   50
 Basis Dimension        Dim             ....  160

ORBITAL ENERGIES
----------------

  NO   OCC          E(Eh)            E(eV)
   0   2.0000    -107.131759     -2915.2034
   1   2.0000    -107.131749     -2915.2031
   2   2.0000     -12.112044      -329.5855
   3   2.0000     -12.110712      -329.5492
   4   2.0000     -11.285111      -307.0835
   5   2.0000     -11.284986      -307.0801
   6   2.0000      -9.076585      -246.9864
   7   2.0000      -9.076229      -246.9768
   8   2.0000      -9.074162      -246.9205
   9   2.0000      -9.073913      -246.9137
  10   2.0000      -9.073838      -246.9117
  11   2.0000      -9.073546      -246.9037
  12   2.0000      -1.408213       -38.3194
  13   2.0000      -1.383101       -37.6361
  14   2.0000      -1.254741       -34.1432
  15   2.0000      -1.099321       -29.9141
  16   2.0000      -0.917910       -24.9776
  17   2.0000      -0.911052       -24.7910
  18   2.0000      -0.894363       -24.3369
  19   2.0000      -0.841658       -22.9027
  20   2.0000      -0.840001       -22.8576
  21   2.0000      -0.781633       -21.2693
  22   2.0000      -0.767008       -20.8713
  23   2.0000      -0.766518       -20.8580
  24   2.0000      -0.763824       -20.7847
  25   0.0000      -0.273482        -7.4418
  26   0.0000      -0.245191        -6.6720
  27   0.0000      -0.022378        -0.6089
  28   0.0000      -0.006209        -0.1689
  29   0.0000       0.029000         0.7891

MULLIKEN ATOMIC CHARGES
-----------------------
   0 C :   -0.136347
   1 C :   -0.136347
   2 Cl:   -0.203386
   3 Cl:   -0.203385
   4 H :    0.173352
   5 H :    0.166379
   6 H :    0.166381
   7 H :    0.173352
Sum of atomic charges:   -0.0000000

LOEWDIN ATOMIC CHARGES
----------------------
   0 C :   -0.475936
   1 C :   -0.475935
   2 Cl:    0.198004
   3 Cl:    0.198004
   4 H :    0.143570
   5 H :    0.134361
   6 H :    0.134361
   7 H :    0.143570

  Mayer bond orders larger than 0.100000
B(  0-C ,  1-C ) :   1.0221 B(  0-C ,  3-Cl) :   1.0154 B(  0-C ,  4-H ) :   0.9505
B(  0-C ,  5-H ) :   0.9544 B(  1-C ,  2-Cl) :   1.0154 B(  1-C ,  6-H ) :   0.9544
B(  1-C ,  7-H ) :   0.9505

FINAL SINGLE POINT ENERGY      -998.920575628254

DIPOLE MOMENT
-------------

Method             : SCF
Type of density    : Electron Density
Multiplicity       :   1
Irrep              :   0
Energy             :  -998.9256401586542324 Eh
Relativity type    :
Basis              : AO
                                X                 Y                 Z
Electronic contribution:      0.000040562       4.803248293      -0.001433442
Nuclear contribution   :     -0.000060950      -6.447891576       0.001924587
                        -----------------------------------------
Total Dipole Moment    :     -0.000020388      -1.644643283       0.000491145
                        -----------------------------------------
Magnitude (a.u.)       :      1.644643356
Magnitude (Debye)      :      4.180351193

Rotational constants in cm-1:             0.316630             0.072981             0.062937
Rotational constants in MHz :          9492.329093          2187.918139          1886.808999

                             ****ORCA TERMINATED NORMALLY****
TOTAL RUN TIME: 0 days 0 hours 1 minutes 24 seconds 737 msec
