                         Program Version 6.0.0  -   RELEASE  -
|  1> ! pbe def2-sv(p) def2/J RI DEFGRID1 loosescf d4 GCP(DFT/SV(P)) printgap
|  2> %output
|  3>     printlevel normal
|  4> end
|  5> * xyz 0 1
|  6> C 3.645876129 0.2157162034 -2.6862946662
|  7> C 2.1703100038 0.4469085673 -2.4408567935
|  8> O 1.6245736081 -0.4810726952 -1.484599388
|  9> P 2.0946920721 -0.5143270912 0.0304541967
| 10> S 2.6106254487 1.178609011 0.8814710801
| 11> O 3.2689778336 -1.5852758424 -0.058289548
| 12> C 4.2360291154 -1.7648843533 0.9892389409
| 13> C 3.6172122772 -2.3221899214 2.2552339659
| 14> S 0.5059601726 -1.6091215103 0.8773852137
| 15> C -0.3000067966 -0.3153648933 1.8926144234
| 16> S -2.0909956221 -0.2591193781 1.6614194079
| 17> P -2.2076160342 0.6902589632 -0.2387696839
| 18> S -0.6084223578 1.7229389905 -0.7398916269
| 19> O -3.5519668412 1.5095791635 -0.1586819256
| 20> C -3.6466748601 2.6857531905 0.6727197658
| 21> C -4.8962384129 3.4390311632 0.2645558537
| 22> O -2.7312191344 -0.3512935814 -1.3036767021
| 23> C -1.9170576532 -1.3794945559 -1.898504314
| 24> C -2.1962831641 -2.7212525959 -1.24914199
| 25> H 4.2122939586 0.4453456946 -1.7844030589
| 26> H 3.8215544843 -0.8214964022 -2.9597905707
| 27> H 3.9814256313 0.8663127884 -3.4878292083
| 28> H 1.5764131899 0.2731769311 -3.3396343177
| 29> H 1.9845813289 1.4629228001 -2.0755560914
| 30> H 4.9627255796 -2.4546700241 0.5580365418
| 31> H 4.7104882055 -0.798763728 1.1895827676
| 32> H 3.0453166615 -3.2198099978 2.0340183432
| 33> H 4.4039831031 -2.5596137875 2.9640597585
| 34> H 2.9544456951 -1.5810414063 2.7002862873
| 35> H 0.1441417465 0.6505113302 1.6387273607
| 36> H -0.1479495249 -0.5574659196 2.9409878173
| 37> H -3.6980372128 2.3650116343 1.7170596499
| 38> H -2.7464507284 3.2934996037 0.5276448071
| 39> H -4.8261408763 3.7415049785 -0.7763612883
| 40> H -5.7665338448 2.8013229743 0.3871704194
| 41> H -5.0018816861 4.3200059748 0.8890210502
| 42> H -2.2030895735 -1.3850056377 -2.9523738487
| 43> H -0.8589595792 -1.1061535043 -1.8180117435
| 44> H -3.2589230925 -2.9397236372 -1.3013739307
| 45> H -1.6416469207 -3.4914528462 -1.7752141006
| 46> H -1.8867094346 -2.7178866977 -0.2063166255
| 47> *
| 48>
| 49>                          ****END OF INPUT****

CARTESIAN COORDINATES (ANGSTROEM)
---------------------------------
  C      3.645876    0.215716   -2.686295
  C      2.170310    0.446909   -2.440857
  O      1.624574   -0.481073   -1.484599
  P      2.094692   -0.514327    0.030454
  S      2.610625    1.178609    0.881471
  O      3.268978   -1.585276   -0.058290
  C      4.236029   -1.764884    0.989239
  C      3.617212   -2.322190    2.255234
  S      0.505960   -1.609122    0.877385
  C     -0.300007   -0.315365    1.892614
  S     -2.090996   -0.259119    1.661419
  P     -2.207616    0.690259   -0.238770
  S     -0.608422    1.722939   -0.739892
  O     -3.551967    1.509579   -0.158682
  C     -3.646675    2.685753    0.672720
  C     -4.896238    3.439031    0.264556
  O     -2.731219   -0.351294   -1.303677
  C     -1.917058   -1.379495   -1.898504
  C     -2.196283   -2.721253   -1.249142
  H      4.212294    0.445346   -1.784403
  H      3.821554   -0.821496   -2.959791
  H      3.981426    0.866313   -3.487829
  H      1.576413    0.273177   -3.339634
  H      1.984581    1.462923   -2.075556
  H      4.962726   -2.454670    0.558037
  H      4.710488   -0.798764    1.189583
  H      3.045317   -3.219810    2.034018
  H      4.403983   -2.559614    2.964060
  H      2.954446   -1.581041    2.700286
  H      0.144142    0.650511    1.638727
  H     -0.147950   -0.557466    2.940988
  H     -3.698037    2.365012    1.717060
  H     -2.746451    3.293500    0.527645
  H     -4.826141    3.741505   -0.776361
  H     -5.766534    2.801323    0.387170
  H     -5.001882    4.320006    0.889021
  H     -2.203090   -1.385006   -2.952374
  H     -0.858960   -1.106154   -1.818012
  H     -3.258923   -2.939724   -1.301374
  H     -1.641647   -3.491453   -1.775214
  H     -1.886709   -2.717887   -0.206317

 Total Charge           Charge          ....    0
 Multiplicity           Mult            ....    1
 Number of Electrons    NEL             ....  202
 Basis Dimension        Dim             ....  334

ORBITAL ENERGIES
----------------

  NO   OCC          E(Eh)            E(eV)
   0   2.0000     -88.046194     -2395.8588
   1   2.0000     -88.044100     -2395.8018
   2   2.0000     -87.988668     -2394.2934
   3   2.0000     -87.983316     -2394.1478
   4   2.0000     -76.426696     -2079.6761
   5   2.0000     -76.424077     -2079.6049
   6   2.0000     -18.791162      -511.3335
   7   2.0000     -18.790211      -511.3076
   8   2.0000     -18.787911      -511.2451
   9   2.0000     -18.786118      -511.1963
  10   2.0000      -9.956054      -270.9180
  11   2.0000      -9.951881      -270.8045
  12   2.0000      -9.951531      -270.7949
  13   2.0000      -9.946941      -270.6700
  14   2.0000      -9.946235      -270.6508
  15   2.0000      -9.886208      -269.0174
  16   2.0000      -9.884340      -268.9666
  17   2.0000      -9.880813      -268.8706
  18   2.0000      -9.877472      -268.7797
  19   2.0000      -7.691236      -209.2892
  20   2.0000      -7.688928      -209.2264
  21   2.0000      -7.633547      -207.7194
  22   2.0000      -7.627945      -207.5669
  23   2.0000      -6.424032      -174.8068
  24   2.0000      -6.421585      -174.7402
  25   2.0000      -5.719146      -155.6259
  26   2.0000      -5.716769      -155.5612
  27   2.0000      -5.715435      -155.5249
  28   2.0000      -5.713541      -155.4733
  29   2.0000      -5.708511      -155.3365
  30   2.0000      -5.705796      -155.2626
  31   2.0000      -5.662428      -154.0825
  32   2.0000      -5.656771      -153.9286
  33   2.0000      -5.654359      -153.8629
  34   2.0000      -5.653574      -153.8416
  35   2.0000      -5.648598      -153.7062
  36   2.0000      -5.648208      -153.6955
  37   2.0000      -4.646246      -126.4308
  38   2.0000      -4.645717      -126.4164
  39   2.0000      -4.644936      -126.3951
  40   2.0000      -4.643790      -126.3640
  41   2.0000      -4.643729      -126.3623
  42   2.0000      -4.641932      -126.3134
  43   2.0000      -0.987815       -26.8798
  44   2.0000      -0.985410       -26.8144
  45   2.0000      -0.943310       -25.6688
  46   2.0000      -0.942476       -25.6461
  47   2.0000      -0.762156       -20.7393
  48   2.0000      -0.721273       -19.6268
  49   2.0000      -0.709827       -19.3154
  50   2.0000      -0.686062       -18.6687
  51   2.0000      -0.681928       -18.5562
  52   2.0000      -0.675264       -18.3749
  53   2.0000      -0.649404       -17.6712
  54   2.0000      -0.634125       -17.2554
  55   2.0000      -0.602948       -16.4071
  56   2.0000      -0.592938       -16.1347
  57   2.0000      -0.570801       -15.5323
  58   2.0000      -0.564234       -15.3536
  59   2.0000      -0.556477       -15.1425
  60   2.0000      -0.503628       -13.7044
  61   2.0000      -0.490741       -13.3537
  62   2.0000      -0.473030       -12.8718
  63   2.0000      -0.470373       -12.7995
  64   2.0000      -0.451597       -12.2886
  65   2.0000      -0.447199       -12.1689
  66   2.0000      -0.439168       -11.9504
  67   2.0000      -0.436790       -11.8857
  68   2.0000      -0.427327       -11.6282
  69   2.0000      -0.416043       -11.3211
  70   2.0000      -0.406517       -11.0619
  71   2.0000      -0.396266       -10.7829
  72   2.0000      -0.391866       -10.6632
  73   2.0000      -0.389295       -10.5933
  74   2.0000      -0.381587       -10.3835
  75   2.0000      -0.372507       -10.1364
  76   2.0000      -0.367362        -9.9964
  77   2.0000      -0.356175        -9.6920
  78   2.0000      -0.353373        -9.6158
  79   2.0000      -0.347536        -9.4569
  80   2.0000      -0.345051        -9.3893
  81   2.0000      -0.342042        -9.3074
  82   2.0000      -0.337945        -9.1959
  83   2.0000      -0.336725        -9.1627
  84   2.0000      -0.331390        -9.0176
  85   2.0000      -0.316684        -8.6174
  86   2.0000      -0.310911        -8.4603
  87   2.0000      -0.301003        -8.1907
  88   2.0000      -0.294452        -8.0124
  89   2.0000      -0.289893        -7.8884
  90   2.0000      -0.281584        -7.6623
  91   2.0000      -0.270734        -7.3671
  92   2.0000      -0.265657        -7.2289
  93   2.0000      -0.265303        -7.2193
  94   2.0000      -0.257467        -7.0060
  95   2.0000      -0.236703        -6.4410
  96   2.0000      -0.220317        -5.9951
  97   2.0000      -0.216542        -5.8924
  98   2.0000      -0.205118        -5.5816
  99   2.0000      -0.200079        -5.4444
 100   2.0000      -0.189695        -5.1619
 101   0.0000      -0.044428        -1.2089
 102   0.0000      -0.037028        -1.0076
 103   0.0000      -0.012080        -0.3287
 104   0.0000       0.010578         0.2878
 105   0.0000       0.016968         0.4617

MULLIKEN ATOMIC CHARGES
-----------------------
   0 C :   -0.304206
   1 C :   -0.001599
   2 O :   -0.359748
   3 P :    0.621724
   4 S :   -0.315838
   5 O :   -0.373002
   6 C :   -0.002669
   7 C :   -0.310301
   8 S :   -0.104982
   9 C :   -0.346100
  10 S :   -0.116261
  11 P :    0.595210
  12 S :   -0.321656
  13 O :   -0.359389
  14 C :   -0.012937
  15 C :   -0.277914
  16 O :   -0.352704
  17 C :   -0.031594
  18 C :   -0.291558
  19 H :    0.122075
  20 H :    0.114743
  21 H :    0.111571
  22 H :    0.102868
  23 H :    0.121462
  24 H :    0.104438
  25 H :    0.109404
  26 H :    0.118922
  27 H :    0.112257
  28 H :    0.118807
  29 H :    0.212275
  30 H :    0.181322
  31 H :    0.102081
  32 H :    0.106239
  33 H :    0.121731
  34 H :    0.117430
  35 H :    0.111447
  36 H :    0.103595
  37 H :    0.131961
  38 H :    0.111085
  39 H :    0.106137
  40 H :    0.123673
Sum of atomic charges:   -0.0000000

LOEWDIN ATOMIC CHARGES
----------------------
   0 C :   -0.366431
   1 C :   -0.116760
   2 O :   -0.236631
   3 P :    0.575526
   4 S :   -0.306658
   5 O :   -0.245563
   6 C :   -0.119642
   7 C :   -0.369142
   8 S :    0.090857
   9 C :   -0.477629
  10 S :    0.071297
  11 P :    0.561133
  12 S :   -0.302903
  13 O :   -0.236011
  14 C :   -0.121028
  15 C :   -0.349642
  16 O :   -0.232893
  17 C :   -0.120550
  18 C :   -0.361885
  19 H :    0.121323
  20 H :    0.125359
  21 H :    0.130400
  22 H :    0.118158
  23 H :    0.110771
  24 H :    0.118376
  25 H :    0.109502
  26 H :    0.124251
  27 H :    0.130256
  28 H :    0.118842
  29 H :    0.125512
  30 H :    0.134940
  31 H :    0.107506
  32 H :    0.109327
  33 H :    0.129674
  34 H :    0.127552
  35 H :    0.130585
  36 H :    0.118023
  37 H :    0.109216
  38 H :    0.124158
  39 H :    0.128813
  40 H :    0.112013

  Mayer bond orders larger than 0.100000
B(  0-C ,  1-C ) :   1.1620 B(  0-C , 19-H ) :   0.9355 B(  0-C , 20-H ) :   0.9445
B(  0-C , 21-H ) :   0.9386 B(  1-C ,  2-O ) :   0.9009 B(  1-C , 22-H ) :   0.9353
B(  1-C , 23-H ) :   0.9171 B(  2-O ,  3-P ) :   1.1253 B(  3-P ,  4-S ) :   1.5935
B(  3-P ,  5-O ) :   1.0988 B(  3-P ,  8-S ) :   0.9597 B(  4-S ,  8-S ) :   0.1145
B(  5-O ,  6-C ) :   0.9135 B(  6-C ,  7-C ) :   1.1668 B(  6-C , 24-H ) :   0.9340
B(  6-C , 25-H ) :   0.9156 B(  7-C , 26-H ) :   0.9433 B(  7-C , 27-H ) :   0.9379
B(  7-C , 28-H ) :   0.9375 B(  8-S ,  9-C ) :   0.9862 B(  9-C , 10-S ) :   1.0172
B(  9-C , 29-H ) :   0.8473 B(  9-C , 30-H ) :   0.9076 B( 10-S , 11-P ) :   0.9234
B( 10-S , 12-S ) :   0.1191 B( 11-P , 12-S ) :   1.6393 B( 11-P , 13-O ) :   1.1300
B( 11-P , 16-O ) :   1.1408 B( 13-O , 14-C ) :   0.9070 B( 14-C , 15-C ) :   1.1615
B( 14-C , 31-H ) :   0.9263 B( 14-C , 32-H ) :   0.9105 B( 15-C , 33-H ) :   0.9510
B( 15-C , 34-H ) :   0.9507 B( 15-C , 35-H ) :   0.9420 B( 16-O , 17-C ) :   0.9020
B( 17-C , 18-C ) :   1.1685 B( 17-C , 36-H ) :   0.9348 B( 17-C , 37-H ) :   0.8959
B( 18-C , 38-H ) :   0.9462 B( 18-C , 39-H ) :   0.9410 B( 18-C , 40-H ) :   0.9326

Dispersion correction           -0.066325820
FINAL SINGLE POINT ENERGY     -2929.523972042201

DIPOLE MOMENT
-------------

Method             : SCF
Type of density    : Electron Density
Multiplicity       :   1
Irrep              :   0
Energy             : -2929.6422293422674556 Eh
Relativity type    :
Basis              : AO
                                X                 Y                 Z
Electronic contribution:     -3.477126325       2.799847146       4.608803579
Nuclear contribution   :      3.596749913      -3.402976274      -4.561407284
                        -----------------------------------------
Total Dipole Moment    :      0.119623588      -0.603129129       0.047396295
                        -----------------------------------------
Magnitude (a.u.)       :      0.616701676
Magnitude (Debye)      :      1.567531088

Rotational constants in cm-1:             0.012690             0.004896             0.004748
Rotational constants in MHz :           380.435484           146.775287           142.352611

                             ****ORCA TERMINATED NORMALLY****
TOTAL RUN TIME: 0 days 0 hours 0 minutes 21 seconds 230 msec
