                         Program Version 6.0.1  -  RELEASE   -
|  1> ! pbe def2-sv(p) def2/J RI DEFGRID1 loosescf d4 GCP(DFT/SV(P)) printgap
|  2> %output
|  3>     printlevel normal
|  4> end
|  5> * xyz 0 1
|  6> C 2.6933621762 -3.5219192226 -0.237563998
|  7> C 3.2617933755 -2.112059962 -0.2264150911
|  8> O 2.3072008126 -1.1735029031 -0.7590486092
|  9> C 2.2518897861 -1.0113579407 -2.0710862694
| 10> O 2.9927049446 -1.5595692936 -2.8556064444
| 11> C 1.1620512305 -0.0475073294 -2.4914977836
| 12> C 0.3183387792 0.4511443032 -1.327471319
| 13> H -0.3972913211 1.2039355506 -1.6816034393
| 14> C 1.1871777455 1.1236937694 -0.2791907991
| 15> O 2.1152582833 1.8426316227 -0.5702614758
| 16> O 0.7965429218 0.8520398508 0.9481088456
| 17> C 1.4959312854 1.4704414571 2.0463362014
| 18> C 0.8314855555 2.7783900069 2.4396299241
| 19> S -0.661893159 -0.9039227393 -0.6002326779
| 20> P -1.961263142 0.2878549971 0.5916520575
| 21> S -2.163894508 2.1615033177 0.0588778499
| 22> O -3.3215245283 -0.5598465694 0.5408659938
| 23> C -4.0855595433 -0.662919022 -0.6646424679
| 24> O -1.5928820183 0.114221375 2.1169412684
| 25> C -1.4205879815 -1.1827762983 2.7197475284
| 26> H 3.3905903975 -4.1930792359 0.252621936
| 27> H 1.740151186 -3.545130927 0.2836486559
| 28> H 2.5422534989 -3.8533550691 -1.2620188518
| 29> H 4.1760361751 -2.0545352451 -0.8238132632
| 30> H 3.4508744616 -1.7638235384 0.7894226906
| 31> H 0.5402206752 -0.5437957867 -3.2378702443
| 32> H 1.6505737474 0.805195421 -2.9698625386
| 33> H 1.4419825609 0.7401590981 2.854053498
| 34> H 2.5327526948 1.6336856819 1.7395502581
| 35> H 1.3317477532 3.1899368216 3.3096965122
| 36> H 0.8924649107 3.4931146949 1.6215118846
| 37> H -0.2175600785 2.6088631427 2.6720750163
| 38> H -4.2517991278 0.3280974038 -1.090007172
| 39> H -5.0312001526 -1.1139764047 -0.3750929864
| 40> H -3.5620767958 -1.2940345979 -1.382618268
| 41> H -2.3508347133 -1.7450325747 2.6679128687
| 42> H -1.1479733588 -0.9829852962 3.7527353564
| 43> H -0.6267607367 -1.7251790512 2.2066437835
| 44> *
| 45>
| 46>                          ****END OF INPUT****

CARTESIAN COORDINATES (ANGSTROEM)
---------------------------------
  C      2.693362   -3.521919   -0.237564
  C      3.261793   -2.112060   -0.226415
  O      2.307201   -1.173503   -0.759049
  C      2.251890   -1.011358   -2.071086
  O      2.992705   -1.559569   -2.855606
  C      1.162051   -0.047507   -2.491498
  C      0.318339    0.451144   -1.327471
  H     -0.397291    1.203936   -1.681603
  C      1.187178    1.123694   -0.279191
  O      2.115258    1.842632   -0.570261
  O      0.796543    0.852040    0.948109
  C      1.495931    1.470441    2.046336
  C      0.831486    2.778390    2.439630
  S     -0.661893   -0.903923   -0.600233
  P     -1.961263    0.287855    0.591652
  S     -2.163895    2.161503    0.058878
  O     -3.321525   -0.559847    0.540866
  C     -4.085560   -0.662919   -0.664642
  O     -1.592882    0.114221    2.116941
  C     -1.420588   -1.182776    2.719748
  H      3.390590   -4.193079    0.252622
  H      1.740151   -3.545131    0.283649
  H      2.542253   -3.853355   -1.262019
  H      4.176036   -2.054535   -0.823813
  H      3.450874   -1.763824    0.789423
  H      0.540221   -0.543796   -3.237870
  H      1.650574    0.805195   -2.969863
  H      1.441983    0.740159    2.854053
  H      2.532753    1.633686    1.739550
  H      1.331748    3.189937    3.309697
  H      0.892465    3.493115    1.621512
  H     -0.217560    2.608863    2.672075
  H     -4.251799    0.328097   -1.090007
  H     -5.031200   -1.113976   -0.375093
  H     -3.562077   -1.294035   -1.382618
  H     -2.350835   -1.745033    2.667913
  H     -1.147973   -0.982985    3.752735
  H     -0.626761   -1.725179    2.206644

 Total Charge           Charge          ....    0
 Multiplicity           Mult            ....    1
 Number of Electrons    NEL             ....  174
 Basis Dimension        Dim             ....  316

ORBITAL ENERGIES
----------------

  NO   OCC          E(Eh)            E(eV)
   0   2.0000     -88.043625     -2395.7888
   1   2.0000     -87.987300     -2394.2562
   2   2.0000     -76.429596     -2079.7551
   3   2.0000     -18.811569      -511.8888
   4   2.0000     -18.807141      -511.7683
   5   2.0000     -18.800135      -511.5777
   6   2.0000     -18.795403      -511.4489
   7   2.0000     -18.738643      -509.9044
   8   2.0000     -18.737525      -509.8740
   9   2.0000     -10.015355      -272.5317
  10   2.0000     -10.015231      -272.5283
  11   2.0000      -9.956632      -270.9337
  12   2.0000      -9.953767      -270.8558
  13   2.0000      -9.948100      -270.7016
  14   2.0000      -9.947511      -270.6855
  15   2.0000      -9.946501      -270.6580
  16   2.0000      -9.917429      -269.8670
  17   2.0000      -9.891362      -269.1576
  18   2.0000      -9.878468      -268.8068
  19   2.0000      -7.688012      -209.2014
  20   2.0000      -7.632439      -207.6892
  21   2.0000      -6.426608      -174.8769
  22   2.0000      -5.715710      -155.5324
  23   2.0000      -5.712735      -155.4514
  24   2.0000      -5.705077      -155.2430
  25   2.0000      -5.661553      -154.0587
  26   2.0000      -5.652859      -153.8221
  27   2.0000      -5.652552      -153.8138
  28   2.0000      -4.649300      -126.5139
  29   2.0000      -4.648490      -126.4918
  30   2.0000      -4.646954      -126.4500
  31   2.0000      -1.018747       -27.7215
  32   2.0000      -1.012790       -27.5594
  33   2.0000      -0.992050       -26.9950
  34   2.0000      -0.947411       -25.7804
  35   2.0000      -0.919536       -25.0218
  36   2.0000      -0.917850       -24.9760
  37   2.0000      -0.770440       -20.9647
  38   2.0000      -0.716958       -19.5094
  39   2.0000      -0.702535       -19.1170
  40   2.0000      -0.695223       -18.9180
  41   2.0000      -0.663160       -18.0455
  42   2.0000      -0.641226       -17.4487
  43   2.0000      -0.625385       -17.0176
  44   2.0000      -0.616090       -16.7647
  45   2.0000      -0.601649       -16.3717
  46   2.0000      -0.569491       -15.4966
  47   2.0000      -0.520156       -14.1542
  48   2.0000      -0.507005       -13.7963
  49   2.0000      -0.501408       -13.6440
  50   2.0000      -0.484156       -13.1746
  51   2.0000      -0.478106       -13.0099
  52   2.0000      -0.467222       -12.7138
  53   2.0000      -0.443003       -12.0547
  54   2.0000      -0.439557       -11.9610
  55   2.0000      -0.436963       -11.8904
  56   2.0000      -0.430205       -11.7065
  57   2.0000      -0.422265       -11.4904
  58   2.0000      -0.419031       -11.4024
  59   2.0000      -0.407287       -11.0829
  60   2.0000      -0.404060       -10.9950
  61   2.0000      -0.400966       -10.9109
  62   2.0000      -0.397233       -10.8093
  63   2.0000      -0.390104       -10.6153
  64   2.0000      -0.376133       -10.2351
  65   2.0000      -0.372455       -10.1350
  66   2.0000      -0.359031        -9.7697
  67   2.0000      -0.354183        -9.6378
  68   2.0000      -0.348520        -9.4837
  69   2.0000      -0.339045        -9.2259
  70   2.0000      -0.337879        -9.1942
  71   2.0000      -0.329637        -8.9699
  72   2.0000      -0.321984        -8.7616
  73   2.0000      -0.320383        -8.7181
  74   2.0000      -0.313107        -8.5201
  75   2.0000      -0.303746        -8.2654
  76   2.0000      -0.300416        -8.1747
  77   2.0000      -0.293921        -7.9980
  78   2.0000      -0.274332        -7.4650
  79   2.0000      -0.267979        -7.2921
  80   2.0000      -0.263965        -7.1828
  81   2.0000      -0.258892        -7.0448
  82   2.0000      -0.244137        -6.6433
  83   2.0000      -0.226302        -6.1580
  84   2.0000      -0.213164        -5.8005
  85   2.0000      -0.205430        -5.5900
  86   2.0000      -0.202382        -5.5071
  87   0.0000      -0.043499        -1.1837
  88   0.0000      -0.025588        -0.6963
  89   0.0000      -0.022221        -0.6047
  90   0.0000       0.003250         0.0884
  91   0.0000       0.012595         0.3427

MULLIKEN ATOMIC CHARGES
-----------------------
   0 C :   -0.309382
   1 C :   -0.007486
   2 O :   -0.236688
   3 C :    0.115574
   4 O :   -0.200829
   5 C :   -0.101145
   6 C :   -0.317959
   7 H :    0.158018
   8 C :    0.239137
   9 O :   -0.201658
  10 O :   -0.232148
  11 C :   -0.012919
  12 C :   -0.300722
  13 S :   -0.099103
  14 P :    0.623488
  15 S :   -0.315947
  16 O :   -0.390806
  17 C :   -0.099746
  18 O :   -0.360459
  19 C :   -0.112835
  20 H :    0.114054
  21 H :    0.115717
  22 H :    0.128727
  23 H :    0.114890
  24 H :    0.101529
  25 H :    0.133328
  26 H :    0.148762
  27 H :    0.094638
  28 H :    0.109510
  29 H :    0.105830
  30 H :    0.125497
  31 H :    0.130064
  32 H :    0.118845
  33 H :    0.125867
  34 H :    0.113741
  35 H :    0.127952
  36 H :    0.131008
  37 H :    0.123654
Sum of atomic charges:    0.0000000

LOEWDIN ATOMIC CHARGES
----------------------
   0 C :   -0.356396
   1 C :   -0.107495
   2 O :   -0.052145
   3 C :    0.035898
   4 O :   -0.162465
   5 C :   -0.244775
   6 C :   -0.277755
   7 H :    0.143083
   8 C :    0.016853
   9 O :   -0.164468
  10 O :   -0.055373
  11 C :   -0.107956
  12 C :   -0.356716
  13 S :    0.090961
  14 P :    0.578564
  15 S :   -0.307010
  16 O :   -0.262138
  17 C :   -0.217059
  18 O :   -0.235230
  19 C :   -0.211711
  20 H :    0.131037
  21 H :    0.123510
  22 H :    0.131504
  23 H :    0.123213
  24 H :    0.117582
  25 H :    0.148536
  26 H :    0.163119
  27 H :    0.113154
  28 H :    0.119634
  29 H :    0.127027
  30 H :    0.131339
  31 H :    0.127960
  32 H :    0.112356
  33 H :    0.122713
  34 H :    0.107711
  35 H :    0.117460
  36 H :    0.125200
  37 H :    0.110280

  Mayer bond orders larger than 0.100000
B(  0-C ,  1-C ) :   1.1737 B(  0-C , 20-H ) :   0.9438 B(  0-C , 21-H ) :   0.9471
B(  0-C , 22-H ) :   0.9451 B(  1-C ,  2-O ) :   0.9103 B(  1-C , 23-H ) :   0.9155
B(  1-C , 24-H ) :   0.9362 B(  2-O ,  3-C ) :   1.2145 B(  3-C ,  4-O ) :   2.0533
B(  3-C ,  5-C ) :   1.0143 B(  5-C ,  6-C ) :   1.0648 B(  5-C , 25-H ) :   0.8991
B(  5-C , 26-H ) :   0.8745 B(  6-C ,  7-H ) :   0.8337 B(  6-C ,  8-C ) :   0.8631
B(  6-C , 13-S ) :   1.0196 B(  8-C ,  9-O ) :   2.0607 B(  8-C , 10-O ) :   1.2448
B( 10-O , 11-C ) :   0.9037 B( 11-C , 12-C ) :   1.1820 B( 11-C , 27-H ) :   0.9344
B( 11-C , 28-H ) :   0.9126 B( 12-C , 29-H ) :   0.9423 B( 12-C , 30-H ) :   0.9446
B( 12-C , 31-H ) :   0.9406 B( 13-S , 14-P ) :   0.9578 B( 13-S , 15-S ) :   0.1139
B( 14-P , 15-S ) :   1.6310 B( 14-P , 16-O ) :   1.0674 B( 14-P , 18-O ) :   1.1178
B( 16-O , 17-C ) :   0.9326 B( 17-C , 32-H ) :   0.9364 B( 17-C , 33-H ) :   0.9584
B( 17-C , 34-H ) :   0.9455 B( 18-O , 19-C ) :   0.9184 B( 19-C , 35-H ) :   0.9464
B( 19-C , 36-H ) :   0.9582 B( 19-C , 37-H ) :   0.9382

Dispersion correction           -0.054195211
FINAL SINGLE POINT ENERGY     -1979.022959774585

DIPOLE MOMENT
-------------

Method             : SCF
Type of density    : Electron Density
Multiplicity       :   1
Irrep              :   0
Energy             : -1979.1518342966023738 Eh
Relativity type    :
Basis              : AO
                                X                 Y                 Z
Electronic contribution:     -8.003545989       7.126093004      -7.042788030
Nuclear contribution   :      7.609777588      -8.567883557       8.228762276
                        -----------------------------------------
Total Dipole Moment    :     -0.393768401      -1.441790553       1.185974246
                        -----------------------------------------
Magnitude (a.u.)       :      1.907969723
Magnitude (Debye)      :      4.849673626

Rotational constants in cm-1:             0.013629             0.007466             0.006718
Rotational constants in MHz :           408.579708           223.822730           201.398155

                             ****ORCA TERMINATED NORMALLY****
TOTAL RUN TIME: 0 days 0 hours 0 minutes 28 seconds 237 msec
