                         Program Version 6.0.0  -   RELEASE  -
|  1> ! pbe def2-sv(p) def2/J RI DEFGRID1 loosescf d4 GCP(DFT/SV(P)) printgap
|  2> %output
|  3>     printlevel normal
|  4> end
|  5> * xyz 0 1
|  6> C 4.252647161 0.6515922769 -2.2658106262
|  7> C 4.5500672271 -0.1479292531 -1.0150183371
|  8> O 3.6841535267 0.1936301107 0.0842231393
|  9> P 2.0974389882 0.189947691 0.0323352372
| 10> S 1.1861913251 1.7141113031 -0.7907463963
| 11> O 1.7176576388 0.1293763214 1.5629437709
| 12> C 2.2460262948 -0.8609185072 2.4802386433
| 13> C 3.3582672652 -0.2635048874 3.3170091706
| 14> S 1.6655894947 -1.7282772265 -0.7937979872
| 15> C -0.0986352111 -1.4873051855 -1.0467425861
| 16> S -0.9937348356 -1.3375575639 0.5427160326
| 17> P -2.4593436176 0.119443048 0.0433491783
| 18> S -2.32484115 0.9076418394 -1.751684038
| 19> O -2.504022753 1.059330171 1.31609534
| 20> C -1.452300105 1.9346333316 1.7524061853
| 21> C -1.5289239867 3.2793374318 1.0569062164
| 22> O -3.8514576003 -0.56677616 0.3540651267
| 23> C -4.6204522146 -1.2299414713 -0.6626746231
| 24> C -3.9493866701 -2.5017363259 -1.1429245971
| 25> H 3.2571809868 0.4124136265 -2.6380449326
| 26> H 4.2912345656 1.717751934 -2.054052811
| 27> H 4.9829325722 0.4102273949 -3.0313936363
| 28> H 5.5488617021 0.0691331302 -0.6322905127
| 29> H 4.448458768 -1.2193670934 -1.2077159877
| 30> H 1.3915175011 -1.1528762852 3.0939357964
| 31> H 2.5968913037 -1.724538264 1.908777789
| 32> H 4.185779154 0.0388496154 2.6806795555
| 33> H 2.9941607142 0.608148676 3.8537114647
| 34> H 3.7042925902 -1.0055824976 4.0295330204
| 35> H -0.4483633291 -2.3718480154 -1.5734290971
| 36> H -0.2760283838 -0.5780488125 -1.6297597213
| 37> H -1.6191810371 2.0342528749 2.8268303418
| 38> H -0.4788500048 1.4643714508 1.5788748528
| 39> H -0.7882846499 3.946756184 1.4857380423
| 40> H -1.3182194422 3.1678548087 -0.0055094999
| 41> H -2.5203872043 3.7070535053 1.1774807805
| 42> H -5.5742217033 -1.4356041669 -0.1751092532
| 43> H -4.7698594177 -0.536239931 -1.4963295403
| 44> H -3.0445321509 -2.2515171698 -1.6959423408
| 45> H -3.6886532759 -3.1332754352 -0.2972577078
| 46> H -4.6248161552 -3.0390932639 -1.8008220535
| 47> *
| 48>
| 49>                          ****END OF INPUT****

CARTESIAN COORDINATES (ANGSTROEM)
---------------------------------
  C      4.252647    0.651592   -2.265811
  C      4.550067   -0.147929   -1.015018
  O      3.684154    0.193630    0.084223
  P      2.097439    0.189948    0.032335
  S      1.186191    1.714111   -0.790746
  O      1.717658    0.129376    1.562944
  C      2.246026   -0.860919    2.480239
  C      3.358267   -0.263505    3.317009
  S      1.665589   -1.728277   -0.793798
  C     -0.098635   -1.487305   -1.046743
  S     -0.993735   -1.337558    0.542716
  P     -2.459344    0.119443    0.043349
  S     -2.324841    0.907642   -1.751684
  O     -2.504023    1.059330    1.316095
  C     -1.452300    1.934633    1.752406
  C     -1.528924    3.279337    1.056906
  O     -3.851458   -0.566776    0.354065
  C     -4.620452   -1.229941   -0.662675
  C     -3.949387   -2.501736   -1.142925
  H      3.257181    0.412414   -2.638045
  H      4.291235    1.717752   -2.054053
  H      4.982933    0.410227   -3.031394
  H      5.548862    0.069133   -0.632291
  H      4.448459   -1.219367   -1.207716
  H      1.391518   -1.152876    3.093936
  H      2.596891   -1.724538    1.908778
  H      4.185779    0.038850    2.680680
  H      2.994161    0.608149    3.853711
  H      3.704293   -1.005582    4.029533
  H     -0.448363   -2.371848   -1.573429
  H     -0.276028   -0.578049   -1.629760
  H     -1.619181    2.034253    2.826830
  H     -0.478850    1.464371    1.578875
  H     -0.788285    3.946756    1.485738
  H     -1.318219    3.167855   -0.005509
  H     -2.520387    3.707054    1.177481
  H     -5.574222   -1.435604   -0.175109
  H     -4.769859   -0.536240   -1.496330
  H     -3.044532   -2.251517   -1.695942
  H     -3.688653   -3.133275   -0.297258
  H     -4.624816   -3.039093   -1.800822

 Total Charge           Charge          ....    0
 Multiplicity           Mult            ....    1
 Number of Electrons    NEL             ....  202
 Basis Dimension        Dim             ....  334

ORBITAL ENERGIES
----------------

  NO   OCC          E(Eh)            E(eV)
   0   2.0000     -88.051151     -2395.9936
   1   2.0000     -88.040016     -2395.6906
   2   2.0000     -87.984130     -2394.1699
   3   2.0000     -87.983713     -2394.1586
   4   2.0000     -76.429935     -2079.7643
   5   2.0000     -76.421300     -2079.5293
   6   2.0000     -18.801361      -511.6110
   7   2.0000     -18.794882      -511.4347
   8   2.0000     -18.781765      -511.0778
   9   2.0000     -18.781374      -511.0672
  10   2.0000      -9.964668      -271.1524
  11   2.0000      -9.957288      -270.9516
  12   2.0000      -9.955701      -270.9084
  13   2.0000      -9.947012      -270.6719
  14   2.0000      -9.937436      -270.4114
  15   2.0000      -9.889309      -269.1018
  16   2.0000      -9.886993      -269.0388
  17   2.0000      -9.882822      -268.9252
  18   2.0000      -9.865433      -268.4521
  19   2.0000      -7.696033      -209.4197
  20   2.0000      -7.684726      -209.1120
  21   2.0000      -7.629015      -207.5960
  22   2.0000      -7.628558      -207.5836
  23   2.0000      -6.427009      -174.8878
  24   2.0000      -6.418481      -174.6557
  25   2.0000      -5.723793      -155.7523
  26   2.0000      -5.720318      -155.6578
  27   2.0000      -5.713414      -155.4699
  28   2.0000      -5.712631      -155.4486
  29   2.0000      -5.709230      -155.3560
  30   2.0000      -5.701735      -155.1521
  31   2.0000      -5.658152      -153.9661
  32   2.0000      -5.657370      -153.9449
  33   2.0000      -5.649410      -153.7283
  34   2.0000      -5.649169      -153.7217
  35   2.0000      -5.649096      -153.7197
  36   2.0000      -5.648913      -153.7147
  37   2.0000      -4.649875      -126.5295
  38   2.0000      -4.649085      -126.5080
  39   2.0000      -4.646947      -126.4499
  40   2.0000      -4.640678      -126.2793
  41   2.0000      -4.640476      -126.2738
  42   2.0000      -4.639101      -126.2364
  43   2.0000      -0.994009       -27.0484
  44   2.0000      -0.981171       -26.6990
  45   2.0000      -0.950347       -25.8603
  46   2.0000      -0.935646       -25.4602
  47   2.0000      -0.763946       -20.7880
  48   2.0000      -0.721356       -19.6291
  49   2.0000      -0.709175       -19.2976
  50   2.0000      -0.695480       -18.9250
  51   2.0000      -0.679760       -18.4972
  52   2.0000      -0.671023       -18.2595
  53   2.0000      -0.652336       -17.7510
  54   2.0000      -0.634202       -17.2575
  55   2.0000      -0.594976       -16.1901
  56   2.0000      -0.591685       -16.1006
  57   2.0000      -0.578119       -15.7314
  58   2.0000      -0.569028       -15.4840
  59   2.0000      -0.558042       -15.1851
  60   2.0000      -0.507389       -13.8067
  61   2.0000      -0.488709       -13.2984
  62   2.0000      -0.479348       -13.0437
  63   2.0000      -0.461384       -12.5549
  64   2.0000      -0.457090       -12.4380
  65   2.0000      -0.444144       -12.0858
  66   2.0000      -0.440635       -11.9903
  67   2.0000      -0.435465       -11.8496
  68   2.0000      -0.427911       -11.6441
  69   2.0000      -0.416063       -11.3217
  70   2.0000      -0.411450       -11.1961
  71   2.0000      -0.401227       -10.9180
  72   2.0000      -0.393709       -10.7134
  73   2.0000      -0.389783       -10.6065
  74   2.0000      -0.385928       -10.5016
  75   2.0000      -0.365439        -9.9441
  76   2.0000      -0.361372        -9.8334
  77   2.0000      -0.360102        -9.7989
  78   2.0000      -0.351417        -9.5625
  79   2.0000      -0.350445        -9.5361
  80   2.0000      -0.346237        -9.4216
  81   2.0000      -0.343788        -9.3550
  82   2.0000      -0.338574        -9.2131
  83   2.0000      -0.333315        -9.0700
  84   2.0000      -0.324377        -8.8267
  85   2.0000      -0.321136        -8.7385
  86   2.0000      -0.308344        -8.3905
  87   2.0000      -0.301974        -8.2171
  88   2.0000      -0.294868        -8.0238
  89   2.0000      -0.289492        -7.8775
  90   2.0000      -0.283527        -7.7152
  91   2.0000      -0.279575        -7.6076
  92   2.0000      -0.266830        -7.2608
  93   2.0000      -0.261390        -7.1128
  94   2.0000      -0.254722        -6.9313
  95   2.0000      -0.238445        -6.4884
  96   2.0000      -0.219874        -5.9831
  97   2.0000      -0.211793        -5.7632
  98   2.0000      -0.201470        -5.4823
  99   2.0000      -0.196958        -5.3595
 100   2.0000      -0.188817        -5.1380
 101   0.0000      -0.043541        -1.1848
 102   0.0000      -0.033906        -0.9226
 103   0.0000      -0.017003        -0.4627
 104   0.0000       0.010453         0.2844
 105   0.0000       0.016463         0.4480

MULLIKEN ATOMIC CHARGES
-----------------------
   0 C :   -0.310467
   1 C :   -0.014506
   2 O :   -0.377044
   3 P :    0.589246
   4 S :   -0.289978
   5 O :   -0.344683
   6 C :   -0.008492
   7 C :   -0.285926
   8 S :   -0.116101
   9 C :   -0.358063
  10 S :   -0.117138
  11 P :    0.607531
  12 S :   -0.315129
  13 O :   -0.356560
  14 C :   -0.032551
  15 C :   -0.295441
  16 O :   -0.358660
  17 C :    0.003174
  18 C :   -0.321713
  19 H :    0.130094
  20 H :    0.129312
  21 H :    0.113116
  22 H :    0.111081
  23 H :    0.115031
  24 H :    0.111097
  25 H :    0.096963
  26 H :    0.119486
  27 H :    0.119626
  28 H :    0.110015
  29 H :    0.186578
  30 H :    0.216214
  31 H :    0.096112
  32 H :    0.132301
  33 H :    0.104090
  34 H :    0.137871
  35 H :    0.107474
  36 H :    0.105158
  37 H :    0.111448
  38 H :    0.118527
  39 H :    0.119543
  40 H :    0.111362
Sum of atomic charges:   -0.0000000

LOEWDIN ATOMIC CHARGES
----------------------
   0 C :   -0.369007
   1 C :   -0.115137
   2 O :   -0.244646
   3 P :    0.564097
   4 S :   -0.282245
   5 O :   -0.230880
   6 C :   -0.117307
   7 C :   -0.357778
   8 S :    0.068036
   9 C :   -0.480775
  10 S :    0.062163
  11 P :    0.567817
  12 S :   -0.296448
  13 O :   -0.230563
  14 C :   -0.122922
  15 C :   -0.363205
  16 O :   -0.237713
  17 C :   -0.118400
  18 C :   -0.369261
  19 H :    0.122932
  20 H :    0.131814
  21 H :    0.131116
  22 H :    0.121972
  23 H :    0.108470
  24 H :    0.119862
  25 H :    0.102243
  26 H :    0.126103
  27 H :    0.128634
  28 H :    0.129514
  29 H :    0.132260
  30 H :    0.124573
  31 H :    0.114458
  32 H :    0.105761
  33 H :    0.128063
  34 H :    0.122836
  35 H :    0.122168
  36 H :    0.119011
  37 H :    0.109826
  38 H :    0.117654
  39 H :    0.125083
  40 H :    0.129822

  Mayer bond orders larger than 0.100000
B(  0-C ,  1-C ) :   1.1671 B(  0-C , 19-H ) :   0.9316 B(  0-C , 20-H ) :   0.9426
B(  0-C , 21-H ) :   0.9345 B(  1-C ,  2-O ) :   0.9101 B(  1-C , 22-H ) :   0.9328
B(  1-C , 23-H ) :   0.9264 B(  2-O ,  3-P ) :   1.0815 B(  3-P ,  4-S ) :   1.6633
B(  3-P ,  5-O ) :   1.1178 B(  3-P ,  8-S ) :   0.9341 B(  4-S ,  8-S ) :   0.1083
B(  5-O ,  6-C ) :   0.8886 B(  6-C ,  7-C ) :   1.1647 B(  6-C , 24-H ) :   0.9330
B(  6-C , 25-H ) :   0.9124 B(  7-C , 26-H ) :   0.9435 B(  7-C , 27-H ) :   0.9475
B(  7-C , 28-H ) :   0.9406 B(  8-S ,  9-C ) :   1.0069 B(  9-C , 10-S ) :   0.9932
B(  9-C , 29-H ) :   0.9016 B(  9-C , 30-H ) :   0.8410 B( 10-S , 11-P ) :   0.9433
B( 10-S , 12-S ) :   0.1268 B( 11-P , 12-S ) :   1.6077 B( 11-P , 13-O ) :   1.1460
B( 11-P , 16-O ) :   1.1163 B( 13-O , 14-C ) :   0.9031 B( 14-C , 15-C ) :   1.1714
B( 14-C , 31-H ) :   0.9353 B( 14-C , 32-H ) :   0.8977 B( 15-C , 33-H ) :   0.9397
B( 15-C , 34-H ) :   0.9323 B( 15-C , 35-H ) :   0.9462 B( 16-O , 17-C ) :   0.9225
B( 17-C , 18-C ) :   1.1607 B( 17-C , 36-H ) :   0.9343 B( 17-C , 37-H ) :   0.9151
B( 18-C , 38-H ) :   0.9351 B( 18-C , 39-H ) :   0.9438 B( 18-C , 40-H ) :   0.9383

Dispersion correction           -0.066748217
FINAL SINGLE POINT ENERGY     -2929.520156054867

DIPOLE MOMENT
-------------

Method             : SCF
Type of density    : Electron Density
Multiplicity       :   1
Irrep              :   0
Energy             : -2929.6385334072861042 Eh
Relativity type    :
Basis              : AO
                                X                 Y                 Z
Electronic contribution:     -6.889979666      -0.218801223      -3.631966890
Nuclear contribution   :      8.062588015      -1.068823148       4.188360323
                        -----------------------------------------
Total Dipole Moment    :      1.172608349      -1.287624371       0.556393434
                        -----------------------------------------
Magnitude (a.u.)       :      1.828267080
Magnitude (Debye)      :      4.647085607

Rotational constants in cm-1:             0.012273             0.005073             0.004894
Rotational constants in MHz :           367.944767           152.086629           146.713773

                             ****ORCA TERMINATED NORMALLY****
TOTAL RUN TIME: 0 days 0 hours 0 minutes 21 seconds 551 msec
