                         Program Version 6.0.0  -   RELEASE  -
|  1> ! r2scan-3c def2/J RI DEFGRID2 scfconv6 printgap
|  2> %output
|  3>     printlevel normal
|  4> end
|  5> * xyz 0 1
|  6> C 4.5607955884 1.1140577396 -1.9631123868
|  7> C 4.7423523575 0.3232999658 -0.6849587459
|  8> O 3.668012804 0.5245615723 0.2540001628
|  9> P 2.1237328302 0.3206545485 -0.0557467165
| 10> S 1.1811792027 1.7440654615 -1.0142987159
| 11> O 1.532917646 0.1750896329 1.3967093437
| 12> C 2.0310982408 -0.7852425241 2.366340094
| 13> C 0.9503384449 -0.9978347976 3.405291472
| 14> S 2.0771485915 -1.599169143 -0.9709971594
| 15> C 0.3268597308 -1.610527277 -1.4029998874
| 16> S -0.7522404093 -1.8030782835 0.0569270945
| 17> P -1.9207633095 -0.0599306798 -0.0691662913
| 18> S -2.1986630201 0.6786678003 -1.8684334684
| 19> O -1.2825455943 0.8696695849 1.0369847238
| 20> C -1.5342319989 2.286597588 1.0917156208
| 21> C -2.9769588736 2.5897995256 1.4322804185
| 22> O -3.2565422965 -0.5207543367 0.6610697986
| 23> C -4.2400517615 -1.3353457431 -0.0062126396
| 24> C -5.5482855044 -1.2008269989 0.746767386
| 25> H 5.4323809703 0.9824568688 -2.5960162165
| 26> H 3.6779593743 0.766898858 -2.4984229202
| 27> H 4.4315796509 2.1709721908 -1.741604327
| 28> H 5.6260954952 0.6508521667 -0.1347216274
| 29> H 4.8099581876 -0.7468877823 -0.8980150496
| 30> H 2.2715161977 -1.7169239099 1.8453050506
| 31> H 2.9394459089 -0.3685408532 2.8050293569
| 32> H 0.0516830024 -1.3908241539 2.9358343438
| 33> H 1.3056906686 -1.7049882059 4.1477178895
| 34> H 0.7062586621 -0.0563640969 3.8889263407
| 35> H 0.1779537868 -2.4723545637 -2.0482438148
| 36> H 0.0602905899 -0.681495558 -1.9154297561
| 37> H -0.8450828375 2.641497686 1.8596439937
| 38> H -1.2556795177 2.7258514292 0.1275643466
| 39> H -3.0969527216 3.6607970071 1.562334481
| 40> H -3.6235428388 2.2567019269 0.6211431893
| 41> H -3.2620258843 2.075356281 2.3462046287
| 42> H -4.3332273988 -0.9901981153 -1.0416826413
| 43> H -3.8834382595 -2.3689618934 -0.004605225
| 44> H -5.889851857 -0.1698112402 0.725113321
| 45> H -6.2941497068 -1.8345740755 0.2786025348
| 46> H -5.4125207335 -1.5054218864 1.780285119
| 47> *
| 48>
| 49>                          ****END OF INPUT****

CARTESIAN COORDINATES (ANGSTROEM)
---------------------------------
  C      4.560796    1.114058   -1.963112
  C      4.742352    0.323300   -0.684959
  O      3.668013    0.524562    0.254000
  P      2.123733    0.320655   -0.055747
  S      1.181179    1.744065   -1.014299
  O      1.532918    0.175090    1.396709
  C      2.031098   -0.785243    2.366340
  C      0.950338   -0.997835    3.405291
  S      2.077149   -1.599169   -0.970997
  C      0.326860   -1.610527   -1.403000
  S     -0.752240   -1.803078    0.056927
  P     -1.920763   -0.059931   -0.069166
  S     -2.198663    0.678668   -1.868433
  O     -1.282546    0.869670    1.036985
  C     -1.534232    2.286598    1.091716
  C     -2.976959    2.589800    1.432280
  O     -3.256542   -0.520754    0.661070
  C     -4.240052   -1.335346   -0.006213
  C     -5.548286   -1.200827    0.746767
  H      5.432381    0.982457   -2.596016
  H      3.677959    0.766899   -2.498423
  H      4.431580    2.170972   -1.741604
  H      5.626095    0.650852   -0.134722
  H      4.809958   -0.746888   -0.898015
  H      2.271516   -1.716924    1.845305
  H      2.939446   -0.368541    2.805029
  H      0.051683   -1.390824    2.935834
  H      1.305691   -1.704988    4.147718
  H      0.706259   -0.056364    3.888926
  H      0.177954   -2.472355   -2.048244
  H      0.060291   -0.681496   -1.915430
  H     -0.845083    2.641498    1.859644
  H     -1.255680    2.725851    0.127564
  H     -3.096953    3.660797    1.562334
  H     -3.623543    2.256702    0.621143
  H     -3.262026    2.075356    2.346205
  H     -4.333227   -0.990198   -1.041683
  H     -3.883438   -2.368962   -0.004605
  H     -5.889852   -0.169811    0.725113
  H     -6.294150   -1.834574    0.278603
  H     -5.412521   -1.505422    1.780285

 Total Charge           Charge          ....    0
 Multiplicity           Mult            ....    1
 Number of Electrons    NEL             ....  202
 Basis Dimension        Dim             ....  539

ORBITAL ENERGIES
----------------

  NO   OCC          E(Eh)            E(eV)
   0   2.0000     -88.578214     -2410.3357
   1   2.0000     -88.573376     -2410.2041
   2   2.0000     -88.512754     -2408.5545
   3   2.0000     -88.510743     -2408.4998
   4   2.0000     -76.910553     -2092.8425
   5   2.0000     -76.907583     -2092.7617
   6   2.0000     -18.992593      -516.8147
   7   2.0000     -18.985976      -516.6347
   8   2.0000     -18.985657      -516.6260
   9   2.0000     -18.980247      -516.4788
  10   2.0000     -10.106700      -275.0173
  11   2.0000     -10.105125      -274.9744
  12   2.0000     -10.096878      -274.7500
  13   2.0000     -10.093213      -274.6503
  14   2.0000     -10.085053      -274.4282
  15   2.0000     -10.030185      -272.9352
  16   2.0000     -10.027480      -272.8616
  17   2.0000     -10.026781      -272.8426
  18   2.0000     -10.019985      -272.6576
  19   2.0000      -7.872798      -214.2297
  20   2.0000      -7.868041      -214.1003
  21   2.0000      -7.807458      -212.4517
  22   2.0000      -7.805583      -212.4007
  23   2.0000      -6.588874      -179.2924
  24   2.0000      -6.586093      -179.2167
  25   2.0000      -5.819576      -158.3587
  26   2.0000      -5.816370      -158.2715
  27   2.0000      -5.814827      -158.2295
  28   2.0000      -5.811874      -158.1491
  29   2.0000      -5.810239      -158.1046
  30   2.0000      -5.805193      -157.9673
  31   2.0000      -5.755133      -156.6051
  32   2.0000      -5.753489      -156.5604
  33   2.0000      -5.747931      -156.4091
  34   2.0000      -5.747255      -156.3907
  35   2.0000      -5.745775      -156.3505
  36   2.0000      -5.745427      -156.3410
  37   2.0000      -4.734665      -128.8368
  38   2.0000      -4.734221      -128.8247
  39   2.0000      -4.731972      -128.7635
  40   2.0000      -4.731389      -128.7476
  41   2.0000      -4.730977      -128.7364
  42   2.0000      -4.730046      -128.7111
  43   2.0000      -1.049118       -28.5480
  44   2.0000      -1.042978       -28.3809
  45   2.0000      -1.006975       -27.4012
  46   2.0000      -1.002739       -27.2859
  47   2.0000      -0.800372       -21.7792
  48   2.0000      -0.757083       -20.6013
  49   2.0000      -0.748316       -20.3627
  50   2.0000      -0.732907       -19.9434
  51   2.0000      -0.726006       -19.7556
  52   2.0000      -0.708851       -19.2888
  53   2.0000      -0.681974       -18.5574
  54   2.0000      -0.662155       -18.0182
  55   2.0000      -0.625571       -17.0227
  56   2.0000      -0.617721       -16.8090
  57   2.0000      -0.600903       -16.3514
  58   2.0000      -0.598259       -16.2795
  59   2.0000      -0.591242       -16.0885
  60   2.0000      -0.530407       -14.4331
  61   2.0000      -0.520530       -14.1643
  62   2.0000      -0.492743       -13.4082
  63   2.0000      -0.487502       -13.2656
  64   2.0000      -0.471520       -12.8307
  65   2.0000      -0.464259       -12.6331
  66   2.0000      -0.451245       -12.2790
  67   2.0000      -0.449745       -12.2382
  68   2.0000      -0.443999       -12.0818
  69   2.0000      -0.434907       -11.8344
  70   2.0000      -0.429224       -11.6798
  71   2.0000      -0.411493       -11.1973
  72   2.0000      -0.409053       -11.1309
  73   2.0000      -0.398349       -10.8396
  74   2.0000      -0.396017       -10.7762
  75   2.0000      -0.385632       -10.4936
  76   2.0000      -0.372087       -10.1250
  77   2.0000      -0.368471       -10.0266
  78   2.0000      -0.363357        -9.8874
  79   2.0000      -0.360896        -9.8205
  80   2.0000      -0.358454        -9.7540
  81   2.0000      -0.354411        -9.6440
  82   2.0000      -0.352311        -9.5869
  83   2.0000      -0.350882        -9.5480
  84   2.0000      -0.345021        -9.3885
  85   2.0000      -0.331666        -9.0251
  86   2.0000      -0.320419        -8.7190
  87   2.0000      -0.311978        -8.4893
  88   2.0000      -0.310949        -8.4614
  89   2.0000      -0.308845        -8.4041
  90   2.0000      -0.291014        -7.9189
  91   2.0000      -0.286875        -7.8063
  92   2.0000      -0.280515        -7.6332
  93   2.0000      -0.273904        -7.4533
  94   2.0000      -0.269687        -7.3385
  95   2.0000      -0.250271        -6.8102
  96   2.0000      -0.233557        -6.3554
  97   2.0000      -0.224719        -6.1149
  98   2.0000      -0.212482        -5.7819
  99   2.0000      -0.204117        -5.5543
 100   2.0000      -0.195293        -5.3142
 101   0.0000      -0.041966        -1.1420
 102   0.0000      -0.029941        -0.8147
 103   0.0000      -0.011058        -0.3009
 104   0.0000       0.013922         0.3788
 105   0.0000       0.021138         0.5752

MULLIKEN ATOMIC CHARGES
-----------------------
   0 C :   -0.428021
   1 C :   -0.163349
   2 O :   -0.312554
   3 P :    0.662506
   4 S :   -0.398621
   5 O :   -0.252832
   6 C :   -0.111381
   7 C :   -0.457470
   8 S :   -0.182060
   9 C :   -0.214594
  10 S :   -0.153432
  11 P :    0.663225
  12 S :   -0.466481
  13 O :   -0.256457
  14 C :   -0.157882
  15 C :   -0.450696
  16 O :   -0.278782
  17 C :   -0.158858
  18 C :   -0.442481
  19 H :    0.146397
  20 H :    0.171527
  21 H :    0.165226
  22 H :    0.149973
  23 H :    0.150064
  24 H :    0.158294
  25 H :    0.154088
  26 H :    0.169179
  27 H :    0.142422
  28 H :    0.153407
  29 H :    0.197571
  30 H :    0.219750
  31 H :    0.156347
  32 H :    0.181576
  33 H :    0.146261
  34 H :    0.167515
  35 H :    0.153960
  36 H :    0.172347
  37 H :    0.150753
  38 H :    0.155069
  39 H :    0.145935
  40 H :    0.152559
Sum of atomic charges:    0.0000000

LOEWDIN ATOMIC CHARGES
----------------------
   0 C :   -0.406049
   1 C :    0.023528
   2 O :   -0.661870
   3 P :    0.376489
   4 S :   -0.068323
   5 O :   -0.656725
   6 C :    0.020076
   7 C :   -0.389786
   8 S :    0.116963
   9 C :   -0.412768
  10 S :    0.164994
  11 P :    0.368475
  12 S :   -0.128947
  13 O :   -0.660529
  14 C :    0.013957
  15 C :   -0.401552
  16 O :   -0.671278
  17 C :    0.015611
  18 C :   -0.386777
  19 H :    0.157910
  20 H :    0.167725
  21 H :    0.166168
  22 H :    0.181490
  23 H :    0.170489
  24 H :    0.175734
  25 H :    0.174208
  26 H :    0.165885
  27 H :    0.157644
  28 H :    0.160873
  29 H :    0.180464
  30 H :    0.203888
  31 H :    0.182979
  32 H :    0.185001
  33 H :    0.158796
  34 H :    0.164757
  35 H :    0.159946
  36 H :    0.180973
  37 H :    0.171106
  38 H :    0.159956
  39 H :    0.159271
  40 H :    0.159251

  Mayer bond orders larger than 0.100000
B(  0-C ,  1-C ) :   0.9439 B(  0-C , 19-H ) :   0.9629 B(  0-C , 20-H ) :   0.9537
B(  0-C , 21-H ) :   0.9644 B(  1-C ,  2-O ) :   0.8062 B(  1-C , 22-H ) :   0.9574
B(  1-C , 23-H ) :   0.9632 B(  2-O ,  3-P ) :   1.0393 B(  3-P ,  4-S ) :   1.8689
B(  3-P ,  5-O ) :   1.1354 B(  3-P ,  8-S ) :   0.9873 B(  5-O ,  6-C ) :   0.7486
B(  6-C ,  7-C ) :   0.9561 B(  6-C , 24-H ) :   0.9528 B(  6-C , 25-H ) :   0.9431
B(  7-C , 26-H ) :   0.9663 B(  7-C , 27-H ) :   0.9652 B(  7-C , 28-H ) :   0.9706
B(  8-S ,  9-C ) :   0.9185 B(  9-C , 10-S ) :   0.8953 B(  9-C , 29-H ) :   0.9138
B(  9-C , 30-H ) :   0.9045 B( 10-S , 11-P ) :   1.0958 B( 11-P , 12-S ) :   1.7507
B( 11-P , 13-O ) :   1.1825 B( 11-P , 16-O ) :   1.0742 B( 13-O , 14-C ) :   0.7943
B( 14-C , 15-C ) :   0.9079 B( 14-C , 31-H ) :   0.9637 B( 14-C , 32-H ) :   0.9611
B( 15-C , 33-H ) :   0.9614 B( 15-C , 34-H ) :   0.9626 B( 15-C , 35-H ) :   0.9728
B( 16-O , 17-C ) :   0.7879 B( 17-C , 18-C ) :   0.9549 B( 17-C , 36-H ) :   0.9505
B( 17-C , 37-H ) :   0.9467 B( 18-C , 38-H ) :   0.9716 B( 18-C , 39-H ) :   0.9654
B( 18-C , 40-H ) :   0.9721

Dispersion correction           -0.022133163
FINAL SINGLE POINT ENERGY     -2932.458362868822

DIPOLE MOMENT
-------------

Method             : SCF
Type of density    : Electron Density
Multiplicity       :   1
Irrep              :   0
Energy             : -2932.4827890203914649 Eh
Relativity type    :
Basis              : AO
                                X                 Y                 Z
Electronic contribution:      6.716648883      -2.594156176     -10.560683846
Nuclear contribution   :     -6.190060113       1.616003791      11.571357809
                        -----------------------------------------
Total Dipole Moment    :      0.526588770      -0.978152385       1.010673963
                        -----------------------------------------
Magnitude (a.u.)       :      1.501845425
Magnitude (Debye)      :      3.817387697

Rotational constants in cm-1:             0.013234             0.005107             0.005016
Rotational constants in MHz :           396.750960           153.111344           150.361968

                             ****ORCA TERMINATED NORMALLY****
TOTAL RUN TIME: 0 days 0 hours 1 minutes 24 seconds 983 msec
