                         Program Version 6.0.0  -   RELEASE  -
|  1> ! r2scan-3c def2/J RI DEFGRID2 scfconv6 printgap
|  2> %output
|  3>     printlevel normal
|  4> end
|  5> %cpcm
|  6>     smd true
|  7>     smdsolvent "water"
|  8> end
|  9> * xyz 0 1
| 10> C 4.5607955884 1.1140577396 -1.9631123868
| 11> C 4.7423523575 0.3232999658 -0.6849587459
| 12> O 3.668012804 0.5245615723 0.2540001628
| 13> P 2.1237328302 0.3206545485 -0.0557467165
| 14> S 1.1811792027 1.7440654615 -1.0142987159
| 15> O 1.532917646 0.1750896329 1.3967093437
| 16> C 2.0310982408 -0.7852425241 2.366340094
| 17> C 0.9503384449 -0.9978347976 3.405291472
| 18> S 2.0771485915 -1.599169143 -0.9709971594
| 19> C 0.3268597308 -1.610527277 -1.4029998874
| 20> S -0.7522404093 -1.8030782835 0.0569270945
| 21> P -1.9207633095 -0.0599306798 -0.0691662913
| 22> S -2.1986630201 0.6786678003 -1.8684334684
| 23> O -1.2825455943 0.8696695849 1.0369847238
| 24> C -1.5342319989 2.286597588 1.0917156208
| 25> C -2.9769588736 2.5897995256 1.4322804185
| 26> O -3.2565422965 -0.5207543367 0.6610697986
| 27> C -4.2400517615 -1.3353457431 -0.0062126396
| 28> C -5.5482855044 -1.2008269989 0.746767386
| 29> H 5.4323809703 0.9824568688 -2.5960162165
| 30> H 3.6779593743 0.766898858 -2.4984229202
| 31> H 4.4315796509 2.1709721908 -1.741604327
| 32> H 5.6260954952 0.6508521667 -0.1347216274
| 33> H 4.8099581876 -0.7468877823 -0.8980150496
| 34> H 2.2715161977 -1.7169239099 1.8453050506
| 35> H 2.9394459089 -0.3685408532 2.8050293569
| 36> H 0.0516830024 -1.3908241539 2.9358343438
| 37> H 1.3056906686 -1.7049882059 4.1477178895
| 38> H 0.7062586621 -0.0563640969 3.8889263407
| 39> H 0.1779537868 -2.4723545637 -2.0482438148
| 40> H 0.0602905899 -0.681495558 -1.9154297561
| 41> H -0.8450828375 2.641497686 1.8596439937
| 42> H -1.2556795177 2.7258514292 0.1275643466
| 43> H -3.0969527216 3.6607970071 1.562334481
| 44> H -3.6235428388 2.2567019269 0.6211431893
| 45> H -3.2620258843 2.075356281 2.3462046287
| 46> H -4.3332273988 -0.9901981153 -1.0416826413
| 47> H -3.8834382595 -2.3689618934 -0.004605225
| 48> H -5.889851857 -0.1698112402 0.725113321
| 49> H -6.2941497068 -1.8345740755 0.2786025348
| 50> H -5.4125207335 -1.5054218864 1.780285119
| 51> *
| 52>
| 53>                          ****END OF INPUT****

CARTESIAN COORDINATES (ANGSTROEM)
---------------------------------
  C      4.560796    1.114058   -1.963112
  C      4.742352    0.323300   -0.684959
  O      3.668013    0.524562    0.254000
  P      2.123733    0.320655   -0.055747
  S      1.181179    1.744065   -1.014299
  O      1.532918    0.175090    1.396709
  C      2.031098   -0.785243    2.366340
  C      0.950338   -0.997835    3.405291
  S      2.077149   -1.599169   -0.970997
  C      0.326860   -1.610527   -1.403000
  S     -0.752240   -1.803078    0.056927
  P     -1.920763   -0.059931   -0.069166
  S     -2.198663    0.678668   -1.868433
  O     -1.282546    0.869670    1.036985
  C     -1.534232    2.286598    1.091716
  C     -2.976959    2.589800    1.432280
  O     -3.256542   -0.520754    0.661070
  C     -4.240052   -1.335346   -0.006213
  C     -5.548286   -1.200827    0.746767
  H      5.432381    0.982457   -2.596016
  H      3.677959    0.766899   -2.498423
  H      4.431580    2.170972   -1.741604
  H      5.626095    0.650852   -0.134722
  H      4.809958   -0.746888   -0.898015
  H      2.271516   -1.716924    1.845305
  H      2.939446   -0.368541    2.805029
  H      0.051683   -1.390824    2.935834
  H      1.305691   -1.704988    4.147718
  H      0.706259   -0.056364    3.888926
  H      0.177954   -2.472355   -2.048244
  H      0.060291   -0.681496   -1.915430
  H     -0.845083    2.641498    1.859644
  H     -1.255680    2.725851    0.127564
  H     -3.096953    3.660797    1.562334
  H     -3.623543    2.256702    0.621143
  H     -3.262026    2.075356    2.346205
  H     -4.333227   -0.990198   -1.041683
  H     -3.883438   -2.368962   -0.004605
  H     -5.889852   -0.169811    0.725113
  H     -6.294150   -1.834574    0.278603
  H     -5.412521   -1.505422    1.780285

 Total Charge           Charge          ....    0
 Multiplicity           Mult            ....    1
 Number of Electrons    NEL             ....  202
 Basis Dimension        Dim             ....  539

ORBITAL ENERGIES
----------------

  NO   OCC          E(Eh)            E(eV)
   0   2.0000     -88.580970     -2410.4107
   1   2.0000     -88.578469     -2410.3427
   2   2.0000     -88.524802     -2408.8823
   3   2.0000     -88.521755     -2408.7994
   4   2.0000     -76.917510     -2093.0319
   5   2.0000     -76.917310     -2093.0264
   6   2.0000     -18.994657      -516.8709
   7   2.0000     -18.992375      -516.8088
   8   2.0000     -18.991547      -516.7863
   9   2.0000     -18.990895      -516.7685
  10   2.0000     -10.106073      -275.0002
  11   2.0000     -10.093599      -274.6608
  12   2.0000     -10.089902      -274.5602
  13   2.0000     -10.087969      -274.5076
  14   2.0000     -10.086967      -274.4803
  15   2.0000     -10.019037      -272.6319
  16   2.0000     -10.018835      -272.6264
  17   2.0000     -10.018589      -272.6197
  18   2.0000     -10.017580      -272.5922
  19   2.0000      -7.875434      -214.3014
  20   2.0000      -7.873061      -214.2369
  21   2.0000      -7.819839      -212.7886
  22   2.0000      -7.816958      -212.7102
  23   2.0000      -6.595885      -179.4832
  24   2.0000      -6.595870      -179.4828
  25   2.0000      -5.822248      -158.4314
  26   2.0000      -5.819854      -158.3663
  27   2.0000      -5.819036      -158.3440
  28   2.0000      -5.816906      -158.2861
  29   2.0000      -5.812823      -158.1750
  30   2.0000      -5.810212      -158.1039
  31   2.0000      -5.767438      -156.9400
  32   2.0000      -5.764742      -156.8666
  33   2.0000      -5.760298      -156.7457
  34   2.0000      -5.759662      -156.7284
  35   2.0000      -5.757224      -156.6620
  36   2.0000      -5.756780      -156.6499
  37   2.0000      -4.741629      -129.0263
  38   2.0000      -4.741181      -129.0141
  39   2.0000      -4.741138      -129.0129
  40   2.0000      -4.740757      -129.0026
  41   2.0000      -4.739879      -128.9787
  42   2.0000      -4.739116      -128.9579
  43   2.0000      -1.052819       -28.6487
  44   2.0000      -1.050999       -28.5991
  45   2.0000      -1.011209       -27.5164
  46   2.0000      -1.009570       -27.4718
  47   2.0000      -0.802652       -21.8413
  48   2.0000      -0.756791       -20.5933
  49   2.0000      -0.746072       -20.3016
  50   2.0000      -0.725565       -19.7436
  51   2.0000      -0.723256       -19.6808
  52   2.0000      -0.710513       -19.3340
  53   2.0000      -0.688036       -18.7224
  54   2.0000      -0.670277       -18.2392
  55   2.0000      -0.628413       -17.1000
  56   2.0000      -0.615734       -16.7550
  57   2.0000      -0.598757       -16.2930
  58   2.0000      -0.596050       -16.2193
  59   2.0000      -0.590000       -16.0547
  60   2.0000      -0.529001       -14.3948
  61   2.0000      -0.521169       -14.1817
  62   2.0000      -0.492324       -13.3968
  63   2.0000      -0.489022       -13.3070
  64   2.0000      -0.471517       -12.8306
  65   2.0000      -0.466996       -12.7076
  66   2.0000      -0.448861       -12.2141
  67   2.0000      -0.444371       -12.0920
  68   2.0000      -0.443578       -12.0704
  69   2.0000      -0.435198       -11.8423
  70   2.0000      -0.430094       -11.7034
  71   2.0000      -0.410916       -11.1816
  72   2.0000      -0.408811       -11.1243
  73   2.0000      -0.398707       -10.8494
  74   2.0000      -0.396004       -10.7758
  75   2.0000      -0.387432       -10.5426
  76   2.0000      -0.370222       -10.0743
  77   2.0000      -0.361950        -9.8492
  78   2.0000      -0.360693        -9.8150
  79   2.0000      -0.356890        -9.7115
  80   2.0000      -0.353900        -9.6301
  81   2.0000      -0.351985        -9.5780
  82   2.0000      -0.349627        -9.5138
  83   2.0000      -0.347508        -9.4562
  84   2.0000      -0.344004        -9.3608
  85   2.0000      -0.329061        -8.9542
  86   2.0000      -0.321618        -8.7517
  87   2.0000      -0.312632        -8.5071
  88   2.0000      -0.310612        -8.4522
  89   2.0000      -0.307603        -8.3703
  90   2.0000      -0.295783        -8.0487
  91   2.0000      -0.288172        -7.8416
  92   2.0000      -0.284896        -7.7524
  93   2.0000      -0.277281        -7.5452
  94   2.0000      -0.272831        -7.4241
  95   2.0000      -0.253947        -6.9102
  96   2.0000      -0.240932        -6.5561
  97   2.0000      -0.236704        -6.4411
  98   2.0000      -0.223951        -6.0940
  99   2.0000      -0.214674        -5.8416
 100   2.0000      -0.207576        -5.6484
 101   0.0000      -0.046429        -1.2634
 102   0.0000      -0.036648        -0.9972
 103   0.0000      -0.015145        -0.4121
 104   0.0000       0.007552         0.2055
 105   0.0000       0.017402         0.4735

MULLIKEN ATOMIC CHARGES
-----------------------
   0 C :   -0.466627
   1 C :   -0.161893
   2 O :   -0.337611
   3 P :    0.678579
   4 S :   -0.458075
   5 O :   -0.285277
   6 C :   -0.099102
   7 C :   -0.507430
   8 S :   -0.174846
   9 C :   -0.214365
  10 S :   -0.148026
  11 P :    0.694549
  12 S :   -0.522685
  13 O :   -0.285377
  14 C :   -0.155168
  15 C :   -0.494035
  16 O :   -0.306904
  17 C :   -0.149298
  18 C :   -0.484577
  19 H :    0.173487
  20 H :    0.164917
  21 H :    0.169813
  22 H :    0.177708
  23 H :    0.172427
  24 H :    0.173189
  25 H :    0.174761
  26 H :    0.168790
  27 H :    0.170200
  28 H :    0.169416
  29 H :    0.238984
  30 H :    0.212152
  31 H :    0.178891
  32 H :    0.180396
  33 H :    0.171606
  34 H :    0.169040
  35 H :    0.169780
  36 H :    0.171809
  37 H :    0.170530
  38 H :    0.165566
  39 H :    0.169135
  40 H :    0.165571
Sum of atomic charges:   -0.0000000

LOEWDIN ATOMIC CHARGES
----------------------
   0 C :   -0.409987
   1 C :    0.030864
   2 O :   -0.671858
   3 P :    0.378727
   4 S :   -0.111077
   5 O :   -0.678598
   6 C :    0.027088
   7 C :   -0.394432
   8 S :    0.131514
   9 C :   -0.407586
  10 S :    0.171215
  11 P :    0.372252
  12 S :   -0.164791
  13 O :   -0.680013
  14 C :    0.014441
  15 C :   -0.403417
  16 O :   -0.684431
  17 C :    0.020640
  18 C :   -0.390090
  19 H :    0.168209
  20 H :    0.162034
  21 H :    0.164241
  22 H :    0.193297
  23 H :    0.179183
  24 H :    0.181776
  25 H :    0.183592
  26 H :    0.162750
  27 H :    0.168916
  28 H :    0.163718
  29 H :    0.196981
  30 H :    0.200581
  31 H :    0.190772
  32 H :    0.183613
  33 H :    0.168486
  34 H :    0.163100
  35 H :    0.164254
  36 H :    0.181226
  37 H :    0.179142
  38 H :    0.162193
  39 H :    0.168495
  40 H :    0.162979

  Mayer bond orders larger than 0.100000
B(  0-C ,  1-C ) :   0.9217 B(  0-C , 19-H ) :   0.9568 B(  0-C , 20-H ) :   0.9576
B(  0-C , 21-H ) :   0.9659 B(  1-C ,  2-O ) :   0.7962 B(  1-C , 22-H ) :   0.9480
B(  1-C , 23-H ) :   0.9586 B(  2-O ,  3-P ) :   1.0540 B(  3-P ,  4-S ) :   1.8337
B(  3-P ,  5-O ) :   1.1379 B(  3-P ,  8-S ) :   1.0088 B(  5-O ,  6-C ) :   0.7434
B(  6-C ,  7-C ) :   0.9378 B(  6-C , 24-H ) :   0.9466 B(  6-C , 25-H ) :   0.9337
B(  7-C , 26-H ) :   0.9678 B(  7-C , 27-H ) :   0.9583 B(  7-C , 28-H ) :   0.9686
B(  8-S ,  9-C ) :   0.9110 B(  9-C , 10-S ) :   0.8871 B(  9-C , 29-H ) :   0.8975
B(  9-C , 30-H ) :   0.9090 B( 10-S , 11-P ) :   1.1272 B( 11-P , 12-S ) :   1.6980
B( 11-P , 13-O ) :   1.1791 B( 11-P , 16-O ) :   1.0817 B( 13-O , 14-C ) :   0.7791
B( 14-C , 15-C ) :   0.9050 B( 14-C , 31-H ) :   0.9516 B( 14-C , 32-H ) :   0.9577
B( 15-C , 33-H ) :   0.9546 B( 15-C , 34-H ) :   0.9619 B( 15-C , 35-H ) :   0.9710
B( 16-O , 17-C ) :   0.7804 B( 17-C , 18-C ) :   0.9513 B( 17-C , 36-H ) :   0.9476
B( 17-C , 37-H ) :   0.9377 B( 18-C , 38-H ) :   0.9693 B( 18-C , 39-H ) :   0.9590
B( 18-C , 40-H ) :   0.9691

Dispersion correction           -0.022133163
FINAL SINGLE POINT ENERGY     -2932.468418131245

DIPOLE MOMENT
-------------

Method             : SCF
Type of density    : Electron Density
Multiplicity       :   1
Irrep              :   0
Energy             : -2932.4928442828136212 Eh
Relativity type    :
Basis              : AO
                                X                 Y                 Z
Electronic contribution:      7.041439397      -3.290226492     -10.298488677
Nuclear contribution   :     -6.190060113       1.616003791      11.571357809
                        -----------------------------------------
Total Dipole Moment    :      0.851379284      -1.674222700       1.272869132
                        -----------------------------------------
Magnitude (a.u.)       :      2.268934588
Magnitude (Debye)      :      5.767173397

Rotational constants in cm-1:             0.013234             0.005107             0.005016
Rotational constants in MHz :           396.750960           153.111344           150.361968

                             ****ORCA TERMINATED NORMALLY****
TOTAL RUN TIME: 0 days 0 hours 1 minutes 51 seconds 189 msec
