                         Program Version 6.0.0  -   RELEASE  -
|  1> ! wb97x-v def2-tzvp def2/J RIJCOSX DEFGRID2 scfconv7 GCP(DFT/TZ) printgap
|  2> %output
|  3>     printlevel normal
|  4> end
|  5> * xyz 0 1
|  6> C 2.9958936702990995 -1.8849357341881239 0.301093691570947
|  7> C 1.7193882584962705 -1.145104587541181 0.13559777742275722
|  8> C 1.5522233624150052 0.19876045429071468 0.03408983370774573
|  9> C 0.24884827252003527 0.7980923940929275 -0.18137098253721462
| 10> O 0.10044907262223597 1.9806831300732892 -0.481304311045827
| 11> N -0.8540468023079976 -0.07368237124110041 -0.010240761983931132
| 12> C -0.6881141406858478 -1.445706384780522 -0.1824452607377968
| 13> O -1.5817386580194448 -2.2306708947445895 -0.48844355545086554
| 14> N 0.593727674642803 -1.9152077039282684 0.023826538066224565
| 15> C -2.266299588207717 0.500336534363196 0.14822662048379506
| 16> C -3.14873421830419 -0.4850114179516347 0.9351606099347053
| 17> C -2.210619890590138 1.7847337931220792 0.9939829188371498
| 18> C -2.8570577827194024 0.7751086732524977 -1.2318687868349154
| 19> Cl 2.9099682963189095 1.2904436970855755 0.05695028114837888
| 20> H 2.915378362521197 -2.5728243080446003 1.1490845934009917
| 21> H 3.8349553373128655 -1.2120745645141981 0.46412230292209233
| 22> H 3.1905952881172372 -2.4859334241125866 -0.5944111616353517
| 23> H 0.7006011715198334 -2.918972005365154 -0.06431966880547976
| 24> H -2.6319728481183424 -0.8532336470074762 1.8273969821154408
| 25> H -4.0338750439168045 0.06439054416047733 1.2639540754963348
| 26> H -3.4799231750176935 -1.3334949327433085 0.3420450676583212
| 27> H -1.8074976118451858 2.638664398784625 0.4562592110451834
| 28> H -1.6257839925119468 1.6292732922834163 1.9063565850281485
| 29> H -3.2350238597770855 2.022983961732572 1.2895444311730464
| 30> H -3.8704203820658365 1.1718370922162331 -1.1140170440606052
| 31> H -2.260295408401105 1.5110791911524086 -1.777277733605769
| 32> H -2.9144378665478516 -0.14405713947247067 -1.8221708821291067
| 33> *
| 34>
| 35>                          ****END OF INPUT****

CARTESIAN COORDINATES (ANGSTROEM)
---------------------------------
  C      2.995894   -1.884936    0.301094
  C      1.719388   -1.145105    0.135598
  C      1.552223    0.198760    0.034090
  C      0.248848    0.798092   -0.181371
  O      0.100449    1.980683   -0.481304
  N     -0.854047   -0.073682   -0.010241
  C     -0.688114   -1.445706   -0.182445
  O     -1.581739   -2.230671   -0.488444
  N      0.593728   -1.915208    0.023827
  C     -2.266300    0.500337    0.148227
  C     -3.148734   -0.485011    0.935161
  C     -2.210620    1.784734    0.993983
  C     -2.857058    0.775109   -1.231869
  Cl     2.909968    1.290444    0.056950
  H      2.915378   -2.572824    1.149085
  H      3.834955   -1.212075    0.464122
  H      3.190595   -2.485933   -0.594411
  H      0.700601   -2.918972   -0.064320
  H     -2.631973   -0.853234    1.827397
  H     -4.033875    0.064391    1.263954
  H     -3.479923   -1.333495    0.342045
  H     -1.807498    2.638664    0.456259
  H     -1.625784    1.629273    1.906357
  H     -3.235024    2.022984    1.289544
  H     -3.870420    1.171837   -1.114017
  H     -2.260295    1.511079   -1.777278
  H     -2.914438   -0.144057   -1.822171

 Total Charge           Charge          ....    0
 Multiplicity           Mult            ....    1
 Number of Electrons    NEL             ....  114
 Basis Dimension        Dim             ....  518

ORBITAL ENERGIES
----------------

  NO   OCC          E(Eh)            E(eV)
   0   2.0000    -107.150370     -2915.7098
   1   2.0000     -21.655502      -589.2762
   2   2.0000     -21.652602      -589.1973
   3   2.0000     -16.600196      -451.7143
   4   2.0000     -16.588716      -451.4019
   5   2.0000     -12.206213      -332.1480
   6   2.0000     -12.176817      -331.3480
   7   2.0000     -12.148332      -330.5729
   8   2.0000     -12.117631      -329.7375
   9   2.0000     -12.112438      -329.5962
  10   2.0000     -12.085393      -328.8603
  11   2.0000     -12.034538      -327.4764
  12   2.0000     -12.034018      -327.4623
  13   2.0000     -12.032526      -327.4217
  14   2.0000     -11.303131      -307.5738
  15   2.0000      -9.094856      -247.4836
  16   2.0000      -9.091978      -247.4053
  17   2.0000      -9.091922      -247.4038
  18   2.0000      -1.725211       -46.9454
  19   2.0000      -1.709736       -46.5243
  20   2.0000      -1.592589       -43.3365
  21   2.0000      -1.534651       -41.7600
  22   2.0000      -1.435048       -39.0497
  23   2.0000      -1.348257       -36.6879
  24   2.0000      -1.332097       -36.2482
  25   2.0000      -1.267272       -34.4842
  26   2.0000      -1.221360       -33.2349
  27   2.0000      -1.195676       -32.5360
  28   2.0000      -1.187280       -32.3075
  29   2.0000      -1.177661       -32.0458
  30   2.0000      -1.112755       -30.2796
  31   2.0000      -1.103527       -30.0285
  32   2.0000      -1.062820       -28.9208
  33   2.0000      -1.058494       -28.8031
  34   2.0000      -1.029119       -28.0037
  35   2.0000      -0.970301       -26.4032
  36   2.0000      -0.952787       -25.9266
  37   2.0000      -0.944530       -25.7020
  38   2.0000      -0.935381       -25.4530
  39   2.0000      -0.917339       -24.9621
  40   2.0000      -0.900272       -24.4976
  41   2.0000      -0.894857       -24.3503
  42   2.0000      -0.882889       -24.0246
  43   2.0000      -0.875471       -23.8228
  44   2.0000      -0.871581       -23.7169
  45   2.0000      -0.860611       -23.4184
  46   2.0000      -0.848779       -23.0965
  47   2.0000      -0.829302       -22.5665
  48   2.0000      -0.819114       -22.2892
  49   2.0000      -0.818079       -22.2611
  50   2.0000      -0.811813       -22.0906
  51   2.0000      -0.802737       -21.8436
  52   2.0000      -0.796913       -21.6851
  53   2.0000      -0.795829       -21.6556
  54   2.0000      -0.776481       -21.1291
  55   2.0000      -0.773072       -21.0364
  56   2.0000      -0.688890       -18.7456
  57   0.0000      -0.350301        -9.5322
  58   0.0000      -0.312677        -8.5084
  59   0.0000      -0.279576        -7.6077
  60   0.0000      -0.198444        -5.3999
  61   0.0000      -0.176479        -4.8022

MULLIKEN ATOMIC CHARGES
-----------------------
   0 C :   -0.380533
   1 C :    0.184510
   2 C :   -0.081666
   3 C :    0.222496
   4 O :   -0.352248
   5 N :   -0.050286
   6 C :    0.287094
   7 O :   -0.381943
   8 N :   -0.243920
   9 C :    0.135843
  10 C :   -0.361517
  11 C :   -0.367399
  12 C :   -0.401647
  13 Cl:   -0.062403
  14 H :    0.143235
  15 H :    0.153237
  16 H :    0.146266
  17 H :    0.246173
  18 H :    0.112098
  19 H :    0.112380
  20 H :    0.159311
  21 H :    0.164168
  22 H :    0.113228
  23 H :    0.111222
  24 H :    0.112085
  25 H :    0.143044
  26 H :    0.137173
Sum of atomic charges:    0.0000000

LOEWDIN ATOMIC CHARGES
----------------------
   0 C :   -0.242715
   1 C :   -0.228424
   2 C :   -0.418051
   3 C :   -0.385909
   4 O :    0.089641
   5 N :    0.278896
   6 C :   -0.451162
   7 O :    0.056640
   8 N :    0.202195
   9 C :   -0.305171
  10 C :   -0.256377
  11 C :   -0.255573
  12 C :   -0.250385
  13 Cl:    0.411399
  14 H :    0.137656
  15 H :    0.135027
  16 H :    0.139758
  17 H :    0.208827
  18 H :    0.123562
  19 H :    0.124419
  20 H :    0.127008
  21 H :    0.128013
  22 H :    0.124147
  23 H :    0.124113
  24 H :    0.127077
  25 H :    0.128204
  26 H :    0.127187

  Mayer bond orders larger than 0.100000
B(  0-C ,  1-C ) :   0.9348 B(  0-C , 14-H ) :   0.9706 B(  0-C , 15-H ) :   0.9764
B(  0-C , 16-H ) :   0.9586 B(  1-C ,  2-C ) :   1.6322 B(  1-C ,  8-N ) :   1.1306
B(  2-C ,  3-C ) :   1.0440 B(  2-C , 13-Cl) :   1.1270 B(  3-C ,  4-O ) :   2.0564
B(  3-C ,  5-N ) :   1.1026 B(  5-N ,  6-C ) :   1.1505 B(  5-N ,  9-C ) :   0.8342
B(  6-C ,  7-O ) :   2.0269 B(  6-C ,  8-N ) :   1.1435 B(  8-N , 17-H ) :   0.9024
B(  9-C , 10-C ) :   0.9561 B(  9-C , 11-C ) :   0.9629 B(  9-C , 12-C ) :   0.9747
B( 10-C , 18-H ) :   0.9773 B( 10-C , 19-H ) :   0.9717 B( 10-C , 20-H ) :   0.9735
B( 11-C , 21-H ) :   0.9729 B( 11-C , 22-H ) :   0.9757 B( 11-C , 23-H ) :   0.9707
B( 12-C , 24-H ) :   0.9729 B( 12-C , 25-H ) :   0.9744 B( 12-C , 26-H ) :   0.9746

FINAL SINGLE POINT ENERGY     -1070.963914962899

DIPOLE MOMENT
-------------

Method             : SCF
Type of density    : Electron Density
Multiplicity       :   1
Irrep              :   0
Energy             : -1070.9828699299985146 Eh
Relativity type    :
Basis              : AO
                                X                 Y                 Z
Electronic contribution:     19.107911692       2.780561096      -2.414465090
Nuclear contribution   :    -18.436171602      -4.102501163       2.955399003
                        -----------------------------------------
Total Dipole Moment    :      0.671740090      -1.321940067       0.540933914
                        -----------------------------------------
Magnitude (a.u.)       :      1.578407358
Magnitude (Debye)      :      4.011992666

Rotational constants in cm-1:             0.033071             0.015939             0.011825
Rotational constants in MHz :           991.444968           477.825672           354.496191

                             ****ORCA TERMINATED NORMALLY****
TOTAL RUN TIME: 0 days 0 hours 8 minutes 9 seconds 878 msec
