                         Program Version 6.0.0  -   RELEASE  -
|  1> ! wb97x-v def2-tzvp def2/J RIJCOSX DEFGRID2 scfconv7 GCP(DFT/TZ) printgap
|  2> %output
|  3>     printlevel normal
|  4> end
|  5> %cpcm
|  6>     smd true
|  7>     smdsolvent "water"
|  8> end
|  9> * xyz 0 1
| 10> C 2.9958936702990995 -1.8849357341881239 0.301093691570947
| 11> C 1.7193882584962705 -1.145104587541181 0.13559777742275722
| 12> C 1.5522233624150052 0.19876045429071468 0.03408983370774573
| 13> C 0.24884827252003527 0.7980923940929275 -0.18137098253721462
| 14> O 0.10044907262223597 1.9806831300732892 -0.481304311045827
| 15> N -0.8540468023079976 -0.07368237124110041 -0.010240761983931132
| 16> C -0.6881141406858478 -1.445706384780522 -0.1824452607377968
| 17> O -1.5817386580194448 -2.2306708947445895 -0.48844355545086554
| 18> N 0.593727674642803 -1.9152077039282684 0.023826538066224565
| 19> C -2.266299588207717 0.500336534363196 0.14822662048379506
| 20> C -3.14873421830419 -0.4850114179516347 0.9351606099347053
| 21> C -2.210619890590138 1.7847337931220792 0.9939829188371498
| 22> C -2.8570577827194024 0.7751086732524977 -1.2318687868349154
| 23> Cl 2.9099682963189095 1.2904436970855755 0.05695028114837888
| 24> H 2.915378362521197 -2.5728243080446003 1.1490845934009917
| 25> H 3.8349553373128655 -1.2120745645141981 0.46412230292209233
| 26> H 3.1905952881172372 -2.4859334241125866 -0.5944111616353517
| 27> H 0.7006011715198334 -2.918972005365154 -0.06431966880547976
| 28> H -2.6319728481183424 -0.8532336470074762 1.8273969821154408
| 29> H -4.0338750439168045 0.06439054416047733 1.2639540754963348
| 30> H -3.4799231750176935 -1.3334949327433085 0.3420450676583212
| 31> H -1.8074976118451858 2.638664398784625 0.4562592110451834
| 32> H -1.6257839925119468 1.6292732922834163 1.9063565850281485
| 33> H -3.2350238597770855 2.022983961732572 1.2895444311730464
| 34> H -3.8704203820658365 1.1718370922162331 -1.1140170440606052
| 35> H -2.260295408401105 1.5110791911524086 -1.777277733605769
| 36> H -2.9144378665478516 -0.14405713947247067 -1.8221708821291067
| 37> *
| 38>
| 39>                          ****END OF INPUT****

CARTESIAN COORDINATES (ANGSTROEM)
---------------------------------
  C      2.995894   -1.884936    0.301094
  C      1.719388   -1.145105    0.135598
  C      1.552223    0.198760    0.034090
  C      0.248848    0.798092   -0.181371
  O      0.100449    1.980683   -0.481304
  N     -0.854047   -0.073682   -0.010241
  C     -0.688114   -1.445706   -0.182445
  O     -1.581739   -2.230671   -0.488444
  N      0.593728   -1.915208    0.023827
  C     -2.266300    0.500337    0.148227
  C     -3.148734   -0.485011    0.935161
  C     -2.210620    1.784734    0.993983
  C     -2.857058    0.775109   -1.231869
  Cl     2.909968    1.290444    0.056950
  H      2.915378   -2.572824    1.149085
  H      3.834955   -1.212075    0.464122
  H      3.190595   -2.485933   -0.594411
  H      0.700601   -2.918972   -0.064320
  H     -2.631973   -0.853234    1.827397
  H     -4.033875    0.064391    1.263954
  H     -3.479923   -1.333495    0.342045
  H     -1.807498    2.638664    0.456259
  H     -1.625784    1.629273    1.906357
  H     -3.235024    2.022984    1.289544
  H     -3.870420    1.171837   -1.114017
  H     -2.260295    1.511079   -1.777278
  H     -2.914438   -0.144057   -1.822171

 Total Charge           Charge          ....    0
 Multiplicity           Mult            ....    1
 Number of Electrons    NEL             ....  114
 Basis Dimension        Dim             ....  518

ORBITAL ENERGIES
----------------

  NO   OCC          E(Eh)            E(eV)
   0   2.0000    -107.151897     -2915.7514
   1   2.0000     -21.660770      -589.4195
   2   2.0000     -21.660744      -589.4188
   3   2.0000     -16.590200      -451.4423
   4   2.0000     -16.587985      -451.3820
   5   2.0000     -12.208180      -332.2015
   6   2.0000     -12.183271      -331.5237
   7   2.0000     -12.139764      -330.3398
   8   2.0000     -12.110250      -329.5367
   9   2.0000     -12.109378      -329.5129
  10   2.0000     -12.054984      -328.0328
  11   2.0000     -12.030726      -327.3727
  12   2.0000     -12.028559      -327.3137
  13   2.0000     -12.027947      -327.2971
  14   2.0000     -11.304786      -307.6189
  15   2.0000      -9.096494      -247.5282
  16   2.0000      -9.093704      -247.4523
  17   2.0000      -9.093625      -247.4501
  18   2.0000      -1.731234       -47.1093
  19   2.0000      -1.720683       -46.8222
  20   2.0000      -1.584419       -43.1142
  21   2.0000      -1.531169       -41.6652
  22   2.0000      -1.434468       -39.0339
  23   2.0000      -1.338845       -36.4318
  24   2.0000      -1.328333       -36.1458
  25   2.0000      -1.254504       -34.1368
  26   2.0000      -1.218478       -33.1565
  27   2.0000      -1.183777       -32.2122
  28   2.0000      -1.182820       -32.1862
  29   2.0000      -1.172836       -31.9145
  30   2.0000      -1.108258       -30.1572
  31   2.0000      -1.101849       -29.9828
  32   2.0000      -1.070661       -29.1342
  33   2.0000      -1.059695       -28.8358
  34   2.0000      -1.029657       -28.0184
  35   2.0000      -0.970318       -26.4037
  36   2.0000      -0.949402       -25.8346
  37   2.0000      -0.937436       -25.5089
  38   2.0000      -0.931535       -25.3484
  39   2.0000      -0.928188       -25.2573
  40   2.0000      -0.893884       -24.3238
  41   2.0000      -0.885860       -24.1055
  42   2.0000      -0.882922       -24.0255
  43   2.0000      -0.876847       -23.8602
  44   2.0000      -0.868018       -23.6200
  45   2.0000      -0.836699       -22.7677
  46   2.0000      -0.832031       -22.6407
  47   2.0000      -0.823744       -22.4152
  48   2.0000      -0.819481       -22.2992
  49   2.0000      -0.814501       -22.1637
  50   2.0000      -0.805900       -21.9297
  51   2.0000      -0.800614       -21.7858
  52   2.0000      -0.796932       -21.6856
  53   2.0000      -0.792866       -21.5750
  54   2.0000      -0.773578       -21.0501
  55   2.0000      -0.769717       -20.9451
  56   2.0000      -0.683281       -18.5930
  57   0.0000      -0.344652        -9.3785
  58   0.0000      -0.310432        -8.4473
  59   0.0000      -0.277159        -7.5419
  60   0.0000      -0.192432        -5.2363
  61   0.0000      -0.172775        -4.7015

MULLIKEN ATOMIC CHARGES
-----------------------
   0 C :   -0.386750
   1 C :    0.202044
   2 C :   -0.096076
   3 C :    0.273440
   4 O :   -0.469062
   5 N :   -0.039139
   6 C :    0.336687
   7 O :   -0.486281
   8 N :   -0.223250
   9 C :    0.159345
  10 C :   -0.411048
  11 C :   -0.414490
  12 C :   -0.419692
  13 Cl:   -0.095575
  14 H :    0.172068
  15 H :    0.154334
  16 H :    0.174491
  17 H :    0.298685
  18 H :    0.142520
  19 H :    0.141977
  20 H :    0.143405
  21 H :    0.144741
  22 H :    0.140278
  23 H :    0.142007
  24 H :    0.141489
  25 H :    0.136454
  26 H :    0.137400
Sum of atomic charges:    0.0000000

LOEWDIN ATOMIC CHARGES
----------------------
   0 C :   -0.229667
   1 C :   -0.199300
   2 C :   -0.424841
   3 C :   -0.378185
   4 O :    0.019986
   5 N :    0.287129
   6 C :   -0.434266
   7 O :    0.000485
   8 N :    0.228189
   9 C :   -0.304318
  10 C :   -0.259489
  11 C :   -0.259555
  12 C :   -0.253377
  13 Cl:    0.388587
  14 H :    0.150440
  15 H :    0.134703
  16 H :    0.152315
  17 H :    0.230526
  18 H :    0.129815
  19 H :    0.131945
  20 H :    0.121148
  21 H :    0.121037
  22 H :    0.129599
  23 H :    0.131791
  24 H :    0.133866
  25 H :    0.125231
  26 H :    0.126203

  Mayer bond orders larger than 0.100000
B(  0-C ,  1-C ) :   0.9550 B(  0-C , 14-H ) :   0.9530 B(  0-C , 15-H ) :   0.9786
B(  0-C , 16-H ) :   0.9438 B(  1-C ,  2-C ) :   1.5966 B(  1-C ,  8-N ) :   1.1677
B(  2-C ,  3-C ) :   1.0765 B(  2-C , 13-Cl) :   1.0718 B(  3-C ,  4-O ) :   1.9615
B(  3-C ,  5-N ) :   1.1184 B(  5-N ,  6-C ) :   1.1560 B(  5-N ,  9-C ) :   0.8363
B(  6-C ,  7-O ) :   1.9355 B(  6-C ,  8-N ) :   1.1803 B(  8-N , 17-H ) :   0.8728
B(  9-C , 10-C ) :   0.9441 B(  9-C , 11-C ) :   0.9488 B(  9-C , 12-C ) :   0.9844
B( 10-C , 18-H ) :   0.9766 B( 10-C , 19-H ) :   0.9695 B( 10-C , 20-H ) :   0.9736
B( 11-C , 21-H ) :   0.9740 B( 11-C , 22-H ) :   0.9757 B( 11-C , 23-H ) :   0.9691
B( 12-C , 24-H ) :   0.9729 B( 12-C , 25-H ) :   0.9700 B( 12-C , 26-H ) :   0.9698

FINAL SINGLE POINT ENERGY     -1070.981063105690

DIPOLE MOMENT
-------------

Method             : SCF
Type of density    : Electron Density
Multiplicity       :   1
Irrep              :   0
Energy             : -1071.0000180727899988 Eh
Relativity type    :
Basis              : AO
                                X                 Y                 Z
Electronic contribution:     19.372109370       2.004644974      -2.090161224
Nuclear contribution   :    -18.436171602      -4.102501163       2.955399003
                        -----------------------------------------
Total Dipole Moment    :      0.935937769      -2.097856189       0.865237779
                        -----------------------------------------
Magnitude (a.u.)       :      2.454713122
Magnitude (Debye)      :      6.239384903

Rotational constants in cm-1:             0.033071             0.015939             0.011825
Rotational constants in MHz :           991.444968           477.825672           354.496191

                             ****ORCA TERMINATED NORMALLY****
TOTAL RUN TIME: 0 days 0 hours 9 minutes 46 seconds 127 msec
