                         Program Version 6.0.0  -   RELEASE  -
|  1> ! pbe def2-sv(p) def2/J RI DEFGRID1 loosescf d4 GCP(DFT/SV(P)) printgap
|  2> %output
|  3>     printlevel normal
|  4> end
|  5> * xyz 0 1
|  6> C 4.5068187946 1.2380556261 -1.9525942726
|  7> C 5.0191038017 0.351766508 -0.8346478701
|  8> O 4.0611554952 -0.6511499171 -0.4501974206
|  9> P 2.71465162 -0.2811510927 0.287113282
| 10> S 2.8096918077 1.185873498 1.5898669562
| 11> O 2.4747818807 -1.7266558315 0.8871346519
| 12> C 1.3772337301 -2.0507851824 1.761889253
| 13> C 0.3328769711 -2.868070142 1.0253605311
| 14> S 1.2918642729 -0.0222626251 -1.285218941
| 15> C 0.3052992146 1.3015014601 -0.5310828005
| 16> S -0.8183950586 0.7290797415 0.7712663034
| 17> P -2.4103540793 0.1186318632 -0.520600091
| 18> S -1.9829019813 -1.2287454126 -1.8716589299
| 19> O -2.9135054628 1.4622428283 -1.172764522
| 20> C -3.4272008382 2.5857526456 -0.411135819
| 21> C -4.9372451174 2.5239726022 -0.3124670607
| 22> O -3.57994433 -0.2681263348 0.4800196129
| 23> C -3.6195314077 -1.5353768418 1.1644311871
| 24> C -3.0040105012 -1.4249778304 2.5456157521
| 25> H 4.1518432012 0.631782971 -2.7824064189
| 26> H 3.6857576195 1.8563133692 -1.5920985635
| 27> H 5.3093929914 1.8836284 -2.2947190528
| 28> H 5.2690784081 0.9503490591 0.0473770331
| 29> H 5.8892665132 -0.2269234797 -1.1476410347
| 30> H 1.8244844972 -2.6315919094 2.5713212398
| 31> H 0.9539090028 -1.1280607283 2.1746443719
| 32> H 0.7990723825 -3.7382671352 0.5722586763
| 33> H -0.4276708861 -3.1934979069 1.7278707514
| 34> H -0.1378317811 -2.2860153501 0.2345689801
| 35> H -0.2689505751 1.7541845972 -1.3362311688
| 36> H 0.9728718598 2.0209346532 -0.0562609588
| 37> H -2.9646022794 2.5850212149 0.5794034326
| 38> H -3.1030962652 3.4643093785 -0.9722266915
| 39> H -5.2955644469 3.4162550664 0.1915098896
| 40> H -5.3733255524 2.4737960731 -1.306469916
| 41> H -5.2437604677 1.6462476353 0.2494251143
| 42> H -4.6807705599 -1.783609177 1.223593812
| 43> H -3.1061001401 -2.2831436215 0.5514252378
| 44> H -1.9550791271 -1.1453601669 2.4755092165
| 45> H -3.5254576684 -0.670342861 3.1274208897
| 46> H -3.0855435517 -2.3829334486 3.0490256044
| 47> *
| 48>
| 49>                          ****END OF INPUT****

CARTESIAN COORDINATES (ANGSTROEM)
---------------------------------
  C      4.506819    1.238056   -1.952594
  C      5.019104    0.351767   -0.834648
  O      4.061155   -0.651150   -0.450197
  P      2.714652   -0.281151    0.287113
  S      2.809692    1.185873    1.589867
  O      2.474782   -1.726656    0.887135
  C      1.377234   -2.050785    1.761889
  C      0.332877   -2.868070    1.025361
  S      1.291864   -0.022263   -1.285219
  C      0.305299    1.301501   -0.531083
  S     -0.818395    0.729080    0.771266
  P     -2.410354    0.118632   -0.520600
  S     -1.982902   -1.228745   -1.871659
  O     -2.913505    1.462243   -1.172765
  C     -3.427201    2.585753   -0.411136
  C     -4.937245    2.523973   -0.312467
  O     -3.579944   -0.268126    0.480020
  C     -3.619531   -1.535377    1.164431
  C     -3.004011   -1.424978    2.545616
  H      4.151843    0.631783   -2.782406
  H      3.685758    1.856313   -1.592099
  H      5.309393    1.883628   -2.294719
  H      5.269078    0.950349    0.047377
  H      5.889267   -0.226923   -1.147641
  H      1.824484   -2.631592    2.571321
  H      0.953909   -1.128061    2.174644
  H      0.799072   -3.738267    0.572259
  H     -0.427671   -3.193498    1.727871
  H     -0.137832   -2.286015    0.234569
  H     -0.268951    1.754185   -1.336231
  H      0.972872    2.020935   -0.056261
  H     -2.964602    2.585021    0.579403
  H     -3.103096    3.464309   -0.972227
  H     -5.295564    3.416255    0.191510
  H     -5.373326    2.473796   -1.306470
  H     -5.243760    1.646248    0.249425
  H     -4.680771   -1.783609    1.223594
  H     -3.106100   -2.283144    0.551425
  H     -1.955079   -1.145360    2.475509
  H     -3.525458   -0.670343    3.127421
  H     -3.085544   -2.382933    3.049026

 Total Charge           Charge          ....    0
 Multiplicity           Mult            ....    1
 Number of Electrons    NEL             ....  202
 Basis Dimension        Dim             ....  334

ORBITAL ENERGIES
----------------

  NO   OCC          E(Eh)            E(eV)
   0   2.0000     -88.047120     -2395.8839
   1   2.0000     -88.040256     -2395.6972
   2   2.0000     -87.989922     -2394.3275
   3   2.0000     -87.987626     -2394.2650
   4   2.0000     -76.430960     -2079.7922
   5   2.0000     -76.424765     -2079.6236
   6   2.0000     -18.802571      -511.6440
   7   2.0000     -18.800657      -511.5919
   8   2.0000     -18.788659      -511.2654
   9   2.0000     -18.784041      -511.1397
  10   2.0000      -9.961866      -271.0762
  11   2.0000      -9.961270      -271.0599
  12   2.0000      -9.957480      -270.9568
  13   2.0000      -9.951588      -270.7965
  14   2.0000      -9.946822      -270.6668
  15   2.0000      -9.894916      -269.2544
  16   2.0000      -9.890842      -269.1435
  17   2.0000      -9.882919      -268.9279
  18   2.0000      -9.874628      -268.7023
  19   2.0000      -7.691409      -209.2939
  20   2.0000      -7.684872      -209.1160
  21   2.0000      -7.634903      -207.7563
  22   2.0000      -7.632625      -207.6943
  23   2.0000      -6.428480      -174.9278
  24   2.0000      -6.422231      -174.7578
  25   2.0000      -5.719014      -155.6223
  26   2.0000      -5.715997      -155.5402
  27   2.0000      -5.712736      -155.4515
  28   2.0000      -5.709421      -155.3612
  29   2.0000      -5.708691      -155.3414
  30   2.0000      -5.701874      -155.1559
  31   2.0000      -5.663604      -154.1145
  32   2.0000      -5.661663      -154.0617
  33   2.0000      -5.655665      -153.8985
  34   2.0000      -5.655154      -153.8846
  35   2.0000      -5.653284      -153.8337
  36   2.0000      -5.652645      -153.8163
  37   2.0000      -4.651565      -126.5755
  38   2.0000      -4.650281      -126.5406
  39   2.0000      -4.648389      -126.4891
  40   2.0000      -4.644469      -126.3824
  41   2.0000      -4.644176      -126.3745
  42   2.0000      -4.642771      -126.3362
  43   2.0000      -0.996709       -27.1218
  44   2.0000      -0.986100       -26.8331
  45   2.0000      -0.954600       -25.9760
  46   2.0000      -0.941010       -25.6062
  47   2.0000      -0.763598       -20.7786
  48   2.0000      -0.724150       -19.7051
  49   2.0000      -0.712326       -19.3834
  50   2.0000      -0.698937       -19.0190
  51   2.0000      -0.681358       -18.5407
  52   2.0000      -0.675207       -18.3733
  53   2.0000      -0.652107       -17.7447
  54   2.0000      -0.639510       -17.4020
  55   2.0000      -0.602137       -16.3850
  56   2.0000      -0.596557       -16.2331
  57   2.0000      -0.581073       -15.8118
  58   2.0000      -0.562533       -15.3073
  59   2.0000      -0.561715       -15.2850
  60   2.0000      -0.510641       -13.8952
  61   2.0000      -0.495359       -13.4794
  62   2.0000      -0.488002       -13.2792
  63   2.0000      -0.468656       -12.7528
  64   2.0000      -0.463826       -12.6214
  65   2.0000      -0.452562       -12.3148
  66   2.0000      -0.440886       -11.9971
  67   2.0000      -0.436980       -11.8908
  68   2.0000      -0.427555       -11.6344
  69   2.0000      -0.419270       -11.4089
  70   2.0000      -0.409941       -11.1551
  71   2.0000      -0.398812       -10.8522
  72   2.0000      -0.391817       -10.6619
  73   2.0000      -0.390574       -10.6280
  74   2.0000      -0.383952       -10.4479
  75   2.0000      -0.376868       -10.2551
  76   2.0000      -0.366179        -9.9642
  77   2.0000      -0.363692        -9.8966
  78   2.0000      -0.361142        -9.8272
  79   2.0000      -0.355264        -9.6672
  80   2.0000      -0.352906        -9.6031
  81   2.0000      -0.348255        -9.4765
  82   2.0000      -0.342626        -9.3233
  83   2.0000      -0.335352        -9.1254
  84   2.0000      -0.331189        -9.0121
  85   2.0000      -0.326480        -8.8840
  86   2.0000      -0.313374        -8.5273
  87   2.0000      -0.302580        -8.2336
  88   2.0000      -0.298923        -8.1341
  89   2.0000      -0.294792        -8.0217
  90   2.0000      -0.287612        -7.8263
  91   2.0000      -0.279445        -7.6041
  92   2.0000      -0.268107        -7.2956
  93   2.0000      -0.266888        -7.2624
  94   2.0000      -0.258333        -7.0296
  95   2.0000      -0.241740        -6.5781
  96   2.0000      -0.216641        -5.8951
  97   2.0000      -0.212278        -5.7764
  98   2.0000      -0.208653        -5.6777
  99   2.0000      -0.203080        -5.5261
 100   2.0000      -0.194772        -5.3000
 101   0.0000      -0.043051        -1.1715
 102   0.0000      -0.031788        -0.8650
 103   0.0000      -0.011150        -0.3034
 104   0.0000       0.000972         0.0265
 105   0.0000       0.010457         0.2845

MULLIKEN ATOMIC CHARGES
-----------------------
   0 C :   -0.313361
   1 C :   -0.000742
   2 O :   -0.357576
   3 P :    0.591541
   4 S :   -0.338662
   5 O :   -0.353355
   6 C :   -0.013336
   7 C :   -0.317064
   8 S :   -0.064762
   9 C :   -0.349149
  10 S :   -0.103997
  11 P :    0.588520
  12 S :   -0.289048
  13 O :   -0.361365
  14 C :   -0.013597
  15 C :   -0.290961
  16 O :   -0.378955
  17 C :   -0.012199
  18 C :   -0.320708
  19 H :    0.121764
  20 H :    0.120111
  21 H :    0.111953
  22 H :    0.112429
  23 H :    0.108307
  24 H :    0.104131
  25 H :    0.111568
  26 H :    0.113687
  27 H :    0.102992
  28 H :    0.139200
  29 H :    0.185586
  30 H :    0.194758
  31 H :    0.103964
  32 H :    0.109648
  33 H :    0.111654
  34 H :    0.121709
  35 H :    0.123506
  36 H :    0.111051
  37 H :    0.112826
  38 H :    0.142765
  39 H :    0.117642
  40 H :    0.117526
Sum of atomic charges:   -0.0000000

LOEWDIN ATOMIC CHARGES
----------------------
   0 C :   -0.368890
   1 C :   -0.116137
   2 O :   -0.233631
   3 P :    0.569242
   4 S :   -0.322812
   5 O :   -0.235510
   6 C :   -0.117901
   7 C :   -0.369483
   8 S :    0.096052
   9 C :   -0.484465
  10 S :    0.080788
  11 P :    0.563565
  12 S :   -0.298440
  13 O :   -0.237738
  14 C :   -0.115899
  15 C :   -0.359208
  16 O :   -0.244061
  17 C :   -0.116886
  18 C :   -0.364799
  19 H :    0.126299
  20 H :    0.118659
  21 H :    0.130224
  22 H :    0.111169
  23 H :    0.120470
  24 H :    0.117894
  25 H :    0.099564
  26 H :    0.127219
  27 H :    0.123054
  28 H :    0.114787
  29 H :    0.133583
  30 H :    0.127761
  31 H :    0.105107
  32 H :    0.120705
  33 H :    0.130668
  34 H :    0.129673
  35 H :    0.126535
  36 H :    0.121325
  37 H :    0.111055
  38 H :    0.120184
  39 H :    0.127343
  40 H :    0.132937

  Mayer bond orders larger than 0.100000
B(  0-C ,  1-C ) :   1.1639 B(  0-C , 19-H ) :   0.9438 B(  0-C , 20-H ) :   0.9382
B(  0-C , 21-H ) :   0.9377 B(  1-C ,  2-O ) :   0.9123 B(  1-C , 22-H ) :   0.9177
B(  1-C , 23-H ) :   0.9344 B(  2-O ,  3-P ) :   1.1328 B(  3-P ,  4-S ) :   1.5876
B(  3-P ,  5-O ) :   1.1373 B(  3-P ,  8-S ) :   0.9418 B(  4-S ,  8-S ) :   0.1217
B(  5-O ,  6-C ) :   0.9068 B(  6-C ,  7-C ) :   1.1645 B(  6-C , 24-H ) :   0.9342
B(  6-C , 25-H ) :   0.9020 B(  7-C , 26-H ) :   0.9437 B(  7-C , 27-H ) :   0.9345
B(  7-C , 28-H ) :   0.9199 B(  8-S ,  9-C ) :   1.0190 B(  9-C , 10-S ) :   0.9848
B(  9-C , 29-H ) :   0.8921 B(  9-C , 30-H ) :   0.8692 B( 10-S , 11-P ) :   0.9501
B( 10-S , 12-S ) :   0.1098 B( 11-P , 12-S ) :   1.6740 B( 11-P , 13-O ) :   1.1214
B( 11-P , 16-O ) :   1.0815 B( 13-O , 14-C ) :   0.8887 B( 14-C , 15-C ) :   1.1683
B( 14-C , 31-H ) :   0.9096 B( 14-C , 32-H ) :   0.9353 B( 15-C , 33-H ) :   0.9393
B( 15-C , 34-H ) :   0.9469 B( 15-C , 35-H ) :   0.9414 B( 16-O , 17-C ) :   0.9013
B( 17-C , 18-C ) :   1.1691 B( 17-C , 36-H ) :   0.9335 B( 17-C , 37-H ) :   0.9053
B( 18-C , 38-H ) :   0.9279 B( 18-C , 39-H ) :   0.9456 B( 18-C , 40-H ) :   0.9381

Dispersion correction           -0.065444791
FINAL SINGLE POINT ENERGY     -2929.522698058429

DIPOLE MOMENT
-------------

Method             : SCF
Type of density    : Electron Density
Multiplicity       :   1
Irrep              :   0
Energy             : -2929.6418852609153873 Eh
Relativity type    :
Basis              : AO
                                X                 Y                 Z
Electronic contribution:      9.149170376      -0.688494088      -6.477061148
Nuclear contribution   :     -9.983400769       1.246535992       7.064607560
                        -----------------------------------------
Total Dipole Moment    :     -0.834230393       0.558041904       0.587546411
                        -----------------------------------------
Magnitude (a.u.)       :      1.162996948
Magnitude (Debye)      :      2.956103316

Rotational constants in cm-1:             0.013064             0.004667             0.004272
Rotational constants in MHz :           391.649341           139.899273           128.076733

                             ****ORCA TERMINATED NORMALLY****
TOTAL RUN TIME: 0 days 0 hours 0 minutes 21 seconds 124 msec
