                         Program Version 6.0.0  -   RELEASE  -
|  1> ! r2scan-3c def2/J RI DEFGRID2 scfconv6 printgap
|  2> %output
|  3>     printlevel normal
|  4> end
|  5> * xyz 0 1
|  6> C 1.1239695255 -0.0688814366 2.9190396763
|  7> C 2.6269814835 -0.0637112551 2.7295759328
|  8> O 3.0141804771 0.5718448697 1.4986838074
|  9> P 2.727774038 -0.0795072314 0.0770515613
| 10> S 2.9412012504 -2.0316491164 0.0015306008
| 11> O 3.6807561914 0.7626353197 -0.8651072085
| 12> C 5.0505437709 0.383120592 -1.115069837
| 13> C 5.9126905078 0.49712227 0.1247835989
| 14> S 0.8872071818 0.7396590424 -0.5896197048
| 15> C 0.0272405491 -0.7938850398 -1.050408543
| 16> S -1.2901580669 -1.2270055128 0.106603252
| 17> P -2.7053280548 0.1919304189 -0.6265749261
| 18> S -2.7751976227 0.3523383213 -2.5740740121
| 19> O -2.3919465382 1.5640488489 0.0692479162
| 20> C -2.2983256434 1.7264466719 1.5098783843
| 21> C -1.371634982 2.8930114772 1.7817157996
| 22> O -4.0483340888 -0.2574341165 0.0915692885
| 23> C -4.7442659376 -1.4597559719 -0.3016000407
| 24> C -6.1344165519 -1.405515608 0.298208507
| 25> H 0.8870581391 -0.4604437189 3.9030572356
| 26> H 0.7311454457 0.9402703154 2.8278835604
| 27> H 0.6541755576 -0.7047342071 2.1682529643
| 28> H 3.0178481174 -1.0863834077 2.7294146256
| 29> H 3.1277271999 0.5264456874 3.4982082516
| 30> H 5.0593920455 -0.6419982271 -1.4992869238
| 31> H 5.3711288845 1.0736886398 -1.8962485776
| 32> H 6.9496415625 0.318637532 -0.1424908432
| 33> H 5.8153472205 1.4884471591 0.5594005411
| 34> H 5.6054024521 -0.2435103886 0.861725165
| 35> H 0.7403053406 -1.6209105364 -1.050306061
| 36> H -0.4151625812 -0.6471964389 -2.0364912374
| 37> H -3.3061526029 1.914246521 1.883523444
| 38> H -1.9179261594 0.7968884628 1.9436167524
| 39> H -1.7687865128 3.7965370373 1.3284862122
| 40> H -1.2830440328 3.0371596165 2.8538502644
| 41> H -0.3906351434 2.698529645 1.3542476013
| 42> H -4.7777639973 -1.5005200657 -1.3951782284
| 43> H -4.1787662237 -2.317535306 0.0719087226
| 44> H -6.6761108522 -2.3041286538 0.0221561654
| 45> H -6.0694097558 -1.3417692537 1.3803003165
| 46> H -6.6679873384 -0.5361651561 -0.0755341298
| 47> *
| 48>
| 49>                          ****END OF INPUT****

CARTESIAN COORDINATES (ANGSTROEM)
---------------------------------
  C      1.123970   -0.068881    2.919040
  C      2.626981   -0.063711    2.729576
  O      3.014180    0.571845    1.498684
  P      2.727774   -0.079507    0.077052
  S      2.941201   -2.031649    0.001531
  O      3.680756    0.762635   -0.865107
  C      5.050544    0.383121   -1.115070
  C      5.912691    0.497122    0.124784
  S      0.887207    0.739659   -0.589620
  C      0.027241   -0.793885   -1.050409
  S     -1.290158   -1.227006    0.106603
  P     -2.705328    0.191930   -0.626575
  S     -2.775198    0.352338   -2.574074
  O     -2.391947    1.564049    0.069248
  C     -2.298326    1.726447    1.509878
  C     -1.371635    2.893011    1.781716
  O     -4.048334   -0.257434    0.091569
  C     -4.744266   -1.459756   -0.301600
  C     -6.134417   -1.405516    0.298209
  H      0.887058   -0.460444    3.903057
  H      0.731145    0.940270    2.827884
  H      0.654176   -0.704734    2.168253
  H      3.017848   -1.086383    2.729415
  H      3.127727    0.526446    3.498208
  H      5.059392   -0.641998   -1.499287
  H      5.371129    1.073689   -1.896249
  H      6.949642    0.318638   -0.142491
  H      5.815347    1.488447    0.559401
  H      5.605402   -0.243510    0.861725
  H      0.740305   -1.620911   -1.050306
  H     -0.415163   -0.647196   -2.036491
  H     -3.306153    1.914247    1.883523
  H     -1.917926    0.796888    1.943617
  H     -1.768787    3.796537    1.328486
  H     -1.283044    3.037160    2.853850
  H     -0.390635    2.698530    1.354248
  H     -4.777764   -1.500520   -1.395178
  H     -4.178766   -2.317535    0.071909
  H     -6.676111   -2.304129    0.022156
  H     -6.069410   -1.341769    1.380300
  H     -6.667987   -0.536165   -0.075534

 Total Charge           Charge          ....    0
 Multiplicity           Mult            ....    1
 Number of Electrons    NEL             ....  202
 Basis Dimension        Dim             ....  539

ORBITAL ENERGIES
----------------

  NO   OCC          E(Eh)            E(eV)
   0   2.0000     -88.575435     -2410.2601
   1   2.0000     -88.574972     -2410.2475
   2   2.0000     -88.528550     -2408.9843
   3   2.0000     -88.518472     -2408.7101
   4   2.0000     -76.916953     -2093.0167
   5   2.0000     -76.913431     -2092.9208
   6   2.0000     -18.996104      -516.9103
   7   2.0000     -18.995504      -516.8939
   8   2.0000     -18.994978      -516.8796
   9   2.0000     -18.991187      -516.7765
  10   2.0000     -10.104156      -274.9481
  11   2.0000     -10.102945      -274.9151
  12   2.0000     -10.101961      -274.8883
  13   2.0000     -10.099843      -274.8307
  14   2.0000     -10.099787      -274.8292
  15   2.0000     -10.035742      -273.0864
  16   2.0000     -10.033684      -273.0304
  17   2.0000     -10.032789      -273.0061
  18   2.0000     -10.031144      -272.9613
  19   2.0000      -7.869769      -214.1473
  20   2.0000      -7.869133      -214.1300
  21   2.0000      -7.823270      -212.8820
  22   2.0000      -7.813178      -212.6074
  23   2.0000      -6.595654      -179.4769
  24   2.0000      -6.592198      -179.3828
  25   2.0000      -5.816398      -158.2722
  26   2.0000      -5.816033      -158.2623
  27   2.0000      -5.813590      -158.1958
  28   2.0000      -5.813111      -158.1828
  29   2.0000      -5.807183      -158.0215
  30   2.0000      -5.806118      -157.9925
  31   2.0000      -5.770794      -157.0313
  32   2.0000      -5.763739      -156.8393
  33   2.0000      -5.763213      -156.8250
  34   2.0000      -5.760884      -156.7616
  35   2.0000      -5.753415      -156.5584
  36   2.0000      -5.753173      -156.5518
  37   2.0000      -4.740864      -129.0055
  38   2.0000      -4.740413      -128.9932
  39   2.0000      -4.739788      -128.9762
  40   2.0000      -4.738021      -128.9281
  41   2.0000      -4.737228      -128.9065
  42   2.0000      -4.735493      -128.8593
  43   2.0000      -1.054632       -28.6980
  44   2.0000      -1.052667       -28.6445
  45   2.0000      -1.013741       -27.5853
  46   2.0000      -1.013622       -27.5821
  47   2.0000      -0.799351       -21.7515
  48   2.0000      -0.763109       -20.7652
  49   2.0000      -0.753897       -20.5146
  50   2.0000      -0.738696       -20.1009
  51   2.0000      -0.735122       -20.0037
  52   2.0000      -0.712781       -19.3958
  53   2.0000      -0.686353       -18.6766
  54   2.0000      -0.669610       -18.2210
  55   2.0000      -0.637038       -17.3347
  56   2.0000      -0.617408       -16.8005
  57   2.0000      -0.609132       -16.5753
  58   2.0000      -0.606771       -16.5111
  59   2.0000      -0.592110       -16.1121
  60   2.0000      -0.538004       -14.6398
  61   2.0000      -0.520911       -14.1747
  62   2.0000      -0.505072       -13.7437
  63   2.0000      -0.495486       -13.4828
  64   2.0000      -0.479023       -13.0349
  65   2.0000      -0.465301       -12.6615
  66   2.0000      -0.461722       -12.5641
  67   2.0000      -0.458803       -12.4847
  68   2.0000      -0.450916       -12.2701
  69   2.0000      -0.436077       -11.8663
  70   2.0000      -0.425170       -11.5695
  71   2.0000      -0.414958       -11.2916
  72   2.0000      -0.413692       -11.2571
  73   2.0000      -0.406194       -11.0531
  74   2.0000      -0.396137       -10.7794
  75   2.0000      -0.393425       -10.7056
  76   2.0000      -0.383956       -10.4480
  77   2.0000      -0.374485       -10.1903
  78   2.0000      -0.373087       -10.1522
  79   2.0000      -0.369001       -10.0410
  80   2.0000      -0.365344        -9.9415
  81   2.0000      -0.362281        -9.8582
  82   2.0000      -0.358554        -9.7567
  83   2.0000      -0.354794        -9.6544
  84   2.0000      -0.351861        -9.5746
  85   2.0000      -0.332925        -9.0593
  86   2.0000      -0.328174        -8.9301
  87   2.0000      -0.320540        -8.7223
  88   2.0000      -0.317742        -8.6462
  89   2.0000      -0.313288        -8.5250
  90   2.0000      -0.303970        -8.2714
  91   2.0000      -0.292287        -7.9535
  92   2.0000      -0.289033        -7.8650
  93   2.0000      -0.282374        -7.6838
  94   2.0000      -0.274118        -7.4591
  95   2.0000      -0.245748        -6.6871
  96   2.0000      -0.234271        -6.3748
  97   2.0000      -0.230579        -6.2744
  98   2.0000      -0.223014        -6.0685
  99   2.0000      -0.217982        -5.9316
 100   2.0000      -0.210710        -5.7337
 101   0.0000      -0.045920        -1.2496
 102   0.0000      -0.032019        -0.8713
 103   0.0000      -0.012284        -0.3343
 104   0.0000       0.004987         0.1357
 105   0.0000       0.019200         0.5224

MULLIKEN ATOMIC CHARGES
-----------------------
   0 C :   -0.453349
   1 C :   -0.145279
   2 O :   -0.277127
   3 P :    0.663952
   4 S :   -0.486135
   5 O :   -0.297839
   6 C :   -0.151909
   7 C :   -0.436063
   8 S :   -0.089866
   9 C :   -0.248898
  10 S :   -0.179554
  11 P :    0.660045
  12 S :   -0.440985
  13 O :   -0.267218
  14 C :   -0.105660
  15 C :   -0.463526
  16 O :   -0.287346
  17 C :   -0.151086
  18 C :   -0.438459
  19 H :    0.148465
  20 H :    0.159303
  21 H :    0.177276
  22 H :    0.169553
  23 H :    0.148895
  24 H :    0.170481
  25 H :    0.151466
  26 H :    0.147960
  27 H :    0.157139
  28 H :    0.164608
  29 H :    0.214550
  30 H :    0.217512
  31 H :    0.155895
  32 H :    0.158529
  33 H :    0.158155
  34 H :    0.147122
  35 H :    0.169341
  36 H :    0.171262
  37 H :    0.150840
  38 H :    0.147798
  39 H :    0.150814
  40 H :    0.159338
Sum of atomic charges:    0.0000000

LOEWDIN ATOMIC CHARGES
----------------------
   0 C :   -0.409267
   1 C :    0.020478
   2 O :   -0.666391
   3 P :    0.386204
   4 S :   -0.134333
   5 O :   -0.665244
   6 C :    0.025204
   7 C :   -0.399531
   8 S :    0.178865
   9 C :   -0.422700
  10 S :    0.115446
  11 P :    0.367782
  12 S :   -0.105324
  13 O :   -0.648131
  14 C :    0.023097
  15 C :   -0.395428
  16 O :   -0.666918
  17 C :    0.021918
  18 C :   -0.385286
  19 H :    0.159648
  20 H :    0.161848
  21 H :    0.167554
  22 H :    0.179595
  23 H :    0.179663
  24 H :    0.179332
  25 H :    0.181423
  26 H :    0.159737
  27 H :    0.161941
  28 H :    0.163680
  29 H :    0.196688
  30 H :    0.193664
  31 H :    0.175208
  32 H :    0.176553
  33 H :    0.163015
  34 H :    0.158981
  35 H :    0.165600
  36 H :    0.181462
  37 H :    0.172114
  38 H :    0.160795
  39 H :    0.158735
  40 H :    0.162325

  Mayer bond orders larger than 0.100000
B(  0-C ,  1-C ) :   0.9314 B(  0-C , 19-H ) :   0.9588 B(  0-C , 20-H ) :   0.9650
B(  0-C , 21-H ) :   0.9533 B(  1-C ,  2-O ) :   0.8056 B(  1-C , 22-H ) :   0.9632
B(  1-C , 23-H ) :   0.9590 B(  2-O ,  3-P ) :   1.0654 B(  3-P ,  4-S ) :   1.7316
B(  3-P ,  5-O ) :   1.1844 B(  3-P ,  8-S ) :   1.0791 B(  5-O ,  6-C ) :   0.8142
B(  6-C ,  7-C ) :   0.9260 B(  6-C , 24-H ) :   0.9673 B(  6-C , 25-H ) :   0.9603
B(  7-C , 26-H ) :   0.9607 B(  7-C , 27-H ) :   0.9701 B(  7-C , 28-H ) :   0.9606
B(  8-S ,  9-C ) :   0.9217 B(  9-C , 10-S ) :   0.9231 B(  9-C , 29-H ) :   0.8897
B(  9-C , 30-H ) :   0.9053 B( 10-S , 11-P ) :   0.9759 B( 11-P , 12-S ) :   1.8557
B( 11-P , 13-O ) :   1.1714 B( 11-P , 16-O ) :   1.0587 B( 13-O , 14-C ) :   0.7274
B( 14-C , 15-C ) :   0.9429 B( 14-C , 31-H ) :   0.9457 B( 14-C , 32-H ) :   0.9521
B( 15-C , 33-H ) :   0.9661 B( 15-C , 34-H ) :   0.9681 B( 15-C , 35-H ) :   0.9669
B( 16-O , 17-C ) :   0.7847 B( 17-C , 18-C ) :   0.9551 B( 17-C , 36-H ) :   0.9509
B( 17-C , 37-H ) :   0.9416 B( 18-C , 38-H ) :   0.9637 B( 18-C , 39-H ) :   0.9714
B( 18-C , 40-H ) :   0.9710

Dispersion correction           -0.020733373
FINAL SINGLE POINT ENERGY     -2932.463880367617

DIPOLE MOMENT
-------------

Method             : SCF
Type of density    : Electron Density
Multiplicity       :   1
Irrep              :   0
Energy             : -2932.4898101371882149 Eh
Relativity type    :
Basis              : AO
                                X                 Y                 Z
Electronic contribution:     -0.290956255      -2.909586690     -16.834116609
Nuclear contribution   :      0.466628345       2.989981216      18.689016397
                        -----------------------------------------
Total Dipole Moment    :      0.175672090       0.080394526       1.854899787
                        -----------------------------------------
Magnitude (a.u.)       :      1.864933560
Magnitude (Debye)      :      4.740284393

Rotational constants in cm-1:             0.014666             0.003925             0.003768
Rotational constants in MHz :           439.687678           117.665795           112.955374

                             ****ORCA TERMINATED NORMALLY****
TOTAL RUN TIME: 0 days 0 hours 1 minutes 19 seconds 387 msec
