                         Program Version 6.0.0  -   RELEASE  -
|  1> ! r2scan-3c def2/J RI DEFGRID2 scfconv6 printgap
|  2> %output
|  3>     printlevel normal
|  4> end
|  5> %cpcm
|  6>     smd true
|  7>     smdsolvent "water"
|  8> end
|  9> * xyz 0 1
| 10> C 1.1239695255 -0.0688814366 2.9190396763
| 11> C 2.6269814835 -0.0637112551 2.7295759328
| 12> O 3.0141804771 0.5718448697 1.4986838074
| 13> P 2.727774038 -0.0795072314 0.0770515613
| 14> S 2.9412012504 -2.0316491164 0.0015306008
| 15> O 3.6807561914 0.7626353197 -0.8651072085
| 16> C 5.0505437709 0.383120592 -1.115069837
| 17> C 5.9126905078 0.49712227 0.1247835989
| 18> S 0.8872071818 0.7396590424 -0.5896197048
| 19> C 0.0272405491 -0.7938850398 -1.050408543
| 20> S -1.2901580669 -1.2270055128 0.106603252
| 21> P -2.7053280548 0.1919304189 -0.6265749261
| 22> S -2.7751976227 0.3523383213 -2.5740740121
| 23> O -2.3919465382 1.5640488489 0.0692479162
| 24> C -2.2983256434 1.7264466719 1.5098783843
| 25> C -1.371634982 2.8930114772 1.7817157996
| 26> O -4.0483340888 -0.2574341165 0.0915692885
| 27> C -4.7442659376 -1.4597559719 -0.3016000407
| 28> C -6.1344165519 -1.405515608 0.298208507
| 29> H 0.8870581391 -0.4604437189 3.9030572356
| 30> H 0.7311454457 0.9402703154 2.8278835604
| 31> H 0.6541755576 -0.7047342071 2.1682529643
| 32> H 3.0178481174 -1.0863834077 2.7294146256
| 33> H 3.1277271999 0.5264456874 3.4982082516
| 34> H 5.0593920455 -0.6419982271 -1.4992869238
| 35> H 5.3711288845 1.0736886398 -1.8962485776
| 36> H 6.9496415625 0.318637532 -0.1424908432
| 37> H 5.8153472205 1.4884471591 0.5594005411
| 38> H 5.6054024521 -0.2435103886 0.861725165
| 39> H 0.7403053406 -1.6209105364 -1.050306061
| 40> H -0.4151625812 -0.6471964389 -2.0364912374
| 41> H -3.3061526029 1.914246521 1.883523444
| 42> H -1.9179261594 0.7968884628 1.9436167524
| 43> H -1.7687865128 3.7965370373 1.3284862122
| 44> H -1.2830440328 3.0371596165 2.8538502644
| 45> H -0.3906351434 2.698529645 1.3542476013
| 46> H -4.7777639973 -1.5005200657 -1.3951782284
| 47> H -4.1787662237 -2.317535306 0.0719087226
| 48> H -6.6761108522 -2.3041286538 0.0221561654
| 49> H -6.0694097558 -1.3417692537 1.3803003165
| 50> H -6.6679873384 -0.5361651561 -0.0755341298
| 51> *
| 52>
| 53>                          ****END OF INPUT****

CARTESIAN COORDINATES (ANGSTROEM)
---------------------------------
  C      1.123970   -0.068881    2.919040
  C      2.626981   -0.063711    2.729576
  O      3.014180    0.571845    1.498684
  P      2.727774   -0.079507    0.077052
  S      2.941201   -2.031649    0.001531
  O      3.680756    0.762635   -0.865107
  C      5.050544    0.383121   -1.115070
  C      5.912691    0.497122    0.124784
  S      0.887207    0.739659   -0.589620
  C      0.027241   -0.793885   -1.050409
  S     -1.290158   -1.227006    0.106603
  P     -2.705328    0.191930   -0.626575
  S     -2.775198    0.352338   -2.574074
  O     -2.391947    1.564049    0.069248
  C     -2.298326    1.726447    1.509878
  C     -1.371635    2.893011    1.781716
  O     -4.048334   -0.257434    0.091569
  C     -4.744266   -1.459756   -0.301600
  C     -6.134417   -1.405516    0.298209
  H      0.887058   -0.460444    3.903057
  H      0.731145    0.940270    2.827884
  H      0.654176   -0.704734    2.168253
  H      3.017848   -1.086383    2.729415
  H      3.127727    0.526446    3.498208
  H      5.059392   -0.641998   -1.499287
  H      5.371129    1.073689   -1.896249
  H      6.949642    0.318638   -0.142491
  H      5.815347    1.488447    0.559401
  H      5.605402   -0.243510    0.861725
  H      0.740305   -1.620911   -1.050306
  H     -0.415163   -0.647196   -2.036491
  H     -3.306153    1.914247    1.883523
  H     -1.917926    0.796888    1.943617
  H     -1.768787    3.796537    1.328486
  H     -1.283044    3.037160    2.853850
  H     -0.390635    2.698530    1.354248
  H     -4.777764   -1.500520   -1.395178
  H     -4.178766   -2.317535    0.071909
  H     -6.676111   -2.304129    0.022156
  H     -6.069410   -1.341769    1.380300
  H     -6.667987   -0.536165   -0.075534

 Total Charge           Charge          ....    0
 Multiplicity           Mult            ....    1
 Number of Electrons    NEL             ....  202
 Basis Dimension        Dim             ....  539

ORBITAL ENERGIES
----------------

  NO   OCC          E(Eh)            E(eV)
   0   2.0000     -88.580425     -2410.3959
   1   2.0000     -88.580350     -2410.3939
   2   2.0000     -88.534133     -2409.1362
   3   2.0000     -88.531515     -2409.0650
   4   2.0000     -76.921377     -2093.1371
   5   2.0000     -76.921244     -2093.1334
   6   2.0000     -18.999616      -517.0058
   7   2.0000     -18.998517      -516.9759
   8   2.0000     -18.995811      -516.9023
   9   2.0000     -18.994342      -516.8623
  10   2.0000     -10.103505      -274.9303
  11   2.0000     -10.093680      -274.6630
  12   2.0000     -10.092290      -274.6252
  13   2.0000     -10.090499      -274.5764
  14   2.0000     -10.090234      -274.5692
  15   2.0000     -10.020351      -272.6676
  16   2.0000     -10.020029      -272.6589
  17   2.0000     -10.019086      -272.6332
  18   2.0000     -10.018735      -272.6236
  19   2.0000      -7.874712      -214.2818
  20   2.0000      -7.874648      -214.2801
  21   2.0000      -7.829075      -213.0400
  22   2.0000      -7.826604      -212.9727
  23   2.0000      -6.600179      -179.6000
  24   2.0000      -6.599980      -179.5946
  25   2.0000      -5.821569      -158.4129
  26   2.0000      -5.821307      -158.4058
  27   2.0000      -5.818676      -158.3342
  28   2.0000      -5.818498      -158.3294
  29   2.0000      -5.812004      -158.1527
  30   2.0000      -5.811746      -158.1456
  31   2.0000      -5.776571      -157.1885
  32   2.0000      -5.774173      -157.1232
  33   2.0000      -5.769517      -156.9965
  34   2.0000      -5.769032      -156.9833
  35   2.0000      -5.766821      -156.9232
  36   2.0000      -5.766682      -156.9194
  37   2.0000      -4.745943      -129.1437
  38   2.0000      -4.745163      -129.1224
  39   2.0000      -4.745154      -129.1222
  40   2.0000      -4.744718      -129.1104
  41   2.0000      -4.744184      -129.0958
  42   2.0000      -4.743633      -129.0808
  43   2.0000      -1.057903       -28.7870
  44   2.0000      -1.053951       -28.6795
  45   2.0000      -1.016160       -27.6511
  46   2.0000      -1.014266       -27.5996
  47   2.0000      -0.803760       -21.8714
  48   2.0000      -0.759868       -20.6771
  49   2.0000      -0.747443       -20.3390
  50   2.0000      -0.728064       -19.8116
  51   2.0000      -0.724507       -19.7148
  52   2.0000      -0.711851       -19.3704
  53   2.0000      -0.690629       -18.7930
  54   2.0000      -0.676720       -18.4145
  55   2.0000      -0.633846       -17.2478
  56   2.0000      -0.612673       -16.6717
  57   2.0000      -0.600552       -16.3419
  58   2.0000      -0.598872       -16.2961
  59   2.0000      -0.592322       -16.1179
  60   2.0000      -0.535041       -14.5592
  61   2.0000      -0.515964       -14.0401
  62   2.0000      -0.501702       -13.6520
  63   2.0000      -0.490712       -13.3530
  64   2.0000      -0.479737       -13.0543
  65   2.0000      -0.462089       -12.5741
  66   2.0000      -0.455265       -12.3884
  67   2.0000      -0.451710       -12.2916
  68   2.0000      -0.447468       -12.1762
  69   2.0000      -0.434261       -11.8169
  70   2.0000      -0.422138       -11.4869
  71   2.0000      -0.411289       -11.1918
  72   2.0000      -0.408062       -11.1039
  73   2.0000      -0.403666       -10.9843
  74   2.0000      -0.393793       -10.7157
  75   2.0000      -0.389335       -10.5943
  76   2.0000      -0.380601       -10.3567
  77   2.0000      -0.368216       -10.0197
  78   2.0000      -0.365421        -9.9436
  79   2.0000      -0.358435        -9.7535
  80   2.0000      -0.354626        -9.6499
  81   2.0000      -0.353182        -9.6106
  82   2.0000      -0.349823        -9.5192
  83   2.0000      -0.348526        -9.4839
  84   2.0000      -0.346334        -9.4242
  85   2.0000      -0.329101        -8.9553
  86   2.0000      -0.324380        -8.8268
  87   2.0000      -0.317545        -8.6408
  88   2.0000      -0.315621        -8.5885
  89   2.0000      -0.306228        -8.3329
  90   2.0000      -0.302004        -8.2179
  91   2.0000      -0.290270        -7.8986
  92   2.0000      -0.287031        -7.8105
  93   2.0000      -0.281451        -7.6587
  94   2.0000      -0.276153        -7.5145
  95   2.0000      -0.251169        -6.8347
  96   2.0000      -0.240657        -6.5486
  97   2.0000      -0.237931        -6.4744
  98   2.0000      -0.231271        -6.2932
  99   2.0000      -0.230564        -6.2740
 100   2.0000      -0.221164        -6.0182
 101   0.0000      -0.052614        -1.4317
 102   0.0000      -0.038996        -1.0611
 103   0.0000      -0.016418        -0.4467
 104   0.0000      -0.000785        -0.0214
 105   0.0000       0.015039         0.4092

MULLIKEN ATOMIC CHARGES
-----------------------
   0 C :   -0.479067
   1 C :   -0.142838
   2 O :   -0.301022
   3 P :    0.693990
   4 S :   -0.519423
   5 O :   -0.331198
   6 C :   -0.148862
   7 C :   -0.475635
   8 S :   -0.115394
   9 C :   -0.254205
  10 S :   -0.170914
  11 P :    0.670769
  12 S :   -0.502135
  13 O :   -0.296805
  14 C :   -0.101922
  15 C :   -0.492995
  16 O :   -0.306247
  17 C :   -0.137424
  18 C :   -0.480156
  19 H :    0.173905
  20 H :    0.177457
  21 H :    0.164194
  22 H :    0.174852
  23 H :    0.176066
  24 H :    0.176855
  25 H :    0.175853
  26 H :    0.172702
  27 H :    0.169448
  28 H :    0.168384
  29 H :    0.226195
  30 H :    0.227769
  31 H :    0.178709
  32 H :    0.173358
  33 H :    0.168394
  34 H :    0.173934
  35 H :    0.167360
  36 H :    0.172945
  37 H :    0.169782
  38 H :    0.170123
  39 H :    0.166449
  40 H :    0.166748
Sum of atomic charges:    0.0000000

LOEWDIN ATOMIC CHARGES
----------------------
   0 C :   -0.408895
   1 C :    0.026639
   2 O :   -0.675645
   3 P :    0.390002
   4 S :   -0.154304
   5 O :   -0.683632
   6 C :    0.029460
   7 C :   -0.402392
   8 S :    0.163409
   9 C :   -0.420969
  10 S :    0.124983
  11 P :    0.369916
  12 S :   -0.153105
  13 O :   -0.667873
  14 C :    0.031372
  15 C :   -0.396942
  16 O :   -0.673592
  17 C :    0.027396
  18 C :   -0.388268
  19 H :    0.169386
  20 H :    0.167233
  21 H :    0.161415
  22 H :    0.181743
  23 H :    0.191449
  24 H :    0.181764
  25 H :    0.191498
  26 H :    0.169154
  27 H :    0.164652
  28 H :    0.162838
  29 H :    0.200128
  30 H :    0.195492
  31 H :    0.185421
  32 H :    0.182806
  33 H :    0.164383
  34 H :    0.170726
  35 H :    0.163423
  36 H :    0.182022
  37 H :    0.180163
  38 H :    0.169601
  39 H :    0.163564
  40 H :    0.163580

  Mayer bond orders larger than 0.100000
B(  0-C ,  1-C ) :   0.9189 B(  0-C , 19-H ) :   0.9538 B(  0-C , 20-H ) :   0.9626
B(  0-C , 21-H ) :   0.9558 B(  1-C ,  2-O ) :   0.7909 B(  1-C , 22-H ) :   0.9603
B(  1-C , 23-H ) :   0.9487 B(  2-O ,  3-P ) :   1.0780 B(  3-P ,  4-S ) :   1.7121
B(  3-P ,  5-O ) :   1.1855 B(  3-P ,  8-S ) :   1.0801 B(  5-O ,  6-C ) :   0.8030
B(  6-C ,  7-C ) :   0.9142 B(  6-C , 24-H ) :   0.9624 B(  6-C , 25-H ) :   0.9506
B(  7-C , 26-H ) :   0.9546 B(  7-C , 27-H ) :   0.9692 B(  7-C , 28-H ) :   0.9589
B(  8-S ,  9-C ) :   0.9114 B(  9-C , 10-S ) :   0.9186 B(  9-C , 29-H ) :   0.8878
B(  9-C , 30-H ) :   0.9032 B( 10-S , 11-P ) :   0.9946 B( 11-P , 12-S ) :   1.8231
B( 11-P , 13-O ) :   1.1809 B( 11-P , 16-O ) :   1.0703 B( 13-O , 14-C ) :   0.7186
B( 14-C , 15-C ) :   0.9371 B( 14-C , 31-H ) :   0.9347 B( 14-C , 32-H ) :   0.9450
B( 15-C , 33-H ) :   0.9664 B( 15-C , 34-H ) :   0.9599 B( 15-C , 35-H ) :   0.9664
B( 16-O , 17-C ) :   0.7759 B( 17-C , 18-C ) :   0.9532 B( 17-C , 36-H ) :   0.9479
B( 17-C , 37-H ) :   0.9320 B( 18-C , 38-H ) :   0.9578 B( 18-C , 39-H ) :   0.9679
B( 18-C , 40-H ) :   0.9691

Dispersion correction           -0.020733373
FINAL SINGLE POINT ENERGY     -2932.473272852255

DIPOLE MOMENT
-------------

Method             : SCF
Type of density    : Electron Density
Multiplicity       :   1
Irrep              :   0
Energy             : -2932.4992026218264982 Eh
Relativity type    :
Basis              : AO
                                X                 Y                 Z
Electronic contribution:     -0.187688243      -3.102372363     -15.992787659
Nuclear contribution   :      0.466628345       2.989981216      18.689016397
                        -----------------------------------------
Total Dipole Moment    :      0.278940102      -0.112391147       2.696228738
                        -----------------------------------------
Magnitude (a.u.)       :      2.712948352
Magnitude (Debye)      :      6.895766694

Rotational constants in cm-1:             0.014666             0.003925             0.003768
Rotational constants in MHz :           439.687678           117.665795           112.955374

                             ****ORCA TERMINATED NORMALLY****
TOTAL RUN TIME: 0 days 0 hours 1 minutes 50 seconds 901 msec
