                         Program Version 6.0.0  -   RELEASE  -
|  1> ! pbe def2-sv(p) def2/J RI DEFGRID1 loosescf d4 GCP(DFT/SV(P)) printgap
|  2> %output
|  3>     printlevel normal
|  4> end
|  5> * xyz 0 1
|  6> C 2.0984789931 -0.2637825899 -2.5402159084
|  7> C 1.6996299491 -1.304757687 -1.5133471015
|  8> O 2.539778799 -1.2720306427 -0.3512912065
|  9> P 2.4377991561 -0.2033011634 0.8319390205
| 10> S 2.9960966058 1.6363739942 0.4742793642
| 11> O 3.3757631416 -0.8474020005 1.9171619253
| 12> C 3.193240017 -2.1790884612 2.4618480149
| 13> C 4.0726380655 -3.1827819391 1.7445888289
| 14> S 0.456113234 -0.469797699 1.5883754659
| 15> C -0.1985367679 1.1774105744 1.2370996987
| 16> S -0.4128553738 1.5365399281 -0.5367198816
| 17> P -2.23222 0.5229292339 -0.862525565
| 18> S -3.0231547906 0.6441892049 -2.6505148474
| 19> O -3.2195743078 0.9495005547 0.3230749205
| 20> C -4.1666323746 2.0173153324 0.1610350951
| 21> C -3.485491522 3.370098816 0.1072386452
| 22> O -1.7897254218 -0.9239980915 -0.3936266486
| 23> C -2.7161756197 -2.0352527261 -0.408599551
| 24> C -1.9048084259 -3.3069036383 -0.2746788657
| 25> H 3.1379323736 -0.3976956324 -2.8272576412
| 26> H 1.4649695315 -0.3638754217 -3.4164941817
| 27> H 1.9765986506 0.7391725261 -2.1348482963
| 28> H 1.8315364803 -2.3149306004 -1.9066919735
| 29> H 0.6570120076 -1.170285007 -1.2065898745
| 30> H 3.4763153369 -2.0819852442 3.5114409771
| 31> H 2.1362520245 -2.4495479004 2.3897148735
| 32> H 3.7910064894 -3.254107224 0.6977030752
| 33> H 5.1125754863 -2.8739531749 1.80484259
| 34> H 3.9591250617 -4.1544921433 2.2150924684
| 35> H 0.5036211057 1.9279800401 1.5974230984
| 36> H -1.1586691568 1.2422612654 1.7423247617
| 37> H -4.7338726917 1.8390485774 -0.7580846029
| 38> H -4.8225750691 1.9265850887 1.0278654611
| 39> H -2.8833554617 3.53477474 0.9973200582
| 40> H -2.8399475234 3.4234936129 -0.7695917442
| 41> H -4.2376686947 4.1490811598 0.0356965409
| 42> H -3.4071905469 -1.9101415382 0.427940636
| 43> H -3.2771332409 -2.0057053258 -1.3486303152
| 44> H -1.2425927 -3.4216114113 -1.1282841904
| 45> H -1.3090957709 -3.2665981208 0.6332102771
| 46> H -2.5786141114 -4.156039217 -0.2279612522
| 47> *
| 48>
| 49>                          ****END OF INPUT****

CARTESIAN COORDINATES (ANGSTROEM)
---------------------------------
  C      2.098479   -0.263783   -2.540216
  C      1.699630   -1.304758   -1.513347
  O      2.539779   -1.272031   -0.351291
  P      2.437799   -0.203301    0.831939
  S      2.996097    1.636374    0.474279
  O      3.375763   -0.847402    1.917162
  C      3.193240   -2.179088    2.461848
  C      4.072638   -3.182782    1.744589
  S      0.456113   -0.469798    1.588375
  C     -0.198537    1.177411    1.237100
  S     -0.412855    1.536540   -0.536720
  P     -2.232220    0.522929   -0.862526
  S     -3.023155    0.644189   -2.650515
  O     -3.219574    0.949501    0.323075
  C     -4.166632    2.017315    0.161035
  C     -3.485492    3.370099    0.107239
  O     -1.789725   -0.923998   -0.393627
  C     -2.716176   -2.035253   -0.408600
  C     -1.904808   -3.306904   -0.274679
  H      3.137932   -0.397696   -2.827258
  H      1.464970   -0.363875   -3.416494
  H      1.976599    0.739173   -2.134848
  H      1.831536   -2.314931   -1.906692
  H      0.657012   -1.170285   -1.206590
  H      3.476315   -2.081985    3.511441
  H      2.136252   -2.449548    2.389715
  H      3.791006   -3.254107    0.697703
  H      5.112575   -2.873953    1.804843
  H      3.959125   -4.154492    2.215092
  H      0.503621    1.927980    1.597423
  H     -1.158669    1.242261    1.742325
  H     -4.733873    1.839049   -0.758085
  H     -4.822575    1.926585    1.027865
  H     -2.883355    3.534775    0.997320
  H     -2.839948    3.423494   -0.769592
  H     -4.237669    4.149081    0.035697
  H     -3.407191   -1.910142    0.427941
  H     -3.277133   -2.005705   -1.348630
  H     -1.242593   -3.421611   -1.128284
  H     -1.309096   -3.266598    0.633210
  H     -2.578614   -4.156039   -0.227961

 Total Charge           Charge          ....    0
 Multiplicity           Mult            ....    1
 Number of Electrons    NEL             ....  202
 Basis Dimension        Dim             ....  334

ORBITAL ENERGIES
----------------

  NO   OCC          E(Eh)            E(eV)
   0   2.0000     -88.047976     -2395.9072
   1   2.0000     -88.043358     -2395.7816
   2   2.0000     -87.989863     -2394.3259
   3   2.0000     -87.986702     -2394.2399
   4   2.0000     -76.428388     -2079.7222
   5   2.0000     -76.427622     -2079.7013
   6   2.0000     -18.797823      -511.5148
   7   2.0000     -18.795488      -511.4512
   8   2.0000     -18.793119      -511.3868
   9   2.0000     -18.791457      -511.3415
  10   2.0000      -9.961707      -271.0718
  11   2.0000      -9.960255      -271.0323
  12   2.0000      -9.957776      -270.9649
  13   2.0000      -9.955431      -270.9010
  14   2.0000      -9.947201      -270.6771
  15   2.0000      -9.892762      -269.1958
  16   2.0000      -9.889153      -269.0975
  17   2.0000      -9.887665      -269.0570
  18   2.0000      -9.871891      -268.6278
  19   2.0000      -7.692519      -209.3241
  20   2.0000      -7.688274      -209.2086
  21   2.0000      -7.635027      -207.7596
  22   2.0000      -7.631917      -207.6750
  23   2.0000      -6.426262      -174.8675
  24   2.0000      -6.424911      -174.8307
  25   2.0000      -5.720775      -155.6702
  26   2.0000      -5.716820      -155.5626
  27   2.0000      -5.716184      -155.5453
  28   2.0000      -5.712777      -155.4526
  29   2.0000      -5.709395      -155.3605
  30   2.0000      -5.705230      -155.2472
  31   2.0000      -5.663943      -154.1237
  32   2.0000      -5.661011      -154.0440
  33   2.0000      -5.655686      -153.8990
  34   2.0000      -5.655171      -153.8850
  35   2.0000      -5.652499      -153.8123
  36   2.0000      -5.651901      -153.7961
  37   2.0000      -4.648816      -126.5007
  38   2.0000      -4.648216      -126.4844
  39   2.0000      -4.647629      -126.4684
  40   2.0000      -4.646840      -126.4469
  41   2.0000      -4.646506      -126.4379
  42   2.0000      -4.645152      -126.4010
  43   2.0000      -0.991786       -26.9879
  44   2.0000      -0.988103       -26.8877
  45   2.0000      -0.949811       -25.8457
  46   2.0000      -0.944264       -25.6947
  47   2.0000      -0.766050       -20.8453
  48   2.0000      -0.725758       -19.7489
  49   2.0000      -0.713740       -19.4218
  50   2.0000      -0.691625       -18.8201
  51   2.0000      -0.687202       -18.6997
  52   2.0000      -0.676505       -18.4086
  53   2.0000      -0.653394       -17.7797
  54   2.0000      -0.641320       -17.4512
  55   2.0000      -0.597280       -16.2528
  56   2.0000      -0.587284       -15.9808
  57   2.0000      -0.580372       -15.7927
  58   2.0000      -0.574612       -15.6360
  59   2.0000      -0.565168       -15.3790
  60   2.0000      -0.511292       -13.9130
  61   2.0000      -0.502310       -13.6685
  62   2.0000      -0.478365       -13.0170
  63   2.0000      -0.476100       -12.9554
  64   2.0000      -0.460379       -12.5276
  65   2.0000      -0.449451       -12.2302
  66   2.0000      -0.448172       -12.1954
  67   2.0000      -0.434976       -11.8363
  68   2.0000      -0.430705       -11.7201
  69   2.0000      -0.421340       -11.4653
  70   2.0000      -0.406296       -11.0559
  71   2.0000      -0.399575       -10.8730
  72   2.0000      -0.398024       -10.8308
  73   2.0000      -0.393509       -10.7079
  74   2.0000      -0.386449       -10.5158
  75   2.0000      -0.372058       -10.1242
  76   2.0000      -0.364356        -9.9146
  77   2.0000      -0.360769        -9.8170
  78   2.0000      -0.357814        -9.7366
  79   2.0000      -0.355475        -9.6730
  80   2.0000      -0.350448        -9.5362
  81   2.0000      -0.343202        -9.3390
  82   2.0000      -0.340042        -9.2530
  83   2.0000      -0.335257        -9.1228
  84   2.0000      -0.331475        -9.0199
  85   2.0000      -0.326681        -8.8894
  86   2.0000      -0.319940        -8.7060
  87   2.0000      -0.302011        -8.2182
  88   2.0000      -0.299654        -8.1540
  89   2.0000      -0.290450        -7.9035
  90   2.0000      -0.288373        -7.8470
  91   2.0000      -0.279957        -7.6180
  92   2.0000      -0.277978        -7.5642
  93   2.0000      -0.268484        -7.3058
  94   2.0000      -0.259460        -7.0603
  95   2.0000      -0.236474        -6.4348
  96   2.0000      -0.217943        -5.9305
  97   2.0000      -0.209975        -5.7137
  98   2.0000      -0.207058        -5.6343
  99   2.0000      -0.205492        -5.5917
 100   2.0000      -0.199636        -5.4324
 101   0.0000      -0.046441        -1.2637
 102   0.0000      -0.027637        -0.7520
 103   0.0000      -0.014228        -0.3872
 104   0.0000      -0.004051        -0.1102
 105   0.0000       0.006298         0.1714

MULLIKEN ATOMIC CHARGES
-----------------------
   0 C :   -0.301588
   1 C :   -0.046037
   2 O :   -0.377881
   3 P :    0.604262
   4 S :   -0.304042
   5 O :   -0.354804
   6 C :   -0.018274
   7 C :   -0.288470
   8 S :   -0.114329
   9 C :   -0.340462
  10 S :   -0.054235
  11 P :    0.601978
  12 S :   -0.321611
  13 O :   -0.390857
  14 C :   -0.007461
  15 C :   -0.315196
  16 O :   -0.368571
  17 C :   -0.011042
  18 C :   -0.283175
  19 H :    0.110368
  20 H :    0.109851
  21 H :    0.140525
  22 H :    0.099231
  23 H :    0.134876
  24 H :    0.114034
  25 H :    0.106065
  26 H :    0.125024
  27 H :    0.122695
  28 H :    0.109058
  29 H :    0.196643
  30 H :    0.182675
  31 H :    0.113982
  32 H :    0.104028
  33 H :    0.114448
  34 H :    0.130758
  35 H :    0.115333
  36 H :    0.103017
  37 H :    0.106209
  38 H :    0.121233
  39 H :    0.119192
  40 H :    0.112548
Sum of atomic charges:    0.0000000

LOEWDIN ATOMIC CHARGES
----------------------
   0 C :   -0.366658
   1 C :   -0.127172
   2 O :   -0.245213
   3 P :    0.566060
   4 S :   -0.297575
   5 O :   -0.235860
   6 C :   -0.111425
   7 C :   -0.358800
   8 S :    0.068392
   9 C :   -0.478102
  10 S :    0.117007
  11 P :    0.558900
  12 S :   -0.322441
  13 O :   -0.253025
  14 C :   -0.123312
  15 C :   -0.366697
  16 O :   -0.244076
  17 C :   -0.115690
  18 C :   -0.350720
  19 H :    0.124197
  20 H :    0.130529
  21 H :    0.119899
  22 H :    0.114656
  23 H :    0.102841
  24 H :    0.123278
  25 H :    0.103430
  26 H :    0.127825
  27 H :    0.130692
  28 H :    0.129037
  29 H :    0.134283
  30 H :    0.131710
  31 H :    0.110540
  32 H :    0.117468
  33 H :    0.123237
  34 H :    0.123571
  35 H :    0.132354
  36 H :    0.112602
  37 H :    0.110231
  38 H :    0.127582
  39 H :    0.125772
  40 H :    0.130673

  Mayer bond orders larger than 0.100000
B(  0-C ,  1-C ) :   1.1650 B(  0-C , 19-H ) :   0.9456 B(  0-C , 20-H ) :   0.9380
B(  0-C , 21-H ) :   0.9304 B(  1-C ,  2-O ) :   0.9098 B(  1-C , 22-H ) :   0.9334
B(  1-C , 23-H ) :   0.8978 B(  2-O ,  3-P ) :   1.0793 B(  3-P ,  4-S ) :   1.6511
B(  3-P ,  5-O ) :   1.1436 B(  3-P ,  8-S ) :   0.9459 B(  4-S ,  8-S ) :   0.1132
B(  5-O ,  6-C ) :   0.8946 B(  6-C ,  7-C ) :   1.1650 B(  6-C , 24-H ) :   0.9357
B(  6-C , 25-H ) :   0.9160 B(  7-C , 26-H ) :   0.9411 B(  7-C , 27-H ) :   0.9465
B(  7-C , 28-H ) :   0.9393 B(  8-S ,  9-C ) :   1.0128 B(  9-C , 10-S ) :   0.9799
B(  9-C , 29-H ) :   0.8812 B(  9-C , 30-H ) :   0.8889 B( 10-S , 11-P ) :   0.9813
B( 11-P , 12-S ) :   1.6603 B( 11-P , 13-O ) :   1.0515 B( 11-P , 16-O ) :   1.0982
B( 13-O , 14-C ) :   0.9090 B( 14-C , 15-C ) :   1.1620 B( 14-C , 31-H ) :   0.9119
B( 14-C , 32-H ) :   0.9335 B( 15-C , 33-H ) :   0.9472 B( 15-C , 34-H ) :   0.9345
B( 15-C , 35-H ) :   0.9388 B( 16-O , 17-C ) :   0.9001 B( 17-C , 18-C ) :   1.1609
B( 17-C , 36-H ) :   0.9304 B( 17-C , 37-H ) :   0.9136 B( 18-C , 38-H ) :   0.9495
B( 18-C , 39-H ) :   0.9488 B( 18-C , 40-H ) :   0.9414

Dispersion correction           -0.064823144
FINAL SINGLE POINT ENERGY     -2929.521426054886

DIPOLE MOMENT
-------------

Method             : SCF
Type of density    : Electron Density
Multiplicity       :   1
Irrep              :   0
Energy             : -2929.6422957680856598 Eh
Relativity type    :
Basis              : AO
                                X                 Y                 Z
Electronic contribution:      3.366155043      13.088287214      -0.245569529
Nuclear contribution   :     -4.339753567     -14.522259280       1.354321604
                        -----------------------------------------
Total Dipole Moment    :     -0.973598524      -1.433972066       1.108752074
                        -----------------------------------------
Magnitude (a.u.)       :      2.057547359
Magnitude (Debye)      :      5.229869762

Rotational constants in cm-1:             0.012523             0.004878             0.004505
Rotational constants in MHz :           375.419094           146.234913           135.056392

                             ****ORCA TERMINATED NORMALLY****
TOTAL RUN TIME: 0 days 0 hours 0 minutes 20 seconds 138 msec
