                         Program Version 6.0.0  -   RELEASE  -
|  1> ! pbe def2-sv(p) def2/J RI DEFGRID1 loosescf d4 GCP(DFT/SV(P)) printgap
|  2> %output
|  3>     printlevel normal
|  4> end
|  5> * xyz 0 1
|  6> C 4.6226767848 1.2196666028 -1.6370865985
|  7> C 4.7192983733 -0.0956852401 -0.8913855198
|  8> O 3.4408664075 -0.7440556563 -0.7674478141
|  9> P 2.2774524769 -0.1639886519 0.1440655233
| 10> S 2.8629853528 0.6226758634 1.8440877513
| 11> O 1.2916261798 -1.3970609279 0.2438643393
| 12> C 1.3340850954 -2.3436043826 1.329488256
| 13> C 2.6058653331 -3.1643130763 1.3127651327
| 14> S 1.1669619902 1.0735871256 -1.1530306076
| 15> C 0.2234542881 1.926533459 0.1429316027
| 16> S -0.8457433625 0.8391699558 1.1256963198
| 17> P -2.1061267303 0.0710824775 -0.4376746261
| 18> S -1.4258433266 -1.3482533309 -1.5965627443
| 19> O -2.5725383231 1.3390453678 -1.2410652635
| 20> C -3.3344851499 2.4297329038 -0.6562215988
| 21> C -4.8171890772 2.2271616677 -0.8888639916
| 22> O -3.3893838546 -0.3397604928 0.4050854646
| 23> C -3.3881123699 -1.5229706711 1.2279692148
| 24> C -4.8247036162 -1.8366081838 1.5934224393
| 25> H 4.0616203995 1.9427752586 -1.0463014868
| 26> H 5.6210168407 1.606864002 -1.8137125701
| 27> H 4.1156951839 1.0776673979 -2.5885468716
| 28> H 5.1247408886 0.0615617675 0.1134460097
| 29> H 5.3291747348 -0.8219053809 -1.4303327547
| 30> H 1.2369354739 -1.7918905646 2.270757893
| 31> H 0.4491346337 -2.9612087209 1.16631724
| 32> H 3.4632584484 -2.5210766804 1.5088097989
| 33> H 2.5521125927 -3.9272398776 2.0830026702
| 34> H 2.7331818911 -3.6352359757 0.3413312664
| 35> H -0.3702749223 2.6852909348 -0.3601506997
| 36> H 0.9135939092 2.3748736994 0.85842735
| 37> H -3.1077557438 2.4924496652 0.4112571566
| 38> H -2.9721084805 3.3210318854 -1.1721037259
| 39> H -5.3564140146 3.0897821598 -0.5098768181
| 40> H -5.0153495967 2.1177376567 -1.9515301211
| 41> H -5.1602114496 1.3337088332 -0.3747138068
| 42> H -2.9291350881 -2.3393511096 0.6601908005
| 43> H -2.7836400483 -1.3191386697 2.116583304
| 44> H -5.4057683266 -2.0211530163 0.6943214033
| 45> H -4.8466715227 -2.7212067078 2.2211805923
| 46> H -5.2617627066 -1.0018706584 2.1334913875
| 47> *
| 48>
| 49>                          ****END OF INPUT****

CARTESIAN COORDINATES (ANGSTROEM)
---------------------------------
  C      4.622677    1.219667   -1.637087
  C      4.719298   -0.095685   -0.891386
  O      3.440866   -0.744056   -0.767448
  P      2.277452   -0.163989    0.144066
  S      2.862985    0.622676    1.844088
  O      1.291626   -1.397061    0.243864
  C      1.334085   -2.343604    1.329488
  C      2.605865   -3.164313    1.312765
  S      1.166962    1.073587   -1.153031
  C      0.223454    1.926533    0.142932
  S     -0.845743    0.839170    1.125696
  P     -2.106127    0.071082   -0.437675
  S     -1.425843   -1.348253   -1.596563
  O     -2.572538    1.339045   -1.241065
  C     -3.334485    2.429733   -0.656222
  C     -4.817189    2.227162   -0.888864
  O     -3.389384   -0.339760    0.405085
  C     -3.388112   -1.522971    1.227969
  C     -4.824704   -1.836608    1.593422
  H      4.061620    1.942775   -1.046301
  H      5.621017    1.606864   -1.813713
  H      4.115695    1.077667   -2.588547
  H      5.124741    0.061562    0.113446
  H      5.329175   -0.821905   -1.430333
  H      1.236935   -1.791891    2.270758
  H      0.449135   -2.961209    1.166317
  H      3.463258   -2.521077    1.508810
  H      2.552113   -3.927240    2.083003
  H      2.733182   -3.635236    0.341331
  H     -0.370275    2.685291   -0.360151
  H      0.913594    2.374874    0.858427
  H     -3.107756    2.492450    0.411257
  H     -2.972108    3.321032   -1.172104
  H     -5.356414    3.089782   -0.509877
  H     -5.015350    2.117738   -1.951530
  H     -5.160211    1.333709   -0.374714
  H     -2.929135   -2.339351    0.660191
  H     -2.783640   -1.319139    2.116583
  H     -5.405768   -2.021153    0.694321
  H     -4.846672   -2.721207    2.221181
  H     -5.261763   -1.001871    2.133491

 Total Charge           Charge          ....    0
 Multiplicity           Mult            ....    1
 Number of Electrons    NEL             ....  202
 Basis Dimension        Dim             ....  334

ORBITAL ENERGIES
----------------

  NO   OCC          E(Eh)            E(eV)
   0   2.0000     -88.038077     -2395.6379
   1   2.0000     -88.037760     -2395.6292
   2   2.0000     -87.985907     -2394.2183
   3   2.0000     -87.975544     -2393.9363
   4   2.0000     -76.422744     -2079.5686
   5   2.0000     -76.422447     -2079.5605
   6   2.0000     -18.796486      -511.4784
   7   2.0000     -18.793055      -511.3850
   8   2.0000     -18.790726      -511.3217
   9   2.0000     -18.780731      -511.0497
  10   2.0000      -9.960857      -271.0487
  11   2.0000      -9.957530      -270.9582
  12   2.0000      -9.956074      -270.9185
  13   2.0000      -9.950568      -270.7687
  14   2.0000      -9.943740      -270.5829
  15   2.0000      -9.891476      -269.1608
  16   2.0000      -9.888983      -269.0929
  17   2.0000      -9.882220      -268.9089
  18   2.0000      -9.878254      -268.8010
  19   2.0000      -7.683031      -209.0659
  20   2.0000      -7.682683      -209.0564
  21   2.0000      -7.630893      -207.6472
  22   2.0000      -7.620856      -207.3740
  23   2.0000      -6.420223      -174.7031
  24   2.0000      -6.420009      -174.6973
  25   2.0000      -5.710922      -155.4021
  26   2.0000      -5.710458      -155.3895
  27   2.0000      -5.707715      -155.3148
  28   2.0000      -5.707281      -155.3030
  29   2.0000      -5.699759      -155.0983
  30   2.0000      -5.699712      -155.0971
  31   2.0000      -5.659567      -154.0047
  32   2.0000      -5.651659      -153.7895
  33   2.0000      -5.651169      -153.7761
  34   2.0000      -5.649965      -153.7434
  35   2.0000      -5.641521      -153.5136
  36   2.0000      -5.640755      -153.4928
  37   2.0000      -4.643260      -126.3495
  38   2.0000      -4.642586      -126.3312
  39   2.0000      -4.641936      -126.3135
  40   2.0000      -4.641838      -126.3108
  41   2.0000      -4.640942      -126.2865
  42   2.0000      -4.639727      -126.2534
  43   2.0000      -0.990669       -26.9575
  44   2.0000      -0.982101       -26.7243
  45   2.0000      -0.948727       -25.8162
  46   2.0000      -0.940632       -25.5959
  47   2.0000      -0.761058       -20.7094
  48   2.0000      -0.720817       -19.6144
  49   2.0000      -0.707492       -19.2518
  50   2.0000      -0.696037       -18.9401
  51   2.0000      -0.683233       -18.5917
  52   2.0000      -0.669600       -18.2207
  53   2.0000      -0.646746       -17.5989
  54   2.0000      -0.636216       -17.3123
  55   2.0000      -0.597648       -16.2628
  56   2.0000      -0.587617       -15.9899
  57   2.0000      -0.573268       -15.5994
  58   2.0000      -0.568070       -15.4580
  59   2.0000      -0.562534       -15.3073
  60   2.0000      -0.511502       -13.9187
  61   2.0000      -0.488432       -13.2909
  62   2.0000      -0.486053       -13.2262
  63   2.0000      -0.468916       -12.7599
  64   2.0000      -0.454423       -12.3655
  65   2.0000      -0.447048       -12.1648
  66   2.0000      -0.439036       -11.9468
  67   2.0000      -0.435994       -11.8640
  68   2.0000      -0.430311       -11.7094
  69   2.0000      -0.412282       -11.2188
  70   2.0000      -0.406135       -11.0515
  71   2.0000      -0.394200       -10.7267
  72   2.0000      -0.388392       -10.5687
  73   2.0000      -0.384435       -10.4610
  74   2.0000      -0.381589       -10.3836
  75   2.0000      -0.374783       -10.1984
  76   2.0000      -0.364904        -9.9295
  77   2.0000      -0.360466        -9.8088
  78   2.0000      -0.355376        -9.6703
  79   2.0000      -0.352894        -9.6027
  80   2.0000      -0.349047        -9.4980
  81   2.0000      -0.345364        -9.3978
  82   2.0000      -0.344347        -9.3702
  83   2.0000      -0.337694        -9.1891
  84   2.0000      -0.330504        -8.9935
  85   2.0000      -0.320220        -8.7136
  86   2.0000      -0.310286        -8.4433
  87   2.0000      -0.301882        -8.2146
  88   2.0000      -0.297593        -8.0979
  89   2.0000      -0.292754        -7.9662
  90   2.0000      -0.278084        -7.5670
  91   2.0000      -0.274872        -7.4796
  92   2.0000      -0.269022        -7.3205
  93   2.0000      -0.261486        -7.1154
  94   2.0000      -0.256490        -6.9795
  95   2.0000      -0.233510        -6.3541
  96   2.0000      -0.215471        -5.8633
  97   2.0000      -0.207738        -5.6528
  98   2.0000      -0.203504        -5.5376
  99   2.0000      -0.191451        -5.2096
 100   2.0000      -0.183208        -4.9853
 101   0.0000      -0.045307        -1.2329
 102   0.0000      -0.018345        -0.4992
 103   0.0000      -0.009946        -0.2706
 104   0.0000       0.004193         0.1141
 105   0.0000       0.021960         0.5976

MULLIKEN ATOMIC CHARGES
-----------------------
   0 C :   -0.315672
   1 C :   -0.004086
   2 O :   -0.368129
   3 P :    0.618447
   4 S :   -0.347599
   5 O :   -0.342858
   6 C :    0.001800
   7 C :   -0.309225
   8 S :   -0.061946
   9 C :   -0.357051
  10 S :   -0.112333
  11 P :    0.598570
  12 S :   -0.285782
  13 O :   -0.362056
  14 C :   -0.027452
  15 C :   -0.284286
  16 O :   -0.386592
  17 C :   -0.017875
  18 C :   -0.281685
  19 H :    0.124359
  20 H :    0.112387
  21 H :    0.120973
  22 H :    0.110289
  23 H :    0.106367
  24 H :    0.107282
  25 H :    0.101953
  26 H :    0.119804
  27 H :    0.108657
  28 H :    0.119923
  29 H :    0.183643
  30 H :    0.191715
  31 H :    0.105180
  32 H :    0.110641
  33 H :    0.109499
  34 H :    0.121620
  35 H :    0.126333
  36 H :    0.107687
  37 H :    0.104963
  38 H :    0.123395
  39 H :    0.113052
  40 H :    0.116088
Sum of atomic charges:    0.0000000

LOEWDIN ATOMIC CHARGES
----------------------
   0 C :   -0.369640
   1 C :   -0.118884
   2 O :   -0.240660
   3 P :    0.575638
   4 S :   -0.332965
   5 O :   -0.227158
   6 C :   -0.116678
   7 C :   -0.365377
   8 S :    0.103435
   9 C :   -0.478610
  10 S :    0.057367
  11 P :    0.560712
  12 S :   -0.296726
  13 O :   -0.236551
  14 C :   -0.116769
  15 C :   -0.357973
  16 O :   -0.253005
  17 C :   -0.121453
  18 C :   -0.350483
  19 H :    0.120113
  20 H :    0.130734
  21 H :    0.125729
  22 H :    0.109982
  23 H :    0.119290
  24 H :    0.108287
  25 H :    0.116667
  26 H :    0.120730
  27 H :    0.128689
  28 H :    0.127721
  29 H :    0.129163
  30 H :    0.130823
  31 H :    0.106726
  32 H :    0.118798
  33 H :    0.129933
  34 H :    0.129848
  35 H :    0.127603
  36 H :    0.108921
  37 H :    0.108835
  38 H :    0.129891
  39 H :    0.131492
  40 H :    0.125807

  Mayer bond orders larger than 0.100000
B(  0-C ,  1-C ) :   1.1661 B(  0-C , 19-H ) :   0.9353 B(  0-C , 20-H ) :   0.9378
B(  0-C , 21-H ) :   0.9446 B(  1-C ,  2-O ) :   0.9085 B(  1-C , 22-H ) :   0.9158
B(  1-C , 23-H ) :   0.9338 B(  2-O ,  3-P ) :   1.1134 B(  3-P ,  4-S ) :   1.5755
B(  3-P ,  5-O ) :   1.1459 B(  3-P ,  8-S ) :   0.9610 B(  4-S ,  8-S ) :   0.1096
B(  5-O ,  6-C ) :   0.9085 B(  6-C ,  7-C ) :   1.1642 B(  6-C , 24-H ) :   0.9184
B(  6-C , 25-H ) :   0.9302 B(  7-C , 26-H ) :   0.9367 B(  7-C , 27-H ) :   0.9396
B(  7-C , 28-H ) :   0.9455 B(  8-S ,  9-C ) :   1.0110 B(  9-C , 10-S ) :   1.0003
B(  9-C , 29-H ) :   0.9023 B(  9-C , 30-H ) :   0.8837 B( 10-S , 11-P ) :   0.9335
B( 10-S , 12-S ) :   0.1123 B( 11-P , 12-S ) :   1.7088 B( 11-P , 13-O ) :   1.1252
B( 11-P , 16-O ) :   1.0597 B( 13-O , 14-C ) :   0.8888 B( 14-C , 15-C ) :   1.1701
B( 14-C , 31-H ) :   0.9084 B( 14-C , 32-H ) :   0.9319 B( 15-C , 33-H ) :   0.9390
B( 15-C , 34-H ) :   0.9468 B( 15-C , 35-H ) :   0.9404 B( 16-O , 17-C ) :   0.9106
B( 17-C , 18-C ) :   1.1601 B( 17-C , 36-H ) :   0.9073 B( 17-C , 37-H ) :   0.9278
B( 18-C , 38-H ) :   0.9508 B( 18-C , 39-H ) :   0.9416 B( 18-C , 40-H ) :   0.9508

Dispersion correction           -0.065480520
FINAL SINGLE POINT ENERGY     -2929.516805332662

DIPOLE MOMENT
-------------

Method             : SCF
Type of density    : Electron Density
Multiplicity       :   1
Irrep              :   0
Energy             : -2929.6351916293629074 Eh
Relativity type    :
Basis              : AO
                                X                 Y                 Z
Electronic contribution:      6.739118671       3.130184549      -4.729890018
Nuclear contribution   :     -7.360387325      -2.742939294       5.238021440
                        -----------------------------------------
Total Dipole Moment    :     -0.621268654       0.387245255       0.508131422
                        -----------------------------------------
Magnitude (a.u.)       :      0.891140376
Magnitude (Debye)      :      2.265098825

Rotational constants in cm-1:             0.013213             0.004921             0.004352
Rotational constants in MHz :           396.126902           147.515156           130.475052

                             ****ORCA TERMINATED NORMALLY****
TOTAL RUN TIME: 0 days 0 hours 0 minutes 21 seconds 118 msec
