                         Program Version 6.0.0  -   RELEASE  -
|  1> ! pbe def2-sv(p) def2/J RI DEFGRID1 loosescf d4 GCP(DFT/SV(P)) printgap
|  2> %output
|  3>     printlevel normal
|  4> end
|  5> * xyz 0 1
|  6> C 4.4001310078 0.6334594622 -2.2639657753
|  7> C 4.6565292851 0.043303176 -0.8935271698
|  8> O 3.6828550244 0.4567847103 0.0841073387
|  9> P 2.108662955 0.295670395 -0.0560001463
| 10> S 1.144721963 1.5884229025 -1.1703416505
| 11> O 1.6557148239 0.4306267982 1.4491922825
| 12> C 2.2656147727 -0.3575462188 2.5108432844
| 13> C 1.190925465 -0.7834184582 3.4892877211
| 14> S 1.8919339738 -1.7504610052 -0.597160225
| 15> C 0.1419507931 -1.7021940711 -1.0279876715
| 16> S -0.9275660359 -1.4103321103 0.4166104897
| 17> P -2.0823723153 0.2403474271 -0.2733848547
| 18> S -2.1673333616 0.5005740003 -2.2073934621
| 19> O -1.5592551502 1.4989802397 0.5176343752
| 20> C -1.486373049 1.5523575016 1.9630666102
| 21> C -2.6524214443 2.3367972886 2.527208868
| 22> O -3.4891049515 -0.0123999604 0.4319598171
| 23> C -4.5341384073 -0.79572998 -0.1713701359
| 24> C -4.1584630102 -2.2558417687 -0.3199418043
| 25> H 5.2039413489 0.3508025932 -2.9359697228
| 26> H 3.456611439 0.2632111897 -2.6631187611
| 27> H 4.3419549816 1.7179368318 -2.206097938
| 28> H 5.6013470077 0.3968254263 -0.4771141461
| 29> H 4.652645954 -1.0492708474 -0.9362861384
| 30> H 2.7592779433 -1.2259088539 2.0657609585
| 31> H 3.0126776325 0.2818181245 2.9835045619
| 32> H 0.6956061376 0.087832704 3.9077388618
| 33> H 0.4529203753 -1.4070360276 2.990638413
| 34> H 1.6534882431 -1.3514332874 4.2900362819
| 35> H -0.0934181185 -2.6810145487 -1.4382023342
| 36> H -0.0433061632 -0.9106968942 -1.7597694293
| 37> H -1.4686107548 0.5311246859 2.3543619423
| 38> H -0.5315434629 2.0417201635 2.169208085
| 39> H -3.5876309456 1.8289110948 2.3072093685
| 40> H -2.533467168 2.4240931256 3.6026270305
| 41> H -2.6795999625 3.3294562681 2.0858534369
| 42> H -5.3785428234 -0.6649722789 0.5069185531
| 43> H -4.7682504976 -0.3592748793 -1.1471088318
| 44> H -3.3729187258 -2.3621561847 -1.0665043266
| 45> H -3.8056699627 -2.6567074982 0.6268983414
| 46> H -5.0293069973 -2.8146202107 -0.6472534794
| 47> *
| 48>
| 49>                          ****END OF INPUT****

CARTESIAN COORDINATES (ANGSTROEM)
---------------------------------
  C      4.400131    0.633459   -2.263966
  C      4.656529    0.043303   -0.893527
  O      3.682855    0.456785    0.084107
  P      2.108663    0.295670   -0.056000
  S      1.144722    1.588423   -1.170342
  O      1.655715    0.430627    1.449192
  C      2.265615   -0.357546    2.510843
  C      1.190925   -0.783418    3.489288
  S      1.891934   -1.750461   -0.597160
  C      0.141951   -1.702194   -1.027988
  S     -0.927566   -1.410332    0.416610
  P     -2.082372    0.240347   -0.273385
  S     -2.167333    0.500574   -2.207393
  O     -1.559255    1.498980    0.517634
  C     -1.486373    1.552358    1.963067
  C     -2.652421    2.336797    2.527209
  O     -3.489105   -0.012400    0.431960
  C     -4.534138   -0.795730   -0.171370
  C     -4.158463   -2.255842   -0.319942
  H      5.203941    0.350803   -2.935970
  H      3.456611    0.263211   -2.663119
  H      4.341955    1.717937   -2.206098
  H      5.601347    0.396825   -0.477114
  H      4.652646   -1.049271   -0.936286
  H      2.759278   -1.225909    2.065761
  H      3.012678    0.281818    2.983505
  H      0.695606    0.087833    3.907739
  H      0.452920   -1.407036    2.990638
  H      1.653488   -1.351433    4.290036
  H     -0.093418   -2.681015   -1.438202
  H     -0.043306   -0.910697   -1.759769
  H     -1.468611    0.531125    2.354362
  H     -0.531543    2.041720    2.169208
  H     -3.587631    1.828911    2.307209
  H     -2.533467    2.424093    3.602627
  H     -2.679600    3.329456    2.085853
  H     -5.378543   -0.664972    0.506919
  H     -4.768250   -0.359275   -1.147109
  H     -3.372919   -2.362156   -1.066504
  H     -3.805670   -2.656707    0.626898
  H     -5.029307   -2.814620   -0.647253

 Total Charge           Charge          ....    0
 Multiplicity           Mult            ....    1
 Number of Electrons    NEL             ....  202
 Basis Dimension        Dim             ....  334

ORBITAL ENERGIES
----------------

  NO   OCC          E(Eh)            E(eV)
   0   2.0000     -88.046005     -2395.8536
   1   2.0000     -88.039204     -2395.6685
   2   2.0000     -87.980422     -2394.0690
   3   2.0000     -87.976627     -2393.9657
   4   2.0000     -76.422488     -2079.5616
   5   2.0000     -76.420977     -2079.5205
   6   2.0000     -18.792707      -511.3756
   7   2.0000     -18.789041      -511.2758
   8   2.0000     -18.788556      -511.2626
   9   2.0000     -18.780877      -511.0536
  10   2.0000      -9.958997      -270.9981
  11   2.0000      -9.955864      -270.9128
  12   2.0000      -9.954341      -270.8714
  13   2.0000      -9.950001      -270.7533
  14   2.0000      -9.947477      -270.6846
  15   2.0000      -9.889313      -269.1019
  16   2.0000      -9.881930      -268.9010
  17   2.0000      -9.881739      -268.8958
  18   2.0000      -9.880389      -268.8591
  19   2.0000      -7.691000      -209.2828
  20   2.0000      -7.683778      -209.0862
  21   2.0000      -7.625646      -207.5044
  22   2.0000      -7.621516      -207.3920
  23   2.0000      -6.419753      -174.6904
  24   2.0000      -6.418320      -174.6514
  25   2.0000      -5.718725      -155.6144
  26   2.0000      -5.715254      -155.5200
  27   2.0000      -5.711662      -155.4222
  28   2.0000      -5.708419      -155.3340
  29   2.0000      -5.708284      -155.3303
  30   2.0000      -5.700758      -155.1255
  31   2.0000      -5.654711      -153.8725
  32   2.0000      -5.650693      -153.7632
  33   2.0000      -5.646155      -153.6397
  34   2.0000      -5.645721      -153.6279
  35   2.0000      -5.641943      -153.5251
  36   2.0000      -5.641644      -153.5169
  37   2.0000      -4.642569      -126.3307
  38   2.0000      -4.641876      -126.3119
  39   2.0000      -4.641101      -126.2908
  40   2.0000      -4.639950      -126.2595
  41   2.0000      -4.639654      -126.2514
  42   2.0000      -4.638767      -126.2273
  43   2.0000      -0.987402       -26.8686
  44   2.0000      -0.981728       -26.7142
  45   2.0000      -0.942816       -25.6553
  46   2.0000      -0.937361       -25.5069
  47   2.0000      -0.761804       -20.7297
  48   2.0000      -0.718468       -19.5505
  49   2.0000      -0.709307       -19.3012
  50   2.0000      -0.690507       -18.7897
  51   2.0000      -0.685716       -18.6593
  52   2.0000      -0.675874       -18.3915
  53   2.0000      -0.647693       -17.6246
  54   2.0000      -0.632629       -17.2147
  55   2.0000      -0.593045       -16.1376
  56   2.0000      -0.585285       -15.9264
  57   2.0000      -0.573313       -15.6006
  58   2.0000      -0.568213       -15.4619
  59   2.0000      -0.563837       -15.3428
  60   2.0000      -0.508231       -13.8297
  61   2.0000      -0.494655       -13.4603
  62   2.0000      -0.473581       -12.8868
  63   2.0000      -0.468761       -12.7556
  64   2.0000      -0.452632       -12.3167
  65   2.0000      -0.445816       -12.1313
  66   2.0000      -0.440115       -11.9761
  67   2.0000      -0.435826       -11.8594
  68   2.0000      -0.428292       -11.6544
  69   2.0000      -0.421695       -11.4749
  70   2.0000      -0.413385       -11.2488
  71   2.0000      -0.396203       -10.7812
  72   2.0000      -0.388330       -10.5670
  73   2.0000      -0.388037       -10.5590
  74   2.0000      -0.381361       -10.3774
  75   2.0000      -0.363458        -9.8902
  76   2.0000      -0.361008        -9.8235
  77   2.0000      -0.353623        -9.6226
  78   2.0000      -0.352373        -9.5886
  79   2.0000      -0.347474        -9.4553
  80   2.0000      -0.346430        -9.4268
  81   2.0000      -0.344407        -9.3718
  82   2.0000      -0.339689        -9.2434
  83   2.0000      -0.337058        -9.1718
  84   2.0000      -0.334482        -9.1017
  85   2.0000      -0.318684        -8.6718
  86   2.0000      -0.309669        -8.4265
  87   2.0000      -0.296811        -8.0766
  88   2.0000      -0.295327        -8.0363
  89   2.0000      -0.291906        -7.9432
  90   2.0000      -0.286844        -7.8054
  91   2.0000      -0.277410        -7.5487
  92   2.0000      -0.264359        -7.1936
  93   2.0000      -0.260901        -7.0995
  94   2.0000      -0.255588        -6.9549
  95   2.0000      -0.236047        -6.4232
  96   2.0000      -0.217419        -5.9163
  97   2.0000      -0.210339        -5.7236
  98   2.0000      -0.197393        -5.3713
  99   2.0000      -0.188825        -5.1382
 100   2.0000      -0.182480        -4.9655
 101   0.0000      -0.040572        -1.1040
 102   0.0000      -0.031562        -0.8588
 103   0.0000      -0.011104        -0.3021
 104   0.0000       0.008394         0.2284
 105   0.0000       0.019973         0.5435

MULLIKEN ATOMIC CHARGES
-----------------------
   0 C :   -0.308484
   1 C :   -0.011123
   2 O :   -0.380792
   3 P :    0.574451
   4 S :   -0.269756
   5 O :   -0.353557
   6 C :   -0.007242
   7 C :   -0.295616
   8 S :   -0.123110
   9 C :   -0.342009
  10 S :   -0.122654
  11 P :    0.607743
  12 S :   -0.293236
  13 O :   -0.339569
  14 C :   -0.025213
  15 C :   -0.282273
  16 O :   -0.385739
  17 C :    0.001274
  18 C :   -0.310192
  19 H :    0.110258
  20 H :    0.128347
  21 H :    0.127789
  22 H :    0.108511
  23 H :    0.111262
  24 H :    0.097740
  25 H :    0.109441
  26 H :    0.118340
  27 H :    0.132270
  28 H :    0.109188
  29 H :    0.179797
  30 H :    0.209867
  31 H :    0.102896
  32 H :    0.119051
  33 H :    0.116770
  34 H :    0.103986
  35 H :    0.121412
  36 H :    0.101960
  37 H :    0.111851
  38 H :    0.119955
  39 H :    0.115289
  40 H :    0.111116
Sum of atomic charges:    0.0000000

LOEWDIN ATOMIC CHARGES
----------------------
   0 C :   -0.368984
   1 C :   -0.114658
   2 O :   -0.248687
   3 P :    0.555891
   4 S :   -0.278768
   5 O :   -0.237377
   6 C :   -0.114318
   7 C :   -0.356678
   8 S :    0.059518
   9 C :   -0.478875
  10 S :    0.067615
  11 P :    0.574273
  12 S :   -0.294281
  13 O :   -0.224782
  14 C :   -0.114203
  15 C :   -0.358273
  16 O :   -0.251871
  17 C :   -0.117151
  18 C :   -0.371011
  19 H :    0.129551
  20 H :    0.122587
  21 H :    0.131267
  22 H :    0.120922
  23 H :    0.106940
  24 H :    0.102249
  25 H :    0.117402
  26 H :    0.125291
  27 H :    0.121868
  28 H :    0.129575
  29 H :    0.134994
  30 H :    0.126220
  31 H :    0.101522
  32 H :    0.121006
  33 H :    0.124809
  34 H :    0.126748
  35 H :    0.129662
  36 H :    0.116916
  37 H :    0.112270
  38 H :    0.119229
  39 H :    0.121890
  40 H :    0.129702

  Mayer bond orders larger than 0.100000
B(  0-C ,  1-C ) :   1.1660 B(  0-C , 19-H ) :   0.9348 B(  0-C , 20-H ) :   0.9322
B(  0-C , 21-H ) :   0.9431 B(  1-C ,  2-O ) :   0.9152 B(  1-C , 22-H ) :   0.9337
B(  1-C , 23-H ) :   0.9267 B(  2-O ,  3-P ) :   1.0799 B(  3-P ,  4-S ) :   1.6860
B(  3-P ,  5-O ) :   1.1187 B(  3-P ,  8-S ) :   0.9274 B(  4-S ,  8-S ) :   0.1087
B(  5-O ,  6-C ) :   0.8876 B(  6-C ,  7-C ) :   1.1669 B(  6-C , 24-H ) :   0.9109
B(  6-C , 25-H ) :   0.9342 B(  7-C , 26-H ) :   0.9450 B(  7-C , 27-H ) :   0.9362
B(  7-C , 28-H ) :   0.9389 B(  8-S ,  9-C ) :   1.0033 B(  9-C , 10-S ) :   0.9959
B(  9-C , 29-H ) :   0.9103 B(  9-C , 30-H ) :   0.8442 B( 10-S , 11-P ) :   0.9443
B( 10-S , 12-S ) :   0.1125 B( 11-P , 12-S ) :   1.6310 B( 11-P , 13-O ) :   1.1470
B( 11-P , 16-O ) :   1.0684 B( 13-O , 14-C ) :   0.8961 B( 14-C , 15-C ) :   1.1578
B( 14-C , 31-H ) :   0.9118 B( 14-C , 32-H ) :   0.9277 B( 15-C , 33-H ) :   0.9425
B( 15-C , 34-H ) :   0.9407 B( 15-C , 35-H ) :   0.9468 B( 16-O , 17-C ) :   0.9125
B( 17-C , 18-C ) :   1.1669 B( 17-C , 36-H ) :   0.9343 B( 17-C , 37-H ) :   0.9178
B( 18-C , 38-H ) :   0.9367 B( 18-C , 39-H ) :   0.9425 B( 18-C , 40-H ) :   0.9371

Dispersion correction           -0.067825086
FINAL SINGLE POINT ENERGY     -2929.514435265547

DIPOLE MOMENT
-------------

Method             : SCF
Type of density    : Electron Density
Multiplicity       :   1
Irrep              :   0
Energy             : -2929.6327029122453496 Eh
Relativity type    :
Basis              : AO
                                X                 Y                 Z
Electronic contribution:      1.952800041       3.155440007     -12.641640118
Nuclear contribution   :     -1.388921051      -4.380615589      14.143896686
                        -----------------------------------------
Total Dipole Moment    :      0.563878990      -1.225175582       1.502256568
                        -----------------------------------------
Magnitude (a.u.)       :      2.018858469
Magnitude (Debye)      :      5.131530418

Rotational constants in cm-1:             0.012233             0.005478             0.005075
Rotational constants in MHz :           366.740615           164.237341           152.131739

                             ****ORCA TERMINATED NORMALLY****
TOTAL RUN TIME: 0 days 0 hours 0 minutes 21 seconds 775 msec
