                         Program Version 6.0.0  -   RELEASE  -
|  1> ! pbe def2-sv(p) def2/J RI DEFGRID1 loosescf d4 GCP(DFT/SV(P)) printgap
|  2> %output
|  3>     printlevel normal
|  4> end
|  5> * xyz 0 1
|  6> C 4.3272421066 0.196605801 -2.2574811779
|  7> C 2.9957758419 -0.4991925019 -2.0662586616
|  8> O 2.1214816072 0.2868413892 -1.2173060721
|  9> P 1.9900564171 0.0922056615 0.3360156958
| 10> S 0.8223556979 1.4266803585 1.1564799857
| 11> O 3.4917727724 0.1367228382 0.8480776819
| 12> C 3.8017020098 0.0667138347 2.2556842025
| 13> C 5.2444590592 0.492605623 2.4349003314
| 14> S 1.5251274994 -1.9714494319 0.6403397067
| 15> C -0.1262722696 -2.0347025176 -0.0921596572
| 16> S -1.4164297807 -1.3061952241 0.9778550664
| 17> P -2.2857195772 -0.0308975156 -0.4523804406
| 18> S -1.121290133 0.7126064751 -1.8551009149
| 19> O -3.1684608136 1.0029794087 0.3600511757
| 20> C -2.6841113728 2.1671015502 1.0529001589
| 21> C -2.5034123257 1.8752300631 2.5287882586
| 22> O -3.3909404649 -1.0203013764 -1.0069177021
| 23> C -4.0584402717 -0.8188574756 -2.2692437767
| 24> C -5.0069348551 0.3603912437 -2.2234210031
| 25> H 4.1710247459 1.1942621777 -2.6588328074
| 26> H 4.8490860139 0.278032506 -1.3079453107
| 27> H 4.9304474375 -0.3796596108 -2.9520675643
| 28> H 3.1268175032 -1.4891494158 -1.6202862408
| 29> H 2.448735937 -0.5813157542 -3.0076805413
| 30> H 3.1159249798 0.7279308705 2.7954511377
| 31> H 3.6428162735 -0.9625971432 2.5875921131
| 32> H 5.3805163778 1.5098232141 2.0784405784
| 33> H 5.4996515707 0.4456922065 3.4883233165
| 34> H 5.9002384641 -0.1691174479 1.8766089649
| 35> H -0.3481423508 -3.088997104 -0.2327904589
| 36> H -0.1235968825 -1.4932613825 -1.0417854064
| 37> H -1.7442677086 2.498307328 0.6008515674
| 38> H -3.4544697716 2.9234530772 0.8902300683
| 39> H -3.419670538 1.4627713609 2.9413686781
| 40> H -1.6929260914 1.1648479432 2.676788445
| 41> H -2.2530058206 2.7971263627 3.0431036539
| 42> H -3.2972892713 -0.6722989442 -3.0425951443
| 43> H -4.5863318314 -1.7586226843 -2.4361569423
| 44> H -4.4428250058 1.2832230708 -2.0948641838
| 45> H -5.5628801089 0.412381742 -3.1543444272
| 46> H -5.6981569061 0.2535157553 -1.3917863654
| 47> *
| 48>
| 49>                          ****END OF INPUT****

CARTESIAN COORDINATES (ANGSTROEM)
---------------------------------
  C      4.327242    0.196606   -2.257481
  C      2.995776   -0.499193   -2.066259
  O      2.121482    0.286841   -1.217306
  P      1.990056    0.092206    0.336016
  S      0.822356    1.426680    1.156480
  O      3.491773    0.136723    0.848078
  C      3.801702    0.066714    2.255684
  C      5.244459    0.492606    2.434900
  S      1.525127   -1.971449    0.640340
  C     -0.126272   -2.034703   -0.092160
  S     -1.416430   -1.306195    0.977855
  P     -2.285720   -0.030898   -0.452380
  S     -1.121290    0.712606   -1.855101
  O     -3.168461    1.002979    0.360051
  C     -2.684111    2.167102    1.052900
  C     -2.503412    1.875230    2.528788
  O     -3.390940   -1.020301   -1.006918
  C     -4.058440   -0.818857   -2.269244
  C     -5.006935    0.360391   -2.223421
  H      4.171025    1.194262   -2.658833
  H      4.849086    0.278033   -1.307945
  H      4.930447   -0.379660   -2.952068
  H      3.126818   -1.489149   -1.620286
  H      2.448736   -0.581316   -3.007681
  H      3.115925    0.727931    2.795451
  H      3.642816   -0.962597    2.587592
  H      5.380516    1.509823    2.078441
  H      5.499652    0.445692    3.488323
  H      5.900238   -0.169117    1.876609
  H     -0.348142   -3.088997   -0.232790
  H     -0.123597   -1.493261   -1.041785
  H     -1.744268    2.498307    0.600852
  H     -3.454470    2.923453    0.890230
  H     -3.419671    1.462771    2.941369
  H     -1.692926    1.164848    2.676788
  H     -2.253006    2.797126    3.043104
  H     -3.297289   -0.672299   -3.042595
  H     -4.586332   -1.758623   -2.436157
  H     -4.442825    1.283223   -2.094864
  H     -5.562880    0.412382   -3.154344
  H     -5.698157    0.253516   -1.391786

 Total Charge           Charge          ....    0
 Multiplicity           Mult            ....    1
 Number of Electrons    NEL             ....  202
 Basis Dimension        Dim             ....  334

ORBITAL ENERGIES
----------------

  NO   OCC          E(Eh)            E(eV)
   0   2.0000     -88.042294     -2395.7526
   1   2.0000     -88.034365     -2395.5368
   2   2.0000     -87.978993     -2394.0301
   3   2.0000     -87.978013     -2394.0034
   4   2.0000     -76.423413     -2079.5868
   5   2.0000     -76.418989     -2079.4664
   6   2.0000     -18.794087      -511.4131
   7   2.0000     -18.791392      -511.3398
   8   2.0000     -18.787776      -511.2414
   9   2.0000     -18.778919      -511.0004
  10   2.0000      -9.954786      -270.8835
  11   2.0000      -9.954351      -270.8717
  12   2.0000      -9.954084      -270.8644
  13   2.0000      -9.944496      -270.6035
  14   2.0000      -9.944354      -270.5996
  15   2.0000      -9.890626      -269.1376
  16   2.0000      -9.884805      -268.9792
  17   2.0000      -9.878409      -268.8052
  18   2.0000      -9.874344      -268.6946
  19   2.0000      -7.687339      -209.1831
  20   2.0000      -7.679815      -208.9784
  21   2.0000      -7.623841      -207.4553
  22   2.0000      -7.623126      -207.4358
  23   2.0000      -6.420964      -174.7233
  24   2.0000      -6.416648      -174.6059
  25   2.0000      -5.714965      -155.5121
  26   2.0000      -5.711812      -155.4263
  27   2.0000      -5.707738      -155.3155
  28   2.0000      -5.704623      -155.2307
  29   2.0000      -5.704525      -155.2280
  30   2.0000      -5.696448      -155.0082
  31   2.0000      -5.652664      -153.8168
  32   2.0000      -5.652065      -153.8005
  33   2.0000      -5.644737      -153.6011
  34   2.0000      -5.643839      -153.5767
  35   2.0000      -5.643625      -153.5708
  36   2.0000      -5.643311      -153.5623
  37   2.0000      -4.643973      -126.3689
  38   2.0000      -4.642895      -126.3396
  39   2.0000      -4.640855      -126.2841
  40   2.0000      -4.639092      -126.2361
  41   2.0000      -4.638378      -126.2167
  42   2.0000      -4.637226      -126.1853
  43   2.0000      -0.988812       -26.9069
  44   2.0000      -0.979534       -26.6545
  45   2.0000      -0.946541       -25.7567
  46   2.0000      -0.937731       -25.5170
  47   2.0000      -0.758880       -20.6502
  48   2.0000      -0.719775       -19.5861
  49   2.0000      -0.707611       -19.2551
  50   2.0000      -0.693085       -18.8598
  51   2.0000      -0.681303       -18.5392
  52   2.0000      -0.669315       -18.2130
  53   2.0000      -0.646182       -17.5835
  54   2.0000      -0.629519       -17.1301
  55   2.0000      -0.594708       -16.1828
  56   2.0000      -0.587102       -15.9759
  57   2.0000      -0.570142       -15.5143
  58   2.0000      -0.563283       -15.3277
  59   2.0000      -0.560983       -15.2651
  60   2.0000      -0.508516       -13.8374
  61   2.0000      -0.489941       -13.3320
  62   2.0000      -0.482529       -13.1303
  63   2.0000      -0.469332       -12.7712
  64   2.0000      -0.449615       -12.2347
  65   2.0000      -0.444939       -12.1074
  66   2.0000      -0.442586       -12.0434
  67   2.0000      -0.432452       -11.7676
  68   2.0000      -0.429032       -11.6746
  69   2.0000      -0.410846       -11.1797
  70   2.0000      -0.400295       -10.8926
  71   2.0000      -0.391702       -10.6588
  72   2.0000      -0.388916       -10.5829
  73   2.0000      -0.383622       -10.4389
  74   2.0000      -0.382662       -10.4128
  75   2.0000      -0.371178       -10.1003
  76   2.0000      -0.362131        -9.8541
  77   2.0000      -0.356615        -9.7040
  78   2.0000      -0.353162        -9.6100
  79   2.0000      -0.350248        -9.5307
  80   2.0000      -0.345266        -9.3952
  81   2.0000      -0.341797        -9.3008
  82   2.0000      -0.337749        -9.1906
  83   2.0000      -0.335677        -9.1342
  84   2.0000      -0.327285        -8.9059
  85   2.0000      -0.317893        -8.6503
  86   2.0000      -0.306849        -8.3498
  87   2.0000      -0.300634        -8.1807
  88   2.0000      -0.291655        -7.9363
  89   2.0000      -0.286528        -7.7968
  90   2.0000      -0.276994        -7.5374
  91   2.0000      -0.272981        -7.4282
  92   2.0000      -0.266161        -7.2426
  93   2.0000      -0.261928        -7.1274
  94   2.0000      -0.256856        -6.9894
  95   2.0000      -0.239380        -6.5139
  96   2.0000      -0.222297        -6.0490
  97   2.0000      -0.202136        -5.5004
  98   2.0000      -0.198918        -5.4128
  99   2.0000      -0.186156        -5.0656
 100   2.0000      -0.181724        -4.9450
 101   0.0000      -0.036868        -1.0032
 102   0.0000      -0.027889        -0.7589
 103   0.0000      -0.010352        -0.2817
 104   0.0000       0.005996         0.1632
 105   0.0000       0.026342         0.7168

MULLIKEN ATOMIC CHARGES
-----------------------
   0 C :   -0.292521
   1 C :   -0.013934
   2 O :   -0.344212
   3 P :    0.611855
   4 S :   -0.308766
   5 O :   -0.384050
   6 C :   -0.013772
   7 C :   -0.283516
   8 S :   -0.119038
   9 C :   -0.348785
  10 S :   -0.071020
  11 P :    0.613644
  12 S :   -0.319853
  13 O :   -0.372576
  14 C :   -0.013108
  15 C :   -0.309880
  16 O :   -0.369122
  17 C :   -0.001685
  18 C :   -0.304674
  19 H :    0.122134
  20 H :    0.123162
  21 H :    0.108571
  22 H :    0.099010
  23 H :    0.112299
  24 H :    0.107404
  25 H :    0.105767
  26 H :    0.123583
  27 H :    0.113791
  28 H :    0.116306
  29 H :    0.184113
  30 H :    0.188022
  31 H :    0.126530
  32 H :    0.101653
  33 H :    0.110509
  34 H :    0.141249
  35 H :    0.109176
  36 H :    0.104191
  37 H :    0.100911
  38 H :    0.122081
  39 H :    0.108636
  40 H :    0.115916
Sum of atomic charges:   -0.0000000

LOEWDIN ATOMIC CHARGES
----------------------
   0 C :   -0.360180
   1 C :   -0.115357
   2 O :   -0.223779
   3 P :    0.567719
   4 S :   -0.300262
   5 O :   -0.249749
   6 C :   -0.120472
   7 C :   -0.350785
   8 S :    0.059694
   9 C :   -0.479753
  10 S :    0.087133
  11 P :    0.569864
  12 S :   -0.312549
  13 O :   -0.237402
  14 C :   -0.115631
  15 C :   -0.365800
  16 O :   -0.248707
  17 C :   -0.119334
  18 C :   -0.364168
  19 H :    0.129805
  20 H :    0.125527
  21 H :    0.129156
  22 H :    0.102375
  23 H :    0.121974
  24 H :    0.110437
  25 H :    0.109381
  26 H :    0.130135
  27 H :    0.131862
  28 H :    0.125643
  29 H :    0.136874
  30 H :    0.120526
  31 H :    0.111167
  32 H :    0.116776
  33 H :    0.123500
  34 H :    0.122324
  35 H :    0.130480
  36 H :    0.106704
  37 H :    0.116664
  38 H :    0.123609
  39 H :    0.128515
  40 H :    0.126085

  Mayer bond orders larger than 0.100000
B(  0-C ,  1-C ) :   1.1672 B(  0-C , 19-H ) :   0.9470 B(  0-C , 20-H ) :   0.9407
B(  0-C , 21-H ) :   0.9395 B(  1-C ,  2-O ) :   0.8933 B(  1-C , 22-H ) :   0.9090
B(  1-C , 23-H ) :   0.9332 B(  2-O ,  3-P ) :   1.1453 B(  3-P ,  4-S ) :   1.6720
B(  3-P ,  5-O ) :   1.0747 B(  3-P ,  8-S ) :   0.9478 B(  4-S ,  8-S ) :   0.1142
B(  5-O ,  6-C ) :   0.9046 B(  6-C ,  7-C ) :   1.1597 B(  6-C , 24-H ) :   0.9085
B(  6-C , 25-H ) :   0.9284 B(  7-C , 26-H ) :   0.9507 B(  7-C , 27-H ) :   0.9417
B(  7-C , 28-H ) :   0.9507 B(  8-S ,  9-C ) :   0.9982 B(  9-C , 10-S ) :   0.9932
B(  9-C , 29-H ) :   0.9110 B(  9-C , 30-H ) :   0.8547 B( 10-S , 11-P ) :   0.9662
B( 10-S , 12-S ) :   0.1170 B( 11-P , 12-S ) :   1.5949 B( 11-P , 13-O ) :   1.1260
B( 11-P , 16-O ) :   1.1160 B( 12-S , 30-H ) :   0.1063 B( 13-O , 14-C ) :   0.8973
B( 14-C , 15-C ) :   1.1723 B( 14-C , 31-H ) :   0.9061 B( 14-C , 32-H ) :   0.9339
B( 15-C , 33-H ) :   0.9467 B( 15-C , 34-H ) :   0.9304 B( 15-C , 35-H ) :   0.9405
B( 16-O , 17-C ) :   0.9154 B( 17-C , 18-C ) :   1.1650 B( 17-C , 36-H ) :   0.9121
B( 17-C , 37-H ) :   0.9350 B( 18-C , 38-H ) :   0.9383 B( 18-C , 39-H ) :   0.9392
B( 18-C , 40-H ) :   0.9467

Dispersion correction           -0.065066208
FINAL SINGLE POINT ENERGY     -2929.515719328363

DIPOLE MOMENT
-------------

Method             : SCF
Type of density    : Electron Density
Multiplicity       :   1
Irrep              :   0
Energy             : -2929.6347232113666905 Eh
Relativity type    :
Basis              : AO
                                X                 Y                 Z
Electronic contribution:     -5.712386390      -6.556918241       1.664917837
Nuclear contribution   :      6.299089277       5.947536264      -1.778741742
                        -----------------------------------------
Total Dipole Moment    :      0.586702887      -0.609381977      -0.113823904
                        -----------------------------------------
Magnitude (a.u.)       :      0.853535326
Magnitude (Debye)      :      2.169514385

Rotational constants in cm-1:             0.013300             0.004827             0.004397
Rotational constants in MHz :           398.738373           144.702943           131.806854

                             ****ORCA TERMINATED NORMALLY****
TOTAL RUN TIME: 0 days 0 hours 0 minutes 20 seconds 783 msec
