                         Program Version 6.0.0  -   RELEASE  -
|  1> ! r2scan-3c def2/J RI DEFGRID2 scfconv6 printgap
|  2> %output
|  3>     printlevel normal
|  4> end
|  5> * xyz 0 1
|  6> C -1.8527865784 -1.4099374591 -0.0001777379
|  7> C -0.5280212684 -0.7124635929 0.0001861863
|  8> C 0.6708427788 -1.40488339 0.0002192487
|  9> C 1.8873323006 -0.7409675499 -4.10732e-05
| 10> C 1.9128112306 0.6409072966 -0.0001095587
| 11> C 0.726530126 1.3547645623 -1.6677e-05
| 12> C -0.4903199851 0.6875980314 0.0001074306
| 13> O -1.6801860474 1.3532061649 8.0607e-06
| 14> H -2.4247277952 -1.1228355321 -0.8813674485
| 15> H -1.7229954377 -2.487991054 0.0077451367
| 16> H -2.4316037912 -1.1104234444 0.8722740754
| 17> H 0.6501795861 -2.4848786463 -7.5495e-05
| 18> H 2.8089685267 -1.3023600637 -0.0003348856
| 19> H 2.8538568629 1.1696830299 -0.0003960921
| 20> H 0.7466364895 2.4354759797 -0.0002818488
| 21> H -1.5316284296 2.3102289523 0.0003088606
| 22> *
| 23>
| 24>                          ****END OF INPUT****

CARTESIAN COORDINATES (ANGSTROEM)
---------------------------------
  C     -1.852787   -1.409937   -0.000178
  C     -0.528021   -0.712464    0.000186
  C      0.670843   -1.404883    0.000219
  C      1.887332   -0.740968   -0.000041
  C      1.912811    0.640907   -0.000110
  C      0.726530    1.354765   -0.000017
  C     -0.490320    0.687598    0.000107
  O     -1.680186    1.353206    0.000008
  H     -2.424728   -1.122836   -0.881367
  H     -1.722995   -2.487991    0.007745
  H     -2.431604   -1.110423    0.872274
  H      0.650180   -2.484879   -0.000075
  H      2.808969   -1.302360   -0.000335
  H      2.853857    1.169683   -0.000396
  H      0.746636    2.435476   -0.000282
  H     -1.531628    2.310229    0.000309

 Total Charge           Charge          ....    0
 Multiplicity           Mult            ....    1
 Number of Electrons    NEL             ....   58
 Basis Dimension        Dim             ....  197

ORBITAL ENERGIES
----------------

  NO   OCC          E(Eh)            E(eV)
   0   2.0000     -18.986446      -516.6475
   1   2.0000     -10.092622      -274.6342
   2   2.0000     -10.037896      -273.1450
   3   2.0000     -10.032582      -273.0004
   4   2.0000     -10.031875      -272.9812
   5   2.0000     -10.029619      -272.9198
   6   2.0000     -10.023980      -272.7664
   7   2.0000     -10.022259      -272.7195
   8   2.0000      -1.029545       -28.0154
   9   2.0000      -0.822265       -22.3750
  10   2.0000      -0.741896       -20.1880
  11   2.0000      -0.706984       -19.2380
  12   2.0000      -0.651226       -17.7208
  13   2.0000      -0.595001       -16.1908
  14   2.0000      -0.552912       -15.0455
  15   2.0000      -0.512561       -13.9475
  16   2.0000      -0.457189       -12.4408
  17   2.0000      -0.442008       -12.0277
  18   2.0000      -0.403142       -10.9701
  19   2.0000      -0.400424       -10.8961
  20   2.0000      -0.380647       -10.3579
  21   2.0000      -0.362611        -9.8671
  22   2.0000      -0.357238        -9.7209
  23   2.0000      -0.351351        -9.5607
  24   2.0000      -0.319403        -8.6914
  25   2.0000      -0.310372        -8.4457
  26   2.0000      -0.302870        -8.2415
  27   2.0000      -0.229056        -6.2329
  28   2.0000      -0.201414        -5.4807
  29   0.0000      -0.026751        -0.7279
  30   0.0000      -0.013957        -0.3798
  31   0.0000       0.055253         1.5035
  32   0.0000       0.087882         2.3914
  33   0.0000       0.099353         2.7035

MULLIKEN ATOMIC CHARGES
-----------------------
   0 C :   -0.515450
   1 C :    0.028355
   2 C :   -0.192527
   3 C :   -0.189814
   4 C :   -0.132004
   5 C :   -0.342112
   6 C :    0.391194
   7 O :   -0.407038
   8 H :    0.165451
   9 H :    0.146303
  10 H :    0.165231
  11 H :    0.147759
  12 H :    0.144657
  13 H :    0.146290
  14 H :    0.134099
  15 H :    0.309607
Sum of atomic charges:    0.0000000

LOEWDIN ATOMIC CHARGES
----------------------
   0 C :   -0.374660
   1 C :   -0.078536
   2 C :   -0.155921
   3 C :   -0.187445
   4 C :   -0.162493
   5 C :   -0.172038
   6 C :    0.185919
   7 O :   -0.503917
   8 H :    0.169337
   9 H :    0.156796
  10 H :    0.169431
  11 H :    0.168542
  12 H :    0.166283
  13 H :    0.167117
  14 H :    0.167319
  15 H :    0.284266

  Mayer bond orders larger than 0.100000
B(  0-C ,  1-C ) :   0.8157 B(  0-C ,  8-H ) :   0.9730 B(  0-C ,  9-H ) :   0.9939
B(  0-C , 10-H ) :   0.9734 B(  1-C ,  2-C ) :   1.4127 B(  1-C ,  6-C ) :   1.4913
B(  2-C ,  3-C ) :   1.4231 B(  2-C , 11-H ) :   0.9311 B(  3-C ,  4-C ) :   1.4496
B(  3-C , 12-H ) :   0.9452 B(  4-C ,  5-C ) :   1.3935 B(  4-C , 13-H ) :   0.9410
B(  5-C ,  6-C ) :   1.3072 B(  5-C , 14-H ) :   0.9528 B(  6-C ,  7-O ) :   0.9346
B(  7-O , 15-H ) :   0.8837

Dispersion correction           -0.004987963
FINAL SINGLE POINT ENERGY      -346.703230062639

DIPOLE MOMENT
-------------

Method             : SCF
Type of density    : Electron Density
Multiplicity       :   1
Irrep              :   0
Energy             :  -346.7037314990703294 Eh
Relativity type    :
Basis              : AO
                                X                 Y                 Z
Electronic contribution:      1.050247277       2.825155675       0.001480151
Nuclear contribution   :     -1.011252468      -2.412695128      -0.001996030
                        -----------------------------------------
Total Dipole Moment    :      0.038994808       0.412460547      -0.000515879
                        -----------------------------------------
Magnitude (a.u.)       :      0.414300090
Magnitude (Debye)      :      1.053067139

Rotational constants in cm-1:             0.110034             0.074245             0.044697
Rotational constants in MHz :          3298.748031          2225.819076          1339.972478

                             ****ORCA TERMINATED NORMALLY****
TOTAL RUN TIME: 0 days 0 hours 0 minutes 25 seconds 869 msec
