                         Program Version 6.0.0  -   RELEASE  -
|  1> ! r2scan-3c def2/J RI DEFGRID2 scfconv6 printgap
|  2> %output
|  3>     printlevel normal
|  4> end
|  5> %cpcm
|  6>     smd true
|  7>     smdsolvent "water"
|  8> end
|  9> * xyz 0 1
| 10> C -1.8527865784 -1.4099374591 -0.0001777379
| 11> C -0.5280212684 -0.7124635929 0.0001861863
| 12> C 0.6708427788 -1.40488339 0.0002192487
| 13> C 1.8873323006 -0.7409675499 -4.10732e-05
| 14> C 1.9128112306 0.6409072966 -0.0001095587
| 15> C 0.726530126 1.3547645623 -1.6677e-05
| 16> C -0.4903199851 0.6875980314 0.0001074306
| 17> O -1.6801860474 1.3532061649 8.0607e-06
| 18> H -2.4247277952 -1.1228355321 -0.8813674485
| 19> H -1.7229954377 -2.487991054 0.0077451367
| 20> H -2.4316037912 -1.1104234444 0.8722740754
| 21> H 0.6501795861 -2.4848786463 -7.5495e-05
| 22> H 2.8089685267 -1.3023600637 -0.0003348856
| 23> H 2.8538568629 1.1696830299 -0.0003960921
| 24> H 0.7466364895 2.4354759797 -0.0002818488
| 25> H -1.5316284296 2.3102289523 0.0003088606
| 26> *
| 27>
| 28>                          ****END OF INPUT****

CARTESIAN COORDINATES (ANGSTROEM)
---------------------------------
  C     -1.852787   -1.409937   -0.000178
  C     -0.528021   -0.712464    0.000186
  C      0.670843   -1.404883    0.000219
  C      1.887332   -0.740968   -0.000041
  C      1.912811    0.640907   -0.000110
  C      0.726530    1.354765   -0.000017
  C     -0.490320    0.687598    0.000107
  O     -1.680186    1.353206    0.000008
  H     -2.424728   -1.122836   -0.881367
  H     -1.722995   -2.487991    0.007745
  H     -2.431604   -1.110423    0.872274
  H      0.650180   -2.484879   -0.000075
  H      2.808969   -1.302360   -0.000335
  H      2.853857    1.169683   -0.000396
  H      0.746636    2.435476   -0.000282
  H     -1.531628    2.310229    0.000309

 Total Charge           Charge          ....    0
 Multiplicity           Mult            ....    1
 Number of Electrons    NEL             ....   58
 Basis Dimension        Dim             ....  197

ORBITAL ENERGIES
----------------

  NO   OCC          E(Eh)            E(eV)
   0   2.0000     -18.982293      -516.5345
   1   2.0000     -10.092549      -274.6322
   2   2.0000     -10.039046      -273.1763
   3   2.0000     -10.030667      -272.9483
   4   2.0000     -10.029365      -272.9129
   5   2.0000     -10.029016      -272.9034
   6   2.0000     -10.023941      -272.7653
   7   2.0000     -10.019042      -272.6320
   8   2.0000      -1.025364       -27.9016
   9   2.0000      -0.823378       -22.4053
  10   2.0000      -0.741408       -20.1747
  11   2.0000      -0.706349       -19.2207
  12   2.0000      -0.649854       -17.6834
  13   2.0000      -0.591263       -16.0891
  14   2.0000      -0.550973       -14.9927
  15   2.0000      -0.508205       -13.8290
  16   2.0000      -0.455070       -12.3831
  17   2.0000      -0.439322       -11.9546
  18   2.0000      -0.401281       -10.9194
  19   2.0000      -0.398443       -10.8422
  20   2.0000      -0.378028       -10.2867
  21   2.0000      -0.360452        -9.8084
  22   2.0000      -0.356205        -9.6928
  23   2.0000      -0.349916        -9.5217
  24   2.0000      -0.316275        -8.6063
  25   2.0000      -0.313709        -8.5364
  26   2.0000      -0.300314        -8.1720
  27   2.0000      -0.231766        -6.3067
  28   2.0000      -0.204156        -5.5554
  29   0.0000      -0.028444        -0.7740
  30   0.0000      -0.016746        -0.4557
  31   0.0000       0.077120         2.0985
  32   0.0000       0.096504         2.6260
  33   0.0000       0.111476         3.0334

MULLIKEN ATOMIC CHARGES
-----------------------
   0 C :   -0.551459
   1 C :    0.011069
   2 C :   -0.227874
   3 C :   -0.230751
   4 C :   -0.163591
   5 C :   -0.338016
   6 C :    0.335935
   7 O :   -0.446469
   8 H :    0.178645
   9 H :    0.170884
  10 H :    0.178092
  11 H :    0.179456
  12 H :    0.175283
  13 H :    0.179234
  14 H :    0.181375
  15 H :    0.368185
Sum of atomic charges:    0.0000000

LOEWDIN ATOMIC CHARGES
----------------------
   0 C :   -0.382214
   1 C :   -0.089281
   2 C :   -0.169523
   3 C :   -0.204668
   4 C :   -0.177154
   5 C :   -0.169688
   6 C :    0.176350
   7 O :   -0.517303
   8 H :    0.172081
   9 H :    0.165462
  10 H :    0.172065
  11 H :    0.179483
  12 H :    0.175532
  13 H :    0.177587
  14 H :    0.185421
  15 H :    0.305847

  Mayer bond orders larger than 0.100000
B(  0-C ,  1-C ) :   0.8155 B(  0-C ,  8-H ) :   0.9711 B(  0-C ,  9-H ) :   0.9838
B(  0-C , 10-H ) :   0.9715 B(  1-C ,  2-C ) :   1.3884 B(  1-C ,  6-C ) :   1.4317
B(  2-C ,  3-C ) :   1.3846 B(  2-C , 11-H ) :   0.9454 B(  3-C ,  4-C ) :   1.3945
B(  3-C , 12-H ) :   0.9576 B(  4-C ,  5-C ) :   1.3439 B(  4-C , 13-H ) :   0.9539
B(  5-C ,  6-C ) :   1.3106 B(  5-C , 14-H ) :   0.9653 B(  6-C ,  7-O ) :   0.9497
B(  7-O , 15-H ) :   0.8532

Dispersion correction           -0.004987963
FINAL SINGLE POINT ENERGY      -346.711693134414

DIPOLE MOMENT
-------------

Method             : SCF
Type of density    : Electron Density
Multiplicity       :   1
Irrep              :   0
Energy             :  -346.7121945708460657 Eh
Relativity type    :
Basis              : AO
                                X                 Y                 Z
Electronic contribution:      1.086556407       3.026692283       0.001261787
Nuclear contribution   :     -1.011252468      -2.412695128      -0.001996030
                        -----------------------------------------
Total Dipole Moment    :      0.075303939       0.613997155      -0.000734243
                        -----------------------------------------
Magnitude (a.u.)       :      0.618598196
Magnitude (Debye)      :      1.572351658

Rotational constants in cm-1:             0.110034             0.074245             0.044697
Rotational constants in MHz :          3298.748031          2225.819076          1339.972478

                             ****ORCA TERMINATED NORMALLY****
TOTAL RUN TIME: 0 days 0 hours 0 minutes 28 seconds 341 msec
