                         Program Version 6.0.0  -   RELEASE  -
|  1> ! r2scan-3c def2/J RI DEFGRID2 scfconv6 printgap
|  2> %output
|  3>     printlevel normal
|  4> end
|  5> * xyz 0 1
|  6> C 1.3323535802 3.2945329552 0.2818333674
|  7> C 1.2496829213 2.0011809343 1.0659156408
|  8> O 2.0674799792 1.0290001485 0.3838790658
|  9> P 2.268534777 -0.4216667753 0.985826079
| 10> S 2.7353238692 -0.5132159644 2.8843039644
| 11> O 3.3695663449 -0.8896143207 -0.0537562188
| 12> C 4.2911772264 -1.9483936719 0.2628970575
| 13> C 3.6156752325 -3.3055947155 0.261486156
| 14> S 0.4968572994 -1.4857640023 0.4555737873
| 15> C 0.4863434046 -1.0912675902 -1.3186309133
| 16> S -0.2436615921 0.5168432019 -1.722956506
| 17> P -2.1667593688 0.1308219895 -0.9484687577
| 18> S -2.9073941853 -1.6530816943 -1.2337976941
| 19> O -3.0958646346 1.254125179 -1.5665545063
| 20> C -2.8280336114 2.6740100362 -1.4357758001
| 21> C -2.1810106717 3.2171128002 -2.6938036712
| 22> O -1.9176901224 0.5486601242 0.5842417447
| 23> C -2.6835507077 -0.0262525755 1.6566408105
| 24> C -4.0940843393 0.5258940956 1.6830114754
| 25> H 0.7302429791 4.0506398337 0.7747195362
| 26> H 2.3636050692 3.630613889 0.2318841659
| 27> H 0.9651855402 3.1350033854 -0.7283675948
| 28> H 0.2208511733 1.6295850454 1.1128146277
| 29> H 1.627674061 2.1166982963 2.086977515
| 30> H 5.0537172339 -1.874875377 -0.5137574534
| 31> H 4.7361380624 -1.74296181 1.2415973377
| 32> H 4.3593705367 -4.0763252059 0.4369205545
| 33> H 2.8694969609 -3.3494903536 1.0546147422
| 34> H 3.1270586222 -3.4903472799 -0.6919351844
| 35> H -0.1025871239 -1.8748875423 -1.7938855971
| 36> H 1.5066837886 -1.0689605275 -1.694704511
| 37> H -3.810887338 3.1203039389 -1.2748370686
| 38> H -2.1972629261 2.839425555 -0.559033287
| 39> H -1.201808735 2.7682821559 -2.8462685762
| 40> H -2.8035613885 2.9958492719 -3.5561909957
| 41> H -2.0694743842 4.2925909106 -2.5984931983
| 42> H -2.6927008565 -1.1139851932 1.5327920916
| 43> H -2.1249723263 0.2322588089 2.5580002899
| 44> H -4.6081289086 0.2602860088 0.7592897717
| 45> H -4.6325247901 0.0966581387 2.5219544595
| 46> H -4.0768738452 1.60824658 1.781527737
| 47> *
| 48>
| 49>                          ****END OF INPUT****

CARTESIAN COORDINATES (ANGSTROEM)
---------------------------------
  C      1.332354    3.294533    0.281833
  C      1.249683    2.001181    1.065916
  O      2.067480    1.029000    0.383879
  P      2.268535   -0.421667    0.985826
  S      2.735324   -0.513216    2.884304
  O      3.369566   -0.889614   -0.053756
  C      4.291177   -1.948394    0.262897
  C      3.615675   -3.305595    0.261486
  S      0.496857   -1.485764    0.455574
  C      0.486343   -1.091268   -1.318631
  S     -0.243662    0.516843   -1.722957
  P     -2.166759    0.130822   -0.948469
  S     -2.907394   -1.653082   -1.233798
  O     -3.095865    1.254125   -1.566555
  C     -2.828034    2.674010   -1.435776
  C     -2.181011    3.217113   -2.693804
  O     -1.917690    0.548660    0.584242
  C     -2.683551   -0.026253    1.656641
  C     -4.094084    0.525894    1.683011
  H      0.730243    4.050640    0.774720
  H      2.363605    3.630614    0.231884
  H      0.965186    3.135003   -0.728368
  H      0.220851    1.629585    1.112815
  H      1.627674    2.116698    2.086978
  H      5.053717   -1.874875   -0.513757
  H      4.736138   -1.742962    1.241597
  H      4.359371   -4.076325    0.436921
  H      2.869497   -3.349490    1.054615
  H      3.127059   -3.490347   -0.691935
  H     -0.102587   -1.874888   -1.793886
  H      1.506684   -1.068961   -1.694705
  H     -3.810887    3.120304   -1.274837
  H     -2.197263    2.839426   -0.559033
  H     -1.201809    2.768282   -2.846269
  H     -2.803561    2.995849   -3.556191
  H     -2.069474    4.292591   -2.598493
  H     -2.692701   -1.113985    1.532792
  H     -2.124972    0.232259    2.558000
  H     -4.608129    0.260286    0.759290
  H     -4.632525    0.096658    2.521954
  H     -4.076874    1.608247    1.781528

 Total Charge           Charge          ....    0
 Multiplicity           Mult            ....    1
 Number of Electrons    NEL             ....  202
 Basis Dimension        Dim             ....  539

ORBITAL ENERGIES
----------------

  NO   OCC          E(Eh)            E(eV)
   0   2.0000     -88.579832     -2410.3798
   1   2.0000     -88.575845     -2410.2713
   2   2.0000     -88.525155     -2408.8919
   3   2.0000     -88.522439     -2408.8180
   4   2.0000     -76.919118     -2093.0756
   5   2.0000     -76.914207     -2092.9420
   6   2.0000     -18.999535      -517.0036
   7   2.0000     -18.994692      -516.8718
   8   2.0000     -18.992036      -516.7996
   9   2.0000     -18.990423      -516.7557
  10   2.0000     -10.112409      -275.1726
  11   2.0000     -10.111602      -275.1507
  12   2.0000     -10.100720      -274.8546
  13   2.0000     -10.097042      -274.7545
  14   2.0000     -10.094803      -274.6935
  15   2.0000     -10.040721      -273.2219
  16   2.0000     -10.032231      -272.9909
  17   2.0000     -10.031782      -272.9787
  18   2.0000     -10.030216      -272.9360
  19   2.0000      -7.874631      -214.2796
  20   2.0000      -7.869640      -214.1438
  21   2.0000      -7.819837      -212.7886
  22   2.0000      -7.817016      -212.7118
  23   2.0000      -6.597431      -179.5252
  24   2.0000      -6.592793      -179.3990
  25   2.0000      -5.821449      -158.4097
  26   2.0000      -5.818458      -158.3283
  27   2.0000      -5.816881      -158.2854
  28   2.0000      -5.813207      -158.1854
  29   2.0000      -5.811727      -158.1451
  30   2.0000      -5.806783      -158.0106
  31   2.0000      -5.767640      -156.9455
  32   2.0000      -5.764627      -156.8635
  33   2.0000      -5.760119      -156.7408
  34   2.0000      -5.759691      -156.7292
  35   2.0000      -5.757278      -156.6635
  36   2.0000      -5.757109      -156.6589
  37   2.0000      -4.743323      -129.0724
  38   2.0000      -4.742053      -129.0378
  39   2.0000      -4.741123      -129.0125
  40   2.0000      -4.738179      -128.9324
  41   2.0000      -4.738004      -128.9276
  42   2.0000      -4.736335      -128.8822
  43   2.0000      -1.054308       -28.6892
  44   2.0000      -1.052374       -28.6366
  45   2.0000      -1.013435       -27.5770
  46   2.0000      -1.012405       -27.5489
  47   2.0000      -0.804385       -21.8884
  48   2.0000      -0.763132       -20.7659
  49   2.0000      -0.755439       -20.5565
  50   2.0000      -0.738493       -20.0954
  51   2.0000      -0.730417       -19.8757
  52   2.0000      -0.714609       -19.4455
  53   2.0000      -0.691876       -18.8269
  54   2.0000      -0.671812       -18.2809
  55   2.0000      -0.631207       -17.1760
  56   2.0000      -0.625105       -17.0100
  57   2.0000      -0.617612       -16.8061
  58   2.0000      -0.597827       -16.2677
  59   2.0000      -0.596103       -16.2208
  60   2.0000      -0.533246       -14.5104
  61   2.0000      -0.527752       -14.3608
  62   2.0000      -0.501811       -13.6550
  63   2.0000      -0.492542       -13.4028
  64   2.0000      -0.481867       -13.1123
  65   2.0000      -0.471549       -12.8315
  66   2.0000      -0.459246       -12.4967
  67   2.0000      -0.457859       -12.4590
  68   2.0000      -0.447606       -12.1800
  69   2.0000      -0.439492       -11.9592
  70   2.0000      -0.427871       -11.6430
  71   2.0000      -0.420459       -11.4413
  72   2.0000      -0.414320       -11.2742
  73   2.0000      -0.398901       -10.8546
  74   2.0000      -0.395659       -10.7664
  75   2.0000      -0.393801       -10.7159
  76   2.0000      -0.387140       -10.5346
  77   2.0000      -0.381132       -10.3711
  78   2.0000      -0.378574       -10.3015
  79   2.0000      -0.372509       -10.1365
  80   2.0000      -0.367817       -10.0088
  81   2.0000      -0.363332        -9.8868
  82   2.0000      -0.361321        -9.8320
  83   2.0000      -0.356699        -9.7063
  84   2.0000      -0.348951        -9.4954
  85   2.0000      -0.334281        -9.0963
  86   2.0000      -0.332857        -9.0575
  87   2.0000      -0.324328        -8.8254
  88   2.0000      -0.320403        -8.7186
  89   2.0000      -0.308124        -8.3845
  90   2.0000      -0.299151        -8.1403
  91   2.0000      -0.293443        -7.9850
  92   2.0000      -0.286722        -7.8021
  93   2.0000      -0.284556        -7.7432
  94   2.0000      -0.272163        -7.4059
  95   2.0000      -0.245656        -6.6846
  96   2.0000      -0.233783        -6.3616
  97   2.0000      -0.225532        -6.1370
  98   2.0000      -0.220866        -6.0101
  99   2.0000      -0.219226        -5.9654
 100   2.0000      -0.218227        -5.9382
 101   0.0000      -0.046925        -1.2769
 102   0.0000      -0.024634        -0.6703
 103   0.0000      -0.010993        -0.2991
 104   0.0000      -0.000376        -0.0102
 105   0.0000       0.003512         0.0956

MULLIKEN ATOMIC CHARGES
-----------------------
   0 C :   -0.474592
   1 C :   -0.121793
   2 O :   -0.289681
   3 P :    0.686375
   4 S :   -0.458348
   5 O :   -0.314632
   6 C :   -0.154808
   7 C :   -0.430505
   8 S :   -0.142279
   9 C :   -0.248851
  10 S :   -0.130516
  11 P :    0.649918
  12 S :   -0.437502
  13 O :   -0.286146
  14 C :   -0.163866
  15 C :   -0.425493
  16 O :   -0.276163
  17 C :   -0.156714
  18 C :   -0.443145
  19 H :    0.146689
  20 H :    0.155614
  21 H :    0.161057
  22 H :    0.173124
  23 H :    0.166555
  24 H :    0.149728
  25 H :    0.174026
  26 H :    0.148327
  27 H :    0.175785
  28 H :    0.148290
  29 H :    0.217674
  30 H :    0.203094
  31 H :    0.157107
  32 H :    0.164240
  33 H :    0.156180
  34 H :    0.162714
  35 H :    0.150065
  36 H :    0.178790
  37 H :    0.157260
  38 H :    0.176259
  39 H :    0.150168
  40 H :    0.145997
Sum of atomic charges:    0.0000000

LOEWDIN ATOMIC CHARGES
----------------------
   0 C :   -0.391758
   1 C :    0.012146
   2 O :   -0.670807
   3 P :    0.369373
   4 S :   -0.110984
   5 O :   -0.668034
   6 C :    0.022144
   7 C :   -0.402379
   8 S :    0.171211
   9 C :   -0.412160
  10 S :    0.167479
  11 P :    0.373097
  12 S :   -0.091821
  13 O :   -0.654666
  14 C :    0.021275
  15 C :   -0.396503
  16 O :   -0.722945
  17 C :    0.010984
  18 C :   -0.398406
  19 H :    0.158394
  20 H :    0.161515
  21 H :    0.160104
  22 H :    0.188164
  23 H :    0.178704
  24 H :    0.179751
  25 H :    0.181221
  26 H :    0.159976
  27 H :    0.166981
  28 H :    0.157283
  29 H :    0.192927
  30 H :    0.193344
  31 H :    0.181926
  32 H :    0.176895
  33 H :    0.162661
  34 H :    0.164376
  35 H :    0.160645
  36 H :    0.183205
  37 H :    0.181017
  38 H :    0.167130
  39 H :    0.161245
  40 H :    0.155288

  Mayer bond orders larger than 0.100000
B(  0-C ,  1-C ) :   0.9225 B(  0-C , 19-H ) :   0.9695 B(  0-C , 20-H ) :   0.9702
B(  0-C , 21-H ) :   0.9758 B(  1-C ,  2-O ) :   0.7576 B(  1-C , 22-H ) :   0.9386
B(  1-C , 23-H ) :   0.9408 B(  2-O ,  3-P ) :   1.1240 B(  3-P ,  4-S ) :   1.8075
B(  3-P ,  5-O ) :   1.0987 B(  3-P ,  8-S ) :   1.0530 B(  5-O ,  6-C ) :   0.8061
B(  6-C ,  7-C ) :   0.9290 B(  6-C , 24-H ) :   0.9597 B(  6-C , 25-H ) :   0.9653
B(  7-C , 26-H ) :   0.9609 B(  7-C , 27-H ) :   0.9611 B(  7-C , 28-H ) :   0.9687
B(  8-S ,  9-C ) :   0.8932 B(  9-C , 10-S ) :   0.9128 B(  9-C , 29-H ) :   0.9149
B(  9-C , 30-H ) :   0.9166 B( 10-S , 11-P ) :   1.0583 B( 11-P , 12-S ) :   1.8464
B( 11-P , 13-O ) :   1.1211 B( 11-P , 16-O ) :   1.0195 B( 13-O , 14-C ) :   0.7455
B( 14-C , 15-C ) :   0.9595 B( 14-C , 31-H ) :   0.9587 B( 14-C , 32-H ) :   0.9670
B( 15-C , 33-H ) :   0.9537 B( 15-C , 34-H ) :   0.9707 B( 15-C , 35-H ) :   0.9659
B( 16-O , 17-C ) :   0.7950 B( 17-C , 18-C ) :   0.9169 B( 17-C , 36-H ) :   0.9605
B( 17-C , 37-H ) :   0.9621 B( 18-C , 38-H ) :   0.9609 B( 18-C , 39-H ) :   0.9618
B( 18-C , 40-H ) :   0.9726

Dispersion correction           -0.021887591
FINAL SINGLE POINT ENERGY     -2932.463585864093

DIPOLE MOMENT
-------------

Method             : SCF
Type of density    : Electron Density
Multiplicity       :   1
Irrep              :   0
Energy             : -2932.4883640680222925 Eh
Relativity type    :
Basis              : AO
                                X                 Y                 Z
Electronic contribution:      2.705096932     -12.441875678      -0.160546771
Nuclear contribution   :     -2.677079099      13.686990885      -0.208345539
                        -----------------------------------------
Total Dipole Moment    :      0.028017833       1.245115207      -0.368892310
                        -----------------------------------------
Magnitude (a.u.)       :      1.298914322
Magnitude (Debye)      :      3.301577825

Rotational constants in cm-1:             0.011994             0.005077             0.004753
Rotational constants in MHz :           359.561320           152.213589           142.479914

                             ****ORCA TERMINATED NORMALLY****
TOTAL RUN TIME: 0 days 0 hours 1 minutes 25 seconds 556 msec
