                         Program Version 6.0.0  -   RELEASE  -
|  1> ! r2scan-3c def2/J RI DEFGRID2 scfconv6 printgap
|  2> %output
|  3>     printlevel normal
|  4> end
|  5> %cpcm
|  6>     smd true
|  7>     smdsolvent "water"
|  8> end
|  9> * xyz 0 1
| 10> C 1.3323535802 3.2945329552 0.2818333674
| 11> C 1.2496829213 2.0011809343 1.0659156408
| 12> O 2.0674799792 1.0290001485 0.3838790658
| 13> P 2.268534777 -0.4216667753 0.985826079
| 14> S 2.7353238692 -0.5132159644 2.8843039644
| 15> O 3.3695663449 -0.8896143207 -0.0537562188
| 16> C 4.2911772264 -1.9483936719 0.2628970575
| 17> C 3.6156752325 -3.3055947155 0.261486156
| 18> S 0.4968572994 -1.4857640023 0.4555737873
| 19> C 0.4863434046 -1.0912675902 -1.3186309133
| 20> S -0.2436615921 0.5168432019 -1.722956506
| 21> P -2.1667593688 0.1308219895 -0.9484687577
| 22> S -2.9073941853 -1.6530816943 -1.2337976941
| 23> O -3.0958646346 1.254125179 -1.5665545063
| 24> C -2.8280336114 2.6740100362 -1.4357758001
| 25> C -2.1810106717 3.2171128002 -2.6938036712
| 26> O -1.9176901224 0.5486601242 0.5842417447
| 27> C -2.6835507077 -0.0262525755 1.6566408105
| 28> C -4.0940843393 0.5258940956 1.6830114754
| 29> H 0.7302429791 4.0506398337 0.7747195362
| 30> H 2.3636050692 3.630613889 0.2318841659
| 31> H 0.9651855402 3.1350033854 -0.7283675948
| 32> H 0.2208511733 1.6295850454 1.1128146277
| 33> H 1.627674061 2.1166982963 2.086977515
| 34> H 5.0537172339 -1.874875377 -0.5137574534
| 35> H 4.7361380624 -1.74296181 1.2415973377
| 36> H 4.3593705367 -4.0763252059 0.4369205545
| 37> H 2.8694969609 -3.3494903536 1.0546147422
| 38> H 3.1270586222 -3.4903472799 -0.6919351844
| 39> H -0.1025871239 -1.8748875423 -1.7938855971
| 40> H 1.5066837886 -1.0689605275 -1.694704511
| 41> H -3.810887338 3.1203039389 -1.2748370686
| 42> H -2.1972629261 2.839425555 -0.559033287
| 43> H -1.201808735 2.7682821559 -2.8462685762
| 44> H -2.8035613885 2.9958492719 -3.5561909957
| 45> H -2.0694743842 4.2925909106 -2.5984931983
| 46> H -2.6927008565 -1.1139851932 1.5327920916
| 47> H -2.1249723263 0.2322588089 2.5580002899
| 48> H -4.6081289086 0.2602860088 0.7592897717
| 49> H -4.6325247901 0.0966581387 2.5219544595
| 50> H -4.0768738452 1.60824658 1.781527737
| 51> *
| 52>
| 53>                          ****END OF INPUT****

CARTESIAN COORDINATES (ANGSTROEM)
---------------------------------
  C      1.332354    3.294533    0.281833
  C      1.249683    2.001181    1.065916
  O      2.067480    1.029000    0.383879
  P      2.268535   -0.421667    0.985826
  S      2.735324   -0.513216    2.884304
  O      3.369566   -0.889614   -0.053756
  C      4.291177   -1.948394    0.262897
  C      3.615675   -3.305595    0.261486
  S      0.496857   -1.485764    0.455574
  C      0.486343   -1.091268   -1.318631
  S     -0.243662    0.516843   -1.722957
  P     -2.166759    0.130822   -0.948469
  S     -2.907394   -1.653082   -1.233798
  O     -3.095865    1.254125   -1.566555
  C     -2.828034    2.674010   -1.435776
  C     -2.181011    3.217113   -2.693804
  O     -1.917690    0.548660    0.584242
  C     -2.683551   -0.026253    1.656641
  C     -4.094084    0.525894    1.683011
  H      0.730243    4.050640    0.774720
  H      2.363605    3.630614    0.231884
  H      0.965186    3.135003   -0.728368
  H      0.220851    1.629585    1.112815
  H      1.627674    2.116698    2.086978
  H      5.053717   -1.874875   -0.513757
  H      4.736138   -1.742962    1.241597
  H      4.359371   -4.076325    0.436921
  H      2.869497   -3.349490    1.054615
  H      3.127059   -3.490347   -0.691935
  H     -0.102587   -1.874888   -1.793886
  H      1.506684   -1.068961   -1.694705
  H     -3.810887    3.120304   -1.274837
  H     -2.197263    2.839426   -0.559033
  H     -1.201809    2.768282   -2.846269
  H     -2.803561    2.995849   -3.556191
  H     -2.069474    4.292591   -2.598493
  H     -2.692701   -1.113985    1.532792
  H     -2.124972    0.232259    2.558000
  H     -4.608129    0.260286    0.759290
  H     -4.632525    0.096658    2.521954
  H     -4.076874    1.608247    1.781528

 Total Charge           Charge          ....    0
 Multiplicity           Mult            ....    1
 Number of Electrons    NEL             ....  202
 Basis Dimension        Dim             ....  539

ORBITAL ENERGIES
----------------

  NO   OCC          E(Eh)            E(eV)
   0   2.0000     -88.579061     -2410.3588
   1   2.0000     -88.577883     -2410.3267
   2   2.0000     -88.531491     -2409.0643
   3   2.0000     -88.531401     -2409.0619
   4   2.0000     -76.920609     -2093.1162
   5   2.0000     -76.919489     -2093.0857
   6   2.0000     -18.996953      -516.9334
   7   2.0000     -18.995941      -516.9058
   8   2.0000     -18.994168      -516.8576
   9   2.0000     -18.988871      -516.7135
  10   2.0000     -10.106744      -275.0185
  11   2.0000     -10.093980      -274.6712
  12   2.0000     -10.090688      -274.5816
  13   2.0000     -10.088036      -274.5094
  14   2.0000     -10.086713      -274.4734
  15   2.0000     -10.021374      -272.6954
  16   2.0000     -10.018842      -272.6266
  17   2.0000     -10.018690      -272.6224
  18   2.0000     -10.018107      -272.6065
  19   2.0000      -7.873760      -214.2559
  20   2.0000      -7.871778      -214.2020
  21   2.0000      -7.826573      -212.9719
  22   2.0000      -7.826343      -212.9656
  23   2.0000      -6.598954      -179.5667
  24   2.0000      -6.598153      -179.5449
  25   2.0000      -5.820575      -158.3859
  26   2.0000      -5.818996      -158.3429
  27   2.0000      -5.817577      -158.3043
  28   2.0000      -5.815329      -158.2431
  29   2.0000      -5.810886      -158.1223
  30   2.0000      -5.808951      -158.0696
  31   2.0000      -5.774247      -157.1252
  32   2.0000      -5.773848      -157.1144
  33   2.0000      -5.766807      -156.9228
  34   2.0000      -5.766546      -156.9157
  35   2.0000      -5.766532      -156.9153
  36   2.0000      -5.766528      -156.9152
  37   2.0000      -4.744787      -129.1122
  38   2.0000      -4.743524      -129.0779
  39   2.0000      -4.743494      -129.0770
  40   2.0000      -4.743361      -129.0734
  41   2.0000      -4.742802      -129.0582
  42   2.0000      -4.741776      -129.0303
  43   2.0000      -1.056492       -28.7486
  44   2.0000      -1.049133       -28.5484
  45   2.0000      -1.013930       -27.5904
  46   2.0000      -1.009569       -27.4718
  47   2.0000      -0.802604       -21.8400
  48   2.0000      -0.757284       -20.6067
  49   2.0000      -0.746223       -20.3057
  50   2.0000      -0.726486       -19.7687
  51   2.0000      -0.720810       -19.6142
  52   2.0000      -0.711322       -19.3561
  53   2.0000      -0.693623       -18.8745
  54   2.0000      -0.676000       -18.3949
  55   2.0000      -0.627421       -17.0730
  56   2.0000      -0.619123       -16.8472
  57   2.0000      -0.604781       -16.4569
  58   2.0000      -0.592348       -16.1186
  59   2.0000      -0.588785       -16.0217
  60   2.0000      -0.528753       -14.3881
  61   2.0000      -0.520146       -14.1539
  62   2.0000      -0.493988       -13.4421
  63   2.0000      -0.489384       -13.3168
  64   2.0000      -0.478442       -13.0191
  65   2.0000      -0.462170       -12.5763
  66   2.0000      -0.456331       -12.4174
  67   2.0000      -0.448711       -12.2101
  68   2.0000      -0.439983       -11.9725
  69   2.0000      -0.434354       -11.8194
  70   2.0000      -0.421392       -11.4667
  71   2.0000      -0.413162       -11.2427
  72   2.0000      -0.407161       -11.0794
  73   2.0000      -0.396196       -10.7810
  74   2.0000      -0.389984       -10.6120
  75   2.0000      -0.386594       -10.5197
  76   2.0000      -0.383190       -10.4271
  77   2.0000      -0.373598       -10.1661
  78   2.0000      -0.364408        -9.9160
  79   2.0000      -0.359517        -9.7830
  80   2.0000      -0.357376        -9.7247
  81   2.0000      -0.353299        -9.6138
  82   2.0000      -0.351605        -9.5677
  83   2.0000      -0.349272        -9.5042
  84   2.0000      -0.344022        -9.3613
  85   2.0000      -0.328830        -8.9479
  86   2.0000      -0.324957        -8.8425
  87   2.0000      -0.316994        -8.6258
  88   2.0000      -0.311865        -8.4863
  89   2.0000      -0.304641        -8.2897
  90   2.0000      -0.293829        -7.9955
  91   2.0000      -0.287973        -7.8361
  92   2.0000      -0.282753        -7.6941
  93   2.0000      -0.281402        -7.6573
  94   2.0000      -0.272873        -7.4253
  95   2.0000      -0.246841        -6.7169
  96   2.0000      -0.239054        -6.5050
  97   2.0000      -0.233763        -6.3610
  98   2.0000      -0.231445        -6.2979
  99   2.0000      -0.225580        -6.1384
 100   2.0000      -0.223079        -6.0703
 101   0.0000      -0.047857        -1.3023
 102   0.0000      -0.029098        -0.7918
 103   0.0000      -0.012887        -0.3507
 104   0.0000      -0.001954        -0.0532
 105   0.0000       0.004244         0.1155

MULLIKEN ATOMIC CHARGES
-----------------------
   0 C :   -0.502911
   1 C :   -0.116722
   2 O :   -0.314250
   3 P :    0.709935
   4 S :   -0.513960
   5 O :   -0.331898
   6 C :   -0.146623
   7 C :   -0.471009
   8 S :   -0.163397
   9 C :   -0.256428
  10 S :   -0.131129
  11 P :    0.662320
  12 S :   -0.500919
  13 O :   -0.318173
  14 C :   -0.155099
  15 C :   -0.463896
  16 O :   -0.282207
  17 C :   -0.148686
  18 C :   -0.479294
  19 H :    0.172784
  20 H :    0.164935
  21 H :    0.168672
  22 H :    0.179521
  23 H :    0.172058
  24 H :    0.176141
  25 H :    0.176353
  26 H :    0.171726
  27 H :    0.167793
  28 H :    0.169092
  29 H :    0.236971
  30 H :    0.237736
  31 H :    0.181296
  32 H :    0.183741
  33 H :    0.156695
  34 H :    0.171771
  35 H :    0.175243
  36 H :    0.176090
  37 H :    0.177933
  38 H :    0.169158
  39 H :    0.170639
  40 H :    0.168001
Sum of atomic charges:    0.0000000

LOEWDIN ATOMIC CHARGES
----------------------
   0 C :   -0.392884
   1 C :    0.016644
   2 O :   -0.684696
   3 P :    0.373937
   4 S :   -0.151515
   5 O :   -0.674981
   6 C :    0.027784
   7 C :   -0.405866
   8 S :    0.160857
   9 C :   -0.403638
  10 S :    0.172351
  11 P :    0.375147
  12 S :   -0.138788
  13 O :   -0.673976
  14 C :    0.029944
  15 C :   -0.399240
  16 O :   -0.721452
  17 C :    0.014246
  18 C :   -0.401007
  19 H :    0.169382
  20 H :    0.163261
  21 H :    0.162490
  22 H :    0.190616
  23 H :    0.181023
  24 H :    0.191274
  25 H :    0.181624
  26 H :    0.168280
  27 H :    0.161535
  28 H :    0.163374
  29 H :    0.199023
  30 H :    0.205620
  31 H :    0.192567
  32 H :    0.185356
  33 H :    0.160790
  34 H :    0.165397
  35 H :    0.171078
  36 H :    0.181194
  37 H :    0.189257
  38 H :    0.162875
  39 H :    0.168021
  40 H :    0.163097

  Mayer bond orders larger than 0.100000
B(  0-C ,  1-C ) :   0.9257 B(  0-C , 19-H ) :   0.9610 B(  0-C , 20-H ) :   0.9698
B(  0-C , 21-H ) :   0.9707 B(  1-C ,  2-O ) :   0.7517 B(  1-C , 22-H ) :   0.9312
B(  1-C , 23-H ) :   0.9376 B(  2-O ,  3-P ) :   1.1293 B(  3-P ,  4-S ) :   1.7746
B(  3-P ,  5-O ) :   1.1081 B(  3-P ,  8-S ) :   1.0667 B(  5-O ,  6-C ) :   0.7947
B(  6-C ,  7-C ) :   0.9189 B(  6-C , 24-H ) :   0.9492 B(  6-C , 25-H ) :   0.9633
B(  7-C , 26-H ) :   0.9559 B(  7-C , 27-H ) :   0.9633 B(  7-C , 28-H ) :   0.9656
B(  8-S ,  9-C ) :   0.8888 B(  9-C , 10-S ) :   0.9018 B(  9-C , 29-H ) :   0.9079
B(  9-C , 30-H ) :   0.9055 B( 10-S , 11-P ) :   1.0757 B( 11-P , 12-S ) :   1.8124
B( 11-P , 13-O ) :   1.1281 B( 11-P , 16-O ) :   1.0317 B( 13-O , 14-C ) :   0.7362
B( 14-C , 15-C ) :   0.9462 B( 14-C , 31-H ) :   0.9488 B( 14-C , 32-H ) :   0.9571
B( 15-C , 33-H ) :   0.9538 B( 15-C , 34-H ) :   0.9701 B( 15-C , 35-H ) :   0.9594
B( 16-O , 17-C ) :   0.7798 B( 17-C , 18-C ) :   0.9163 B( 17-C , 36-H ) :   0.9586
B( 17-C , 37-H ) :   0.9529 B( 18-C , 38-H ) :   0.9623 B( 18-C , 39-H ) :   0.9576
B( 18-C , 40-H ) :   0.9680

Dispersion correction           -0.021887591
FINAL SINGLE POINT ENERGY     -2932.474116745806

DIPOLE MOMENT
-------------

Method             : SCF
Type of density    : Electron Density
Multiplicity       :   1
Irrep              :   0
Energy             : -2932.4988949497346766 Eh
Relativity type    :
Basis              : AO
                                X                 Y                 Z
Electronic contribution:      2.845481801     -11.922738393      -0.252240359
Nuclear contribution   :     -2.677079099      13.686990885      -0.208345539
                        -----------------------------------------
Total Dipole Moment    :      0.168402702       1.764252492      -0.460585898
                        -----------------------------------------
Magnitude (a.u.)       :      1.831143275
Magnitude (Debye)      :      4.654396314

Rotational constants in cm-1:             0.011994             0.005077             0.004753
Rotational constants in MHz :           359.561320           152.213589           142.479914

                             ****ORCA TERMINATED NORMALLY****
TOTAL RUN TIME: 0 days 0 hours 1 minutes 52 seconds 669 msec
