                         Program Version 6.0.0  -   RELEASE  -
|  1> ! r2scan-3c def2/J RI DEFGRID2 scfconv6 printgap
|  2> %output
|  3>     printlevel normal
|  4> end
|  5> * xyz 0 1
|  6> C 0.997284725 1.562760012 2.3836321282
|  7> C 2.4072044834 1.0099673308 2.4267724319
|  8> O 2.9453468679 0.8071007619 1.110264703
|  9> P 2.5015292943 -0.4063522614 0.1815390951
| 10> S 2.1970319263 -2.1028879202 1.1244413644
| 11> O 3.654363468 -0.4274963382 -0.9045153813
| 12> C 4.8674619266 -1.1885149433 -0.7296327435
| 13> C 5.7430815591 -0.620686962 0.3678482461
| 14> S 0.9629812611 0.3619470466 -1.0517457293
| 15> C -0.0971286089 -1.1114073038 -1.107849805
| 16> S -1.2236674872 -1.2351142821 0.3101255544
| 17> P -2.5082572303 0.3218101203 -0.2956383709
| 18> S -2.9075683361 0.465797167 -2.214791927
| 19> O -1.7694994 1.5429083003 0.3881999499
| 20> C -2.1057538081 2.9178220826 0.0920214032
| 21> C -1.1786658366 3.47699615 -0.9692001879
| 22> O -3.8007077107 0.193613767 0.6231362332
| 23> C -4.9478909299 -0.5824764341 0.2356516828
| 24> C -4.6506054879 -2.0679994387 0.2283341643
| 25> H 0.6732431674 1.8032284782 3.3911398487
| 26> H 0.962873866 2.4592287222 1.7697790784
| 27> H 0.3130769473 0.8263408545 1.9635950628
| 28> H 2.4308516841 0.0557105228 2.9638849817
| 29> H 3.0989917776 1.7148941176 2.8903582357
| 30> H 4.5953129462 -2.2255621338 -0.5083755296
| 31> H 5.3521893404 -1.1308986214 -1.7050760362
| 32> H 5.9188894645 0.4380807573 0.1969129281
| 33> H 5.2564021207 -0.7461758374 1.3338919424
| 34> H 6.6916246544 -1.1484852609 0.3796852997
| 35> H 0.5148154687 -2.0107454332 -1.0957770284
| 36> H -0.6844339736 -1.0380828185 -2.0231366605
| 37> H -3.1491797032 2.9744122105 -0.2295274172
| 38> H -1.986922369 3.4383820664 1.0436026041
| 39> H -0.1424484226 3.3489859568 -0.668526381
| 40> H -1.3267411453 2.9552800805 -1.9121619966
| 41> H -1.3886393068 4.5323448005 -1.1098412715
| 42> H -5.7026469291 -0.3247918017 0.9797363285
| 43> H -5.2712916684 -0.2501563523 -0.7562055584
| 44> H -4.2270312648 -2.373344296 1.1818712468
| 45> H -5.5680967894 -2.6184828642 0.046794795
| 46> H -3.9368770315 -2.3005441982 -0.5611427678
| 47> *
| 48>
| 49>                          ****END OF INPUT****

CARTESIAN COORDINATES (ANGSTROEM)
---------------------------------
  C      0.997285    1.562760    2.383632
  C      2.407204    1.009967    2.426772
  O      2.945347    0.807101    1.110265
  P      2.501529   -0.406352    0.181539
  S      2.197032   -2.102888    1.124441
  O      3.654363   -0.427496   -0.904515
  C      4.867462   -1.188515   -0.729633
  C      5.743082   -0.620687    0.367848
  S      0.962981    0.361947   -1.051746
  C     -0.097129   -1.111407   -1.107850
  S     -1.223667   -1.235114    0.310126
  P     -2.508257    0.321810   -0.295638
  S     -2.907568    0.465797   -2.214792
  O     -1.769499    1.542908    0.388200
  C     -2.105754    2.917822    0.092021
  C     -1.178666    3.476996   -0.969200
  O     -3.800708    0.193614    0.623136
  C     -4.947891   -0.582476    0.235652
  C     -4.650605   -2.067999    0.228334
  H      0.673243    1.803228    3.391140
  H      0.962874    2.459229    1.769779
  H      0.313077    0.826341    1.963595
  H      2.430852    0.055711    2.963885
  H      3.098992    1.714894    2.890358
  H      4.595313   -2.225562   -0.508376
  H      5.352189   -1.130899   -1.705076
  H      5.918889    0.438081    0.196913
  H      5.256402   -0.746176    1.333892
  H      6.691625   -1.148485    0.379685
  H      0.514815   -2.010745   -1.095777
  H     -0.684434   -1.038083   -2.023137
  H     -3.149180    2.974412   -0.229527
  H     -1.986922    3.438382    1.043603
  H     -0.142448    3.348986   -0.668526
  H     -1.326741    2.955280   -1.912162
  H     -1.388639    4.532345   -1.109841
  H     -5.702647   -0.324792    0.979736
  H     -5.271292   -0.250156   -0.756206
  H     -4.227031   -2.373344    1.181871
  H     -5.568097   -2.618483    0.046795
  H     -3.936877   -2.300544   -0.561143

 Total Charge           Charge          ....    0
 Multiplicity           Mult            ....    1
 Number of Electrons    NEL             ....  202
 Basis Dimension        Dim             ....  539

ORBITAL ENERGIES
----------------

  NO   OCC          E(Eh)            E(eV)
   0   2.0000     -88.574961     -2410.2472
   1   2.0000     -88.572909     -2410.1914
   2   2.0000     -88.524512     -2408.8744
   3   2.0000     -88.521400     -2408.7898
   4   2.0000     -76.914163     -2092.9408
   5   2.0000     -76.913546     -2092.9240
   6   2.0000     -18.993269      -516.8331
   7   2.0000     -18.992302      -516.8068
   8   2.0000     -18.988693      -516.7086
   9   2.0000     -18.988120      -516.6930
  10   2.0000     -10.104327      -274.9527
  11   2.0000     -10.099701      -274.8268
  12   2.0000     -10.098010      -274.7808
  13   2.0000     -10.097096      -274.7559
  14   2.0000     -10.096752      -274.7466
  15   2.0000     -10.028927      -272.9010
  16   2.0000     -10.028134      -272.8794
  17   2.0000     -10.024061      -272.7686
  18   2.0000     -10.023732      -272.7596
  19   2.0000      -7.869117      -214.1296
  20   2.0000      -7.867245      -214.0786
  21   2.0000      -7.819202      -212.7713
  22   2.0000      -7.816243      -212.6908
  23   2.0000      -6.592753      -179.3979
  24   2.0000      -6.592218      -179.3834
  25   2.0000      -5.816003      -158.2615
  26   2.0000      -5.814188      -158.2121
  27   2.0000      -5.813035      -158.1807
  28   2.0000      -5.811263      -158.1325
  29   2.0000      -5.806183      -157.9943
  30   2.0000      -5.804104      -157.9377
  31   2.0000      -5.766813      -156.9230
  32   2.0000      -5.763795      -156.8408
  33   2.0000      -5.759553      -156.7254
  34   2.0000      -5.759182      -156.7153
  35   2.0000      -5.756631      -156.6459
  36   2.0000      -5.756223      -156.6348
  37   2.0000      -4.737965      -128.9266
  38   2.0000      -4.737757      -128.9209
  39   2.0000      -4.737654      -128.9181
  40   2.0000      -4.737012      -128.9007
  41   2.0000      -4.736771      -128.8941
  42   2.0000      -4.736020      -128.8736
  43   2.0000      -1.049980       -28.5714
  44   2.0000      -1.049117       -28.5479
  45   2.0000      -1.010397       -27.4943
  46   2.0000      -1.010292       -27.4914
  47   2.0000      -0.800484       -21.7823
  48   2.0000      -0.758488       -20.6395
  49   2.0000      -0.747293       -20.3349
  50   2.0000      -0.730145       -19.8682
  51   2.0000      -0.729713       -19.8565
  52   2.0000      -0.710596       -19.3363
  53   2.0000      -0.686635       -18.6843
  54   2.0000      -0.669800       -18.2262
  55   2.0000      -0.635034       -17.2802
  56   2.0000      -0.624415       -16.9912
  57   2.0000      -0.607438       -16.5292
  58   2.0000      -0.604146       -16.4396
  59   2.0000      -0.586529       -15.9603
  60   2.0000      -0.525490       -14.2993
  61   2.0000      -0.518384       -14.1059
  62   2.0000      -0.493146       -13.4192
  63   2.0000      -0.489040       -13.3075
  64   2.0000      -0.477764       -13.0006
  65   2.0000      -0.459873       -12.5138
  66   2.0000      -0.457670       -12.4538
  67   2.0000      -0.456100       -12.4111
  68   2.0000      -0.446446       -12.1484
  69   2.0000      -0.432352       -11.7649
  70   2.0000      -0.422531       -11.4977
  71   2.0000      -0.414017       -11.2660
  72   2.0000      -0.410511       -11.1706
  73   2.0000      -0.404848       -11.0165
  74   2.0000      -0.395670       -10.7667
  75   2.0000      -0.392811       -10.6889
  76   2.0000      -0.381167       -10.3721
  77   2.0000      -0.372693       -10.1415
  78   2.0000      -0.369363       -10.0509
  79   2.0000      -0.365470        -9.9449
  80   2.0000      -0.361235        -9.8297
  81   2.0000      -0.358231        -9.7480
  82   2.0000      -0.356570        -9.7028
  83   2.0000      -0.352712        -9.5978
  84   2.0000      -0.346546        -9.4300
  85   2.0000      -0.331081        -9.0092
  86   2.0000      -0.320521        -8.7218
  87   2.0000      -0.311458        -8.4752
  88   2.0000      -0.307828        -8.3764
  89   2.0000      -0.301864        -8.2141
  90   2.0000      -0.299890        -8.1604
  91   2.0000      -0.292602        -7.9621
  92   2.0000      -0.287698        -7.8287
  93   2.0000      -0.279251        -7.5988
  94   2.0000      -0.276528        -7.5247
  95   2.0000      -0.243632        -6.6296
  96   2.0000      -0.231678        -6.3043
  97   2.0000      -0.225911        -6.1474
  98   2.0000      -0.220339        -5.9957
  99   2.0000      -0.217688        -5.9236
 100   2.0000      -0.213941        -5.8216
 101   0.0000      -0.045281        -1.2322
 102   0.0000      -0.030021        -0.8169
 103   0.0000      -0.005353        -0.1457
 104   0.0000       0.002338         0.0636
 105   0.0000       0.015234         0.4145

MULLIKEN ATOMIC CHARGES
-----------------------
   0 C :   -0.446116
   1 C :   -0.154465
   2 O :   -0.281190
   3 P :    0.655811
   4 S :   -0.472162
   5 O :   -0.290628
   6 C :   -0.157002
   7 C :   -0.434255
   8 S :   -0.094556
   9 C :   -0.250353
  10 S :   -0.092723
  11 P :    0.673678
  12 S :   -0.485026
  13 O :   -0.271744
  14 C :   -0.126855
  15 C :   -0.460425
  16 O :   -0.304995
  17 C :   -0.149813
  18 C :   -0.453701
  19 H :    0.145210
  20 H :    0.147159
  21 H :    0.188468
  22 H :    0.169777
  23 H :    0.146457
  24 H :    0.170150
  25 H :    0.149871
  26 H :    0.156495
  27 H :    0.164307
  28 H :    0.146916
  29 H :    0.206250
  30 H :    0.217418
  31 H :    0.151651
  32 H :    0.151643
  33 H :    0.156370
  34 H :    0.182859
  35 H :    0.144477
  36 H :    0.147669
  37 H :    0.172077
  38 H :    0.157087
  39 H :    0.147740
  40 H :    0.176469
Sum of atomic charges:    0.0000000

LOEWDIN ATOMIC CHARGES
----------------------
   0 C :   -0.404803
   1 C :    0.019254
   2 O :   -0.664862
   3 P :    0.386067
   4 S :   -0.122492
   5 O :   -0.668806
   6 C :    0.022233
   7 C :   -0.399342
   8 S :    0.188299
   9 C :   -0.418966
  10 S :    0.168676
  11 P :    0.375186
  12 S :   -0.139341
  13 O :   -0.678521
  14 C :    0.025628
  15 C :   -0.404889
  16 O :   -0.659563
  17 C :    0.019105
  18 C :   -0.406134
  19 H :    0.158825
  20 H :    0.158780
  21 H :    0.173746
  22 H :    0.180067
  23 H :    0.178379
  24 H :    0.179081
  25 H :    0.180336
  26 H :    0.161686
  27 H :    0.163819
  28 H :    0.159116
  29 H :    0.190718
  30 H :    0.193167
  31 H :    0.175828
  32 H :    0.179003
  33 H :    0.159851
  34 H :    0.168713
  35 H :    0.157260
  36 H :    0.179277
  37 H :    0.179771
  38 H :    0.160660
  39 H :    0.159534
  40 H :    0.165653

  Mayer bond orders larger than 0.100000
B(  0-C ,  1-C ) :   0.9379 B(  0-C , 19-H ) :   0.9602 B(  0-C , 20-H ) :   0.9688
B(  0-C , 21-H ) :   0.9507 B(  1-C ,  2-O ) :   0.7997 B(  1-C , 22-H ) :   0.9619
B(  1-C , 23-H ) :   0.9610 B(  2-O ,  3-P ) :   1.0682 B(  3-P ,  4-S ) :   1.7347
B(  3-P ,  5-O ) :   1.1829 B(  3-P ,  8-S ) :   1.0921 B(  5-O ,  6-C ) :   0.8132
B(  6-C ,  7-C ) :   0.9284 B(  6-C , 24-H ) :   0.9661 B(  6-C , 25-H ) :   0.9608
B(  7-C , 26-H ) :   0.9707 B(  7-C , 27-H ) :   0.9604 B(  7-C , 28-H ) :   0.9618
B(  8-S ,  9-C ) :   0.8979 B(  9-C , 10-S ) :   0.9149 B(  9-C , 29-H ) :   0.9093
B(  9-C , 30-H ) :   0.9045 B( 10-S , 11-P ) :   1.1038 B( 11-P , 12-S ) :   1.7442
B( 11-P , 13-O ) :   1.1506 B( 11-P , 16-O ) :   1.0656 B( 13-O , 14-C ) :   0.7530
B( 14-C , 15-C ) :   0.9355 B( 14-C , 31-H ) :   0.9610 B( 14-C , 32-H ) :   0.9660
B( 15-C , 33-H ) :   0.9721 B( 15-C , 34-H ) :   0.9593 B( 15-C , 35-H ) :   0.9648
B( 16-O , 17-C ) :   0.8192 B( 17-C , 18-C ) :   0.9217 B( 17-C , 36-H ) :   0.9586
B( 17-C , 37-H ) :   0.9656 B( 18-C , 38-H ) :   0.9688 B( 18-C , 39-H ) :   0.9589
B( 18-C , 40-H ) :   0.9614

Dispersion correction           -0.021521224
FINAL SINGLE POINT ENERGY     -2932.463928932573

DIPOLE MOMENT
-------------

Method             : SCF
Type of density    : Electron Density
Multiplicity       :   1
Irrep              :   0
Energy             : -2932.4888350232276935 Eh
Relativity type    :
Basis              : AO
                                X                 Y                 Z
Electronic contribution:     -2.182665783      -7.408986091      -6.576773377
Nuclear contribution   :      2.323466305       8.041066313       7.276354742
                        -----------------------------------------
Total Dipole Moment    :      0.140800523       0.632080222       0.699581365
                        -----------------------------------------
Magnitude (a.u.)       :      0.953291288
Magnitude (Debye)      :      2.423073889

Rotational constants in cm-1:             0.014100             0.004468             0.004196
Rotational constants in MHz :           422.715502           133.935703           125.786898

                             ****ORCA TERMINATED NORMALLY****
TOTAL RUN TIME: 0 days 0 hours 1 minutes 18 seconds 758 msec
