                         Program Version 6.0.0  -   RELEASE  -
|  1> ! r2scan-3c def2/J RI DEFGRID2 scfconv6 printgap
|  2> %output
|  3>     printlevel normal
|  4> end
|  5> %cpcm
|  6>     smd true
|  7>     smdsolvent "water"
|  8> end
|  9> * xyz 0 1
| 10> C 0.997284725 1.562760012 2.3836321282
| 11> C 2.4072044834 1.0099673308 2.4267724319
| 12> O 2.9453468679 0.8071007619 1.110264703
| 13> P 2.5015292943 -0.4063522614 0.1815390951
| 14> S 2.1970319263 -2.1028879202 1.1244413644
| 15> O 3.654363468 -0.4274963382 -0.9045153813
| 16> C 4.8674619266 -1.1885149433 -0.7296327435
| 17> C 5.7430815591 -0.620686962 0.3678482461
| 18> S 0.9629812611 0.3619470466 -1.0517457293
| 19> C -0.0971286089 -1.1114073038 -1.107849805
| 20> S -1.2236674872 -1.2351142821 0.3101255544
| 21> P -2.5082572303 0.3218101203 -0.2956383709
| 22> S -2.9075683361 0.465797167 -2.214791927
| 23> O -1.7694994 1.5429083003 0.3881999499
| 24> C -2.1057538081 2.9178220826 0.0920214032
| 25> C -1.1786658366 3.47699615 -0.9692001879
| 26> O -3.8007077107 0.193613767 0.6231362332
| 27> C -4.9478909299 -0.5824764341 0.2356516828
| 28> C -4.6506054879 -2.0679994387 0.2283341643
| 29> H 0.6732431674 1.8032284782 3.3911398487
| 30> H 0.962873866 2.4592287222 1.7697790784
| 31> H 0.3130769473 0.8263408545 1.9635950628
| 32> H 2.4308516841 0.0557105228 2.9638849817
| 33> H 3.0989917776 1.7148941176 2.8903582357
| 34> H 4.5953129462 -2.2255621338 -0.5083755296
| 35> H 5.3521893404 -1.1308986214 -1.7050760362
| 36> H 5.9188894645 0.4380807573 0.1969129281
| 37> H 5.2564021207 -0.7461758374 1.3338919424
| 38> H 6.6916246544 -1.1484852609 0.3796852997
| 39> H 0.5148154687 -2.0107454332 -1.0957770284
| 40> H -0.6844339736 -1.0380828185 -2.0231366605
| 41> H -3.1491797032 2.9744122105 -0.2295274172
| 42> H -1.986922369 3.4383820664 1.0436026041
| 43> H -0.1424484226 3.3489859568 -0.668526381
| 44> H -1.3267411453 2.9552800805 -1.9121619966
| 45> H -1.3886393068 4.5323448005 -1.1098412715
| 46> H -5.7026469291 -0.3247918017 0.9797363285
| 47> H -5.2712916684 -0.2501563523 -0.7562055584
| 48> H -4.2270312648 -2.373344296 1.1818712468
| 49> H -5.5680967894 -2.6184828642 0.046794795
| 50> H -3.9368770315 -2.3005441982 -0.5611427678
| 51> *
| 52>
| 53>                          ****END OF INPUT****

CARTESIAN COORDINATES (ANGSTROEM)
---------------------------------
  C      0.997285    1.562760    2.383632
  C      2.407204    1.009967    2.426772
  O      2.945347    0.807101    1.110265
  P      2.501529   -0.406352    0.181539
  S      2.197032   -2.102888    1.124441
  O      3.654363   -0.427496   -0.904515
  C      4.867462   -1.188515   -0.729633
  C      5.743082   -0.620687    0.367848
  S      0.962981    0.361947   -1.051746
  C     -0.097129   -1.111407   -1.107850
  S     -1.223667   -1.235114    0.310126
  P     -2.508257    0.321810   -0.295638
  S     -2.907568    0.465797   -2.214792
  O     -1.769499    1.542908    0.388200
  C     -2.105754    2.917822    0.092021
  C     -1.178666    3.476996   -0.969200
  O     -3.800708    0.193614    0.623136
  C     -4.947891   -0.582476    0.235652
  C     -4.650605   -2.067999    0.228334
  H      0.673243    1.803228    3.391140
  H      0.962874    2.459229    1.769779
  H      0.313077    0.826341    1.963595
  H      2.430852    0.055711    2.963885
  H      3.098992    1.714894    2.890358
  H      4.595313   -2.225562   -0.508376
  H      5.352189   -1.130899   -1.705076
  H      5.918889    0.438081    0.196913
  H      5.256402   -0.746176    1.333892
  H      6.691625   -1.148485    0.379685
  H      0.514815   -2.010745   -1.095777
  H     -0.684434   -1.038083   -2.023137
  H     -3.149180    2.974412   -0.229527
  H     -1.986922    3.438382    1.043603
  H     -0.142448    3.348986   -0.668526
  H     -1.326741    2.955280   -1.912162
  H     -1.388639    4.532345   -1.109841
  H     -5.702647   -0.324792    0.979736
  H     -5.271292   -0.250156   -0.756206
  H     -4.227031   -2.373344    1.181871
  H     -5.568097   -2.618483    0.046795
  H     -3.936877   -2.300544   -0.561143

 Total Charge           Charge          ....    0
 Multiplicity           Mult            ....    1
 Number of Electrons    NEL             ....  202
 Basis Dimension        Dim             ....  539

ORBITAL ENERGIES
----------------

  NO   OCC          E(Eh)            E(eV)
   0   2.0000     -88.579841     -2410.3800
   1   2.0000     -88.578223     -2410.3360
   2   2.0000     -88.531384     -2409.0614
   3   2.0000     -88.528079     -2408.9715
   4   2.0000     -76.919662     -2093.0904
   5   2.0000     -76.918504     -2093.0589
   6   2.0000     -18.995800      -516.9020
   7   2.0000     -18.995343      -516.8896
   8   2.0000     -18.992494      -516.8120
   9   2.0000     -18.991159      -516.7757
  10   2.0000     -10.105578      -274.9868
  11   2.0000     -10.090278      -274.5704
  12   2.0000     -10.089213      -274.5414
  13   2.0000     -10.089095      -274.5382
  14   2.0000     -10.089087      -274.5380
  15   2.0000     -10.018639      -272.6210
  16   2.0000     -10.018562      -272.6189
  17   2.0000     -10.016703      -272.5684
  18   2.0000     -10.015780      -272.5432
  19   2.0000      -7.874068      -214.2643
  20   2.0000      -7.872612      -214.2247
  21   2.0000      -7.826312      -212.9648
  22   2.0000      -7.823183      -212.8796
  23   2.0000      -6.598315      -179.5493
  24   2.0000      -6.597202      -179.5190
  25   2.0000      -5.820935      -158.3957
  26   2.0000      -5.819523      -158.3573
  27   2.0000      -5.817972      -158.3151
  28   2.0000      -5.816586      -158.2773
  29   2.0000      -5.811169      -158.1300
  30   2.0000      -5.809548      -158.0858
  31   2.0000      -5.773889      -157.1155
  32   2.0000      -5.770694      -157.0286
  33   2.0000      -5.766650      -156.9185
  34   2.0000      -5.766298      -156.9089
  35   2.0000      -5.763572      -156.8348
  36   2.0000      -5.763156      -156.8235
  37   2.0000      -4.743508      -129.0774
  38   2.0000      -4.743201      -129.0690
  39   2.0000      -4.742682      -129.0549
  40   2.0000      -4.742381      -129.0468
  41   2.0000      -4.742002      -129.0364
  42   2.0000      -4.741083      -129.0114
  43   2.0000      -1.052493       -28.6398
  44   2.0000      -1.052137       -28.6301
  45   2.0000      -1.013178       -27.5700
  46   2.0000      -1.011761       -27.5314
  47   2.0000      -0.803861       -21.8742
  48   2.0000      -0.756797       -20.5935
  49   2.0000      -0.742524       -20.2051
  50   2.0000      -0.723393       -19.6845
  51   2.0000      -0.722121       -19.6499
  52   2.0000      -0.710129       -19.3236
  53   2.0000      -0.690231       -18.7821
  54   2.0000      -0.675954       -18.3936
  55   2.0000      -0.634768       -17.2729
  56   2.0000      -0.621698       -16.9173
  57   2.0000      -0.601725       -16.3738
  58   2.0000      -0.598916       -16.2973
  59   2.0000      -0.586121       -15.9492
  60   2.0000      -0.521390       -14.1877
  61   2.0000      -0.515884       -14.0379
  62   2.0000      -0.491080       -13.3630
  63   2.0000      -0.485668       -13.2157
  64   2.0000      -0.478815       -13.0292
  65   2.0000      -0.457507       -12.4494
  66   2.0000      -0.454739       -12.3741
  67   2.0000      -0.452879       -12.3235
  68   2.0000      -0.442834       -12.0501
  69   2.0000      -0.429748       -11.6940
  70   2.0000      -0.420410       -11.4399
  71   2.0000      -0.412063       -11.2128
  72   2.0000      -0.406411       -11.0590
  73   2.0000      -0.404734       -11.0134
  74   2.0000      -0.394170       -10.7259
  75   2.0000      -0.390990       -10.6394
  76   2.0000      -0.380512       -10.3543
  77   2.0000      -0.369621       -10.0579
  78   2.0000      -0.364790        -9.9264
  79   2.0000      -0.361397        -9.8341
  80   2.0000      -0.354060        -9.6345
  81   2.0000      -0.352673        -9.5967
  82   2.0000      -0.350117        -9.5272
  83   2.0000      -0.346844        -9.4381
  84   2.0000      -0.344052        -9.3621
  85   2.0000      -0.329488        -8.9658
  86   2.0000      -0.319163        -8.6849
  87   2.0000      -0.306759        -8.3473
  88   2.0000      -0.304384        -8.2827
  89   2.0000      -0.300486        -8.1766
  90   2.0000      -0.299251        -8.1430
  91   2.0000      -0.291443        -7.9306
  92   2.0000      -0.287845        -7.8327
  93   2.0000      -0.280307        -7.6275
  94   2.0000      -0.277952        -7.5635
  95   2.0000      -0.247902        -6.7457
  96   2.0000      -0.238833        -6.4990
  97   2.0000      -0.232761        -6.3337
  98   2.0000      -0.227232        -6.1833
  99   2.0000      -0.224968        -6.1217
 100   2.0000      -0.220618        -6.0033
 101   0.0000      -0.051284        -1.3955
 102   0.0000      -0.036559        -0.9948
 103   0.0000      -0.009253        -0.2518
 104   0.0000      -0.002469        -0.0672
 105   0.0000       0.012023         0.3272

MULLIKEN ATOMIC CHARGES
-----------------------
   0 C :   -0.484876
   1 C :   -0.151762
   2 O :   -0.304537
   3 P :    0.695108
   4 S :   -0.510803
   5 O :   -0.326222
   6 C :   -0.153411
   7 C :   -0.474784
   8 S :   -0.116036
   9 C :   -0.259903
  10 S :   -0.110038
  11 P :    0.707730
  12 S :   -0.528445
  13 O :   -0.296434
  14 C :   -0.130141
  15 C :   -0.494474
  16 O :   -0.330266
  17 C :   -0.149532
  18 C :   -0.489275
  19 H :    0.171477
  20 H :    0.169768
  21 H :    0.170692
  22 H :    0.174478
  23 H :    0.174691
  24 H :    0.176004
  25 H :    0.174993
  26 H :    0.168887
  27 H :    0.167393
  28 H :    0.172141
  29 H :    0.229936
  30 H :    0.233909
  31 H :    0.169171
  32 H :    0.178111
  33 H :    0.166996
  34 H :    0.173365
  35 H :    0.169439
  36 H :    0.174768
  37 H :    0.177244
  38 H :    0.170131
  39 H :    0.172666
  40 H :    0.171840
Sum of atomic charges:    0.0000000

LOEWDIN ATOMIC CHARGES
----------------------
   0 C :   -0.408950
   1 C :    0.025237
   2 O :   -0.675363
   3 P :    0.390985
   4 S :   -0.145627
   5 O :   -0.686468
   6 C :    0.026863
   7 C :   -0.402599
   8 S :    0.177163
   9 C :   -0.412844
  10 S :    0.158431
  11 P :    0.380473
  12 S :   -0.165617
  13 O :   -0.691011
  14 C :    0.030784
  15 C :   -0.408446
  16 O :   -0.671056
  17 C :    0.024454
  18 C :   -0.409430
  19 H :    0.168274
  20 H :    0.164414
  21 H :    0.165037
  22 H :    0.181795
  23 H :    0.190523
  24 H :    0.181429
  25 H :    0.190735
  26 H :    0.164307
  27 H :    0.162580
  28 H :    0.168707
  29 H :    0.198480
  30 H :    0.198041
  31 H :    0.181481
  32 H :    0.190261
  33 H :    0.162082
  34 H :    0.162620
  35 H :    0.166345
  36 H :    0.190690
  37 H :    0.181454
  38 H :    0.163678
  39 H :    0.168601
  40 H :    0.161488

  Mayer bond orders larger than 0.100000
B(  0-C ,  1-C ) :   0.9254 B(  0-C , 19-H ) :   0.9544 B(  0-C , 20-H ) :   0.9653
B(  0-C , 21-H ) :   0.9556 B(  1-C ,  2-O ) :   0.7876 B(  1-C , 22-H ) :   0.9596
B(  1-C , 23-H ) :   0.9515 B(  2-O ,  3-P ) :   1.0766 B(  3-P ,  4-S ) :   1.7052
B(  3-P ,  5-O ) :   1.1841 B(  3-P ,  8-S ) :   1.0960 B(  5-O ,  6-C ) :   0.8020
B(  6-C ,  7-C ) :   0.9158 B(  6-C , 24-H ) :   0.9616 B(  6-C , 25-H ) :   0.9513
B(  7-C , 26-H ) :   0.9700 B(  7-C , 27-H ) :   0.9589 B(  7-C , 28-H ) :   0.9556
B(  8-S ,  9-C ) :   0.8896 B(  9-C , 10-S ) :   0.9084 B(  9-C , 29-H ) :   0.9023
B(  9-C , 30-H ) :   0.9011 B( 10-S , 11-P ) :   1.1107 B( 11-P , 12-S ) :   1.7072
B( 11-P , 13-O ) :   1.1596 B( 11-P , 16-O ) :   1.0733 B( 13-O , 14-C ) :   0.7404
B( 14-C , 15-C ) :   0.9225 B( 14-C , 31-H ) :   0.9567 B( 14-C , 32-H ) :   0.9552
B( 15-C , 33-H ) :   0.9700 B( 15-C , 34-H ) :   0.9636 B( 15-C , 35-H ) :   0.9600
B( 16-O , 17-C ) :   0.8076 B( 17-C , 18-C ) :   0.9090 B( 17-C , 36-H ) :   0.9490
B( 17-C , 37-H ) :   0.9640 B( 18-C , 38-H ) :   0.9662 B( 18-C , 39-H ) :   0.9536
B( 18-C , 40-H ) :   0.9626

Dispersion correction           -0.021521224
FINAL SINGLE POINT ENERGY     -2932.471037746664

DIPOLE MOMENT
-------------

Method             : SCF
Type of density    : Electron Density
Multiplicity       :   1
Irrep              :   0
Energy             : -2932.4959438373180092 Eh
Relativity type    :
Basis              : AO
                                X                 Y                 Z
Electronic contribution:     -2.160961541      -7.217019509      -6.336052789
Nuclear contribution   :      2.323466305       8.041066313       7.276354742
                        -----------------------------------------
Total Dipole Moment    :      0.162504764       0.824046804       0.940301952
                        -----------------------------------------
Magnitude (a.u.)       :      1.260804781
Magnitude (Debye)      :      3.204711070

Rotational constants in cm-1:             0.014100             0.004468             0.004196
Rotational constants in MHz :           422.715502           133.935703           125.786898

                             ****ORCA TERMINATED NORMALLY****
TOTAL RUN TIME: 0 days 0 hours 1 minutes 47 seconds 826 msec
