                         Program Version 6.0.0  -   RELEASE  -
|  1> ! pbe def2-sv(p) def2/J RI DEFGRID1 loosescf d4 GCP(DFT/SV(P)) printgap
|  2> %output
|  3>     printlevel normal
|  4> end
|  5> * xyz 0 1
|  6> C 4.5674015935 -0.1579957719 -2.075185207
|  7> C 4.4898774734 0.9112597501 -1.0050114743
|  8> O 3.6368394041 0.5312138045 0.089402945
|  9> P 2.0681547954 0.3224646457 -0.0668778992
| 10> S 1.1523223402 1.618690238 -1.2138632056
| 11> O 1.5920895387 0.3901841811 1.4372365484
| 12> C 2.253775065 -0.3902803661 2.4746146617
| 13> C 1.2137687419 -0.8820467384 3.4592341402
| 14> S 1.8965449149 -1.7237264194 -0.6184199054
| 15> C 0.1408938489 -1.7254044437 -1.041416899
| 16> S -0.9397589049 -1.4608077435 0.3993117319
| 17> P -2.0605984122 0.2280095844 -0.2542913351
| 18> S -2.1471794975 0.5248434325 -2.1834737839
| 19> O -1.5055460065 1.4602260023 0.5578452036
| 20> C -1.4648126445 1.4965888387 2.0055382031
| 21> C -2.6210252751 2.3073653053 2.5524773597
| 22> O -3.4698932964 -0.0064719385 0.450931663
| 23> C -4.533681905 -0.7546106061 -0.1642504345
| 24> C -4.1919809475 -2.2199329286 -0.340342468
| 25> H 3.6079751652 -0.2465764679 -2.582892859
| 26> H 5.3234013573 0.1189980366 -2.8029035579
| 27> H 4.8228996463 -1.1184633053 -1.6347479
| 28> H 4.1132409323 1.8489647608 -1.4249790508
| 29> H 5.4577798062 1.0779664293 -0.5301110429
| 30> H 2.77899469 -1.2255790815 2.0032129617
| 31> H 2.9799257802 0.271696833 2.9486293903
| 32> H 0.6914723762 -0.0420131473 3.9076271593
| 33> H 0.4924793131 -1.5222313387 2.9571777233
| 34> H 1.7124724939 -1.4504510292 4.2377125698
| 35> H -0.0671292167 -2.7127099958 -1.445823308
| 36> H -0.0697772625 -0.9448062461 -1.777936832
| 37> H -1.4832299929 0.4710198457 2.3850459468
| 38> H -0.5024137856 1.9579951341 2.2380961719
| 39> H -2.6124191641 3.3041541859 2.1196277454
| 40> H -3.5650266899 1.8271719064 2.3093029464
| 41> H -2.5219104061 2.3823861954 3.6308469531
| 42> H -5.3736146956 -0.6170122123 0.518245032
| 43> H -4.7597249844 -0.2951607059 -1.1313178237
| 44> H -3.4098225558 -2.3308304176 -1.089725364
| 45> H -3.847432454 -2.6461872724 0.5983745627
| 46> H -5.0759670649 -2.752185114 -0.6765476688
| 47> *
| 48>
| 49>                          ****END OF INPUT****

CARTESIAN COORDINATES (ANGSTROEM)
---------------------------------
  C      4.567402   -0.157996   -2.075185
  C      4.489877    0.911260   -1.005011
  O      3.636839    0.531214    0.089403
  P      2.068155    0.322465   -0.066878
  S      1.152322    1.618690   -1.213863
  O      1.592090    0.390184    1.437237
  C      2.253775   -0.390280    2.474615
  C      1.213769   -0.882047    3.459234
  S      1.896545   -1.723726   -0.618420
  C      0.140894   -1.725404   -1.041417
  S     -0.939759   -1.460808    0.399312
  P     -2.060598    0.228010   -0.254291
  S     -2.147179    0.524843   -2.183474
  O     -1.505546    1.460226    0.557845
  C     -1.464813    1.496589    2.005538
  C     -2.621025    2.307365    2.552477
  O     -3.469893   -0.006472    0.450932
  C     -4.533682   -0.754611   -0.164250
  C     -4.191981   -2.219933   -0.340342
  H      3.607975   -0.246576   -2.582893
  H      5.323401    0.118998   -2.802904
  H      4.822900   -1.118463   -1.634748
  H      4.113241    1.848965   -1.424979
  H      5.457780    1.077966   -0.530111
  H      2.778995   -1.225579    2.003213
  H      2.979926    0.271697    2.948629
  H      0.691472   -0.042013    3.907627
  H      0.492479   -1.522231    2.957178
  H      1.712472   -1.450451    4.237713
  H     -0.067129   -2.712710   -1.445823
  H     -0.069777   -0.944806   -1.777937
  H     -1.483230    0.471020    2.385046
  H     -0.502414    1.957995    2.238096
  H     -2.612419    3.304154    2.119628
  H     -3.565027    1.827172    2.309303
  H     -2.521910    2.382386    3.630847
  H     -5.373615   -0.617012    0.518245
  H     -4.759725   -0.295161   -1.131318
  H     -3.409823   -2.330830   -1.089725
  H     -3.847432   -2.646187    0.598375
  H     -5.075967   -2.752185   -0.676548

 Total Charge           Charge          ....    0
 Multiplicity           Mult            ....    1
 Number of Electrons    NEL             ....  202
 Basis Dimension        Dim             ....  334

ORBITAL ENERGIES
----------------

  NO   OCC          E(Eh)            E(eV)
   0   2.0000     -88.042990     -2395.7716
   1   2.0000     -88.038990     -2395.6627
   2   2.0000     -87.980565     -2394.0729
   3   2.0000     -87.980075     -2394.0596
   4   2.0000     -76.422508     -2079.5622
   5   2.0000     -76.421171     -2079.5258
   6   2.0000     -18.792005      -511.3565
   7   2.0000     -18.790148      -511.3059
   8   2.0000     -18.789234      -511.2810
   9   2.0000     -18.781425      -511.0685
  10   2.0000      -9.956208      -270.9222
  11   2.0000      -9.953117      -270.8381
  12   2.0000      -9.952840      -270.8305
  13   2.0000      -9.950263      -270.7604
  14   2.0000      -9.947853      -270.6948
  15   2.0000      -9.889283      -269.1011
  16   2.0000      -9.883685      -268.9487
  17   2.0000      -9.881886      -268.8998
  18   2.0000      -9.880623      -268.8654
  19   2.0000      -7.688007      -209.2013
  20   2.0000      -7.683614      -209.0818
  21   2.0000      -7.625769      -207.5077
  22   2.0000      -7.624965      -207.4858
  23   2.0000      -6.420057      -174.6986
  24   2.0000      -6.418546      -174.6575
  25   2.0000      -5.715827      -155.5356
  26   2.0000      -5.712343      -155.4407
  27   2.0000      -5.711471      -155.4170
  28   2.0000      -5.708126      -155.3260
  29   2.0000      -5.705219      -155.2469
  30   2.0000      -5.700613      -155.1216
  31   2.0000      -5.654829      -153.8757
  32   2.0000      -5.653999      -153.8531
  33   2.0000      -5.646291      -153.6434
  34   2.0000      -5.645836      -153.6310
  35   2.0000      -5.645433      -153.6200
  36   2.0000      -5.645191      -153.6135
  37   2.0000      -4.642938      -126.3408
  38   2.0000      -4.641795      -126.3097
  39   2.0000      -4.641346      -126.2975
  40   2.0000      -4.640225      -126.2669
  41   2.0000      -4.640156      -126.2651
  42   2.0000      -4.638986      -126.2332
  43   2.0000      -0.987296       -26.8657
  44   2.0000      -0.982292       -26.7295
  45   2.0000      -0.943103       -25.6631
  46   2.0000      -0.937784       -25.5184
  47   2.0000      -0.760313       -20.6892
  48   2.0000      -0.717770       -19.5315
  49   2.0000      -0.708707       -19.2849
  50   2.0000      -0.689703       -18.7678
  51   2.0000      -0.686045       -18.6682
  52   2.0000      -0.675453       -18.3800
  53   2.0000      -0.648092       -17.6355
  54   2.0000      -0.632039       -17.1986
  55   2.0000      -0.596127       -16.2214
  56   2.0000      -0.586778       -15.9671
  57   2.0000      -0.573370       -15.6022
  58   2.0000      -0.568368       -15.4661
  59   2.0000      -0.559784       -15.2325
  60   2.0000      -0.506213       -13.7748
  61   2.0000      -0.494974       -13.4689
  62   2.0000      -0.472747       -12.8641
  63   2.0000      -0.469147       -12.7661
  64   2.0000      -0.449278       -12.2255
  65   2.0000      -0.446479       -12.1493
  66   2.0000      -0.440332       -11.9820
  67   2.0000      -0.437461       -11.9039
  68   2.0000      -0.429508       -11.6875
  69   2.0000      -0.421680       -11.4745
  70   2.0000      -0.411815       -11.2060
  71   2.0000      -0.392062       -10.6685
  72   2.0000      -0.389545       -10.6001
  73   2.0000      -0.381885       -10.3916
  74   2.0000      -0.378546       -10.3008
  75   2.0000      -0.364602        -9.9213
  76   2.0000      -0.363143        -9.8816
  77   2.0000      -0.360359        -9.8059
  78   2.0000      -0.353484        -9.6188
  79   2.0000      -0.350886        -9.5481
  80   2.0000      -0.347823        -9.4648
  81   2.0000      -0.344655        -9.3785
  82   2.0000      -0.340297        -9.2600
  83   2.0000      -0.335616        -9.1326
  84   2.0000      -0.334241        -9.0952
  85   2.0000      -0.314951        -8.5703
  86   2.0000      -0.309973        -8.4348
  87   2.0000      -0.303109        -8.2480
  88   2.0000      -0.292534        -7.9603
  89   2.0000      -0.292221        -7.9518
  90   2.0000      -0.287584        -7.8256
  91   2.0000      -0.271290        -7.3822
  92   2.0000      -0.263597        -7.1728
  93   2.0000      -0.261013        -7.1025
  94   2.0000      -0.256138        -6.9699
  95   2.0000      -0.233537        -6.3549
  96   2.0000      -0.217113        -5.9079
  97   2.0000      -0.212559        -5.7840
  98   2.0000      -0.199941        -5.4407
  99   2.0000      -0.190714        -5.1896
 100   2.0000      -0.184026        -5.0076
 101   0.0000      -0.038974        -1.0605
 102   0.0000      -0.031326        -0.8524
 103   0.0000      -0.009308        -0.2533
 104   0.0000       0.009666         0.2630
 105   0.0000       0.019737         0.5371

MULLIKEN ATOMIC CHARGES
-----------------------
   0 C :   -0.321572
   1 C :    0.002522
   2 O :   -0.384405
   3 P :    0.579290
   4 S :   -0.272421
   5 O :   -0.357156
   6 C :   -0.010753
   7 C :   -0.293021
   8 S :   -0.106580
   9 C :   -0.347153
  10 S :   -0.120460
  11 P :    0.605089
  12 S :   -0.291217
  13 O :   -0.340825
  14 C :   -0.025146
  15 C :   -0.281635
  16 O :   -0.385984
  17 C :    0.000983
  18 C :   -0.309919
  19 H :    0.132429
  20 H :    0.114496
  21 H :    0.116233
  22 H :    0.112446
  23 H :    0.103256
  24 H :    0.102916
  25 H :    0.109399
  26 H :    0.117332
  27 H :    0.131347
  28 H :    0.109565
  29 H :    0.180081
  30 H :    0.206909
  31 H :    0.102481
  32 H :    0.118251
  33 H :    0.121322
  34 H :    0.117204
  35 H :    0.103878
  36 H :    0.101919
  37 H :    0.112002
  38 H :    0.120477
  39 H :    0.115222
  40 H :    0.111197
Sum of atomic charges:   -0.0000000

LOEWDIN ATOMIC CHARGES
----------------------
   0 C :   -0.371824
   1 C :   -0.116151
   2 O :   -0.251543
   3 P :    0.559307
   4 S :   -0.281672
   5 O :   -0.239176
   6 C :   -0.114173
   7 C :   -0.356263
   8 S :    0.071081
   9 C :   -0.481020
  10 S :    0.067584
  11 P :    0.573680
  12 S :   -0.293307
  13 O :   -0.225938
  14 C :   -0.114639
  15 C :   -0.358375
  16 O :   -0.251322
  17 C :   -0.117226
  18 C :   -0.370935
  19 H :    0.123420
  20 H :    0.131807
  21 H :    0.122327
  22 H :    0.113280
  23 H :    0.117950
  24 H :    0.103720
  25 H :    0.117283
  26 H :    0.124897
  27 H :    0.122227
  28 H :    0.129908
  29 H :    0.135728
  30 H :    0.125796
  31 H :    0.101839
  32 H :    0.120145
  33 H :    0.129671
  34 H :    0.124856
  35 H :    0.126760
  36 H :    0.116862
  37 H :    0.112274
  38 H :    0.119452
  39 H :    0.121923
  40 H :    0.129785

  Mayer bond orders larger than 0.100000
B(  0-C ,  1-C ) :   1.1665 B(  0-C , 19-H ) :   0.9342 B(  0-C , 20-H ) :   0.9371
B(  0-C , 21-H ) :   0.9436 B(  1-C ,  2-O ) :   0.9073 B(  1-C , 22-H ) :   0.9176
B(  1-C , 23-H ) :   0.9345 B(  2-O ,  3-P ) :   1.0789 B(  3-P ,  4-S ) :   1.6770
B(  3-P ,  5-O ) :   1.1180 B(  3-P ,  8-S ) :   0.9376 B(  4-S ,  8-S ) :   0.1080
B(  5-O ,  6-C ) :   0.8868 B(  6-C ,  7-C ) :   1.1662 B(  6-C , 24-H ) :   0.9099
B(  6-C , 25-H ) :   0.9339 B(  7-C , 26-H ) :   0.9452 B(  7-C , 27-H ) :   0.9369
B(  7-C , 28-H ) :   0.9386 B(  8-S ,  9-C ) :   1.0003 B(  9-C , 10-S ) :   0.9956
B(  9-C , 29-H ) :   0.9109 B(  9-C , 30-H ) :   0.8461 B( 10-S , 11-P ) :   0.9462
B( 10-S , 12-S ) :   0.1128 B( 11-P , 12-S ) :   1.6309 B( 11-P , 13-O ) :   1.1452
B( 11-P , 16-O ) :   1.0682 B( 13-O , 14-C ) :   0.8956 B( 14-C , 15-C ) :   1.1580
B( 14-C , 31-H ) :   0.9124 B( 14-C , 32-H ) :   0.9272 B( 15-C , 33-H ) :   0.9467
B( 15-C , 34-H ) :   0.9423 B( 15-C , 35-H ) :   0.9406 B( 16-O , 17-C ) :   0.9118
B( 17-C , 18-C ) :   1.1672 B( 17-C , 36-H ) :   0.9342 B( 17-C , 37-H ) :   0.9176
B( 18-C , 38-H ) :   0.9366 B( 18-C , 39-H ) :   0.9426 B( 18-C , 40-H ) :   0.9371

Dispersion correction           -0.067988190
FINAL SINGLE POINT ENERGY     -2929.516567648183

DIPOLE MOMENT
-------------

Method             : SCF
Type of density    : Electron Density
Multiplicity       :   1
Irrep              :   0
Energy             : -2929.6349748661737067 Eh
Relativity type    :
Basis              : AO
                                X                 Y                 Z
Electronic contribution:      1.704901155       3.787433849     -12.790881788
Nuclear contribution   :     -1.228861432      -4.783272992      14.273722859
                        -----------------------------------------
Total Dipole Moment    :      0.476039723      -0.995839143       1.482841071
                        -----------------------------------------
Magnitude (a.u.)       :      1.848547283
Magnitude (Debye)      :      4.698633788

Rotational constants in cm-1:             0.012266             0.005505             0.005118
Rotational constants in MHz :           367.722774           165.024680           153.422745

                             ****ORCA TERMINATED NORMALLY****
TOTAL RUN TIME: 0 days 0 hours 0 minutes 23 seconds 547 msec
