                         Program Version 6.0.0  -   RELEASE  -
|  1> ! pbe def2-sv(p) def2/J RI DEFGRID1 loosescf d4 GCP(DFT/SV(P)) printgap
|  2> %output
|  3>     printlevel normal
|  4> end
|  5> * xyz 0 1
|  6> C 4.7412974981 0.6211270308 -1.7372240259
|  7> C 4.6041493189 1.1222547939 -0.3145034652
|  8> O 3.6280138558 0.3787306088 0.4369076118
|  9> P 2.0748394657 0.4293725904 0.1061207105
| 10> S 1.3888258122 2.1866902141 -0.4156739838
| 11> O 1.4322456257 -0.1051861995 1.4488739646
| 12> C 2.0387343143 -1.0509663076 2.3624604954
| 13> C 2.2903153983 -2.405310574 1.7335573678
| 14> S 1.8091005398 -1.0845753682 -1.3709855708
| 15> C 0.0376060608 -0.8849395984 -1.6196039911
| 16> S -0.9453517603 -1.7899274301 -0.3561647873
| 17> P -2.2285766753 -0.2503858985 0.2641374802
| 18> S -3.6344292708 -0.7179035177 1.5424826644
| 19> O -2.7451584511 0.4421137842 -1.0805729696
| 20> C -3.9817680973 0.0540402252 -1.7025704786
| 21> C -3.883030199 -1.307261811 -2.3611797062
| 22> O -1.1472457566 0.7928317028 0.7727737634
| 23> C -1.4957259191 1.8887016125 1.6388573438
| 24> C -2.2200708528 2.9878388408 0.8920089529
| 25> H 5.5790555422 1.1218457872 -2.2118457607
| 26> H 4.9088392491 -0.4527731381 -1.7480050896
| 27> H 3.8353206586 0.8403869775 -2.2994642467
| 28> H 4.3164115494 2.1781680618 -0.3047862678
| 29> H 5.5259142903 0.983211019 0.2524480255
| 30> H 2.9673276636 -0.6140939999 2.73481138
| 31> H 1.3075792001 -1.1163053781 3.1704534846
| 32> H 3.0477069822 -2.3297240898 0.9563687224
| 33> H 2.6403879544 -3.0871864971 2.5024708226
| 34> H 1.374397332 -2.80130822 1.299255025
| 35> H -0.1879206085 -1.3196108149 -2.5893240314
| 36> H -0.2190928849 0.1736026098 -1.5791757752
| 37> H -4.7663222021 0.0536944036 -0.9389001327
| 38> H -4.1705300965 0.8439185215 -2.4308754075
| 39> H -3.0734758279 -1.3226347933 -3.0862597776
| 40> H -3.6995828929 -2.072572321 -1.6072900259
| 41> H -4.8185813069 -1.5283375102 -2.8649355533
| 42> H -2.1081035372 1.4980621808 2.458393584
| 43> H -0.5336578737 2.2330179739 2.0228425306
| 44> H -1.6240365227 3.3092052836 0.0407631519
| 45> H -3.1845900431 2.627424712 0.5386884936
| 46> H -2.3769335866 3.8292790724 1.5594089848
| 47> *
| 48>
| 49>                          ****END OF INPUT****

CARTESIAN COORDINATES (ANGSTROEM)
---------------------------------
  C      4.741297    0.621127   -1.737224
  C      4.604149    1.122255   -0.314503
  O      3.628014    0.378731    0.436908
  P      2.074839    0.429373    0.106121
  S      1.388826    2.186690   -0.415674
  O      1.432246   -0.105186    1.448874
  C      2.038734   -1.050966    2.362460
  C      2.290315   -2.405311    1.733557
  S      1.809101   -1.084575   -1.370986
  C      0.037606   -0.884940   -1.619604
  S     -0.945352   -1.789927   -0.356165
  P     -2.228577   -0.250386    0.264137
  S     -3.634429   -0.717904    1.542483
  O     -2.745158    0.442114   -1.080573
  C     -3.981768    0.054040   -1.702570
  C     -3.883030   -1.307262   -2.361180
  O     -1.147246    0.792832    0.772774
  C     -1.495726    1.888702    1.638857
  C     -2.220071    2.987839    0.892009
  H      5.579056    1.121846   -2.211846
  H      4.908839   -0.452773   -1.748005
  H      3.835321    0.840387   -2.299464
  H      4.316412    2.178168   -0.304786
  H      5.525914    0.983211    0.252448
  H      2.967328   -0.614094    2.734811
  H      1.307579   -1.116305    3.170453
  H      3.047707   -2.329724    0.956369
  H      2.640388   -3.087186    2.502471
  H      1.374397   -2.801308    1.299255
  H     -0.187921   -1.319611   -2.589324
  H     -0.219093    0.173603   -1.579176
  H     -4.766322    0.053694   -0.938900
  H     -4.170530    0.843919   -2.430875
  H     -3.073476   -1.322635   -3.086260
  H     -3.699583   -2.072572   -1.607290
  H     -4.818581   -1.528338   -2.864936
  H     -2.108104    1.498062    2.458394
  H     -0.533658    2.233018    2.022843
  H     -1.624037    3.309205    0.040763
  H     -3.184590    2.627425    0.538688
  H     -2.376934    3.829279    1.559409

 Total Charge           Charge          ....    0
 Multiplicity           Mult            ....    1
 Number of Electrons    NEL             ....  202
 Basis Dimension        Dim             ....  334

ORBITAL ENERGIES
----------------

  NO   OCC          E(Eh)            E(eV)
   0   2.0000     -88.046812     -2395.8756
   1   2.0000     -88.039915     -2395.6879
   2   2.0000     -87.986615     -2394.2375
   3   2.0000     -87.984028     -2394.1671
   4   2.0000     -76.430133     -2079.7696
   5   2.0000     -76.420405     -2079.5049
   6   2.0000     -18.802948      -511.6542
   7   2.0000     -18.789853      -511.2979
   8   2.0000     -18.788998      -511.2746
   9   2.0000     -18.777815      -510.9703
  10   2.0000      -9.959305      -271.0065
  11   2.0000      -9.959207      -271.0038
  12   2.0000      -9.954808      -270.8841
  13   2.0000      -9.949953      -270.7520
  14   2.0000      -9.936903      -270.3969
  15   2.0000      -9.889795      -269.1150
  16   2.0000      -9.884282      -268.9650
  17   2.0000      -9.883566      -268.9455
  18   2.0000      -9.871819      -268.6259
  19   2.0000      -7.691828      -209.3053
  20   2.0000      -7.685206      -209.1251
  21   2.0000      -7.631623      -207.6670
  22   2.0000      -7.629207      -207.6013
  23   2.0000      -6.427313      -174.8961
  24   2.0000      -6.418412      -174.6539
  25   2.0000      -5.719679      -155.6404
  26   2.0000      -5.716387      -155.5508
  27   2.0000      -5.713535      -155.4732
  28   2.0000      -5.709506      -155.3636
  29   2.0000      -5.708767      -155.3434
  30   2.0000      -5.701859      -155.1555
  31   2.0000      -5.660615      -154.0332
  32   2.0000      -5.658167      -153.9666
  33   2.0000      -5.652225      -153.8049
  34   2.0000      -5.651689      -153.7903
  35   2.0000      -5.649805      -153.7390
  36   2.0000      -5.649344      -153.7265
  37   2.0000      -4.650491      -126.5463
  38   2.0000      -4.648855      -126.5018
  39   2.0000      -4.647478      -126.4643
  40   2.0000      -4.640676      -126.2792
  41   2.0000      -4.640352      -126.2704
  42   2.0000      -4.638949      -126.2322
  43   2.0000      -0.992284       -27.0014
  44   2.0000      -0.979673       -26.6583
  45   2.0000      -0.946675       -25.7603
  46   2.0000      -0.938037       -25.5253
  47   2.0000      -0.763746       -20.7826
  48   2.0000      -0.721186       -19.6245
  49   2.0000      -0.707254       -19.2453
  50   2.0000      -0.693591       -18.8736
  51   2.0000      -0.683578       -18.6011
  52   2.0000      -0.671531       -18.2733
  53   2.0000      -0.652535       -17.7564
  54   2.0000      -0.636949       -17.3323
  55   2.0000      -0.600968       -16.3532
  56   2.0000      -0.590990       -16.0816
  57   2.0000      -0.580711       -15.8020
  58   2.0000      -0.566445       -15.4138
  59   2.0000      -0.559619       -15.2280
  60   2.0000      -0.499039       -13.5796
  61   2.0000      -0.487912       -13.2768
  62   2.0000      -0.472795       -12.8654
  63   2.0000      -0.467033       -12.7086
  64   2.0000      -0.458114       -12.4659
  65   2.0000      -0.448909       -12.2154
  66   2.0000      -0.443667       -12.0728
  67   2.0000      -0.433753       -11.8030
  68   2.0000      -0.428039       -11.6475
  69   2.0000      -0.418263       -11.3815
  70   2.0000      -0.413844       -11.2613
  71   2.0000      -0.400384       -10.8950
  72   2.0000      -0.392442       -10.6789
  73   2.0000      -0.383766       -10.4428
  74   2.0000      -0.380742       -10.3605
  75   2.0000      -0.373589       -10.1659
  76   2.0000      -0.369360       -10.0508
  77   2.0000      -0.358570        -9.7572
  78   2.0000      -0.350908        -9.5487
  79   2.0000      -0.350731        -9.5439
  80   2.0000      -0.345076        -9.3900
  81   2.0000      -0.343040        -9.3346
  82   2.0000      -0.338698        -9.2164
  83   2.0000      -0.333425        -9.0729
  84   2.0000      -0.326697        -8.8899
  85   2.0000      -0.323633        -8.8065
  86   2.0000      -0.313120        -8.5204
  87   2.0000      -0.300014        -8.1638
  88   2.0000      -0.295977        -8.0539
  89   2.0000      -0.291657        -7.9364
  90   2.0000      -0.277701        -7.5566
  91   2.0000      -0.272061        -7.4032
  92   2.0000      -0.264735        -7.2038
  93   2.0000      -0.262002        -7.1294
  94   2.0000      -0.260040        -7.0760
  95   2.0000      -0.235574        -6.4103
  96   2.0000      -0.216955        -5.9036
  97   2.0000      -0.209748        -5.7075
  98   2.0000      -0.205202        -5.5838
  99   2.0000      -0.199983        -5.4418
 100   2.0000      -0.194643        -5.2965
 101   0.0000      -0.043967        -1.1964
 102   0.0000      -0.026987        -0.7344
 103   0.0000      -0.020463        -0.5568
 104   0.0000       0.001904         0.0518
 105   0.0000       0.020656         0.5621

MULLIKEN ATOMIC CHARGES
-----------------------
   0 C :   -0.324506
   1 C :   -0.001009
   2 O :   -0.384088
   3 P :    0.628837
   4 S :   -0.312696
   5 O :   -0.355949
   6 C :    0.009235
   7 C :   -0.327411
   8 S :   -0.099326
   9 C :   -0.361650
  10 S :   -0.075430
  11 P :    0.606304
  12 S :   -0.328387
  13 O :   -0.381092
  14 C :   -0.007800
  15 C :   -0.313493
  16 O :   -0.359587
  17 C :    0.005415
  18 C :   -0.306345
  19 H :    0.117403
  20 H :    0.118789
  21 H :    0.132456
  22 H :    0.114670
  23 H :    0.106053
  24 H :    0.106006
  25 H :    0.113057
  26 H :    0.118738
  27 H :    0.111594
  28 H :    0.135685
  29 H :    0.187794
  30 H :    0.205819
  31 H :    0.111997
  32 H :    0.105418
  33 H :    0.111549
  34 H :    0.129263
  35 H :    0.112793
  36 H :    0.105270
  37 H :    0.103011
  38 H :    0.122250
  39 H :    0.113281
  40 H :    0.106084
Sum of atomic charges:    0.0000000

LOEWDIN ATOMIC CHARGES
----------------------
   0 C :   -0.372380
   1 C :   -0.117401
   2 O :   -0.245132
   3 P :    0.585175
   4 S :   -0.304772
   5 O :   -0.231285
   6 C :   -0.107140
   7 C :   -0.373169
   8 S :    0.087576
   9 C :   -0.475311
  10 S :    0.082740
  11 P :    0.565398
  12 S :   -0.323005
  13 O :   -0.248433
  14 C :   -0.121801
  15 C :   -0.367263
  16 O :   -0.234472
  17 C :   -0.120703
  18 C :   -0.363321
  19 H :    0.133686
  20 H :    0.123787
  21 H :    0.123169
  22 H :    0.113540
  23 H :    0.119110
  24 H :    0.112884
  25 H :    0.124216
  26 H :    0.115824
  27 H :    0.130670
  28 H :    0.123734
  29 H :    0.135933
  30 H :    0.130170
  31 H :    0.109765
  32 H :    0.118382
  33 H :    0.121447
  34 H :    0.122708
  35 H :    0.131091
  36 H :    0.106257
  37 H :    0.114909
  38 H :    0.126302
  39 H :    0.119277
  40 H :    0.127841

  Mayer bond orders larger than 0.100000
B(  0-C ,  1-C ) :   1.1668 B(  0-C , 19-H ) :   0.9368 B(  0-C , 20-H ) :   0.9441
B(  0-C , 21-H ) :   0.9327 B(  1-C ,  2-O ) :   0.9022 B(  1-C , 22-H ) :   0.9162
B(  1-C , 23-H ) :   0.9335 B(  2-O ,  3-P ) :   1.0786 B(  3-P ,  4-S ) :   1.6292
B(  3-P ,  5-O ) :   1.1388 B(  3-P ,  8-S ) :   0.9384 B(  4-S ,  8-S ) :   0.1064
B(  5-O ,  6-C ) :   0.8971 B(  6-C ,  7-C ) :   1.1717 B(  6-C , 24-H ) :   0.9285
B(  6-C , 25-H ) :   0.9327 B(  7-C , 26-H ) :   0.9397 B(  7-C , 27-H ) :   0.9348
B(  7-C , 28-H ) :   0.9342 B(  8-S ,  9-C ) :   1.0165 B(  9-C , 10-S ) :   0.9581
B(  9-C , 29-H ) :   0.9082 B(  9-C , 30-H ) :   0.8622 B( 10-S , 11-P ) :   0.9876
B( 11-P , 12-S ) :   1.6331 B( 11-P , 13-O ) :   1.0532 B( 11-P , 16-O ) :   1.1301
B( 13-O , 14-C ) :   0.9142 B( 14-C , 15-C ) :   1.1642 B( 14-C , 31-H ) :   0.9120
B( 14-C , 32-H ) :   0.9336 B( 15-C , 33-H ) :   0.9460 B( 15-C , 34-H ) :   0.9352
B( 15-C , 35-H ) :   0.9388 B( 16-O , 17-C ) :   0.9012 B( 17-C , 18-C ) :   1.1684
B( 17-C , 36-H ) :   0.9164 B( 17-C , 37-H ) :   0.9216 B( 18-C , 38-H ) :   0.9445
B( 18-C , 39-H ) :   0.9406 B( 18-C , 40-H ) :   0.9399

Dispersion correction           -0.067578619
FINAL SINGLE POINT ENERGY     -2929.515977084899

DIPOLE MOMENT
-------------

Method             : SCF
Type of density    : Electron Density
Multiplicity       :   1
Irrep              :   0
Energy             : -2929.6363475675739210 Eh
Relativity type    :
Basis              : AO
                                X                 Y                 Z
Electronic contribution:     -3.469612122      -2.877523525       3.599256809
Nuclear contribution   :      4.641702419       2.761969644      -4.159998222
                        -----------------------------------------
Total Dipole Moment    :      1.172090298      -0.115553881      -0.560741413
                        -----------------------------------------
Magnitude (a.u.)       :      1.304445973
Magnitude (Debye)      :      3.315638166

Rotational constants in cm-1:             0.012888             0.005174             0.005013
Rotational constants in MHz :           386.374598           155.121284           150.287395

                             ****ORCA TERMINATED NORMALLY****
TOTAL RUN TIME: 0 days 0 hours 0 minutes 22 seconds 210 msec
