                         Program Version 6.0.0  -   RELEASE  -
|  1> ! pbe def2-sv(p) def2/J RI DEFGRID1 loosescf d4 GCP(DFT/SV(P)) printgap
|  2> %output
|  3>     printlevel normal
|  4> end
|  5> * xyz 0 1
|  6> C 5.5033367049 0.5139175911 -1.9097073955
|  7> C 4.3557468434 1.0693601825 -1.0908230597
|  8> O 3.293770967 0.0928391802 -1.0906458016
|  9> P 2.2111923229 0.0168688565 0.0695056509
| 10> S 2.9527719204 0.1308272231 1.8834783482
| 11> O 1.4394717705 -1.3093161306 -0.2885448667
| 12> C 1.8408242594 -2.6143475728 0.1910379399
| 13> C 0.638759289 -3.2980672844 0.8091201158
| 14> S 0.8053581106 1.4878547642 -0.4585461242
| 15> C -0.0516597496 1.5421784875 1.1389431859
| 16> S -1.0927939503 0.0902791737 1.4693429974
| 17> P -2.1790812057 -0.0216938984 -0.3814294726
| 18> S -1.4200093167 -1.0697063033 -1.8465385464
| 19> O -2.4645505737 1.4772392305 -0.7701085391
| 20> C -3.3254116193 2.3470964061 0.0164494952
| 21> C -3.0182101538 3.7763108676 -0.3797449733
| 22> O -3.6164367445 -0.5233140497 0.0874248161
| 23> C -3.9408339246 -1.9159002293 0.2292346374
| 24> C -3.38345355 -2.4883496218 1.5164305533
| 25> H 5.8807404556 -0.3979391959 -1.4553926284
| 26> H 5.164097612 0.2905390762 -2.917194572
| 27> H 6.2991550908 1.2502329556 -1.9515879179
| 28> H 3.9639589936 1.9923410279 -1.5256906843
| 29> H 4.6565368308 1.2577705812 -0.0545214789
| 30> H 2.2092844179 -3.1599092445 -0.6793428934
| 31> H 2.6478132878 -2.4922241962 0.9211918634
| 32> H -0.1751025347 -3.3201719304 0.0879573474
| 33> H 0.9054191044 -4.3130493135 1.0843305539
| 34> H 0.3159177269 -2.7573654838 1.6963894138
| 35> H -0.654697101 2.4457651345 1.1378645056
| 36> H 0.6867855944 1.5659316015 1.9427751796
| 37> H -4.358732708 2.0813893271 -0.2126686509
| 38> H -3.1407208548 2.165008268 1.0786155096
| 39> H -3.6451234506 4.44822314 0.1976433165
| 40> H -1.9728494911 4.0105514253 -0.194878389
| 41> H -3.2173090825 3.9177980384 -1.4379648007
| 42> H -5.0315421882 -1.936862573 0.2183284044
| 43> H -3.5509512938 -2.4533714107 -0.6418226236
| 44> H -2.2953047173 -2.4493820243 1.5002458099
| 45> H -3.7384287158 -1.916346605 2.3692274005
| 46> H -3.69789104 -3.521944148 1.6172797325
| 47> *
| 48>
| 49>                          ****END OF INPUT****

CARTESIAN COORDINATES (ANGSTROEM)
---------------------------------
  C      5.503337    0.513918   -1.909707
  C      4.355747    1.069360   -1.090823
  O      3.293771    0.092839   -1.090646
  P      2.211192    0.016869    0.069506
  S      2.952772    0.130827    1.883478
  O      1.439472   -1.309316   -0.288545
  C      1.840824   -2.614348    0.191038
  C      0.638759   -3.298067    0.809120
  S      0.805358    1.487855   -0.458546
  C     -0.051660    1.542178    1.138943
  S     -1.092794    0.090279    1.469343
  P     -2.179081   -0.021694   -0.381429
  S     -1.420009   -1.069706   -1.846539
  O     -2.464551    1.477239   -0.770109
  C     -3.325412    2.347096    0.016449
  C     -3.018210    3.776311   -0.379745
  O     -3.616437   -0.523314    0.087425
  C     -3.940834   -1.915900    0.229235
  C     -3.383454   -2.488350    1.516431
  H      5.880740   -0.397939   -1.455393
  H      5.164098    0.290539   -2.917195
  H      6.299155    1.250233   -1.951588
  H      3.963959    1.992341   -1.525691
  H      4.656537    1.257771   -0.054521
  H      2.209284   -3.159909   -0.679343
  H      2.647813   -2.492224    0.921192
  H     -0.175103   -3.320172    0.087957
  H      0.905419   -4.313049    1.084331
  H      0.315918   -2.757365    1.696389
  H     -0.654697    2.445765    1.137865
  H      0.686786    1.565932    1.942775
  H     -4.358733    2.081389   -0.212669
  H     -3.140721    2.165008    1.078616
  H     -3.645123    4.448223    0.197643
  H     -1.972849    4.010551   -0.194878
  H     -3.217309    3.917798   -1.437965
  H     -5.031542   -1.936863    0.218328
  H     -3.550951   -2.453371   -0.641823
  H     -2.295305   -2.449382    1.500246
  H     -3.738429   -1.916347    2.369227
  H     -3.697891   -3.521944    1.617280

 Total Charge           Charge          ....    0
 Multiplicity           Mult            ....    1
 Number of Electrons    NEL             ....  202
 Basis Dimension        Dim             ....  334

ORBITAL ENERGIES
----------------

  NO   OCC          E(Eh)            E(eV)
   0   2.0000     -88.041139     -2395.7212
   1   2.0000     -88.038551     -2395.6508
   2   2.0000     -87.983859     -2394.1625
   3   2.0000     -87.977752     -2393.9963
   4   2.0000     -76.423709     -2079.5949
   5   2.0000     -76.421937     -2079.5466
   6   2.0000     -18.795485      -511.4511
   7   2.0000     -18.790782      -511.3232
   8   2.0000     -18.789332      -511.2837
   9   2.0000     -18.781929      -511.0823
  10   2.0000      -9.961569      -271.0681
  11   2.0000      -9.957741      -270.9639
  12   2.0000      -9.952115      -270.8108
  13   2.0000      -9.949844      -270.7490
  14   2.0000      -9.944442      -270.6020
  15   2.0000      -9.895742      -269.2768
  16   2.0000      -9.887319      -269.0476
  17   2.0000      -9.885646      -269.0021
  18   2.0000      -9.874226      -268.6914
  19   2.0000      -7.686542      -209.1614
  20   2.0000      -7.683105      -209.0679
  21   2.0000      -7.628915      -207.5933
  22   2.0000      -7.623052      -207.4338
  23   2.0000      -6.421022      -174.7249
  24   2.0000      -6.419864      -174.6934
  25   2.0000      -5.714406      -155.4969
  26   2.0000      -5.711101      -155.4070
  27   2.0000      -5.711072      -155.4062
  28   2.0000      -5.707634      -155.3126
  29   2.0000      -5.703362      -155.1964
  30   2.0000      -5.700060      -155.1065
  31   2.0000      -5.657584      -153.9507
  32   2.0000      -5.652110      -153.8017
  33   2.0000      -5.649686      -153.7358
  34   2.0000      -5.649169      -153.7217
  35   2.0000      -5.643897      -153.5782
  36   2.0000      -5.642800      -153.5484
  37   2.0000      -4.644278      -126.3772
  38   2.0000      -4.642750      -126.3356
  39   2.0000      -4.642296      -126.3233
  40   2.0000      -4.641580      -126.3038
  41   2.0000      -4.640908      -126.2855
  42   2.0000      -4.640423      -126.2723
  43   2.0000      -0.989420       -26.9235
  44   2.0000      -0.981248       -26.7011
  45   2.0000      -0.945810       -25.7368
  46   2.0000      -0.939623       -25.5684
  47   2.0000      -0.762412       -20.7463
  48   2.0000      -0.722203       -19.6522
  49   2.0000      -0.711242       -19.3539
  50   2.0000      -0.692520       -18.8444
  51   2.0000      -0.683601       -18.6017
  52   2.0000      -0.670785       -18.2530
  53   2.0000      -0.647016       -17.6062
  54   2.0000      -0.635275       -17.2867
  55   2.0000      -0.593546       -16.1512
  56   2.0000      -0.585411       -15.9298
  57   2.0000      -0.577370       -15.7110
  58   2.0000      -0.566228       -15.4078
  59   2.0000      -0.556416       -15.1408
  60   2.0000      -0.509349       -13.8601
  61   2.0000      -0.503854       -13.7106
  62   2.0000      -0.478064       -13.0088
  63   2.0000      -0.474574       -12.9138
  64   2.0000      -0.465332       -12.6623
  65   2.0000      -0.442443       -12.0395
  66   2.0000      -0.438828       -11.9411
  67   2.0000      -0.432909       -11.7801
  68   2.0000      -0.427524       -11.6335
  69   2.0000      -0.416742       -11.3401
  70   2.0000      -0.404017       -10.9939
  71   2.0000      -0.396671       -10.7940
  72   2.0000      -0.383182       -10.4269
  73   2.0000      -0.380197       -10.3457
  74   2.0000      -0.378865       -10.3094
  75   2.0000      -0.374889       -10.2013
  76   2.0000      -0.364926        -9.9301
  77   2.0000      -0.364645        -9.9225
  78   2.0000      -0.359426        -9.7805
  79   2.0000      -0.352336        -9.5876
  80   2.0000      -0.348166        -9.4741
  81   2.0000      -0.344699        -9.3797
  82   2.0000      -0.340598        -9.2681
  83   2.0000      -0.335407        -9.1269
  84   2.0000      -0.328212        -8.9311
  85   2.0000      -0.320098        -8.7103
  86   2.0000      -0.309079        -8.4105
  87   2.0000      -0.305050        -8.3008
  88   2.0000      -0.296914        -8.0794
  89   2.0000      -0.291493        -7.9319
  90   2.0000      -0.283231        -7.7071
  91   2.0000      -0.273042        -7.4299
  92   2.0000      -0.268650        -7.3103
  93   2.0000      -0.259810        -7.0698
  94   2.0000      -0.257058        -6.9949
  95   2.0000      -0.234899        -6.3919
  96   2.0000      -0.218744        -5.9523
  97   2.0000      -0.205668        -5.5965
  98   2.0000      -0.202481        -5.5098
  99   2.0000      -0.193333        -5.2609
 100   2.0000      -0.185995        -5.0612
 101   0.0000      -0.048070        -1.3081
 102   0.0000      -0.019139        -0.5208
 103   0.0000      -0.016144        -0.4393
 104   0.0000       0.003405         0.0927
 105   0.0000       0.019988         0.5439

MULLIKEN ATOMIC CHARGES
-----------------------
   0 C :   -0.281857
   1 C :   -0.009048
   2 O :   -0.376596
   3 P :    0.624150
   4 S :   -0.349189
   5 O :   -0.344513
   6 C :    0.002071
   7 C :   -0.309836
   8 S :   -0.072719
   9 C :   -0.366101
  10 S :   -0.113829
  11 P :    0.605964
  12 S :   -0.283820
  13 O :   -0.368706
  14 C :   -0.022831
  15 C :   -0.285969
  16 O :   -0.383954
  17 C :   -0.004486
  18 C :   -0.333744
  19 H :    0.117628
  20 H :    0.119126
  21 H :    0.111124
  22 H :    0.101542
  23 H :    0.105368
  24 H :    0.104482
  25 H :    0.101733
  26 H :    0.126898
  27 H :    0.101892
  28 H :    0.131051
  29 H :    0.186401
  30 H :    0.192751
  31 H :    0.114116
  32 H :    0.106670
  33 H :    0.114485
  34 H :    0.121498
  35 H :    0.126426
  36 H :    0.104001
  37 H :    0.108901
  38 H :    0.145882
  39 H :    0.117997
  40 H :    0.115039
Sum of atomic charges:    0.0000000

LOEWDIN ATOMIC CHARGES
----------------------
   0 C :   -0.350737
   1 C :   -0.119683
   2 O :   -0.248471
   3 P :    0.570216
   4 S :   -0.332812
   5 O :   -0.227501
   6 C :   -0.110907
   7 C :   -0.361197
   8 S :    0.096935
   9 C :   -0.481074
  10 S :    0.062058
  11 P :    0.563457
  12 S :   -0.291577
  13 O :   -0.241782
  14 C :   -0.114598
  15 C :   -0.350509
  16 O :   -0.250704
  17 C :   -0.120540
  18 C :   -0.368085
  19 H :    0.127790
  20 H :    0.127908
  21 H :    0.130366
  22 H :    0.110977
  23 H :    0.106982
  24 H :    0.116670
  25 H :    0.105268
  26 H :    0.123715
  27 H :    0.125755
  28 H :    0.123288
  29 H :    0.126000
  30 H :    0.130111
  31 H :    0.119493
  32 H :    0.106068
  33 H :    0.132026
  34 H :    0.123873
  35 H :    0.132998
  36 H :    0.118179
  37 H :    0.108416
  38 H :    0.122901
  39 H :    0.126262
  40 H :    0.132466

  Mayer bond orders larger than 0.100000
B(  0-C ,  1-C ) :   1.1617 B(  0-C , 19-H ) :   0.9512 B(  0-C , 20-H ) :   0.9505
B(  0-C , 21-H ) :   0.9419 B(  1-C ,  2-O ) :   0.9057 B(  1-C , 22-H ) :   0.9311
B(  1-C , 23-H ) :   0.9064 B(  2-O ,  3-P ) :   1.1143 B(  3-P ,  4-S ) :   1.5920
B(  3-P ,  5-O ) :   1.1654 B(  3-P ,  8-S ) :   0.9624 B(  4-S ,  8-S ) :   0.1074
B(  5-O ,  6-C ) :   0.8927 B(  6-C ,  7-C ) :   1.1687 B(  6-C , 24-H ) :   0.9324
B(  6-C , 25-H ) :   0.9058 B(  7-C , 26-H ) :   0.9359 B(  7-C , 27-H ) :   0.9367
B(  7-C , 28-H ) :   0.9385 B(  8-S ,  9-C ) :   1.0206 B(  9-C , 10-S ) :   0.9972
B(  9-C , 29-H ) :   0.8948 B(  9-C , 30-H ) :   0.8712 B( 10-S , 11-P ) :   0.9385
B( 10-S , 12-S ) :   0.1063 B( 11-P , 12-S ) :   1.6925 B( 11-P , 13-O ) :   1.1123
B( 11-P , 16-O ) :   1.0657 B( 13-O , 14-C ) :   0.8875 B( 14-C , 15-C ) :   1.1588
B( 14-C , 31-H ) :   0.9292 B( 14-C , 32-H ) :   0.9137 B( 15-C , 33-H ) :   0.9403
B( 15-C , 34-H ) :   0.9460 B( 15-C , 35-H ) :   0.9458 B( 16-O , 17-C ) :   0.9152
B( 17-C , 18-C ) :   1.1640 B( 17-C , 36-H ) :   0.9327 B( 17-C , 37-H ) :   0.9083
B( 18-C , 38-H ) :   0.9267 B( 18-C , 39-H ) :   0.9446 B( 18-C , 40-H ) :   0.9390

Dispersion correction           -0.065376130
FINAL SINGLE POINT ENERGY     -2929.517571638914

DIPOLE MOMENT
-------------

Method             : SCF
Type of density    : Electron Density
Multiplicity       :   1
Irrep              :   0
Energy             : -2929.6358265392191242 Eh
Relativity type    :
Basis              : AO
                                X                 Y                 Z
Electronic contribution:      1.985982208       3.535789966      -2.502460979
Nuclear contribution   :     -2.663682359      -3.107496274       2.826693222
                        -----------------------------------------
Total Dipole Moment    :     -0.677700151       0.428293692       0.324232243
                        -----------------------------------------
Magnitude (a.u.)       :      0.864777155
Magnitude (Debye)      :      2.198088843

Rotational constants in cm-1:             0.011746             0.005321             0.004586
Rotational constants in MHz :           352.138022           159.508899           137.499282

                             ****ORCA TERMINATED NORMALLY****
TOTAL RUN TIME: 0 days 0 hours 0 minutes 18 seconds 150 msec
