                         Program Version 6.0.1  -  RELEASE   -
|  1> ! pbe def2-sv(p) def2/J RI DEFGRID1 loosescf d4 GCP(DFT/SV(P)) printgap
|  2> %output
|  3>     printlevel normal
|  4> end
|  5> * xyz 0 1
|  6> C 3.3669209136 -3.7747537996 -0.6260602014
|  7> C 4.0757415793 -2.4469538516 -0.8399771206
|  8> O 3.2383251372 -1.5403817435 -1.584697378
|  9> C 2.3979842272 -0.7737233042 -0.9299539297
| 10> O 2.2900554345 -0.7332098859 0.2795925145
| 11> C 1.5770516711 0.0947017046 -1.8602867592
| 12> C 0.3287076506 0.5658125684 -1.1301541047
| 13> H -0.2051595102 1.3280836679 -1.7054541665
| 14> C 0.6598609202 1.1524285389 0.2308990857
| 15> O 0.0277910311 0.8682568255 1.2302917971
| 16> O 1.5955709095 2.0611197935 0.1561411548
| 17> C 1.991279519 2.739813775 1.3670791159
| 18> C 3.1680693667 2.0293778106 2.0144965323
| 19> S -0.8158155687 -0.8299753122 -0.8554745907
| 20> P -2.2809453771 0.1678675568 0.3091476895
| 21> S -2.5093710948 2.0895972842 0.0125773
| 22> O -3.5830899284 -0.6616196004 -0.1577798553
| 23> C -4.1180685301 -0.5326044432 -1.4771772893
| 24> O -2.2794389752 -0.2844205269 1.8241554235
| 25> C -1.8949040781 -1.6067597547 2.2390548395
| 26> H 3.0788164557 -4.2031883515 -1.581744798
| 27> H 4.0329657674 -4.4594078574 -0.1115235109
| 28> H 2.4739816172 -3.628872152 -0.0219954219
| 29> H 4.966724049 -2.5655952751 -1.4564421106
| 30> H 4.3311727955 -1.9837256688 0.1170970978
| 31> H 1.3213911176 -0.4670705619 -2.7575799102
| 32> H 2.1802231786 0.9605039461 -2.1416383716
| 33> H 2.2567659346 3.7458484295 1.0408558978
| 34> H 1.1308013144 2.773372285 2.041289946
| 35> H 4.0264005043 2.0403827014 1.3488423613
| 36> H 3.4241467615 2.5298456651 2.9422709247
| 37> H 2.9021135677 0.995722976 2.2261522135
| 38> H -4.2199972769 0.5228267442 -1.7361110314
| 39> H -5.0930459956 -1.0119384187 -1.4462807059
| 40> H -3.4644131055 -1.0311905631 -2.1928993906
| 41> H -2.184972581 -1.6710904517 3.2845237424
| 42> H -0.8147206922 -1.7157660009 2.135416055
| 43> H -2.4137594811 -2.357226533 1.644055167
| 44> *
| 45>
| 46>                          ****END OF INPUT****

CARTESIAN COORDINATES (ANGSTROEM)
---------------------------------
  C      3.366921   -3.774754   -0.626060
  C      4.075742   -2.446954   -0.839977
  O      3.238325   -1.540382   -1.584697
  C      2.397984   -0.773723   -0.929954
  O      2.290055   -0.733210    0.279593
  C      1.577052    0.094702   -1.860287
  C      0.328708    0.565813   -1.130154
  H     -0.205160    1.328084   -1.705454
  C      0.659861    1.152429    0.230899
  O      0.027791    0.868257    1.230292
  O      1.595571    2.061120    0.156141
  C      1.991280    2.739814    1.367079
  C      3.168069    2.029378    2.014497
  S     -0.815816   -0.829975   -0.855475
  P     -2.280945    0.167868    0.309148
  S     -2.509371    2.089597    0.012577
  O     -3.583090   -0.661620   -0.157780
  C     -4.118069   -0.532604   -1.477177
  O     -2.279439   -0.284421    1.824155
  C     -1.894904   -1.606760    2.239055
  H      3.078816   -4.203188   -1.581745
  H      4.032966   -4.459408   -0.111524
  H      2.473982   -3.628872   -0.021995
  H      4.966724   -2.565595   -1.456442
  H      4.331173   -1.983726    0.117097
  H      1.321391   -0.467071   -2.757580
  H      2.180223    0.960504   -2.141638
  H      2.256766    3.745848    1.040856
  H      1.130801    2.773372    2.041290
  H      4.026401    2.040383    1.348842
  H      3.424147    2.529846    2.942271
  H      2.902114    0.995723    2.226152
  H     -4.219997    0.522827   -1.736111
  H     -5.093046   -1.011938   -1.446281
  H     -3.464413   -1.031191   -2.192899
  H     -2.184973   -1.671090    3.284524
  H     -0.814721   -1.715766    2.135416
  H     -2.413759   -2.357227    1.644055

 Total Charge           Charge          ....    0
 Multiplicity           Mult            ....    1
 Number of Electrons    NEL             ....  174
 Basis Dimension        Dim             ....  316

ORBITAL ENERGIES
----------------

  NO   OCC          E(Eh)            E(eV)
   0   2.0000     -88.032707     -2395.4918
   1   2.0000     -87.964702     -2393.6412
   2   2.0000     -76.413257     -2079.3104
   3   2.0000     -18.818221      -512.0698
   4   2.0000     -18.806143      -511.7412
   5   2.0000     -18.774460      -510.8790
   6   2.0000     -18.771507      -510.7987
   7   2.0000     -18.756673      -510.3950
   8   2.0000     -18.735092      -509.8078
   9   2.0000     -10.025890      -272.8183
  10   2.0000     -10.013754      -272.4881
  11   2.0000      -9.960078      -271.0275
  12   2.0000      -9.945360      -270.6270
  13   2.0000      -9.944640      -270.6074
  14   2.0000      -9.935684      -270.3637
  15   2.0000      -9.928771      -270.1756
  16   2.0000      -9.923652      -270.0363
  17   2.0000      -9.896723      -269.3035
  18   2.0000      -9.882574      -268.9185
  19   2.0000      -7.677464      -208.9144
  20   2.0000      -7.610141      -207.0825
  21   2.0000      -6.409018      -174.3982
  22   2.0000      -5.705256      -155.2479
  23   2.0000      -5.702136      -155.1630
  24   2.0000      -5.694423      -154.9531
  25   2.0000      -5.639402      -153.4559
  26   2.0000      -5.630834      -153.2228
  27   2.0000      -5.629805      -153.1948
  28   2.0000      -4.631651      -126.0336
  29   2.0000      -4.631239      -126.0224
  30   2.0000      -4.629372      -125.9716
  31   2.0000      -1.027583       -27.9620
  32   2.0000      -1.013942       -27.5908
  33   2.0000      -0.968056       -26.3421
  34   2.0000      -0.933345       -25.3976
  35   2.0000      -0.923398       -25.1269
  36   2.0000      -0.915972       -24.9249
  37   2.0000      -0.765959       -20.8428
  38   2.0000      -0.720877       -19.6161
  39   2.0000      -0.703140       -19.1334
  40   2.0000      -0.686889       -18.6912
  41   2.0000      -0.657984       -17.9047
  42   2.0000      -0.623695       -16.9716
  43   2.0000      -0.617551       -16.8044
  44   2.0000      -0.605435       -16.4747
  45   2.0000      -0.600541       -16.3415
  46   2.0000      -0.563839       -15.3428
  47   2.0000      -0.512408       -13.9433
  48   2.0000      -0.503770       -13.7083
  49   2.0000      -0.494408       -13.4535
  50   2.0000      -0.487543       -13.2667
  51   2.0000      -0.465686       -12.6720
  52   2.0000      -0.457835       -12.4583
  53   2.0000      -0.448966       -12.2170
  54   2.0000      -0.440165       -11.9775
  55   2.0000      -0.430690       -11.7197
  56   2.0000      -0.422940       -11.5088
  57   2.0000      -0.419690       -11.4203
  58   2.0000      -0.412688       -11.2298
  59   2.0000      -0.401895       -10.9361
  60   2.0000      -0.399041       -10.8585
  61   2.0000      -0.396450       -10.7880
  62   2.0000      -0.387516       -10.5448
  63   2.0000      -0.382687       -10.4134
  64   2.0000      -0.379666       -10.3312
  65   2.0000      -0.372143       -10.1265
  66   2.0000      -0.364729        -9.9248
  67   2.0000      -0.356221        -9.6933
  68   2.0000      -0.349986        -9.5236
  69   2.0000      -0.336130        -9.1466
  70   2.0000      -0.334340        -9.0979
  71   2.0000      -0.329977        -8.9791
  72   2.0000      -0.326252        -8.8778
  73   2.0000      -0.309263        -8.4155
  74   2.0000      -0.304761        -8.2930
  75   2.0000      -0.294980        -8.0268
  76   2.0000      -0.283727        -7.7206
  77   2.0000      -0.281402        -7.6573
  78   2.0000      -0.276525        -7.5246
  79   2.0000      -0.261981        -7.1289
  80   2.0000      -0.255245        -6.9456
  81   2.0000      -0.243974        -6.6389
  82   2.0000      -0.241075        -6.5600
  83   2.0000      -0.226479        -6.1628
  84   2.0000      -0.214196        -5.8286
  85   2.0000      -0.187455        -5.1009
  86   2.0000      -0.178963        -4.8698
  87   0.0000      -0.042796        -1.1646
  88   0.0000      -0.028381        -0.7723
  89   0.0000      -0.018138        -0.4936
  90   0.0000       0.011581         0.3151
  91   0.0000       0.032098         0.8734

MULLIKEN ATOMIC CHARGES
-----------------------
   0 C :   -0.304572
   1 C :   -0.016868
   2 O :   -0.220522
   3 C :    0.117919
   4 O :   -0.194577
   5 C :   -0.096532
   6 C :   -0.285159
   7 H :    0.147459
   8 C :    0.233257
   9 O :   -0.194065
  10 O :   -0.235236
  11 C :   -0.015008
  12 C :   -0.303581
  13 S :   -0.108344
  14 P :    0.616156
  15 S :   -0.338581
  16 O :   -0.391578
  17 C :   -0.096672
  18 O :   -0.352470
  19 C :   -0.098472
  20 H :    0.118041
  21 H :    0.117292
  22 H :    0.130179
  23 H :    0.108129
  24 H :    0.112437
  25 H :    0.128114
  26 H :    0.141710
  27 H :    0.103283
  28 H :    0.122337
  29 H :    0.104575
  30 H :    0.111104
  31 H :    0.140027
  32 H :    0.111601
  33 H :    0.118078
  34 H :    0.104271
  35 H :    0.125962
  36 H :    0.129508
  37 H :    0.110798
Sum of atomic charges:    0.0000000

LOEWDIN ATOMIC CHARGES
----------------------
   0 C :   -0.354496
   1 C :   -0.109556
   2 O :   -0.050135
   3 C :    0.037785
   4 O :   -0.147606
   5 C :   -0.251400
   6 C :   -0.263306
   7 H :    0.143823
   8 C :    0.014706
   9 O :   -0.161501
  10 O :   -0.048400
  11 C :   -0.105331
  12 C :   -0.356498
  13 S :    0.087713
  14 P :    0.590654
  15 S :   -0.333029
  16 O :   -0.271121
  17 C :   -0.221826
  18 O :   -0.231784
  19 C :   -0.207808
  20 H :    0.126911
  21 H :    0.132773
  22 H :    0.132236
  23 H :    0.120369
  24 H :    0.121219
  25 H :    0.142726
  26 H :    0.156880
  27 H :    0.117673
  28 H :    0.126404
  29 H :    0.120730
  30 H :    0.129492
  31 H :    0.135015
  32 H :    0.107357
  33 H :    0.118581
  34 H :    0.101983
  35 H :    0.124082
  36 H :    0.116446
  37 H :    0.108240

  Mayer bond orders larger than 0.100000
B(  0-C ,  1-C ) :   1.1753 B(  0-C , 20-H ) :   0.9486 B(  0-C , 21-H ) :   0.9436
B(  0-C , 22-H ) :   0.9459 B(  1-C ,  2-O ) :   0.9067 B(  1-C , 23-H ) :   0.9364
B(  1-C , 24-H ) :   0.9138 B(  2-O ,  3-C ) :   1.2592 B(  3-C ,  4-O ) :   1.9733
B(  3-C ,  5-C ) :   0.9909 B(  5-C ,  6-C ) :   1.0587 B(  5-C , 25-H ) :   0.9021
B(  5-C , 26-H ) :   0.8736 B(  6-C ,  7-H ) :   0.8545 B(  6-C ,  8-C ) :   0.8753
B(  6-C , 13-S ) :   1.0350 B(  8-C ,  9-O ) :   1.9685 B(  8-C , 10-O ) :   1.2497
B(  9-O , 14-P ) :   0.1048 B( 10-O , 11-C ) :   0.9077 B( 11-C , 12-C ) :   1.1761
B( 11-C , 27-H ) :   0.9376 B( 11-C , 28-H ) :   0.9120 B( 12-C , 29-H ) :   0.9500
B( 12-C , 30-H ) :   0.9432 B( 12-C , 31-H ) :   0.9395 B( 13-S , 14-P ) :   0.9358
B( 13-S , 15-S ) :   0.1097 B( 14-P , 15-S ) :   1.6137 B( 14-P , 16-O ) :   1.0515
B( 14-P , 18-O ) :   1.1324 B( 16-O , 17-C ) :   0.9442 B( 17-C , 32-H ) :   0.9323
B( 17-C , 33-H ) :   0.9591 B( 17-C , 34-H ) :   0.9454 B( 18-O , 19-C ) :   0.9239
B( 19-C , 35-H ) :   0.9595 B( 19-C , 36-H ) :   0.9432 B( 19-C , 37-H ) :   0.9452

Dispersion correction           -0.052026054
FINAL SINGLE POINT ENERGY     -1979.014661102393

DIPOLE MOMENT
-------------

Method             : SCF
Type of density    : Electron Density
Multiplicity       :   1
Irrep              :   0
Energy             : -1979.1455989250193852 Eh
Relativity type    :
Basis              : AO
                                X                 Y                 Z
Electronic contribution:    -16.871415974       8.518928091      -2.015569673
Nuclear contribution   :     18.786639753      -9.758680595       1.302184361
                        -----------------------------------------
Total Dipole Moment    :      1.915223779      -1.239752504      -0.713385312
                        -----------------------------------------
Magnitude (a.u.)       :      2.390394737
Magnitude (Debye)      :      6.075900561

Rotational constants in cm-1:             0.013575             0.006900             0.005696
Rotational constants in MHz :           406.963265           206.857974           170.751646

                             ****ORCA TERMINATED NORMALLY****
TOTAL RUN TIME: 0 days 0 hours 0 minutes 35 seconds 288 msec
