                         Program Version 6.0.0  -   RELEASE  -
|  1> ! pbe def2-sv(p) def2/J RI DEFGRID1 loosescf d4 GCP(DFT/SV(P)) printgap
|  2> %output
|  3>     printlevel normal
|  4> end
|  5> * xyz 0 1
|  6> C 3.4173542578 -1.9577852155 -2.3829102615
|  7> C 4.0325325946 -0.6889086374 -1.8272862108
|  8> O 3.6284228204 -0.4342192659 -0.4729917754
|  9> P 2.1392309434 -0.0340221032 -0.0633807847
| 10> S 1.2874102434 1.1749818395 -1.3565727591
| 11> O 2.3881729711 0.4610594645 1.4148900145
| 12> C 2.6418652835 1.8374010659 1.7524893301
| 13> C 3.9430133586 2.3409861168 1.1641453235
| 14> S 1.1746088195 -1.8659692232 0.3451223649
| 15> C -0.1695463189 -1.7941113364 -0.8919604729
| 16> S -1.8374559547 -1.768665753 -0.1860356456
| 17> P -1.9902379187 0.2704808989 0.4053021757
| 18> S -0.7338158649 0.9066354798 1.7665931692
| 19> O -3.5156952533 0.3408366811 0.8442669531
| 20> C -3.9770431759 -0.2775568663 2.0627378099
| 21> C -5.3110125483 0.3434268213 2.4239224618
| 22> O -1.964003522 1.1673119391 -0.8825004944
| 23> C -2.9079829852 1.0779570139 -1.9839061461
| 24> C -2.3174190096 0.2928901231 -3.1382775651
| 25> H 3.5894109712 -2.7888005228 -1.7036174031
| 26> H 2.3446220763 -1.8237171597 -2.5132719955
| 27> H 3.8643264279 -2.1799191708 -3.3465710599
| 28> H 3.7512464789 0.1744411839 -2.4392118013
| 29> H 5.1191251226 -0.7622712169 -1.7651568469
| 30> H 1.7924934078 2.4379920775 1.4096494201
| 31> H 2.6585511028 1.8342923985 2.8433450656
| 32> H 4.7609277298 1.6853579498 1.4515563626
| 33> H 3.8748605516 2.3656875038 0.0768650245
| 34> H 4.1352404743 3.3452003787 1.5287288326
| 35> H -0.1230560391 -2.7062749976 -1.4806967677
| 36> H -0.0249528244 -0.9023820679 -1.5087224878
| 37> H -4.0696547064 -1.3517768959 1.8826548235
| 38> H -3.2294735082 -0.1070425823 2.8446347122
| 39> H -5.1940533859 1.4120588497 2.5813461581
| 40> H -6.0260241966 0.1808829526 1.6229143716
| 41> H -5.6805732958 -0.1148630821 3.3352460783
| 42> H -3.8353469395 0.6321790355 -1.6217504957
| 43> H -3.0793243397 2.1188567731 -2.2621670937
| 44> H -2.2535565817 -0.7649354755 -2.8961674392
| 45> H -2.952877768 0.4171751704 -4.009323087
| 46> H -1.3231586855 0.6703776657 -3.3672010926
| 47> *
| 48>
| 49>                          ****END OF INPUT****

CARTESIAN COORDINATES (ANGSTROEM)
---------------------------------
  C      3.417354   -1.957785   -2.382910
  C      4.032533   -0.688909   -1.827286
  O      3.628423   -0.434219   -0.472992
  P      2.139231   -0.034022   -0.063381
  S      1.287410    1.174982   -1.356573
  O      2.388173    0.461059    1.414890
  C      2.641865    1.837401    1.752489
  C      3.943013    2.340986    1.164145
  S      1.174609   -1.865969    0.345122
  C     -0.169546   -1.794111   -0.891960
  S     -1.837456   -1.768666   -0.186036
  P     -1.990238    0.270481    0.405302
  S     -0.733816    0.906635    1.766593
  O     -3.515695    0.340837    0.844267
  C     -3.977043   -0.277557    2.062738
  C     -5.311013    0.343427    2.423922
  O     -1.964004    1.167312   -0.882500
  C     -2.907983    1.077957   -1.983906
  C     -2.317419    0.292890   -3.138278
  H      3.589411   -2.788801   -1.703617
  H      2.344622   -1.823717   -2.513272
  H      3.864326   -2.179919   -3.346571
  H      3.751246    0.174441   -2.439212
  H      5.119125   -0.762271   -1.765157
  H      1.792493    2.437992    1.409649
  H      2.658551    1.834292    2.843345
  H      4.760928    1.685358    1.451556
  H      3.874861    2.365688    0.076865
  H      4.135240    3.345200    1.528729
  H     -0.123056   -2.706275   -1.480697
  H     -0.024953   -0.902382   -1.508722
  H     -4.069655   -1.351777    1.882655
  H     -3.229474   -0.107043    2.844635
  H     -5.194053    1.412059    2.581346
  H     -6.026024    0.180883    1.622914
  H     -5.680573   -0.114863    3.335246
  H     -3.835347    0.632179   -1.621750
  H     -3.079324    2.118857   -2.262167
  H     -2.253557   -0.764935   -2.896167
  H     -2.952878    0.417175   -4.009323
  H     -1.323159    0.670378   -3.367201

 Total Charge           Charge          ....    0
 Multiplicity           Mult            ....    1
 Number of Electrons    NEL             ....  202
 Basis Dimension        Dim             ....  334

ORBITAL ENERGIES
----------------

  NO   OCC          E(Eh)            E(eV)
   0   2.0000     -88.040283     -2395.6979
   1   2.0000     -88.035526     -2395.5685
   2   2.0000     -87.985250     -2394.2004
   3   2.0000     -87.973729     -2393.8869
   4   2.0000     -76.420401     -2079.5048
   5   2.0000     -76.420199     -2079.4993
   6   2.0000     -18.789575      -511.2903
   7   2.0000     -18.787923      -511.2454
   8   2.0000     -18.780533      -511.0443
   9   2.0000     -18.780364      -511.0397
  10   2.0000      -9.955956      -270.9153
  11   2.0000      -9.954837      -270.8849
  12   2.0000      -9.951941      -270.8061
  13   2.0000      -9.947662      -270.6897
  14   2.0000      -9.942454      -270.5479
  15   2.0000      -9.887781      -269.0602
  16   2.0000      -9.885321      -268.9933
  17   2.0000      -9.883937      -268.9556
  18   2.0000      -9.876360      -268.7494
  19   2.0000      -7.685495      -209.1329
  20   2.0000      -7.680909      -209.0082
  21   2.0000      -7.630060      -207.6245
  22   2.0000      -7.618756      -207.3169
  23   2.0000      -6.417756      -174.6360
  24   2.0000      -6.417744      -174.6357
  25   2.0000      -5.713119      -155.4619
  26   2.0000      -5.709970      -155.3762
  27   2.0000      -5.708778      -155.3437
  28   2.0000      -5.705658      -155.2589
  29   2.0000      -5.702746      -155.1796
  30   2.0000      -5.697568      -155.0387
  31   2.0000      -5.658740      -153.9821
  32   2.0000      -5.651221      -153.7775
  33   2.0000      -5.649893      -153.7414
  34   2.0000      -5.647846      -153.6857
  35   2.0000      -5.639378      -153.4553
  36   2.0000      -5.638729      -153.4376
  37   2.0000      -4.640786      -126.2822
  38   2.0000      -4.639904      -126.2582
  39   2.0000      -4.639634      -126.2509
  40   2.0000      -4.639411      -126.2448
  41   2.0000      -4.638708      -126.2257
  42   2.0000      -4.637660      -126.1972
  43   2.0000      -0.985419       -26.8146
  44   2.0000      -0.978041       -26.6138
  45   2.0000      -0.942184       -25.6381
  46   2.0000      -0.935529       -25.4570
  47   2.0000      -0.757640       -20.6164
  48   2.0000      -0.718243       -19.5444
  49   2.0000      -0.707382       -19.2489
  50   2.0000      -0.690702       -18.7949
  51   2.0000      -0.682230       -18.5644
  52   2.0000      -0.671103       -18.2616
  53   2.0000      -0.647000       -17.6058
  54   2.0000      -0.630428       -17.1548
  55   2.0000      -0.597785       -16.2666
  56   2.0000      -0.581758       -15.8304
  57   2.0000      -0.572685       -15.5836
  58   2.0000      -0.567165       -15.4333
  59   2.0000      -0.560131       -15.2419
  60   2.0000      -0.506607       -13.7855
  61   2.0000      -0.485815       -13.2197
  62   2.0000      -0.476393       -12.9633
  63   2.0000      -0.464848       -12.6492
  64   2.0000      -0.452756       -12.3201
  65   2.0000      -0.442439       -12.0394
  66   2.0000      -0.436794       -11.8858
  67   2.0000      -0.433760       -11.8032
  68   2.0000      -0.433206       -11.7881
  69   2.0000      -0.415260       -11.2998
  70   2.0000      -0.405650       -11.0383
  71   2.0000      -0.387828       -10.5533
  72   2.0000      -0.386561       -10.5189
  73   2.0000      -0.382457       -10.4072
  74   2.0000      -0.380936       -10.3658
  75   2.0000      -0.377635       -10.2760
  76   2.0000      -0.364157        -9.9092
  77   2.0000      -0.352353        -9.5880
  78   2.0000      -0.350198        -9.5294
  79   2.0000      -0.348978        -9.4962
  80   2.0000      -0.344656        -9.3786
  81   2.0000      -0.342972        -9.3328
  82   2.0000      -0.338866        -9.2210
  83   2.0000      -0.332416        -9.0455
  84   2.0000      -0.330881        -9.0037
  85   2.0000      -0.315888        -8.5958
  86   2.0000      -0.307096        -8.3565
  87   2.0000      -0.300806        -8.1853
  88   2.0000      -0.293124        -7.9763
  89   2.0000      -0.289480        -7.8771
  90   2.0000      -0.277437        -7.5494
  91   2.0000      -0.270026        -7.3478
  92   2.0000      -0.265144        -7.2149
  93   2.0000      -0.259004        -7.0479
  94   2.0000      -0.254614        -6.9284
  95   2.0000      -0.234673        -6.3858
  96   2.0000      -0.216589        -5.8937
  97   2.0000      -0.207203        -5.6383
  98   2.0000      -0.201728        -5.4893
  99   2.0000      -0.184469        -5.0197
 100   2.0000      -0.183176        -4.9845
 101   0.0000      -0.036739        -0.9997
 102   0.0000      -0.028612        -0.7786
 103   0.0000      -0.010842        -0.2950
 104   0.0000       0.006513         0.1772
 105   0.0000       0.025568         0.6957

MULLIKEN ATOMIC CHARGES
-----------------------
   0 C :   -0.317823
   1 C :    0.001720
   2 O :   -0.371526
   3 P :    0.615584
   4 S :   -0.322551
   5 O :   -0.362660
   6 C :   -0.002037
   7 C :   -0.305377
   8 S :   -0.059380
   9 C :   -0.389619
  10 S :   -0.114702
  11 P :    0.604770
  12 S :   -0.304218
  13 O :   -0.386691
  14 C :   -0.012994
  15 C :   -0.280866
  16 O :   -0.346951
  17 C :   -0.008765
  18 C :   -0.307054
  19 H :    0.121140
  20 H :    0.118756
  21 H :    0.110458
  22 H :    0.104954
  23 H :    0.103164
  24 H :    0.122625
  25 H :    0.105318
  26 H :    0.115141
  27 H :    0.122187
  28 H :    0.109630
  29 H :    0.183804
  30 H :    0.210455
  31 H :    0.104629
  32 H :    0.107546
  33 H :    0.122711
  34 H :    0.113227
  35 H :    0.112527
  36 H :    0.106929
  37 H :    0.111860
  38 H :    0.119215
  39 H :    0.110420
  40 H :    0.134444
Sum of atomic charges:    0.0000000

LOEWDIN ATOMIC CHARGES
----------------------
   0 C :   -0.368551
   1 C :   -0.120117
   2 O :   -0.249528
   3 P :    0.574933
   4 S :   -0.304363
   5 O :   -0.232047
   6 C :   -0.114620
   7 C :   -0.366253
   8 S :    0.092599
   9 C :   -0.485111
  10 S :    0.058669
  11 P :    0.560811
  12 S :   -0.303078
  13 O :   -0.252391
  14 C :   -0.120400
  15 C :   -0.350572
  16 O :   -0.226931
  17 C :   -0.108284
  18 C :   -0.366074
  19 H :    0.126017
  20 H :    0.117830
  21 H :    0.129370
  22 H :    0.106641
  23 H :    0.117953
  24 H :    0.112883
  25 H :    0.120133
  26 H :    0.125596
  27 H :    0.121404
  28 H :    0.129443
  29 H :    0.135195
  30 H :    0.119923
  31 H :    0.108941
  32 H :    0.110205
  33 H :    0.130138
  34 H :    0.125130
  35 H :    0.131228
  36 H :    0.110948
  37 H :    0.123395
  38 H :    0.118165
  39 H :    0.129877
  40 H :    0.130894

  Mayer bond orders larger than 0.100000
B(  0-C ,  1-C ) :   1.1637 B(  0-C , 19-H ) :   0.9426 B(  0-C , 20-H ) :   0.9386
B(  0-C , 21-H ) :   0.9379 B(  1-C ,  2-O ) :   0.9255 B(  1-C , 22-H ) :   0.9136
B(  1-C , 23-H ) :   0.9341 B(  2-O ,  3-P ) :   1.0862 B(  3-P ,  4-S ) :   1.5743
B(  3-P ,  5-O ) :   1.1485 B(  3-P ,  8-S ) :   0.9586 B(  4-S ,  8-S ) :   0.1161
B(  4-S , 30-H ) :   0.1038 B(  5-O ,  6-C ) :   0.9016 B(  6-C ,  7-C ) :   1.1626
B(  6-C , 24-H ) :   0.9167 B(  6-C , 25-H ) :   0.9360 B(  7-C , 26-H ) :   0.9449
B(  7-C , 27-H ) :   0.9362 B(  7-C , 28-H ) :   0.9385 B(  8-S ,  9-C ) :   1.0124
B(  9-C , 10-S ) :   0.9907 B(  9-C , 29-H ) :   0.9088 B(  9-C , 30-H ) :   0.8387
B( 10-S , 11-P ) :   0.9457 B( 10-S , 12-S ) :   0.1126 B( 11-P , 12-S ) :   1.6732
B( 11-P , 13-O ) :   1.0763 B( 11-P , 16-O ) :   1.1449 B( 13-O , 14-C ) :   0.9050
B( 14-C , 15-C ) :   1.1613 B( 14-C , 31-H ) :   0.9297 B( 14-C , 32-H ) :   0.9067
B( 15-C , 33-H ) :   0.9506 B( 15-C , 34-H ) :   0.9514 B( 15-C , 35-H ) :   0.9417
B( 16-O , 17-C ) :   0.8950 B( 17-C , 18-C ) :   1.1712 B( 17-C , 36-H ) :   0.9189
B( 17-C , 37-H ) :   0.9349 B( 18-C , 38-H ) :   0.9326 B( 18-C , 39-H ) :   0.9381
B( 18-C , 40-H ) :   0.9364

Dispersion correction           -0.067011626
FINAL SINGLE POINT ENERGY     -2929.515242476823

DIPOLE MOMENT
-------------

Method             : SCF
Type of density    : Electron Density
Multiplicity       :   1
Irrep              :   0
Energy             : -2929.6327693485991404 Eh
Relativity type    :
Basis              : AO
                                X                 Y                 Z
Electronic contribution:      1.417488173      -3.783608469       8.243121386
Nuclear contribution   :     -1.905709156       3.395682582      -9.068231089
                        -----------------------------------------
Total Dipole Moment    :     -0.488220983      -0.387925888      -0.825109704
                        -----------------------------------------
Magnitude (a.u.)       :      1.034239936
Magnitude (Debye)      :      2.628829001

Rotational constants in cm-1:             0.012451             0.005256             0.004741
Rotational constants in MHz :           373.265364           157.571178           142.137179

                             ****ORCA TERMINATED NORMALLY****
TOTAL RUN TIME: 0 days 0 hours 0 minutes 21 seconds 154 msec
