                         Program Version 6.0.0  -   RELEASE  -
|  1> ! pbe def2-sv(p) def2/J RI DEFGRID1 loosescf d4 GCP(DFT/SV(P)) printgap
|  2> %output
|  3>     printlevel normal
|  4> end
|  5> * xyz 0 1
|  6> C 4.8366720911 -0.5313724335 -1.8658777614
|  7> C 4.1824242047 -1.7581849979 -1.2644366699
|  8> O 3.4540905353 -1.47138031 -0.0572526829
|  9> P 2.3585515882 -0.3362686986 0.1210937895
| 10> S 2.9896647683 1.5099347322 0.3639930536
| 11> O 1.542202362 -0.9124252823 1.350834624
| 12> C 1.730881494 -0.4288954089 2.6937956052
| 13> C 3.0438381078 -0.9180502153 3.2677564598
| 14> S 1.0209958899 -0.6702321706 -1.4834867907
| 15> C 0.128372928 0.8998517794 -1.3152905732
| 16> S -0.7956558053 1.0432139917 0.231996133
| 17> P -2.742939339 0.4577015813 -0.4445989657
| 18> S -2.9017446517 -0.0499089815 -2.3268403574
| 19> O -3.6597529189 1.6961753607 -0.1116965191
| 20> C -3.5495136178 2.5807863531 1.028497555
| 21> C -3.5430228394 1.8388839838 2.3469860316
| 22> O -3.2615667543 -0.6354666216 0.5903538992
| 23> C -3.0986673979 -2.0474685916 0.3879833338
| 24> C -1.6481606551 -2.4775779841 0.4674966451
| 25> H 5.4663198161 -0.0364848665 -1.1300686687
| 26> H 5.4424014909 -0.8262174197 -2.7167684593
| 27> H 4.0772548837 0.1745018179 -2.2003281951
| 28> H 4.9262711091 -2.4912952709 -0.9470396822
| 29> H 3.4911413229 -2.2167171296 -1.9772693432
| 30> H 1.6934289513 0.6654075031 2.6814554349
| 31> H 0.8745804683 -0.8208760845 3.2436732405
| 32> H 3.0907770156 -2.0028466245 3.2266382199
| 33> H 3.8694081786 -0.5098612507 2.6853839925
| 34> H 3.137264763 -0.5871849881 4.2972101888
| 35> H -0.5629774115 0.9530460292 -2.1575902012
| 36> H 0.8487884723 1.7170737609 -1.3290759968
| 37> H -2.6386623076 3.1739788925 0.9121169609
| 38> H -4.4252756847 3.2237499346 0.9291155496
| 39> H -3.5452351678 2.5585508443 3.159800804
| 40> H -4.4193597625 1.2010988447 2.4256040346
| 41> H -2.648898435 1.2223308892 2.4225691845
| 42> H -3.6948928328 -2.4942761154 1.185054471
| 43> H -3.5220590757 -2.3110846008 -0.5864111828
| 44> H -1.5915929662 -3.561226296 0.4545507392
| 45> H -1.0969222773 -2.0929088028 -0.3895731093
| 46> H -1.1864024375 -2.1052512187 1.3789026123
| 47> *
| 48>
| 49>                          ****END OF INPUT****

CARTESIAN COORDINATES (ANGSTROEM)
---------------------------------
  C      4.836672   -0.531372   -1.865878
  C      4.182424   -1.758185   -1.264437
  O      3.454091   -1.471380   -0.057253
  P      2.358552   -0.336269    0.121094
  S      2.989665    1.509935    0.363993
  O      1.542202   -0.912425    1.350835
  C      1.730881   -0.428895    2.693796
  C      3.043838   -0.918050    3.267756
  S      1.020996   -0.670232   -1.483487
  C      0.128373    0.899852   -1.315291
  S     -0.795656    1.043214    0.231996
  P     -2.742939    0.457702   -0.444599
  S     -2.901745   -0.049909   -2.326840
  O     -3.659753    1.696175   -0.111697
  C     -3.549514    2.580786    1.028498
  C     -3.543023    1.838884    2.346986
  O     -3.261567   -0.635467    0.590354
  C     -3.098667   -2.047469    0.387983
  C     -1.648161   -2.477578    0.467497
  H      5.466320   -0.036485   -1.130069
  H      5.442401   -0.826217   -2.716768
  H      4.077255    0.174502   -2.200328
  H      4.926271   -2.491295   -0.947040
  H      3.491141   -2.216717   -1.977269
  H      1.693429    0.665408    2.681455
  H      0.874580   -0.820876    3.243673
  H      3.090777   -2.002847    3.226638
  H      3.869408   -0.509861    2.685384
  H      3.137265   -0.587185    4.297210
  H     -0.562977    0.953046   -2.157590
  H      0.848788    1.717074   -1.329076
  H     -2.638662    3.173979    0.912117
  H     -4.425276    3.223750    0.929116
  H     -3.545235    2.558551    3.159801
  H     -4.419360    1.201099    2.425604
  H     -2.648898    1.222331    2.422569
  H     -3.694893   -2.494276    1.185054
  H     -3.522059   -2.311085   -0.586411
  H     -1.591593   -3.561226    0.454551
  H     -1.096922   -2.092909   -0.389573
  H     -1.186402   -2.105251    1.378903

 Total Charge           Charge          ....    0
 Multiplicity           Mult            ....    1
 Number of Electrons    NEL             ....  202
 Basis Dimension        Dim             ....  334

ORBITAL ENERGIES
----------------

  NO   OCC          E(Eh)            E(eV)
   0   2.0000     -88.046830     -2395.8760
   1   2.0000     -88.044178     -2395.8039
   2   2.0000     -87.990916     -2394.3545
   3   2.0000     -87.986898     -2394.2452
   4   2.0000     -76.430056     -2079.7676
   5   2.0000     -76.426707     -2079.6764
   6   2.0000     -18.795996      -511.4651
   7   2.0000     -18.791031      -511.3299
   8   2.0000     -18.790429      -511.3136
   9   2.0000     -18.790149      -511.3059
  10   2.0000      -9.961217      -271.0585
  11   2.0000      -9.958151      -270.9751
  12   2.0000      -9.953781      -270.8562
  13   2.0000      -9.950783      -270.7746
  14   2.0000      -9.949036      -270.7270
  15   2.0000      -9.890996      -269.1477
  16   2.0000      -9.885954      -269.0105
  17   2.0000      -9.883577      -268.9458
  18   2.0000      -9.875825      -268.7349
  19   2.0000      -7.691476      -209.2957
  20   2.0000      -7.688613      -209.2178
  21   2.0000      -7.635790      -207.7804
  22   2.0000      -7.632071      -207.6792
  23   2.0000      -6.427341      -174.8969
  24   2.0000      -6.424124      -174.8093
  25   2.0000      -5.719163      -155.6264
  26   2.0000      -5.716454      -155.5526
  27   2.0000      -5.716021      -155.5408
  28   2.0000      -5.713101      -155.4614
  29   2.0000      -5.708636      -155.3399
  30   2.0000      -5.705738      -155.2610
  31   2.0000      -5.664609      -154.1418
  32   2.0000      -5.661027      -154.0444
  33   2.0000      -5.656489      -153.9209
  34   2.0000      -5.656008      -153.9078
  35   2.0000      -5.652686      -153.8174
  36   2.0000      -5.652159      -153.8031
  37   2.0000      -4.649797      -126.5274
  38   2.0000      -4.649270      -126.5131
  39   2.0000      -4.647796      -126.4730
  40   2.0000      -4.646771      -126.4451
  41   2.0000      -4.645785      -126.4182
  42   2.0000      -4.644647      -126.3873
  43   2.0000      -0.989264       -26.9192
  44   2.0000      -0.985766       -26.8241
  45   2.0000      -0.947862       -25.7926
  46   2.0000      -0.944415       -25.6988
  47   2.0000      -0.764797       -20.8112
  48   2.0000      -0.722358       -19.6564
  49   2.0000      -0.711857       -19.3706
  50   2.0000      -0.690305       -18.7842
  51   2.0000      -0.687897       -18.7186
  52   2.0000      -0.677172       -18.4268
  53   2.0000      -0.653544       -17.7838
  54   2.0000      -0.640632       -17.4325
  55   2.0000      -0.601695       -16.3730
  56   2.0000      -0.597021       -16.2458
  57   2.0000      -0.577399       -15.7118
  58   2.0000      -0.574595       -15.6355
  59   2.0000      -0.561463       -15.2782
  60   2.0000      -0.498817       -13.5735
  61   2.0000      -0.491872       -13.3845
  62   2.0000      -0.472978       -12.8704
  63   2.0000      -0.470698       -12.8083
  64   2.0000      -0.462454       -12.5840
  65   2.0000      -0.448544       -12.2055
  66   2.0000      -0.440424       -11.9845
  67   2.0000      -0.437625       -11.9084
  68   2.0000      -0.434289       -11.8176
  69   2.0000      -0.421505       -11.4697
  70   2.0000      -0.411842       -11.2068
  71   2.0000      -0.399862       -10.8808
  72   2.0000      -0.394558       -10.7365
  73   2.0000      -0.390537       -10.6270
  74   2.0000      -0.381242       -10.3741
  75   2.0000      -0.376010       -10.2317
  76   2.0000      -0.368606       -10.0303
  77   2.0000      -0.356129        -9.6908
  78   2.0000      -0.354626        -9.6499
  79   2.0000      -0.349625        -9.5138
  80   2.0000      -0.349379        -9.5071
  81   2.0000      -0.345313        -9.3964
  82   2.0000      -0.343766        -9.3543
  83   2.0000      -0.342155        -9.3105
  84   2.0000      -0.336080        -9.1452
  85   2.0000      -0.320488        -8.7209
  86   2.0000      -0.309321        -8.4171
  87   2.0000      -0.299371        -8.1463
  88   2.0000      -0.294298        -8.0083
  89   2.0000      -0.291179        -7.9234
  90   2.0000      -0.289027        -7.8648
  91   2.0000      -0.277766        -7.5584
  92   2.0000      -0.273571        -7.4442
  93   2.0000      -0.265196        -7.2164
  94   2.0000      -0.256350        -6.9756
  95   2.0000      -0.231675        -6.3042
  96   2.0000      -0.220316        -5.9951
  97   2.0000      -0.213361        -5.8058
  98   2.0000      -0.206124        -5.6089
  99   2.0000      -0.203464        -5.5365
 100   2.0000      -0.202801        -5.5185
 101   0.0000      -0.046873        -1.2755
 102   0.0000      -0.030053        -0.8178
 103   0.0000      -0.014276        -0.3885
 104   0.0000       0.001435         0.0390
 105   0.0000       0.012070         0.3284

MULLIKEN ATOMIC CHARGES
-----------------------
   0 C :   -0.311995
   1 C :   -0.011240
   2 O :   -0.371440
   3 P :    0.606334
   4 S :   -0.330927
   5 O :   -0.353093
   6 C :   -0.009011
   7 C :   -0.301561
   8 S :   -0.084786
   9 C :   -0.347503
  10 S :   -0.108216
  11 P :    0.601022
  12 S :   -0.311652
  13 O :   -0.358894
  14 C :   -0.004006
  15 C :   -0.315012
  16 O :   -0.375119
  17 C :    0.001328
  18 C :   -0.334105
  19 H :    0.126756
  20 H :    0.113375
  21 H :    0.125900
  22 H :    0.110662
  23 H :    0.115780
  24 H :    0.112319
  25 H :    0.104142
  26 H :    0.115290
  27 H :    0.123232
  28 H :    0.110704
  29 H :    0.192249
  30 H :    0.195441
  31 H :    0.114497
  32 H :    0.113068
  33 H :    0.115845
  34 H :    0.125901
  35 H :    0.123401
  36 H :    0.100647
  37 H :    0.111681
  38 H :    0.107235
  39 H :    0.141211
  40 H :    0.120537
Sum of atomic charges:   -0.0000000

LOEWDIN ATOMIC CHARGES
----------------------
   0 C :   -0.369882
   1 C :   -0.113298
   2 O :   -0.243121
   3 P :    0.571303
   4 S :   -0.316470
   5 O :   -0.235190
   6 C :   -0.120944
   7 C :   -0.363405
   8 S :    0.098937
   9 C :   -0.483608
  10 S :    0.078284
  11 P :    0.572089
  12 S :   -0.305326
  13 O :   -0.237349
  14 C :   -0.114568
  15 C :   -0.366544
  16 O :   -0.244240
  17 C :   -0.117663
  18 C :   -0.373790
  19 H :    0.129713
  20 H :    0.130984
  21 H :    0.121261
  22 H :    0.122272
  23 H :    0.110946
  24 H :    0.107764
  25 H :    0.116239
  26 H :    0.125854
  27 H :    0.123104
  28 H :    0.129759
  29 H :    0.128156
  30 H :    0.129745
  31 H :    0.110713
  32 H :    0.123991
  33 H :    0.132462
  34 H :    0.130544
  35 H :    0.117208
  36 H :    0.116557
  37 H :    0.111613
  38 H :    0.129312
  39 H :    0.113087
  40 H :    0.123501

  Mayer bond orders larger than 0.100000
B(  0-C ,  1-C ) :   1.1642 B(  0-C , 19-H ) :   0.9425 B(  0-C , 20-H ) :   0.9349
B(  0-C , 21-H ) :   0.9333 B(  1-C ,  2-O ) :   0.9127 B(  1-C , 22-H ) :   0.9341
B(  1-C , 23-H ) :   0.9283 B(  2-O ,  3-P ) :   1.1168 B(  3-P ,  4-S ) :   1.5922
B(  3-P ,  5-O ) :   1.1278 B(  3-P ,  8-S ) :   0.9538 B(  4-S ,  8-S ) :   0.1081
B(  5-O ,  6-C ) :   0.9055 B(  6-C ,  7-C ) :   1.1643 B(  6-C , 24-H ) :   0.9117
B(  6-C , 25-H ) :   0.9313 B(  7-C , 26-H ) :   0.9467 B(  7-C , 27-H ) :   0.9362
B(  7-C , 28-H ) :   0.9401 B(  8-S ,  9-C ) :   1.0061 B(  9-C , 10-S ) :   1.0167
B(  9-C , 29-H ) :   0.8594 B(  9-C , 30-H ) :   0.8772 B( 10-S , 11-P ) :   0.9348
B( 10-S , 12-S ) :   0.1098 B( 11-P , 12-S ) :   1.6236 B( 11-P , 13-O ) :   1.1462
B( 11-P , 16-O ) :   1.0914 B( 12-S , 29-H ) :   0.1007 B( 13-O , 14-C ) :   0.9040
B( 14-C , 15-C ) :   1.1692 B( 14-C , 31-H ) :   0.9203 B( 14-C , 32-H ) :   0.9334
B( 15-C , 33-H ) :   0.9350 B( 15-C , 34-H ) :   0.9426 B( 15-C , 35-H ) :   0.9372
B( 16-O , 17-C ) :   0.9087 B( 17-C , 18-C ) :   1.1598 B( 17-C , 36-H ) :   0.9337
B( 17-C , 37-H ) :   0.9173 B( 18-C , 38-H ) :   0.9371 B( 18-C , 39-H ) :   0.9233
B( 18-C , 40-H ) :   0.9420

Dispersion correction           -0.065283087
FINAL SINGLE POINT ENERGY     -2929.519040359145

DIPOLE MOMENT
-------------

Method             : SCF
Type of density    : Electron Density
Multiplicity       :   1
Irrep              :   0
Energy             : -2929.6390151840982981 Eh
Relativity type    :
Basis              : AO
                                X                 Y                 Z
Electronic contribution:     -7.028336389       6.318807780     -13.834817223
Nuclear contribution   :      7.422243518      -6.904557615      15.013759221
                        -----------------------------------------
Total Dipole Moment    :      0.393907129      -0.585749835       1.178941998
                        -----------------------------------------
Magnitude (a.u.)       :      1.374106957
Magnitude (Debye)      :      3.492702315

Rotational constants in cm-1:             0.012609             0.004721             0.004394
Rotational constants in MHz :           377.996989           141.530224           131.715392

                             ****ORCA TERMINATED NORMALLY****
TOTAL RUN TIME: 0 days 0 hours 0 minutes 21 seconds 290 msec
