                         Program Version 6.0.0  -   RELEASE  -
|  1> ! pbe def2-sv(p) def2/J RI DEFGRID1 loosescf d4 GCP(DFT/SV(P)) printgap
|  2> %output
|  3>     printlevel normal
|  4> end
|  5> * xyz 0 1
|  6> C 5.7035442156 0.2422045128 -1.406283092
|  7> C 4.2056002282 0.0988158138 -1.581946813
|  8> O 3.5906531971 0.2764479458 -0.2899530352
|  9> P 2.0185186176 0.4755534726 -0.1554123181
| 10> S 1.2862438169 1.9423195652 -1.2264738697
| 11> O 1.8581029576 0.7463994374 1.383851286
| 12> C 2.6492904306 0.1418711457 2.4372013892
| 13> C 2.5812481305 -1.3692581333 2.4275534943
| 14> S 1.2502299343 -1.4527456878 -0.6648306495
| 15> C -0.0666417983 -1.0011103954 -1.8295614827
| 16> S -1.7263284939 -1.5103080715 -1.3070098684
| 17> P -2.0627861988 -0.2855555682 0.3696684555
| 18> S -1.0553383407 -0.5357248217 2.0222064121
| 19> O -3.6043992849 -0.4978664762 0.670375568
| 20> C -4.6448574169 -0.3489446848 -0.3270428129
| 21> C -5.1529922839 -1.7068407421 -0.7674204051
| 22> O -1.8946059599 1.1475605907 -0.3293544629
| 23> C -1.6812068103 2.3386547306 0.4448350301
| 24> C -2.9374625834 2.7619496581 1.176370226
| 25> H 6.1880486282 0.1067980919 -2.367516507
| 26> H 5.9416631988 1.2296689318 -1.0209829395
| 27> H 6.0705438201 -0.5060868643 -0.7099634718
| 28> H 3.9391249223 -0.8944739866 -1.9539508114
| 29> H 3.8061327738 0.856724387 -2.2637841682
| 30> H 3.6769906165 0.4925902147 2.3255927898
| 31> H 2.2040748266 0.5529758225 3.3443642349
| 32> H 3.0158323479 -1.7648957687 1.5107129391
| 33> H 3.1355621784 -1.7541005106 3.2776087533
| 34> H 1.5463029225 -1.6971113516 2.4991767398
| 35> H 0.1095001976 -1.5398152952 -2.7574709806
| 36> H -0.0404091801 0.0810531167 -1.9871788501
| 37> H -5.4285539192 0.2210361854 0.17548895
| 38> H -4.2535638085 0.2244407363 -1.1712461659
| 39> H -4.3641472646 -2.2645298173 -1.2676406396
| 40> H -5.4893358016 -2.2737533396 0.0961527707
| 41> H -5.9830060982 -1.5693760385 -1.4531349688
| 42> H -0.8628436326 2.1536096684 1.150410116
| 43> H -1.3596449641 3.0794373692 -0.2895645674
| 44> H -2.7468138188 3.690866049 1.70446536
| 45> H -3.7523757278 2.9079961579 0.4720856311
| 46> H -3.2194460511 1.9952848601 1.8978824862
| 47> *
| 48>
| 49>                          ****END OF INPUT****

CARTESIAN COORDINATES (ANGSTROEM)
---------------------------------
  C      5.703544    0.242205   -1.406283
  C      4.205600    0.098816   -1.581947
  O      3.590653    0.276448   -0.289953
  P      2.018519    0.475553   -0.155412
  S      1.286244    1.942320   -1.226474
  O      1.858103    0.746399    1.383851
  C      2.649290    0.141871    2.437201
  C      2.581248   -1.369258    2.427553
  S      1.250230   -1.452746   -0.664831
  C     -0.066642   -1.001110   -1.829561
  S     -1.726328   -1.510308   -1.307010
  P     -2.062786   -0.285556    0.369668
  S     -1.055338   -0.535725    2.022206
  O     -3.604399   -0.497866    0.670376
  C     -4.644857   -0.348945   -0.327043
  C     -5.152992   -1.706841   -0.767420
  O     -1.894606    1.147561   -0.329354
  C     -1.681207    2.338655    0.444835
  C     -2.937463    2.761950    1.176370
  H      6.188049    0.106798   -2.367517
  H      5.941663    1.229669   -1.020983
  H      6.070544   -0.506087   -0.709963
  H      3.939125   -0.894474   -1.953951
  H      3.806133    0.856724   -2.263784
  H      3.676991    0.492590    2.325593
  H      2.204075    0.552976    3.344364
  H      3.015832   -1.764896    1.510713
  H      3.135562   -1.754101    3.277609
  H      1.546303   -1.697111    2.499177
  H      0.109500   -1.539815   -2.757471
  H     -0.040409    0.081053   -1.987179
  H     -5.428554    0.221036    0.175489
  H     -4.253564    0.224441   -1.171246
  H     -4.364147   -2.264530   -1.267641
  H     -5.489336   -2.273753    0.096153
  H     -5.983006   -1.569376   -1.453135
  H     -0.862844    2.153610    1.150410
  H     -1.359645    3.079437   -0.289565
  H     -2.746814    3.690866    1.704465
  H     -3.752376    2.907996    0.472086
  H     -3.219446    1.995285    1.897882

 Total Charge           Charge          ....    0
 Multiplicity           Mult            ....    1
 Number of Electrons    NEL             ....  202
 Basis Dimension        Dim             ....  334

ORBITAL ENERGIES
----------------

  NO   OCC          E(Eh)            E(eV)
   0   2.0000     -88.040690     -2395.7090
   1   2.0000     -88.040461     -2395.7027
   2   2.0000     -87.985324     -2394.2024
   3   2.0000     -87.975514     -2393.9355
   4   2.0000     -76.425340     -2079.6392
   5   2.0000     -76.418453     -2079.4518
   6   2.0000     -18.793910      -511.4083
   7   2.0000     -18.789083      -511.2769
   8   2.0000     -18.788121      -511.2508
   9   2.0000     -18.781755      -511.0775
  10   2.0000      -9.955023      -270.8900
  11   2.0000      -9.954165      -270.8666
  12   2.0000      -9.952956      -270.8337
  13   2.0000      -9.952636      -270.8250
  14   2.0000      -9.935131      -270.3487
  15   2.0000      -9.890714      -269.1400
  16   2.0000      -9.887123      -269.0423
  17   2.0000      -9.882034      -268.9038
  18   2.0000      -9.876373      -268.7498
  19   2.0000      -7.685969      -209.1458
  20   2.0000      -7.685247      -209.1262
  21   2.0000      -7.630274      -207.6303
  22   2.0000      -7.620809      -207.3728
  23   2.0000      -6.422820      -174.7738
  24   2.0000      -6.416323      -174.5970
  25   2.0000      -5.713930      -155.4840
  26   2.0000      -5.713165      -155.4631
  27   2.0000      -5.710273      -155.3844
  28   2.0000      -5.709766      -155.3706
  29   2.0000      -5.702961      -155.1855
  30   2.0000      -5.702284      -155.1670
  31   2.0000      -5.659160      -153.9936
  32   2.0000      -5.650744      -153.7646
  33   2.0000      -5.650530      -153.7587
  34   2.0000      -5.649810      -153.7392
  35   2.0000      -5.641365      -153.5094
  36   2.0000      -5.640836      -153.4949
  37   2.0000      -4.645696      -126.4158
  38   2.0000      -4.644348      -126.3791
  39   2.0000      -4.643239      -126.3490
  40   2.0000      -4.639312      -126.2421
  41   2.0000      -4.637894      -126.2035
  42   2.0000      -4.636599      -126.1683
  43   2.0000      -0.988247       -26.8916
  44   2.0000      -0.978392       -26.6234
  45   2.0000      -0.943283       -25.6680
  46   2.0000      -0.937556       -25.5122
  47   2.0000      -0.758972       -20.6527
  48   2.0000      -0.720059       -19.5938
  49   2.0000      -0.708744       -19.2859
  50   2.0000      -0.692098       -18.8329
  51   2.0000      -0.686313       -18.6755
  52   2.0000      -0.670802       -18.2535
  53   2.0000      -0.647461       -17.6183
  54   2.0000      -0.633798       -17.2465
  55   2.0000      -0.594552       -16.1786
  56   2.0000      -0.581154       -15.8140
  57   2.0000      -0.573725       -15.6118
  58   2.0000      -0.572070       -15.5668
  59   2.0000      -0.559226       -15.2173
  60   2.0000      -0.507067       -13.7980
  61   2.0000      -0.494557       -13.4576
  62   2.0000      -0.471252       -12.8234
  63   2.0000      -0.469244       -12.7688
  64   2.0000      -0.450469       -12.2579
  65   2.0000      -0.446655       -12.1541
  66   2.0000      -0.442990       -12.0544
  67   2.0000      -0.435369       -11.8470
  68   2.0000      -0.426408       -11.6032
  69   2.0000      -0.415701       -11.3118
  70   2.0000      -0.404445       -11.0055
  71   2.0000      -0.399351       -10.8669
  72   2.0000      -0.392454       -10.6792
  73   2.0000      -0.382190       -10.3999
  74   2.0000      -0.375278       -10.2118
  75   2.0000      -0.368320       -10.0225
  76   2.0000      -0.363722        -9.8974
  77   2.0000      -0.355373        -9.6702
  78   2.0000      -0.354667        -9.6510
  79   2.0000      -0.351355        -9.5609
  80   2.0000      -0.347639        -9.4598
  81   2.0000      -0.340302        -9.2601
  82   2.0000      -0.338125        -9.2008
  83   2.0000      -0.335797        -9.1375
  84   2.0000      -0.332244        -9.0408
  85   2.0000      -0.314233        -8.5507
  86   2.0000      -0.308124        -8.3845
  87   2.0000      -0.304608        -8.2888
  88   2.0000      -0.300538        -8.1781
  89   2.0000      -0.290580        -7.9071
  90   2.0000      -0.273921        -7.4538
  91   2.0000      -0.270818        -7.3693
  92   2.0000      -0.267446        -7.2776
  93   2.0000      -0.258572        -7.0361
  94   2.0000      -0.256631        -6.9833
  95   2.0000      -0.237227        -6.4553
  96   2.0000      -0.221615        -6.0305
  97   2.0000      -0.203834        -5.5466
  98   2.0000      -0.198980        -5.4145
  99   2.0000      -0.191404        -5.2084
 100   2.0000      -0.188831        -5.1384
 101   0.0000      -0.038425        -1.0456
 102   0.0000      -0.030528        -0.8307
 103   0.0000      -0.007312        -0.1990
 104   0.0000       0.004562         0.1241
 105   0.0000       0.015465         0.4208

MULLIKEN ATOMIC CHARGES
-----------------------
   0 C :   -0.280805
   1 C :   -0.006981
   2 O :   -0.386800
   3 P :    0.614487
   4 S :   -0.316168
   5 O :   -0.346353
   6 C :    0.013236
   7 C :   -0.343051
   8 S :   -0.102942
   9 C :   -0.339263
  10 S :   -0.113232
  11 P :    0.615840
  12 S :   -0.310006
  13 O :   -0.367608
  14 C :   -0.030944
  15 C :   -0.290617
  16 O :   -0.384190
  17 C :   -0.018024
  18 C :   -0.305009
  19 H :    0.112763
  20 H :    0.121091
  21 H :    0.115133
  22 H :    0.099370
  23 H :    0.104114
  24 H :    0.107715
  25 H :    0.111981
  26 H :    0.119352
  27 H :    0.113380
  28 H :    0.153461
  29 H :    0.178596
  30 H :    0.206267
  31 H :    0.110469
  32 H :    0.111159
  33 H :    0.129830
  34 H :    0.122400
  35 H :    0.110520
  36 H :    0.119150
  37 H :    0.108501
  38 H :    0.111426
  39 H :    0.106475
  40 H :    0.125276
Sum of atomic charges:    0.0000000

LOEWDIN ATOMIC CHARGES
----------------------
   0 C :   -0.350416
   1 C :   -0.122634
   2 O :   -0.250858
   3 P :    0.572702
   4 S :   -0.292351
   5 O :   -0.223917
   6 C :   -0.106120
   7 C :   -0.373916
   8 S :    0.077978
   9 C :   -0.483756
  10 S :    0.081986
  11 P :    0.559975
  12 S :   -0.304370
  13 O :   -0.242201
  14 C :   -0.121151
  15 C :   -0.359537
  16 O :   -0.250891
  17 C :   -0.130219
  18 C :   -0.366615
  19 H :    0.131419
  20 H :    0.129006
  21 H :    0.125955
  22 H :    0.105671
  23 H :    0.108693
  24 H :    0.113422
  25 H :    0.124714
  26 H :    0.114106
  27 H :    0.132180
  28 H :    0.130474
  29 H :    0.136778
  30 H :    0.124192
  31 H :    0.120283
  32 H :    0.109561
  33 H :    0.120053
  34 H :    0.130264
  35 H :    0.130522
  36 H :    0.109947
  37 H :    0.115125
  38 H :    0.130557
  39 H :    0.119745
  40 H :    0.123643

  Mayer bond orders larger than 0.100000
B(  0-C ,  1-C ) :   1.1605 B(  0-C , 19-H ) :   0.9419 B(  0-C , 20-H ) :   0.9509
B(  0-C , 21-H ) :   0.9514 B(  1-C ,  2-O ) :   0.9042 B(  1-C , 22-H ) :   0.9226
B(  1-C , 23-H ) :   0.9117 B(  2-O ,  3-P ) :   1.0664 B(  3-P ,  4-S ) :   1.6239
B(  3-P ,  5-O ) :   1.1586 B(  3-P ,  8-S ) :   0.9470 B(  4-S ,  8-S ) :   0.1205
B(  4-S , 30-H ) :   0.1202 B(  5-O ,  6-C ) :   0.8892 B(  6-C ,  7-C ) :   1.1707
B(  6-C , 24-H ) :   0.9301 B(  6-C , 25-H ) :   0.9312 B(  7-C , 26-H ) :   0.9339
B(  7-C , 27-H ) :   0.9349 B(  7-C , 28-H ) :   0.9308 B(  8-S ,  9-C ) :   1.0063
B(  9-C , 10-S ) :   0.9921 B(  9-C , 29-H ) :   0.9124 B(  9-C , 30-H ) :   0.8412
B( 10-S , 11-P ) :   0.9661 B( 10-S , 12-S ) :   0.1075 B( 11-P , 12-S ) :   1.6658
B( 11-P , 13-O ) :   1.1116 B( 11-P , 16-O ) :   1.0768 B( 13-O , 14-C ) :   0.8968
B( 14-C , 15-C ) :   1.1667 B( 14-C , 31-H ) :   0.9317 B( 14-C , 32-H ) :   0.9146
B( 15-C , 33-H ) :   0.9380 B( 15-C , 34-H ) :   0.9456 B( 15-C , 35-H ) :   0.9393
B( 16-O , 17-C ) :   0.9001 B( 17-C , 18-C ) :   1.1531 B( 17-C , 36-H ) :   0.9123
B( 17-C , 37-H ) :   0.9294 B( 18-C , 38-H ) :   0.9410 B( 18-C , 39-H ) :   0.9459
B( 18-C , 40-H ) :   0.9352

Dispersion correction           -0.066652139
FINAL SINGLE POINT ENERGY     -2929.516596365161

DIPOLE MOMENT
-------------

Method             : SCF
Type of density    : Electron Density
Multiplicity       :   1
Irrep              :   0
Energy             : -2929.6362281154806624 Eh
Relativity type    :
Basis              : AO
                                X                 Y                 Z
Electronic contribution:     -1.704323907      -3.133602477      -1.597123802
Nuclear contribution   :      2.047624060       3.022615101       1.000459006
                        -----------------------------------------
Total Dipole Moment    :      0.343300153      -0.110987377      -0.596664795
                        -----------------------------------------
Magnitude (a.u.)       :      0.697267574
Magnitude (Debye)      :      1.772313326

Rotational constants in cm-1:             0.013686             0.004909             0.004766
Rotational constants in MHz :           410.305407           147.153200           142.892653

                             ****ORCA TERMINATED NORMALLY****
TOTAL RUN TIME: 0 days 0 hours 0 minutes 21 seconds 211 msec
