                         Program Version 6.0.0  -   RELEASE  -
|  1> ! pbe def2-sv(p) def2/J RI DEFGRID1 loosescf d4 GCP(DFT/SV(P)) printgap
|  2> %output
|  3>     printlevel normal
|  4> end
|  5> * xyz 0 1
|  6> C 4.7426096337 -1.3624277311 -0.4220791067
|  7> C 4.6214091686 0.1109139489 -0.0915154833
|  8> O 3.3901930318 0.4120907583 0.5873522053
|  9> P 1.9791435888 0.3816059766 -0.1468013458
| 10> S 2.0459713407 0.9836243689 -2.0181171191
| 11> O 1.0799320818 1.1353592894 0.9153000576
| 12> C 1.3824275693 2.4143527547 1.5091146656
| 13> C 1.5787022182 3.5038498648 0.4761603612
| 14> S 1.2765949546 -1.5851073036 0.1261769935
| 15> C 0.156258357 -1.7401181334 -1.3009523837
| 16> S -1.5630357238 -2.0072678271 -0.8142093032
| 17> P -1.9723335568 -0.0921028783 0.0189244523
| 18> S -1.4015845409 1.4411835797 -1.0520912159
| 19> O -1.4140129544 -0.0864899044 1.4887178918
| 20> C -1.8069271391 -1.0832939458 2.4733426219
| 21> C -0.6413882504 -1.3076947221 3.4133979563
| 22> O -3.538830302 -0.1852573594 0.2730010894
| 23> C -4.4833698384 -0.1554764553 -0.8167503421
| 24> C -5.8542136445 0.1204486235 -0.233576803
| 25> H 4.5730399227 -1.9647178518 0.4666478497
| 26> H 4.0074034984 -1.6347815673 -1.1776392986
| 27> H 5.7361317252 -1.5611978028 -0.8107012064
| 28> H 4.6693870982 0.714191687 -1.0038877465
| 29> H 5.3922250114 0.4325401674 0.6101479196
| 30> H 0.5085928887 2.6126353048 2.1329220269
| 31> H 2.2721176621 2.2964207009 2.1322606495
| 32> H 0.7158613325 3.5502934733 -0.186642758
| 33> H 1.7009152473 4.4601373709 0.9747350854
| 34> H 2.4631550404 3.2985313923 -0.1261095361
| 35> H 0.4461799574 -2.6223902295 -1.8656431993
| 36> H 0.2388394256 -0.8357023577 -1.9109906085
| 37> H -2.6791695862 -0.6871821359 2.9957124303
| 38> H -2.0828624221 -2.0043226507 1.9516654882
| 39> H -0.3541806078 -0.3708333364 3.882225762
| 40> H -0.9369901275 -2.0182392094 4.1785587858
| 41> H 0.212738013 -1.7022524908 2.8684984041
| 42> H -4.1784761397 0.6264314901 -1.5200795611
| 43> H -4.449772398 -1.1243911069 -1.3218582967
| 44> H -6.1171103273 -0.6563008995 0.4783624691
| 45> H -5.8571616314 1.0809777358 0.2739572895
| 46> H -6.5846921982 0.1367112041 -1.0355702637
| 47> *
| 48>
| 49>                          ****END OF INPUT****

CARTESIAN COORDINATES (ANGSTROEM)
---------------------------------
  C      4.742610   -1.362428   -0.422079
  C      4.621409    0.110914   -0.091515
  O      3.390193    0.412091    0.587352
  P      1.979144    0.381606   -0.146801
  S      2.045971    0.983624   -2.018117
  O      1.079932    1.135359    0.915300
  C      1.382428    2.414353    1.509115
  C      1.578702    3.503850    0.476160
  S      1.276595   -1.585107    0.126177
  C      0.156258   -1.740118   -1.300952
  S     -1.563036   -2.007268   -0.814209
  P     -1.972334   -0.092103    0.018924
  S     -1.401585    1.441184   -1.052091
  O     -1.414013   -0.086490    1.488718
  C     -1.806927   -1.083294    2.473343
  C     -0.641388   -1.307695    3.413398
  O     -3.538830   -0.185257    0.273001
  C     -4.483370   -0.155476   -0.816750
  C     -5.854214    0.120449   -0.233577
  H      4.573040   -1.964718    0.466648
  H      4.007403   -1.634782   -1.177639
  H      5.736132   -1.561198   -0.810701
  H      4.669387    0.714192   -1.003888
  H      5.392225    0.432540    0.610148
  H      0.508593    2.612635    2.132922
  H      2.272118    2.296421    2.132261
  H      0.715861    3.550293   -0.186643
  H      1.700915    4.460137    0.974735
  H      2.463155    3.298531   -0.126110
  H      0.446180   -2.622390   -1.865643
  H      0.238839   -0.835702   -1.910991
  H     -2.679170   -0.687182    2.995712
  H     -2.082862   -2.004323    1.951665
  H     -0.354181   -0.370833    3.882226
  H     -0.936990   -2.018239    4.178559
  H      0.212738   -1.702252    2.868498
  H     -4.178476    0.626431   -1.520080
  H     -4.449772   -1.124391   -1.321858
  H     -6.117110   -0.656301    0.478362
  H     -5.857162    1.080978    0.273957
  H     -6.584692    0.136711   -1.035570

 Total Charge           Charge          ....    0
 Multiplicity           Mult            ....    1
 Number of Electrons    NEL             ....  202
 Basis Dimension        Dim             ....  334

ORBITAL ENERGIES
----------------

  NO   OCC          E(Eh)            E(eV)
   0   2.0000     -88.040474     -2395.7031
   1   2.0000     -88.040019     -2395.6907
   2   2.0000     -87.980025     -2394.0582
   3   2.0000     -87.976949     -2393.9745
   4   2.0000     -76.421926     -2079.5463
   5   2.0000     -76.420237     -2079.5004
   6   2.0000     -18.792022      -511.3569
   7   2.0000     -18.790832      -511.3245
   8   2.0000     -18.787598      -511.2365
   9   2.0000     -18.778342      -510.9847
  10   2.0000      -9.952689      -270.8264
  11   2.0000      -9.952065      -270.8094
  12   2.0000      -9.951448      -270.7927
  13   2.0000      -9.949422      -270.7375
  14   2.0000      -9.945271      -270.6246
  15   2.0000      -9.887901      -269.0635
  16   2.0000      -9.882689      -268.9216
  17   2.0000      -9.881749      -268.8960
  18   2.0000      -9.871882      -268.6276
  19   2.0000      -7.685700      -209.1385
  20   2.0000      -7.685093      -209.1220
  21   2.0000      -7.624960      -207.4857
  22   2.0000      -7.622050      -207.4065
  23   2.0000      -6.419072      -174.6718
  24   2.0000      -6.417837      -174.6382
  25   2.0000      -5.713471      -155.4714
  26   2.0000      -5.712919      -155.4564
  27   2.0000      -5.709993      -155.3768
  28   2.0000      -5.709631      -155.3670
  29   2.0000      -5.702993      -155.1863
  30   2.0000      -5.702005      -155.1594
  31   2.0000      -5.653880      -153.8499
  32   2.0000      -5.651015      -153.7719
  33   2.0000      -5.645733      -153.6282
  34   2.0000      -5.644977      -153.6076
  35   2.0000      -5.642553      -153.5417
  36   2.0000      -5.642222      -153.5327
  37   2.0000      -4.641879      -126.3119
  38   2.0000      -4.640698      -126.2798
  39   2.0000      -4.640566      -126.2762
  40   2.0000      -4.639727      -126.2534
  41   2.0000      -4.639636      -126.2509
  42   2.0000      -4.637881      -126.2032
  43   2.0000      -0.985687       -26.8219
  44   2.0000      -0.982346       -26.7310
  45   2.0000      -0.941414       -25.6172
  46   2.0000      -0.936921       -25.4949
  47   2.0000      -0.760432       -20.6924
  48   2.0000      -0.718800       -19.5596
  49   2.0000      -0.706905       -19.2359
  50   2.0000      -0.689441       -18.7607
  51   2.0000      -0.683533       -18.5999
  52   2.0000      -0.670575       -18.2473
  53   2.0000      -0.646066       -17.5804
  54   2.0000      -0.629704       -17.1351
  55   2.0000      -0.593657       -16.1542
  56   2.0000      -0.580181       -15.7875
  57   2.0000      -0.571263       -15.5449
  58   2.0000      -0.567267       -15.4361
  59   2.0000      -0.561247       -15.2723
  60   2.0000      -0.507929       -13.8215
  61   2.0000      -0.490653       -13.3513
  62   2.0000      -0.479690       -13.0530
  63   2.0000      -0.464457       -12.6385
  64   2.0000      -0.449295       -12.2259
  65   2.0000      -0.447624       -12.1805
  66   2.0000      -0.435858       -11.8603
  67   2.0000      -0.431561       -11.7434
  68   2.0000      -0.425734       -11.5848
  69   2.0000      -0.412959       -11.2372
  70   2.0000      -0.406902       -11.0724
  71   2.0000      -0.402618       -10.9558
  72   2.0000      -0.389525       -10.5995
  73   2.0000      -0.384211       -10.4549
  74   2.0000      -0.374012       -10.1774
  75   2.0000      -0.366294        -9.9674
  76   2.0000      -0.363404        -9.8887
  77   2.0000      -0.353239        -9.6121
  78   2.0000      -0.350282        -9.5316
  79   2.0000      -0.347728        -9.4622
  80   2.0000      -0.342436        -9.3182
  81   2.0000      -0.339626        -9.2417
  82   2.0000      -0.335995        -9.1429
  83   2.0000      -0.333462        -9.0740
  84   2.0000      -0.327774        -8.9192
  85   2.0000      -0.313527        -8.5315
  86   2.0000      -0.309790        -8.4298
  87   2.0000      -0.298852        -8.1322
  88   2.0000      -0.297151        -8.0859
  89   2.0000      -0.292401        -7.9566
  90   2.0000      -0.277231        -7.5438
  91   2.0000      -0.271882        -7.3983
  92   2.0000      -0.266345        -7.2476
  93   2.0000      -0.259084        -7.0500
  94   2.0000      -0.254819        -6.9340
  95   2.0000      -0.235824        -6.4171
  96   2.0000      -0.219348        -5.9688
  97   2.0000      -0.211007        -5.7418
  98   2.0000      -0.197462        -5.3732
  99   2.0000      -0.188092        -5.1182
 100   2.0000      -0.181464        -4.9379
 101   0.0000      -0.038247        -1.0408
 102   0.0000      -0.029367        -0.7991
 103   0.0000      -0.005747        -0.1564
 104   0.0000       0.015519         0.4223
 105   0.0000       0.019167         0.5216

MULLIKEN ATOMIC CHARGES
-----------------------
   0 C :   -0.307847
   1 C :   -0.004850
   2 O :   -0.382429
   3 P :    0.624778
   4 S :   -0.312183
   5 O :   -0.351520
   6 C :    0.008918
   7 C :   -0.322272
   8 S :   -0.095171
   9 C :   -0.356066
  10 S :   -0.113692
  11 P :    0.588148
  12 S :   -0.289797
  13 O :   -0.346183
  14 C :   -0.009507
  15 C :   -0.282266
  16 O :   -0.388198
  17 C :   -0.011045
  18 C :   -0.280438
  19 H :    0.114522
  20 H :    0.121842
  21 H :    0.111319
  22 H :    0.110679
  23 H :    0.101476
  24 H :    0.104566
  25 H :    0.101413
  26 H :    0.138805
  27 H :    0.104637
  28 H :    0.120872
  29 H :    0.180829
  30 H :    0.209959
  31 H :    0.106618
  32 H :    0.100449
  33 H :    0.115453
  34 H :    0.105104
  35 H :    0.127078
  36 H :    0.105928
  37 H :    0.103425
  38 H :    0.113238
  39 H :    0.120867
  40 H :    0.112542
Sum of atomic charges:    0.0000000

LOEWDIN ATOMIC CHARGES
----------------------
   0 C :   -0.368193
   1 C :   -0.121669
   2 O :   -0.247526
   3 P :    0.572060
   4 S :   -0.302849
   5 O :   -0.230610
   6 C :   -0.108362
   7 C :   -0.369919
   8 S :    0.088269
   9 C :   -0.480335
  10 S :    0.059378
  11 P :    0.558810
  12 S :   -0.293595
  13 O :   -0.228480
  14 C :   -0.113733
  15 C :   -0.354000
  16 O :   -0.255302
  17 C :   -0.120534
  18 C :   -0.350541
  19 H :    0.123417
  20 H :    0.120240
  21 H :    0.130082
  22 H :    0.109313
  23 H :    0.116532
  24 H :    0.119833
  25 H :    0.109230
  26 H :    0.131178
  27 H :    0.126540
  28 H :    0.118784
  29 H :    0.136594
  30 H :    0.126881
  31 H :    0.115482
  32 H :    0.102850
  33 H :    0.126949
  34 H :    0.127630
  35 H :    0.122187
  36 H :    0.109715
  37 H :    0.108179
  38 H :    0.125276
  39 H :    0.129153
  40 H :    0.131087

  Mayer bond orders larger than 0.100000
B(  0-C ,  1-C ) :   1.1677 B(  0-C , 19-H ) :   0.9454 B(  0-C , 20-H ) :   0.9362
B(  0-C , 21-H ) :   0.9385 B(  1-C ,  2-O ) :   0.9106 B(  1-C , 22-H ) :   0.9114
B(  1-C , 23-H ) :   0.9331 B(  2-O ,  3-P ) :   1.0836 B(  3-P ,  4-S ) :   1.6014
B(  3-P ,  5-O ) :   1.1434 B(  3-P ,  8-S ) :   0.9557 B(  4-S ,  8-S ) :   0.1192
B(  5-O ,  6-C ) :   0.9066 B(  6-C ,  7-C ) :   1.1669 B(  6-C , 24-H ) :   0.9313
B(  6-C , 25-H ) :   0.9325 B(  7-C , 26-H ) :   0.9390 B(  7-C , 27-H ) :   0.9360
B(  7-C , 28-H ) :   0.9360 B(  8-S ,  9-C ) :   0.9972 B(  9-C , 10-S ) :   1.0004
B(  9-C , 29-H ) :   0.9116 B(  9-C , 30-H ) :   0.8451 B( 10-S , 11-P ) :   0.9415
B( 10-S , 12-S ) :   0.1065 B( 11-P , 12-S ) :   1.6742 B( 11-P , 13-O ) :   1.1441
B( 11-P , 16-O ) :   1.0736 B( 13-O , 14-C ) :   0.8872 B( 14-C , 15-C ) :   1.1646
B( 14-C , 31-H ) :   0.9334 B( 14-C , 32-H ) :   0.9096 B( 15-C , 33-H ) :   0.9491
B( 15-C , 34-H ) :   0.9401 B( 15-C , 35-H ) :   0.9405 B( 16-O , 17-C ) :   0.9070
B( 17-C , 18-C ) :   1.1596 B( 17-C , 36-H ) :   0.9099 B( 17-C , 37-H ) :   0.9288
B( 18-C , 38-H ) :   0.9512 B( 18-C , 39-H ) :   0.9510 B( 18-C , 40-H ) :   0.9421

Dispersion correction           -0.067305563
FINAL SINGLE POINT ENERGY     -2929.517310772362

DIPOLE MOMENT
-------------

Method             : SCF
Type of density    : Electron Density
Multiplicity       :   1
Irrep              :   0
Energy             : -2929.6352576731901536 Eh
Relativity type    :
Basis              : AO
                                X                 Y                 Z
Electronic contribution:      0.172427157      -2.401543578     -10.366764291
Nuclear contribution   :     -0.308638934       1.695279117      11.516858882
                        -----------------------------------------
Total Dipole Moment    :     -0.136211777      -0.706264461       1.150094590
                        -----------------------------------------
Magnitude (a.u.)       :      1.356495744
Magnitude (Debye)      :      3.447938170

Rotational constants in cm-1:             0.012852             0.005271             0.005063
Rotational constants in MHz :           385.283876           158.009638           151.783440

                             ****ORCA TERMINATED NORMALLY****
TOTAL RUN TIME: 0 days 0 hours 0 minutes 21 seconds 690 msec
