                         Program Version 6.0.0  -   RELEASE  -
|  1> ! pbe def2-sv(p) def2/J RI DEFGRID1 loosescf d4 GCP(DFT/SV(P)) printgap
|  2> %output
|  3>     printlevel normal
|  4> end
|  5> * xyz 0 1
|  6> C 2.0791572983 1.7313461462 -2.4474544698
|  7> C 2.3812244726 0.423524711 -1.7476717517
|  8> O 2.3915895987 0.6819195345 -0.3219039185
|  9> P 2.289782925 -0.4375819867 0.7836611584
| 10> S 2.5404653204 0.3766203801 2.5435146239
| 11> O 3.3645718825 -1.4870282104 0.2651673882
| 12> C 3.4484734101 -2.8659695047 0.6752562106
| 13> C 3.5076928563 -3.0294930899 2.1792954719
| 14> S 0.4475229099 -1.4692121411 0.5099931188
| 15> C -0.5556141378 -0.3415512073 1.5076998795
| 16> S -0.7852162113 1.2896233163 0.7531500016
| 17> P -1.9517033837 0.7227013146 -0.9351880782
| 18> S -1.1445359564 -0.181762944 -2.4670293558
| 19> O -2.5227931728 2.117154193 -1.418762701
| 20> C -2.9829258684 3.2107036454 -0.592001043
| 21> C -4.1493708621 2.8227588425 0.2913728208
| 22> O -3.1567173403 -0.079316465 -0.2591045206
| 23> C -3.6564314068 -1.343003079 -0.7392860821
| 24> C -3.124774399 -2.4985016278 0.0848628918
| 25> H 1.0859889742 2.0819572461 -2.1738791874
| 26> H 2.8081825925 2.4849512324 -2.1642491156
| 27> H 2.110157731 1.5734883198 -3.5206112541
| 28> H 3.362410743 0.0342715013 -2.0241738831
| 29> H 1.6164083114 -0.3268340238 -1.9722813743
| 30> H 2.5866905323 -3.3962910782 0.26023237
| 31> H 4.3645093352 -3.2182675438 0.1977942109
| 32> H 3.6536808103 -4.0771763506 2.4216354822
| 33> H 4.3268508486 -2.4454952934 2.5923667438
| 34> H 2.5789939003 -2.6852056233 2.6322807679
| 35> H -0.0443661482 -0.1557526722 2.4540070554
| 36> H -1.5209330717 -0.8160935903 1.6610765433
| 37> H -2.1408023303 3.56874603 0.0056931666
| 38> H -3.2655048525 3.9719435959 -1.3212519301
| 39> H -3.839515884 2.0762241153 1.0191762438
| 40> H -4.502948241 3.7043259151 0.8171787978
| 41> H -4.9577674301 2.4159441881 -0.3105583119
| 42> H -4.7410868647 -1.2606744019 -0.6535413716
| 43> H -3.3766134715 -1.4597630432 -1.7907250348
| 44> H -3.3748522955 -2.3659890086 1.1342067865
| 45> H -3.5763189023 -3.4189670651 -0.2710397802
| 46> H -2.0435406508 -2.5762845104 -0.0239236626
| 47> *
| 48>
| 49>                          ****END OF INPUT****

CARTESIAN COORDINATES (ANGSTROEM)
---------------------------------
  C      2.079157    1.731346   -2.447454
  C      2.381224    0.423525   -1.747672
  O      2.391590    0.681920   -0.321904
  P      2.289783   -0.437582    0.783661
  S      2.540465    0.376620    2.543515
  O      3.364572   -1.487028    0.265167
  C      3.448473   -2.865970    0.675256
  C      3.507693   -3.029493    2.179295
  S      0.447523   -1.469212    0.509993
  C     -0.555614   -0.341551    1.507700
  S     -0.785216    1.289623    0.753150
  P     -1.951703    0.722701   -0.935188
  S     -1.144536   -0.181763   -2.467029
  O     -2.522793    2.117154   -1.418763
  C     -2.982926    3.210704   -0.592001
  C     -4.149371    2.822759    0.291373
  O     -3.156717   -0.079316   -0.259105
  C     -3.656431   -1.343003   -0.739286
  C     -3.124774   -2.498502    0.084863
  H      1.085989    2.081957   -2.173879
  H      2.808183    2.484951   -2.164249
  H      2.110158    1.573488   -3.520611
  H      3.362411    0.034272   -2.024174
  H      1.616408   -0.326834   -1.972281
  H      2.586691   -3.396291    0.260232
  H      4.364509   -3.218268    0.197794
  H      3.653681   -4.077176    2.421635
  H      4.326851   -2.445495    2.592367
  H      2.578994   -2.685206    2.632281
  H     -0.044366   -0.155753    2.454007
  H     -1.520933   -0.816094    1.661077
  H     -2.140802    3.568746    0.005693
  H     -3.265505    3.971944   -1.321252
  H     -3.839516    2.076224    1.019176
  H     -4.502948    3.704326    0.817179
  H     -4.957767    2.415944   -0.310558
  H     -4.741087   -1.260674   -0.653541
  H     -3.376613   -1.459763   -1.790725
  H     -3.374852   -2.365989    1.134207
  H     -3.576319   -3.418967   -0.271040
  H     -2.043541   -2.576285   -0.023924

 Total Charge           Charge          ....    0
 Multiplicity           Mult            ....    1
 Number of Electrons    NEL             ....  202
 Basis Dimension        Dim             ....  334

ORBITAL ENERGIES
----------------

  NO   OCC          E(Eh)            E(eV)
   0   2.0000     -88.045878     -2395.8501
   1   2.0000     -88.044441     -2395.8110
   2   2.0000     -87.985205     -2394.1991
   3   2.0000     -87.980240     -2394.0640
   4   2.0000     -76.429660     -2079.7568
   5   2.0000     -76.423107     -2079.5785
   6   2.0000     -18.798217      -511.5255
   7   2.0000     -18.793984      -511.4103
   8   2.0000     -18.793516      -511.3976
   9   2.0000     -18.781108      -511.0599
  10   2.0000      -9.960132      -271.0290
  11   2.0000      -9.959838      -271.0210
  12   2.0000      -9.958724      -270.9907
  13   2.0000      -9.956630      -270.9337
  14   2.0000      -9.938947      -270.4525
  15   2.0000      -9.893107      -269.2051
  16   2.0000      -9.889798      -269.1151
  17   2.0000      -9.883240      -268.9366
  18   2.0000      -9.871455      -268.6159
  19   2.0000      -7.690741      -209.2757
  20   2.0000      -7.688990      -209.2280
  21   2.0000      -7.630435      -207.6347
  22   2.0000      -7.625600      -207.5031
  23   2.0000      -6.426865      -174.8839
  24   2.0000      -6.420318      -174.7057
  25   2.0000      -5.718639      -155.6121
  26   2.0000      -5.716681      -155.5588
  27   2.0000      -5.715268      -155.5203
  28   2.0000      -5.713508      -155.4725
  29   2.0000      -5.707701      -155.3144
  30   2.0000      -5.706218      -155.2741
  31   2.0000      -5.659444      -154.0013
  32   2.0000      -5.654639      -153.8705
  33   2.0000      -5.650922      -153.7694
  34   2.0000      -5.650536      -153.7589
  35   2.0000      -5.646172      -153.6402
  36   2.0000      -5.645634      -153.6255
  37   2.0000      -4.649855      -126.5290
  38   2.0000      -4.648578      -126.4942
  39   2.0000      -4.647075      -126.4533
  40   2.0000      -4.643145      -126.3464
  41   2.0000      -4.642351      -126.3248
  42   2.0000      -4.640364      -126.2707
  43   2.0000      -0.987030       -26.8584
  44   2.0000      -0.983886       -26.7729
  45   2.0000      -0.949604       -25.8401
  46   2.0000      -0.938256       -25.5312
  47   2.0000      -0.766522       -20.8581
  48   2.0000      -0.723570       -19.6893
  49   2.0000      -0.710513       -19.3340
  50   2.0000      -0.697398       -18.9772
  51   2.0000      -0.685906       -18.6645
  52   2.0000      -0.673599       -18.3296
  53   2.0000      -0.651396       -17.7254
  54   2.0000      -0.637469       -17.3464
  55   2.0000      -0.597508       -16.2590
  56   2.0000      -0.588426       -16.0119
  57   2.0000      -0.581294       -15.8178
  58   2.0000      -0.571435       -15.5495
  59   2.0000      -0.558402       -15.1949
  60   2.0000      -0.505542       -13.7565
  61   2.0000      -0.497766       -13.5449
  62   2.0000      -0.482179       -13.1207
  63   2.0000      -0.469955       -12.7881
  64   2.0000      -0.462769       -12.5926
  65   2.0000      -0.449482       -12.2310
  66   2.0000      -0.441394       -12.0109
  67   2.0000      -0.437488       -11.9047
  68   2.0000      -0.424173       -11.5423
  69   2.0000      -0.416587       -11.3359
  70   2.0000      -0.410231       -11.1629
  71   2.0000      -0.402452       -10.9513
  72   2.0000      -0.395734       -10.7685
  73   2.0000      -0.389460       -10.5977
  74   2.0000      -0.379963       -10.3393
  75   2.0000      -0.377143       -10.2626
  76   2.0000      -0.366763        -9.9801
  77   2.0000      -0.355389        -9.6706
  78   2.0000      -0.353444        -9.6177
  79   2.0000      -0.348482        -9.4827
  80   2.0000      -0.346524        -9.4294
  81   2.0000      -0.345152        -9.3921
  82   2.0000      -0.340379        -9.2622
  83   2.0000      -0.337494        -9.1837
  84   2.0000      -0.330409        -8.9909
  85   2.0000      -0.320648        -8.7253
  86   2.0000      -0.311520        -8.4769
  87   2.0000      -0.305710        -8.3188
  88   2.0000      -0.295872        -8.0511
  89   2.0000      -0.289455        -7.8765
  90   2.0000      -0.287214        -7.8155
  91   2.0000      -0.276587        -7.5263
  92   2.0000      -0.269131        -7.3234
  93   2.0000      -0.268469        -7.3054
  94   2.0000      -0.257406        -7.0044
  95   2.0000      -0.242168        -6.5897
  96   2.0000      -0.219620        -5.9762
  97   2.0000      -0.204729        -5.5710
  98   2.0000      -0.200955        -5.4683
  99   2.0000      -0.198769        -5.4088
 100   2.0000      -0.191022        -5.1980
 101   0.0000      -0.049213        -1.3391
 102   0.0000      -0.027145        -0.7387
 103   0.0000      -0.011928        -0.3246
 104   0.0000      -0.002180        -0.0593
 105   0.0000       0.012376         0.3368

MULLIKEN ATOMIC CHARGES
-----------------------
   0 C :   -0.271271
   1 C :   -0.022604
   2 O :   -0.351494
   3 P :    0.619562
   4 S :   -0.316637
   5 O :   -0.382992
   6 C :   -0.011006
   7 C :   -0.308447
   8 S :   -0.113177
   9 C :   -0.371011
  10 S :   -0.083597
  11 P :    0.615782
  12 S :   -0.305333
  13 O :   -0.366070
  14 C :   -0.020302
  15 C :   -0.304475
  16 O :   -0.388543
  17 C :   -0.008580
  18 C :   -0.321861
  19 H :    0.116705
  20 H :    0.111695
  21 H :    0.105226
  22 H :    0.099166
  23 H :    0.119437
  24 H :    0.112988
  25 H :    0.109934
  26 H :    0.110641
  27 H :    0.128327
  28 H :    0.122999
  29 H :    0.196732
  30 H :    0.190637
  31 H :    0.123782
  32 H :    0.113559
  33 H :    0.124224
  34 H :    0.114407
  35 H :    0.116470
  36 H :    0.104258
  37 H :    0.117521
  38 H :    0.122937
  39 H :    0.116776
  40 H :    0.133634
Sum of atomic charges:   -0.0000000

LOEWDIN ATOMIC CHARGES
----------------------
   0 C :   -0.350886
   1 C :   -0.119783
   2 O :   -0.231709
   3 P :    0.570049
   4 S :   -0.311620
   5 O :   -0.244977
   6 C :   -0.114086
   7 C :   -0.369479
   8 S :    0.072960
   9 C :   -0.481903
  10 S :    0.092726
  11 P :    0.565825
  12 S :   -0.295895
  13 O :   -0.241496
  14 C :   -0.115325
  15 C :   -0.366187
  16 O :   -0.253576
  17 C :   -0.120554
  18 C :   -0.364089
  19 H :    0.121588
  20 H :    0.124553
  21 H :    0.129117
  22 H :    0.110189
  23 H :    0.102725
  24 H :    0.108288
  25 H :    0.121722
  26 H :    0.129749
  27 H :    0.131177
  28 H :    0.120113
  29 H :    0.130572
  30 H :    0.130011
  31 H :    0.111279
  32 H :    0.123813
  33 H :    0.121738
  34 H :    0.131762
  35 H :    0.126841
  36 H :    0.117729
  37 H :    0.109955
  38 H :    0.123608
  39 H :    0.134677
  40 H :    0.118802

  Mayer bond orders larger than 0.100000
B(  0-C ,  1-C ) :   1.1706 B(  0-C , 19-H ) :   0.9417 B(  0-C , 20-H ) :   0.9486
B(  0-C , 21-H ) :   0.9408 B(  1-C ,  2-O ) :   0.8816 B(  1-C , 22-H ) :   0.9304
B(  1-C , 23-H ) :   0.9041 B(  2-O ,  3-P ) :   1.1523 B(  3-P ,  4-S ) :   1.6363
B(  3-P ,  5-O ) :   1.0877 B(  3-P ,  8-S ) :   0.9322 B(  4-S ,  8-S ) :   0.1062
B(  5-O ,  6-C ) :   0.9142 B(  6-C ,  7-C ) :   1.1658 B(  6-C , 24-H ) :   0.9271
B(  6-C , 25-H ) :   0.9334 B(  7-C , 26-H ) :   0.9349 B(  7-C , 27-H ) :   0.9428
B(  7-C , 28-H ) :   0.9319 B(  8-S ,  9-C ) :   1.0179 B(  9-C , 10-S ) :   1.0032
B(  9-C , 29-H ) :   0.8681 B(  9-C , 30-H ) :   0.8881 B( 10-S , 11-P ) :   0.9595
B( 10-S , 12-S ) :   0.1037 B( 11-P , 12-S ) :   1.6343 B( 11-P , 13-O ) :   1.1357
B( 11-P , 16-O ) :   1.0628 B( 13-O , 14-C ) :   0.9044 B( 14-C , 15-C ) :   1.1669
B( 14-C , 31-H ) :   0.9222 B( 14-C , 32-H ) :   0.9337 B( 15-C , 33-H ) :   0.9351
B( 15-C , 34-H ) :   0.9367 B( 15-C , 35-H ) :   0.9457 B( 16-O , 17-C ) :   0.9061
B( 17-C , 18-C ) :   1.1712 B( 17-C , 36-H ) :   0.9311 B( 17-C , 37-H ) :   0.9016
B( 18-C , 38-H ) :   0.9372 B( 18-C , 39-H ) :   0.9356 B( 18-C , 40-H ) :   0.9306

Dispersion correction           -0.066403420
FINAL SINGLE POINT ENERGY     -2929.516990917638

DIPOLE MOMENT
-------------

Method             : SCF
Type of density    : Electron Density
Multiplicity       :   1
Irrep              :   0
Energy             : -2929.6358501350136976 Eh
Relativity type    :
Basis              : AO
                                X                 Y                 Z
Electronic contribution:      7.471652616       5.328189151       0.855782919
Nuclear contribution   :     -8.672273974      -6.138925146      -0.895945733
                        -----------------------------------------
Total Dipole Moment    :     -1.200621358      -0.810735995      -0.040162813
                        -----------------------------------------
Magnitude (a.u.)       :      1.449274836
Magnitude (Debye)      :      3.683763880

Rotational constants in cm-1:             0.012185             0.005087             0.004831
Rotational constants in MHz :           365.306686           152.512554           144.822705

                             ****ORCA TERMINATED NORMALLY****
TOTAL RUN TIME: 0 days 0 hours 0 minutes 21 seconds 329 msec
