                         Program Version 6.0.0  -   RELEASE  -
|  1> ! r2scan-3c def2/J RI DEFGRID2 scfconv6 printgap
|  2> %output
|  3>     printlevel normal
|  4> end
|  5> * xyz 0 1
|  6> C 1.8653963091 -0.0241842994 -0.2302544502
|  7> C 0.7019200713 0.3077286342 0.2962017656
|  8> C -0.5411189429 -0.5262868034 0.1890028651
|  9> O -1.6849307898 0.2311753107 -0.1639922205
| 10> H 2.7368290689 0.5971416978 -0.1203131013
| 11> H 1.9946673252 -0.9412461963 -0.7811390226
| 12> H 0.5767002375 1.2305600875 0.8461447454
| 13> H -0.778765536 -0.9540675343 1.1689773062
| 14> H -0.3913865751 -1.3501378812 -0.5211147404
| 15> H -1.5369316423 0.6407679243 -1.0274630397
| 16> *
| 17>
| 18>                          ****END OF INPUT****

CARTESIAN COORDINATES (ANGSTROEM)
---------------------------------
  C      1.865396   -0.024184   -0.230254
  C      0.701920    0.307729    0.296202
  C     -0.541119   -0.526287    0.189003
  O     -1.684931    0.231175   -0.163992
  H      2.736829    0.597142   -0.120313
  H      1.994667   -0.941246   -0.781139
  H      0.576700    1.230560    0.846145
  H     -0.778766   -0.954068    1.168977
  H     -0.391387   -1.350138   -0.521115
  H     -1.536932    0.640768   -1.027463

 Total Charge           Charge          ....    0
 Multiplicity           Mult            ....    1
 Number of Electrons    NEL             ....   32
 Basis Dimension        Dim             ....  111

ORBITAL ENERGIES
----------------

  NO   OCC          E(Eh)            E(eV)
   0   2.0000     -18.952510      -515.7240
   1   2.0000     -10.082926      -274.3704
   2   2.0000     -10.039062      -273.1768
   3   2.0000     -10.031425      -272.9689
   4   2.0000      -0.988276       -26.8924
   5   2.0000      -0.756456       -20.5842
   6   2.0000      -0.647364       -17.6157
   7   2.0000      -0.540327       -14.7030
   8   2.0000      -0.487017       -13.2524
   9   2.0000      -0.416803       -11.3418
  10   2.0000      -0.414697       -11.2845
  11   2.0000      -0.404346       -11.0028
  12   2.0000      -0.337147        -9.1742
  13   2.0000      -0.300561        -8.1787
  14   2.0000      -0.260023        -7.0756
  15   2.0000      -0.239406        -6.5146
  16   0.0000      -0.027868        -0.7583
  17   0.0000       0.071495         1.9455
  18   0.0000       0.105725         2.8769
  19   0.0000       0.133422         3.6306
  20   0.0000       0.139640         3.7998

MULLIKEN ATOMIC CHARGES
-----------------------
   0 C :   -0.343388
   1 C :   -0.100760
   2 C :   -0.162952
   3 O :   -0.420729
   4 H :    0.144452
   5 H :    0.142116
   6 H :    0.166352
   7 H :    0.142392
   8 H :    0.134258
   9 H :    0.298258
Sum of atomic charges:    0.0000000

LOEWDIN ATOMIC CHARGES
----------------------
   0 C :   -0.303349
   1 C :   -0.188027
   2 C :    0.007976
   3 O :   -0.610165
   4 H :    0.158523
   5 H :    0.156472
   6 H :    0.167617
   7 H :    0.183678
   8 H :    0.160291
   9 H :    0.266984

  Mayer bond orders larger than 0.100000
B(  0-C ,  1-C ) :   1.8907 B(  0-C ,  4-H ) :   0.9548 B(  0-C ,  5-H ) :   0.9826
B(  1-C ,  2-C ) :   0.9484 B(  1-C ,  6-H ) :   0.9302 B(  2-C ,  3-O ) :   0.9322
B(  2-C ,  7-H ) :   0.9529 B(  2-C ,  8-H ) :   1.0045 B(  3-O ,  9-H ) :   0.8968

Dispersion correction           -0.001713885
FINAL SINGLE POINT ENERGY      -193.068164335598

DIPOLE MOMENT
-------------

Method             : SCF
Type of density    : Electron Density
Multiplicity       :   1
Irrep              :   0
Energy             :  -193.0713291210668956 Eh
Relativity type    :
Basis              : AO
                                X                 Y                 Z
Electronic contribution:     -1.959860831       0.689410587       0.097657853
Nuclear contribution   :      2.415250542      -0.725507377      -0.410456112
                        -----------------------------------------
Total Dipole Moment    :      0.455389710      -0.036096790      -0.312798259
                        -----------------------------------------
Magnitude (a.u.)       :      0.553647467
Magnitude (Debye)      :      1.407260023

Rotational constants in cm-1:             0.942269             0.142487             0.137091
Rotational constants in MHz :         28248.517307          4271.666794          4109.876954

                             ****ORCA TERMINATED NORMALLY****
TOTAL RUN TIME: 0 days 0 hours 0 minutes 7 seconds 246 msec
