                         Program Version 6.0.0  -   RELEASE  -
|  1> ! r2scan-3c def2/J RI DEFGRID2 scfconv6 printgap
|  2> %output
|  3>     printlevel normal
|  4> end
|  5> %cpcm
|  6>     smd true
|  7>     smdsolvent "water"
|  8> end
|  9> * xyz 0 1
| 10> C 1.8653963091 -0.0241842994 -0.2302544502
| 11> C 0.7019200713 0.3077286342 0.2962017656
| 12> C -0.5411189429 -0.5262868034 0.1890028651
| 13> O -1.6849307898 0.2311753107 -0.1639922205
| 14> H 2.7368290689 0.5971416978 -0.1203131013
| 15> H 1.9946673252 -0.9412461963 -0.7811390226
| 16> H 0.5767002375 1.2305600875 0.8461447454
| 17> H -0.778765536 -0.9540675343 1.1689773062
| 18> H -0.3913865751 -1.3501378812 -0.5211147404
| 19> H -1.5369316423 0.6407679243 -1.0274630397
| 20> *
| 21>
| 22>                          ****END OF INPUT****

CARTESIAN COORDINATES (ANGSTROEM)
---------------------------------
  C      1.865396   -0.024184   -0.230254
  C      0.701920    0.307729    0.296202
  C     -0.541119   -0.526287    0.189003
  O     -1.684931    0.231175   -0.163992
  H      2.736829    0.597142   -0.120313
  H      1.994667   -0.941246   -0.781139
  H      0.576700    1.230560    0.846145
  H     -0.778766   -0.954068    1.168977
  H     -0.391387   -1.350138   -0.521115
  H     -1.536932    0.640768   -1.027463

 Total Charge           Charge          ....    0
 Multiplicity           Mult            ....    1
 Number of Electrons    NEL             ....   32
 Basis Dimension        Dim             ....  111

ORBITAL ENERGIES
----------------

  NO   OCC          E(Eh)            E(eV)
   0   2.0000     -18.954506      -515.7783
   1   2.0000     -10.075606      -274.1712
   2   2.0000     -10.032474      -272.9975
   3   2.0000     -10.022533      -272.7270
   4   2.0000      -0.989119       -26.9153
   5   2.0000      -0.749813       -20.4035
   6   2.0000      -0.641206       -17.4481
   7   2.0000      -0.532914       -14.5013
   8   2.0000      -0.481585       -13.1046
   9   2.0000      -0.410029       -11.1575
  10   2.0000      -0.408594       -11.1184
  11   2.0000      -0.401127       -10.9152
  12   2.0000      -0.329810        -8.9746
  13   2.0000      -0.301026        -8.1913
  14   2.0000      -0.258331        -7.0295
  15   2.0000      -0.239385        -6.5140
  16   0.0000      -0.022275        -0.6061
  17   0.0000       0.086406         2.3512
  18   0.0000       0.115402         3.1402
  19   0.0000       0.146501         3.9865
  20   0.0000       0.149553         4.0695

MULLIKEN ATOMIC CHARGES
-----------------------
   0 C :   -0.405694
   1 C :   -0.125808
   2 C :   -0.154556
   3 O :   -0.502921
   4 H :    0.169350
   5 H :    0.169970
   6 H :    0.184680
   7 H :    0.159246
   8 H :    0.154900
   9 H :    0.350833
Sum of atomic charges:    0.0000000

LOEWDIN ATOMIC CHARGES
----------------------
   0 C :   -0.315016
   1 C :   -0.193066
   2 C :    0.006938
   3 O :   -0.645585
   4 H :    0.165346
   5 H :    0.165183
   6 H :    0.172504
   7 H :    0.188622
   8 H :    0.170208
   9 H :    0.284867

  Mayer bond orders larger than 0.100000
B(  0-C ,  1-C ) :   1.8843 B(  0-C ,  4-H ) :   0.9533 B(  0-C ,  5-H ) :   0.9769
B(  1-C ,  2-C ) :   0.9388 B(  1-C ,  6-H ) :   0.9251 B(  2-C ,  3-O ) :   0.9197
B(  2-C ,  7-H ) :   0.9504 B(  2-C ,  8-H ) :   0.9946 B(  3-O ,  9-H ) :   0.8702

Dispersion correction           -0.001713885
FINAL SINGLE POINT ENERGY      -193.074793753779

DIPOLE MOMENT
-------------

Method             : SCF
Type of density    : Electron Density
Multiplicity       :   1
Irrep              :   0
Energy             :  -193.0779585392475326 Eh
Relativity type    :
Basis              : AO
                                X                 Y                 Z
Electronic contribution:     -1.795987536       0.656006762      -0.037627094
Nuclear contribution   :      2.415250542      -0.725507377      -0.410456112
                        -----------------------------------------
Total Dipole Moment    :      0.619263006      -0.069500614      -0.448083206
                        -----------------------------------------
Magnitude (a.u.)       :      0.767525612
Magnitude (Debye)      :      1.950895067

Rotational constants in cm-1:             0.942269             0.142487             0.137091
Rotational constants in MHz :         28248.517307          4271.666794          4109.876954

                             ****ORCA TERMINATED NORMALLY****
TOTAL RUN TIME: 0 days 0 hours 0 minutes 8 seconds 449 msec
