                         Program Version 6.0.0  -   RELEASE  -
|  1> ! pbe def2-sv(p) def2/J RI DEFGRID1 loosescf d4 GCP(DFT/SV(P)) printgap
|  2> %output
|  3>     printlevel normal
|  4> end
|  5> * xyz 0 1
|  6> C 2.3659293014 0.5183164473 -2.9008435179
|  7> C 1.7509552707 -0.8232602759 -2.5563786078
|  8> O 1.2132564948 -0.8481471752 -1.2226621279
|  9> P 2.1712914766 -0.8932749366 0.044333933
| 10> S 3.909210946 -1.7631451687 -0.1902217154
| 11> O 1.1641626235 -1.6581405367 1.0042942832
| 12> C 1.5900818604 -2.2623793467 2.2375133521
| 13> C 1.8342804628 -1.2305793299 3.3212985895
| 14> S 2.2632581553 1.1164749159 0.7439624889
| 15> C 0.6022119641 1.7164278085 0.3360505303
| 16> S -0.7353079302 0.7737874648 1.1294962426
| 17> P -2.1541756508 0.9006052702 -0.4569511426
| 18> S -1.40124727 0.9825132227 -2.2628307088
| 19> O -3.0154641618 2.1945954887 -0.1674193696
| 20> C -4.1141729084 2.2966856276 0.7698439817
| 21> C -3.6995731391 2.0066170277 2.1967104072
| 22> O -3.1978361052 -0.268578634 -0.1919328433
| 23> C -3.0377559943 -1.593226356 -0.7262071923
| 24> C -2.04268459 -2.4112569183 0.0706731166
| 25> H 3.176788803 0.7460939371 -2.2088894075
| 26> H 2.7645178766 0.4779711073 -3.9093566824
| 27> H 1.6149010699 1.3034826226 -2.8515777472
| 28> H 2.4952031217 -1.620886698 -2.6433355788
| 29> H 0.8908346448 -1.0382248895 -3.1922429215
| 30> H 0.767241106 -2.929493569 2.4984094466
| 31> H 2.4952053778 -2.8476920079 2.0438832558
| 32> H 2.0119117319 -1.7379406105 4.264023001
| 33> H 2.7057445101 -0.6251159421 3.0762111144
| 34> H 0.9686940396 -0.5790214808 3.4179944366
| 35> H 0.4478249149 1.6752969135 -0.7442617942
| 36> H 0.5839811185 2.7417149894 0.6980427352
| 37> H -4.4467332108 3.3288945096 0.6489279478
| 38> H -4.9009474679 1.6127855763 0.4459060328
| 39> H -2.8829541626 2.6573946956 2.4981019566
| 40> H -4.5496169837 2.1751580944 2.8506815587
| 41> H -3.3773803176 0.9716963992 2.2937619859
| 42> H -4.0405051888 -2.0206849086 -0.6706984501
| 43> H -2.7279083912 -1.5133994749 -1.7734481124
| 44> H -2.0553740346 -3.4358645537 -0.2874083459
| 45> H -1.0372018161 -2.0122404804 -0.049005834
| 46> H -2.3029300099 -2.3962415011 1.1258731498
| 47> *
| 48>
| 49>                          ****END OF INPUT****

CARTESIAN COORDINATES (ANGSTROEM)
---------------------------------
  C      2.365929    0.518316   -2.900844
  C      1.750955   -0.823260   -2.556379
  O      1.213256   -0.848147   -1.222662
  P      2.171291   -0.893275    0.044334
  S      3.909211   -1.763145   -0.190222
  O      1.164163   -1.658141    1.004294
  C      1.590082   -2.262379    2.237513
  C      1.834280   -1.230579    3.321299
  S      2.263258    1.116475    0.743962
  C      0.602212    1.716428    0.336051
  S     -0.735308    0.773787    1.129496
  P     -2.154176    0.900605   -0.456951
  S     -1.401247    0.982513   -2.262831
  O     -3.015464    2.194595   -0.167419
  C     -4.114173    2.296686    0.769844
  C     -3.699573    2.006617    2.196710
  O     -3.197836   -0.268579   -0.191933
  C     -3.037756   -1.593226   -0.726207
  C     -2.042685   -2.411257    0.070673
  H      3.176789    0.746094   -2.208889
  H      2.764518    0.477971   -3.909357
  H      1.614901    1.303483   -2.851578
  H      2.495203   -1.620887   -2.643336
  H      0.890835   -1.038225   -3.192243
  H      0.767241   -2.929494    2.498409
  H      2.495205   -2.847692    2.043883
  H      2.011912   -1.737941    4.264023
  H      2.705745   -0.625116    3.076211
  H      0.968694   -0.579021    3.417994
  H      0.447825    1.675297   -0.744262
  H      0.583981    2.741715    0.698043
  H     -4.446733    3.328895    0.648928
  H     -4.900947    1.612786    0.445906
  H     -2.882954    2.657395    2.498102
  H     -4.549617    2.175158    2.850682
  H     -3.377380    0.971696    2.293762
  H     -4.040505   -2.020685   -0.670698
  H     -2.727908   -1.513399   -1.773448
  H     -2.055374   -3.435865   -0.287408
  H     -1.037202   -2.012240   -0.049006
  H     -2.302930   -2.396242    1.125873

 Total Charge           Charge          ....    0
 Multiplicity           Mult            ....    1
 Number of Electrons    NEL             ....  202
 Basis Dimension        Dim             ....  334

ORBITAL ENERGIES
----------------

  NO   OCC          E(Eh)            E(eV)
   0   2.0000     -88.045429     -2395.8379
   1   2.0000     -88.044132     -2395.8026
   2   2.0000     -87.990037     -2394.3306
   3   2.0000     -87.987525     -2394.2623
   4   2.0000     -76.431259     -2079.8003
   5   2.0000     -76.425271     -2079.6374
   6   2.0000     -18.803075      -511.6577
   7   2.0000     -18.792534      -511.3708
   8   2.0000     -18.788037      -511.2485
   9   2.0000     -18.787031      -511.2211
  10   2.0000      -9.960654      -271.0432
  11   2.0000      -9.955897      -270.9137
  12   2.0000      -9.955744      -270.9096
  13   2.0000      -9.950906      -270.7779
  14   2.0000      -9.944634      -270.6072
  15   2.0000      -9.892618      -269.1918
  16   2.0000      -9.882812      -268.9250
  17   2.0000      -9.881332      -268.8847
  18   2.0000      -9.875973      -268.7389
  19   2.0000      -7.690219      -209.2615
  20   2.0000      -7.688658      -209.2190
  21   2.0000      -7.635127      -207.7624
  22   2.0000      -7.632643      -207.6948
  23   2.0000      -6.428753      -174.9353
  24   2.0000      -6.422778      -174.7727
  25   2.0000      -5.718503      -155.6084
  26   2.0000      -5.716522      -155.5545
  27   2.0000      -5.714408      -155.4969
  28   2.0000      -5.713416      -155.4700
  29   2.0000      -5.707188      -155.3005
  30   2.0000      -5.705449      -155.2532
  31   2.0000      -5.664039      -154.1263
  32   2.0000      -5.661614      -154.0604
  33   2.0000      -5.655958      -153.9064
  34   2.0000      -5.654998      -153.8803
  35   2.0000      -5.653299      -153.8341
  36   2.0000      -5.652729      -153.8186
  37   2.0000      -4.651892      -126.5844
  38   2.0000      -4.650137      -126.5367
  39   2.0000      -4.649070      -126.5076
  40   2.0000      -4.645074      -126.3989
  41   2.0000      -4.644930      -126.3950
  42   2.0000      -4.643105      -126.3453
  43   2.0000      -0.993242       -27.0275
  44   2.0000      -0.985585       -26.8191
  45   2.0000      -0.948777       -25.8175
  46   2.0000      -0.942729       -25.6530
  47   2.0000      -0.762123       -20.7384
  48   2.0000      -0.722988       -19.6735
  49   2.0000      -0.709525       -19.3072
  50   2.0000      -0.693722       -18.8771
  51   2.0000      -0.681930       -18.5563
  52   2.0000      -0.677932       -18.4475
  53   2.0000      -0.654962       -17.8224
  54   2.0000      -0.637787       -17.3551
  55   2.0000      -0.601751       -16.3745
  56   2.0000      -0.595772       -16.2118
  57   2.0000      -0.582400       -15.8479
  58   2.0000      -0.565376       -15.3847
  59   2.0000      -0.560374       -15.2485
  60   2.0000      -0.500656       -13.6236
  61   2.0000      -0.491693       -13.3796
  62   2.0000      -0.476294       -12.9606
  63   2.0000      -0.465051       -12.6547
  64   2.0000      -0.456840       -12.4312
  65   2.0000      -0.450256       -12.2521
  66   2.0000      -0.444944       -12.1075
  67   2.0000      -0.440095       -11.9756
  68   2.0000      -0.429214       -11.6795
  69   2.0000      -0.418996       -11.4015
  70   2.0000      -0.411249       -11.1907
  71   2.0000      -0.401512       -10.9257
  72   2.0000      -0.395685       -10.7671
  73   2.0000      -0.391229       -10.6459
  74   2.0000      -0.384309       -10.4576
  75   2.0000      -0.374618       -10.1939
  76   2.0000      -0.368880       -10.0377
  77   2.0000      -0.359903        -9.7935
  78   2.0000      -0.355342        -9.6694
  79   2.0000      -0.349259        -9.5038
  80   2.0000      -0.347079        -9.4445
  81   2.0000      -0.345429        -9.3996
  82   2.0000      -0.337826        -9.1927
  83   2.0000      -0.333304        -9.0697
  84   2.0000      -0.329502        -8.9662
  85   2.0000      -0.321276        -8.7424
  86   2.0000      -0.320027        -8.7084
  87   2.0000      -0.300516        -8.1775
  88   2.0000      -0.298463        -8.1216
  89   2.0000      -0.296913        -8.0794
  90   2.0000      -0.283543        -7.7156
  91   2.0000      -0.277211        -7.5433
  92   2.0000      -0.267045        -7.2667
  93   2.0000      -0.263618        -7.1734
  94   2.0000      -0.258650        -7.0382
  95   2.0000      -0.228867        -6.2278
  96   2.0000      -0.222011        -6.0412
  97   2.0000      -0.211777        -5.7627
  98   2.0000      -0.208540        -5.6747
  99   2.0000      -0.201331        -5.4785
 100   2.0000      -0.199394        -5.4258
 101   0.0000      -0.044453        -1.2096
 102   0.0000      -0.034111        -0.9282
 103   0.0000      -0.023926        -0.6511
 104   0.0000      -0.001324        -0.0360
 105   0.0000       0.012134         0.3302

MULLIKEN ATOMIC CHARGES
-----------------------
   0 C :   -0.333569
   1 C :    0.005233
   2 O :   -0.364045
   3 P :    0.607431
   4 S :   -0.319012
   5 O :   -0.353912
   6 C :   -0.001917
   7 C :   -0.316525
   8 S :   -0.093497
   9 C :   -0.355083
  10 S :   -0.108647
  11 P :    0.624619
  12 S :   -0.313832
  13 O :   -0.368128
  14 C :    0.008413
  15 C :   -0.321252
  16 O :   -0.385247
  17 C :   -0.002757
  18 C :   -0.349066
  19 H :    0.124565
  20 H :    0.110393
  21 H :    0.136133
  22 H :    0.111555
  23 H :    0.107685
  24 H :    0.103357
  25 H :    0.110881
  26 H :    0.111006
  27 H :    0.126073
  28 H :    0.118844
  29 H :    0.211513
  30 H :    0.181037
  31 H :    0.111038
  32 H :    0.109436
  33 H :    0.123618
  34 H :    0.114968
  35 H :    0.123948
  36 H :    0.103131
  37 H :    0.112206
  38 H :    0.110654
  39 H :    0.171599
  40 H :    0.107151
Sum of atomic charges:    0.0000000

LOEWDIN ATOMIC CHARGES
----------------------
   0 C :   -0.370121
   1 C :   -0.121231
   2 O :   -0.232689
   3 P :    0.569239
   4 S :   -0.316869
   5 O :   -0.231338
   6 C :   -0.118492
   7 C :   -0.369259
   8 S :    0.086809
   9 C :   -0.482394
  10 S :    0.080960
  11 P :    0.577978
  12 S :   -0.293791
  13 O :   -0.246500
  14 C :   -0.107556
  15 C :   -0.369455
  16 O :   -0.243568
  17 C :   -0.116806
  18 C :   -0.374806
  19 H :    0.120506
  20 H :    0.131227
  21 H :    0.123494
  22 H :    0.108724
  23 H :    0.117632
  24 H :    0.117524
  25 H :    0.109560
  26 H :    0.129561
  27 H :    0.120553
  28 H :    0.121039
  29 H :    0.120910
  30 H :    0.135672
  31 H :    0.122860
  32 H :    0.114877
  33 H :    0.126330
  34 H :    0.131821
  35 H :    0.117372
  36 H :    0.117269
  37 H :    0.111306
  38 H :    0.131156
  39 H :    0.129251
  40 H :    0.121246

  Mayer bond orders larger than 0.100000
B(  0-C ,  1-C ) :   1.1670 B(  0-C , 19-H ) :   0.9357 B(  0-C , 20-H ) :   0.9381
B(  0-C , 21-H ) :   0.9334 B(  1-C ,  2-O ) :   0.8997 B(  1-C , 22-H ) :   0.9166
B(  1-C , 23-H ) :   0.9242 B(  2-O ,  3-P ) :   1.0987 B(  3-P ,  4-S ) :   1.6440
B(  3-P ,  5-O ) :   1.0880 B(  3-P ,  8-S ) :   0.9551 B(  5-O ,  6-C ) :   0.9166
B(  6-C ,  7-C ) :   1.1630 B(  6-C , 24-H ) :   0.9332 B(  6-C , 25-H ) :   0.9136
B(  7-C , 26-H ) :   0.9384 B(  7-C , 27-H ) :   0.9388 B(  7-C , 28-H ) :   0.9429
B(  8-S ,  9-C ) :   1.0001 B(  9-C , 10-S ) :   0.9947 B(  9-C , 29-H ) :   0.8447
B(  9-C , 30-H ) :   0.9085 B( 10-S , 11-P ) :   0.9571 B( 10-S , 12-S ) :   0.1167
B( 11-P , 12-S ) :   1.6257 B( 11-P , 13-O ) :   1.1265 B( 11-P , 16-O ) :   1.0862
B( 13-O , 14-C ) :   0.9041 B( 14-C , 15-C ) :   1.1689 B( 14-C , 31-H ) :   0.9347
B( 14-C , 32-H ) :   0.9287 B( 15-C , 33-H ) :   0.9423 B( 15-C , 34-H ) :   0.9357
B( 15-C , 35-H ) :   0.9390 B( 16-O , 17-C ) :   0.8999 B( 17-C , 18-C ) :   1.1647
B( 17-C , 36-H ) :   0.9333 B( 17-C , 37-H ) :   0.9129 B( 18-C , 38-H ) :   0.9374
B( 18-C , 39-H ) :   0.9172 B( 18-C , 40-H ) :   0.9459

Dispersion correction           -0.067498479
FINAL SINGLE POINT ENERGY     -2929.516633424793

DIPOLE MOMENT
-------------

Method             : SCF
Type of density    : Electron Density
Multiplicity       :   1
Irrep              :   0
Energy             : -2929.6366487576251529 Eh
Relativity type    :
Basis              : AO
                                X                 Y                 Z
Electronic contribution:      9.270106499       4.742840177      -6.498346931
Nuclear contribution   :    -10.882873681      -4.800340437       7.442824155
                        -----------------------------------------
Total Dipole Moment    :     -1.612767182      -0.057500260       0.944477224
                        -----------------------------------------
Magnitude (a.u.)       :      1.869856008
Magnitude (Debye)      :      4.752796261

Rotational constants in cm-1:             0.012016             0.005529             0.005047
Rotational constants in MHz :           360.224263           165.749986           151.295318

                             ****ORCA TERMINATED NORMALLY****
TOTAL RUN TIME: 0 days 0 hours 0 minutes 22 seconds 186 msec
