                         Program Version 6.0.0  -   RELEASE  -
|  1> ! pbe def2-sv(p) def2/J RI DEFGRID1 loosescf d4 GCP(DFT/SV(P)) printgap
|  2> %output
|  3>     printlevel normal
|  4> end
|  5> * xyz 0 1
|  6> C 2.6521744903 -2.9105120999 1.2841794079
|  7> C 1.6375227728 -2.0747190918 0.5291910481
|  8> O 1.8880341051 -0.6835840497 0.7841991272
|  9> P 2.3293117225 0.3871951716 -0.312760817
| 10> S 3.0273645799 -0.3614900524 -1.9749419486
| 11> O 3.3946122305 1.2804254361 0.4277156762
| 12> C 3.1393106777 2.1328227662 1.5707112223
| 13> C 3.2006265236 1.3565725556 2.8700765773
| 14> S 0.6638317822 1.7166144416 -0.4938333248
| 15> C -0.0806110914 0.9412001806 -1.9425165732
| 16> S -0.6675672447 -0.7454248963 -1.6163712955
| 17> P -2.0962543149 -0.2332608994 -0.1495245691
| 18> S -3.0804883585 1.4460371727 -0.4070509529
| 19> O -1.2504107818 -0.3966033052 1.1764697262
| 20> C -1.7062913488 0.1396980443 2.4434699358
| 21> C -1.0163921845 1.4555196806 2.7400296748
| 22> O -3.0235499861 -1.5222415373 -0.0710797384
| 23> C -4.1109367978 -1.7483953196 -0.9906110346
| 24> C -5.119620984 -2.6532542451 -0.3119182699
| 25> H 2.608538194 -2.6884199345 2.3465361132
| 26> H 2.4344087307 -3.9617995194 1.1262206435
| 27> H 3.6532294735 -2.6946763713 0.9176472161
| 28> H 0.6173089069 -2.2702854733 0.8680971709
| 29> H 1.7039728626 -2.2623437397 -0.5477308913
| 30> H 3.9298909378 2.8832360734 1.5163696678
| 31> H 2.1668908493 2.615353873 1.4370559974
| 32> H 2.4240749031 0.5965275632 2.8950007083
| 33> H 4.167254355 0.8699257675 2.9677017478
| 34> H 3.0591007603 2.0428617213 3.6993269346
| 35> H 0.6563729986 0.8601186306 -2.7410641646
| 36> H -0.921025226 1.5710588718 -2.2324767671
| 37> H -2.7918227493 0.2647421646 2.4110415633
| 38> H -1.4459849715 -0.625295011 3.1765638908
| 39> H -1.3078251979 1.798585211 3.7273790644
| 40> H 0.0618038061 1.3264403634 2.7054515532
| 41> H -1.3000261731 2.2037369455 2.0026760507
| 42> H -4.5534451732 -0.7815430477 -1.2537253957
| 43> H -3.6996337795 -2.2123722137 -1.8905778129
| 44> H -4.6432165951 -3.5841531743 -0.0185217241
| 45> H -5.5228749804 -2.1688746411 0.5729503408
| 46> H -5.928462429 -2.8648723932 -1.003492813
| 47> *
| 48>
| 49>                          ****END OF INPUT****

CARTESIAN COORDINATES (ANGSTROEM)
---------------------------------
  C      2.652174   -2.910512    1.284179
  C      1.637523   -2.074719    0.529191
  O      1.888034   -0.683584    0.784199
  P      2.329312    0.387195   -0.312761
  S      3.027365   -0.361490   -1.974942
  O      3.394612    1.280425    0.427716
  C      3.139311    2.132823    1.570711
  C      3.200627    1.356573    2.870077
  S      0.663832    1.716614   -0.493833
  C     -0.080611    0.941200   -1.942517
  S     -0.667567   -0.745425   -1.616371
  P     -2.096254   -0.233261   -0.149525
  S     -3.080488    1.446037   -0.407051
  O     -1.250411   -0.396603    1.176470
  C     -1.706291    0.139698    2.443470
  C     -1.016392    1.455520    2.740030
  O     -3.023550   -1.522242   -0.071080
  C     -4.110937   -1.748395   -0.990611
  C     -5.119621   -2.653254   -0.311918
  H      2.608538   -2.688420    2.346536
  H      2.434409   -3.961800    1.126221
  H      3.653229   -2.694676    0.917647
  H      0.617309   -2.270285    0.868097
  H      1.703973   -2.262344   -0.547731
  H      3.929891    2.883236    1.516370
  H      2.166891    2.615354    1.437056
  H      2.424075    0.596528    2.895001
  H      4.167254    0.869926    2.967702
  H      3.059101    2.042862    3.699327
  H      0.656373    0.860119   -2.741064
  H     -0.921025    1.571059   -2.232477
  H     -2.791823    0.264742    2.411042
  H     -1.445985   -0.625295    3.176564
  H     -1.307825    1.798585    3.727379
  H      0.061804    1.326440    2.705452
  H     -1.300026    2.203737    2.002676
  H     -4.553445   -0.781543   -1.253725
  H     -3.699634   -2.212372   -1.890578
  H     -4.643217   -3.584153   -0.018522
  H     -5.522875   -2.168875    0.572950
  H     -5.928462   -2.864872   -1.003493

 Total Charge           Charge          ....    0
 Multiplicity           Mult            ....    1
 Number of Electrons    NEL             ....  202
 Basis Dimension        Dim             ....  334

ORBITAL ENERGIES
----------------

  NO   OCC          E(Eh)            E(eV)
   0   2.0000     -88.045352     -2395.8358
   1   2.0000     -88.039401     -2395.6739
   2   2.0000     -87.991216     -2394.3627
   3   2.0000     -87.984861     -2394.1898
   4   2.0000     -76.429253     -2079.7457
   5   2.0000     -76.425639     -2079.6474
   6   2.0000     -18.795483      -511.4511
   7   2.0000     -18.794794      -511.4323
   8   2.0000     -18.793695      -511.4025
   9   2.0000     -18.787344      -511.2296
  10   2.0000      -9.962929      -271.1051
  11   2.0000      -9.957620      -270.9606
  12   2.0000      -9.954635      -270.8794
  13   2.0000      -9.954447      -270.8743
  14   2.0000      -9.942714      -270.5550
  15   2.0000      -9.891253      -269.1547
  16   2.0000      -9.890547      -269.1355
  17   2.0000      -9.884466      -268.9700
  18   2.0000      -9.881187      -268.8808
  19   2.0000      -7.690250      -209.2623
  20   2.0000      -7.684168      -209.0968
  21   2.0000      -7.636177      -207.7909
  22   2.0000      -7.630152      -207.6270
  23   2.0000      -6.426919      -174.8854
  24   2.0000      -6.423098      -174.7814
  25   2.0000      -5.718107      -155.5976
  26   2.0000      -5.714833      -155.5085
  27   2.0000      -5.712000      -155.4314
  28   2.0000      -5.708800      -155.3443
  29   2.0000      -5.707171      -155.3000
  30   2.0000      -5.701076      -155.1342
  31   2.0000      -5.665002      -154.1525
  32   2.0000      -5.659169      -153.9938
  33   2.0000      -5.656889      -153.9318
  34   2.0000      -5.656354      -153.9172
  35   2.0000      -5.650770      -153.7653
  36   2.0000      -5.650146      -153.7483
  37   2.0000      -4.649390      -126.5163
  38   2.0000      -4.648658      -126.4964
  39   2.0000      -4.647457      -126.4637
  40   2.0000      -4.645864      -126.4204
  41   2.0000      -4.644709      -126.3889
  42   2.0000      -4.643558      -126.3576
  43   2.0000      -0.989852       -26.9352
  44   2.0000      -0.985188       -26.8083
  45   2.0000      -0.947673       -25.7875
  46   2.0000      -0.943132       -25.6639
  47   2.0000      -0.766096       -20.8465
  48   2.0000      -0.724493       -19.7145
  49   2.0000      -0.713625       -19.4187
  50   2.0000      -0.691263       -18.8102
  51   2.0000      -0.689365       -18.7586
  52   2.0000      -0.672651       -18.3038
  53   2.0000      -0.650492       -17.7008
  54   2.0000      -0.640566       -17.4307
  55   2.0000      -0.598438       -16.2843
  56   2.0000      -0.592280       -16.1168
  57   2.0000      -0.574538       -15.6340
  58   2.0000      -0.571632       -15.5549
  59   2.0000      -0.561470       -15.2784
  60   2.0000      -0.512083       -13.9345
  61   2.0000      -0.499399       -13.5893
  62   2.0000      -0.481747       -13.1090
  63   2.0000      -0.479464       -13.0469
  64   2.0000      -0.458110       -12.4658
  65   2.0000      -0.448699       -12.2097
  66   2.0000      -0.442206       -12.0330
  67   2.0000      -0.437865       -11.9149
  68   2.0000      -0.427644       -11.6368
  69   2.0000      -0.415771       -11.3137
  70   2.0000      -0.406093       -11.0503
  71   2.0000      -0.392167       -10.6714
  72   2.0000      -0.390040       -10.6135
  73   2.0000      -0.384944       -10.4749
  74   2.0000      -0.383243       -10.4286
  75   2.0000      -0.378198       -10.2913
  76   2.0000      -0.370099       -10.0709
  77   2.0000      -0.358222        -9.7477
  78   2.0000      -0.357035        -9.7154
  79   2.0000      -0.355954        -9.6860
  80   2.0000      -0.351695        -9.5701
  81   2.0000      -0.348973        -9.4960
  82   2.0000      -0.345473        -9.4008
  83   2.0000      -0.342273        -9.3137
  84   2.0000      -0.335539        -9.1305
  85   2.0000      -0.317268        -8.6333
  86   2.0000      -0.311558        -8.4779
  87   2.0000      -0.302574        -8.2335
  88   2.0000      -0.298007        -8.1092
  89   2.0000      -0.292089        -7.9481
  90   2.0000      -0.284878        -7.7519
  91   2.0000      -0.282507        -7.6874
  92   2.0000      -0.275495        -7.4966
  93   2.0000      -0.265622        -7.2280
  94   2.0000      -0.254816        -6.9339
  95   2.0000      -0.235278        -6.4022
  96   2.0000      -0.216210        -5.8834
  97   2.0000      -0.214387        -5.8338
  98   2.0000      -0.207894        -5.6571
  99   2.0000      -0.200721        -5.4619
 100   2.0000      -0.198456        -5.4003
 101   0.0000      -0.047703        -1.2981
 102   0.0000      -0.026771        -0.7285
 103   0.0000      -0.005353        -0.1457
 104   0.0000       0.003193         0.0869
 105   0.0000       0.007767         0.2113

MULLIKEN ATOMIC CHARGES
-----------------------
   0 C :   -0.275791
   1 C :   -0.020318
   2 O :   -0.383648
   3 P :    0.629367
   4 S :   -0.317097
   5 O :   -0.360673
   6 C :   -0.029517
   7 C :   -0.314362
   8 S :   -0.118491
   9 C :   -0.347850
  10 S :   -0.087051
  11 P :    0.617204
  12 S :   -0.336072
  13 O :   -0.359472
  14 C :   -0.001404
  15 C :   -0.307409
  16 O :   -0.379136
  17 C :   -0.010782
  18 C :   -0.281429
  19 H :    0.108259
  20 H :    0.107761
  21 H :    0.115278
  22 H :    0.103802
  23 H :    0.114219
  24 H :    0.116220
  25 H :    0.124436
  26 H :    0.148110
  27 H :    0.120957
  28 H :    0.111327
  29 H :    0.194180
  30 H :    0.192415
  31 H :    0.104824
  32 H :    0.105469
  33 H :    0.106445
  34 H :    0.121711
  35 H :    0.131596
  36 H :    0.107040
  37 H :    0.103079
  38 H :    0.116629
  39 H :    0.116816
  40 H :    0.113358
Sum of atomic charges:   -0.0000000

LOEWDIN ATOMIC CHARGES
----------------------
   0 C :   -0.354570
   1 C :   -0.128437
   2 O :   -0.245595
   3 P :    0.572256
   4 S :   -0.307950
   5 O :   -0.237892
   6 C :   -0.111208
   7 C :   -0.364263
   8 S :    0.074457
   9 C :   -0.479126
  10 S :    0.095165
  11 P :    0.567561
  12 S :   -0.324308
  13 O :   -0.235927
  14 C :   -0.108800
  15 C :   -0.363841
  16 O :   -0.251875
  17 C :   -0.120703
  18 C :   -0.350650
  19 H :    0.121331
  20 H :    0.128792
  21 H :    0.126183
  22 H :    0.108608
  23 H :    0.103032
  24 H :    0.125004
  25 H :    0.105962
  26 H :    0.125682
  27 H :    0.130228
  28 H :    0.130355
  29 H :    0.131422
  30 H :    0.131612
  31 H :    0.110022
  32 H :    0.118226
  33 H :    0.127683
  34 H :    0.121024
  35 H :    0.125885
  36 H :    0.107445
  37 H :    0.111699
  38 H :    0.126762
  39 H :    0.127266
  40 H :    0.131489

  Mayer bond orders larger than 0.100000
B(  0-C ,  1-C ) :   1.1579 B(  0-C , 19-H ) :   0.9507 B(  0-C , 20-H ) :   0.9421
B(  0-C , 21-H ) :   0.9474 B(  1-C ,  2-O ) :   0.8978 B(  1-C , 22-H ) :   0.9242
B(  1-C , 23-H ) :   0.9006 B(  2-O ,  3-P ) :   1.0849 B(  3-P ,  4-S ) :   1.6338
B(  3-P ,  5-O ) :   1.1455 B(  3-P ,  8-S ) :   0.9310 B(  4-S ,  8-S ) :   0.1024
B(  5-O ,  6-C ) :   0.9028 B(  6-C ,  7-C ) :   1.1652 B(  6-C , 24-H ) :   0.9347
B(  6-C , 25-H ) :   0.9122 B(  7-C , 26-H ) :   0.9250 B(  7-C , 27-H ) :   0.9435
B(  7-C , 28-H ) :   0.9385 B(  8-S ,  9-C ) :   1.0235 B(  9-C , 10-S ) :   0.9931
B(  9-C , 29-H ) :   0.8802 B(  9-C , 30-H ) :   0.8845 B( 10-S , 11-P ) :   0.9639
B( 10-S , 12-S ) :   0.1090 B( 11-P , 12-S ) :   1.5964 B( 11-P , 13-O ) :   1.1265
B( 11-P , 16-O ) :   1.1105 B( 13-O , 14-C ) :   0.8928 B( 14-C , 15-C ) :   1.1731
B( 14-C , 31-H ) :   0.9144 B( 14-C , 32-H ) :   0.9334 B( 15-C , 33-H ) :   0.9375
B( 15-C , 34-H ) :   0.9339 B( 15-C , 35-H ) :   0.9343 B( 16-O , 17-C ) :   0.9042
B( 17-C , 18-C ) :   1.1616 B( 17-C , 36-H ) :   0.9064 B( 17-C , 37-H ) :   0.9305
B( 18-C , 38-H ) :   0.9508 B( 18-C , 39-H ) :   0.9512 B( 18-C , 40-H ) :   0.9419

Dispersion correction           -0.066161284
FINAL SINGLE POINT ENERGY     -2929.523130958666

DIPOLE MOMENT
-------------

Method             : SCF
Type of density    : Electron Density
Multiplicity       :   1
Irrep              :   0
Energy             : -2929.6420902308154837 Eh
Relativity type    :
Basis              : AO
                                X                 Y                 Z
Electronic contribution:      3.876893511       8.244275013     -20.378514231
Nuclear contribution   :     -4.536768336      -8.737149709      21.857426163
                        -----------------------------------------
Total Dipole Moment    :     -0.659874825      -0.492874696       1.478911932
                        -----------------------------------------
Magnitude (a.u.)       :      1.692790818
Magnitude (Debye)      :      4.302732316

Rotational constants in cm-1:             0.011856             0.005301             0.005015
Rotational constants in MHz :           355.423792           158.923818           150.356656

                             ****ORCA TERMINATED NORMALLY****
TOTAL RUN TIME: 0 days 0 hours 0 minutes 21 seconds 867 msec
