                         Program Version 6.0.0  -   RELEASE  -
|  1> ! wb97x-v def2-tzvp def2/J RIJCOSX DEFGRID2 scfconv7 GCP(DFT/TZ) printgap
|  2> %output
|  3>     printlevel normal
|  4> end
|  5> * xyz 0 1
|  6> C 1.851667271065586 -1.4694780191151517 -0.0001250557683816463
|  7> C 0.5649929276777397 -0.6991385826481257 0.0007128492597855351
|  8> C -0.6519687813649665 -1.385229850102439 0.0007519525396759464
|  9> C -1.8463382244174904 -0.6835090913509069 0.00019734806003682067
| 10> N -1.9117304537894537 0.6567662374046949 -6.845051862140152e-05
| 11> C -0.7419476083861651 1.3089996224230815 -4.478986960054539e-05
| 12> C 0.5171040778929197 0.7044849113024444 0.0001419510839090563
| 13> C 1.7527490424520706 1.5564566545719953 -0.00046078816464424876
| 14> H 2.7287495849056493 -0.8224312354640426 0.017379845267653807
| 15> H 1.896520564919665 -2.1340685897363376 0.8692465265840543
| 16> H 1.9119712099006545 -2.1056597550183995 -0.889804925655834
| 17> H -0.6635368123593911 -2.471558420448472 0.0012282165095525088
| 18> H -2.7943000228232915 -1.2173610208080539 0.0001338817148589218
| 19> H -0.8017304003027186 2.3967672577213075 -0.0002514016440741651
| 20> H 1.4867413788753954 2.616357522048317 -0.0018013597150937873
| 21> H 2.3725164425442733 1.3623302592218154 0.8814397102228833
| 22> H 2.373074013312924 1.3600749289562841 -0.8814595673751787
| 23> *
| 24>
| 25>                          ****END OF INPUT****

CARTESIAN COORDINATES (ANGSTROEM)
---------------------------------
  C      1.851667   -1.469478   -0.000125
  C      0.564993   -0.699139    0.000713
  C     -0.651969   -1.385230    0.000752
  C     -1.846338   -0.683509    0.000197
  N     -1.911730    0.656766   -0.000068
  C     -0.741948    1.309000   -0.000045
  C      0.517104    0.704485    0.000142
  C      1.752749    1.556457   -0.000461
  H      2.728750   -0.822431    0.017380
  H      1.896521   -2.134069    0.869247
  H      1.911971   -2.105660   -0.889805
  H     -0.663537   -2.471558    0.001228
  H     -2.794300   -1.217361    0.000134
  H     -0.801730    2.396767   -0.000251
  H      1.486741    2.616358   -0.001801
  H      2.372516    1.362330    0.881440
  H      2.373074    1.360075   -0.881460

 Total Charge           Charge          ....    0
 Multiplicity           Mult            ....    1
 Number of Electrons    NEL             ....   58
 Basis Dimension        Dim             ....  302

ORBITAL ENERGIES
----------------

  NO   OCC          E(Eh)            E(eV)
   0   2.0000     -16.518639      -449.4950
   1   2.0000     -12.077409      -328.6430
   2   2.0000     -12.077040      -328.6330
   3   2.0000     -12.075821      -328.5998
   4   2.0000     -12.063224      -328.2570
   5   2.0000     -12.053929      -328.0041
   6   2.0000     -12.051962      -327.9506
   7   2.0000     -12.051487      -327.9376
   8   2.0000      -1.511266       -41.1236
   9   2.0000      -1.361514       -37.0487
  10   2.0000      -1.304183       -35.4886
  11   2.0000      -1.234954       -33.6048
  12   2.0000      -1.204676       -32.7809
  13   2.0000      -1.128067       -30.6963
  14   2.0000      -1.104243       -30.0480
  15   2.0000      -1.002791       -27.2873
  16   2.0000      -0.959223       -26.1018
  17   2.0000      -0.915377       -24.9087
  18   2.0000      -0.876618       -23.8540
  19   2.0000      -0.869489       -23.6600
  20   2.0000      -0.860744       -23.4220
  21   2.0000      -0.851821       -23.1792
  22   2.0000      -0.838409       -22.8143
  23   2.0000      -0.827626       -22.5209
  24   2.0000      -0.813092       -22.1254
  25   2.0000      -0.812762       -22.1164
  26   2.0000      -0.758983       -20.6530
  27   2.0000      -0.682428       -18.5698
  28   2.0000      -0.642902       -17.4943
  29   0.0000      -0.288673        -7.8552
  30   0.0000      -0.240907        -6.5554
  31   0.0000      -0.099394        -2.7046
  32   0.0000      -0.063296        -1.7224
  33   0.0000      -0.022557        -0.6138

MULLIKEN ATOMIC CHARGES
-----------------------
   0 C :   -0.382058
   1 C :    0.014911
   2 C :   -0.128384
   3 C :   -0.051343
   4 N :   -0.221120
   5 C :   -0.104299
   6 C :    0.124916
   7 C :   -0.379221
   8 H :    0.129084
   9 H :    0.132789
  10 H :    0.133155
  11 H :    0.118185
  12 H :    0.118924
  13 H :    0.109566
  14 H :    0.120861
  15 H :    0.131866
  16 H :    0.132167
Sum of atomic charges:    0.0000000

LOEWDIN ATOMIC CHARGES
----------------------
   0 C :   -0.243636
   1 C :   -0.129360
   2 C :   -0.129477
   3 C :   -0.207453
   4 N :    0.114864
   5 C :   -0.180816
   6 C :   -0.158790
   7 C :   -0.254066
   8 H :    0.126036
   9 H :    0.132577
  10 H :    0.132798
  11 H :    0.145773
  12 H :    0.133933
  13 H :    0.136094
  14 H :    0.127423
  15 H :    0.127018
  16 H :    0.127081

  Mayer bond orders larger than 0.100000
B(  0-C ,  1-C ) :   0.9202 B(  0-C ,  8-H ) :   0.9977 B(  0-C ,  9-H ) :   0.9753
B(  0-C , 10-H ) :   0.9741 B(  1-C ,  2-C ) :   1.4028 B(  1-C ,  6-C ) :   1.3705
B(  2-C ,  3-C ) :   1.4248 B(  2-C , 11-H ) :   0.9681 B(  3-C ,  4-N ) :   1.4900
B(  3-C , 12-H ) :   0.9881 B(  4-N ,  5-C ) :   1.5365 B(  5-C ,  6-C ) :   1.3877
B(  5-C , 13-H ) :   0.9981 B(  6-C ,  7-C ) :   0.9158 B(  7-C , 14-H ) :   0.9833
B(  7-C , 15-H ) :   0.9813 B(  7-C , 16-H ) :   0.9813

FINAL SINGLE POINT ENERGY      -326.929185672540

DIPOLE MOMENT
-------------

Method             : SCF
Type of density    : Electron Density
Multiplicity       :   1
Irrep              :   0
Energy             :  -326.9391036051401329 Eh
Relativity type    :
Basis              : AO
                                X                 Y                 Z
Electronic contribution:     -6.959258088       0.501253718       0.003389045
Nuclear contribution   :      8.038686396      -0.961711111      -0.004375646
                        -----------------------------------------
Total Dipole Moment    :      1.079428308      -0.460457393      -0.000986602
                        -----------------------------------------
Magnitude (a.u.)       :      1.173536303
Magnitude (Debye)      :      2.982892229

Rotational constants in cm-1:             0.105963             0.073467             0.044096
Rotational constants in MHz :          3176.688610          2202.477908          1321.955903

                             ****ORCA TERMINATED NORMALLY****
TOTAL RUN TIME: 0 days 0 hours 2 minutes 16 seconds 476 msec
