                         Program Version 6.0.0  -   RELEASE  -
|  1> ! wb97x-v def2-tzvp def2/J RIJCOSX DEFGRID2 scfconv7 GCP(DFT/TZ) printgap
|  2> %output
|  3>     printlevel normal
|  4> end
|  5> %cpcm
|  6>     smd true
|  7>     smdsolvent "water"
|  8> end
|  9> * xyz 0 1
| 10> C 1.851667271065586 -1.4694780191151517 -0.0001250557683816463
| 11> C 0.5649929276777397 -0.6991385826481257 0.0007128492597855351
| 12> C -0.6519687813649665 -1.385229850102439 0.0007519525396759464
| 13> C -1.8463382244174904 -0.6835090913509069 0.00019734806003682067
| 14> N -1.9117304537894537 0.6567662374046949 -6.845051862140152e-05
| 15> C -0.7419476083861651 1.3089996224230815 -4.478986960054539e-05
| 16> C 0.5171040778929197 0.7044849113024444 0.0001419510839090563
| 17> C 1.7527490424520706 1.5564566545719953 -0.00046078816464424876
| 18> H 2.7287495849056493 -0.8224312354640426 0.017379845267653807
| 19> H 1.896520564919665 -2.1340685897363376 0.8692465265840543
| 20> H 1.9119712099006545 -2.1056597550183995 -0.889804925655834
| 21> H -0.6635368123593911 -2.471558420448472 0.0012282165095525088
| 22> H -2.7943000228232915 -1.2173610208080539 0.0001338817148589218
| 23> H -0.8017304003027186 2.3967672577213075 -0.0002514016440741651
| 24> H 1.4867413788753954 2.616357522048317 -0.0018013597150937873
| 25> H 2.3725164425442733 1.3623302592218154 0.8814397102228833
| 26> H 2.373074013312924 1.3600749289562841 -0.8814595673751787
| 27> *
| 28>
| 29>                          ****END OF INPUT****

CARTESIAN COORDINATES (ANGSTROEM)
---------------------------------
  C      1.851667   -1.469478   -0.000125
  C      0.564993   -0.699139    0.000713
  C     -0.651969   -1.385230    0.000752
  C     -1.846338   -0.683509    0.000197
  N     -1.911730    0.656766   -0.000068
  C     -0.741948    1.309000   -0.000045
  C      0.517104    0.704485    0.000142
  C      1.752749    1.556457   -0.000461
  H      2.728750   -0.822431    0.017380
  H      1.896521   -2.134069    0.869247
  H      1.911971   -2.105660   -0.889805
  H     -0.663537   -2.471558    0.001228
  H     -2.794300   -1.217361    0.000134
  H     -0.801730    2.396767   -0.000251
  H      1.486741    2.616358   -0.001801
  H      2.372516    1.362330    0.881440
  H      2.373074    1.360075   -0.881460

 Total Charge           Charge          ....    0
 Multiplicity           Mult            ....    1
 Number of Electrons    NEL             ....   58
 Basis Dimension        Dim             ....  302

ORBITAL ENERGIES
----------------

  NO   OCC          E(Eh)            E(eV)
   0   2.0000     -16.523986      -449.6405
   1   2.0000     -12.076421      -328.6161
   2   2.0000     -12.075820      -328.5998
   3   2.0000     -12.071387      -328.4791
   4   2.0000     -12.059107      -328.1450
   5   2.0000     -12.047115      -327.8187
   6   2.0000     -12.036432      -327.5280
   7   2.0000     -12.035720      -327.5086
   8   2.0000      -1.515712       -41.2446
   9   2.0000      -1.356429       -36.9103
  10   2.0000      -1.300931       -35.4001
  11   2.0000      -1.224639       -33.3241
  12   2.0000      -1.196547       -32.5597
  13   2.0000      -1.123758       -30.5790
  14   2.0000      -1.098110       -29.8811
  15   2.0000      -0.999630       -27.2013
  16   2.0000      -0.955572       -26.0024
  17   2.0000      -0.907389       -24.6913
  18   2.0000      -0.871339       -23.7103
  19   2.0000      -0.862339       -23.4654
  20   2.0000      -0.850596       -23.1459
  21   2.0000      -0.840671       -22.8758
  22   2.0000      -0.822370       -22.3778
  23   2.0000      -0.813027       -22.1236
  24   2.0000      -0.812451       -22.1079
  25   2.0000      -0.801719       -21.8159
  26   2.0000      -0.762973       -20.7616
  27   2.0000      -0.679407       -18.4876
  28   2.0000      -0.641251       -17.4493
  29   0.0000      -0.288271        -7.8442
  30   0.0000      -0.239302        -6.5117
  31   0.0000      -0.096133        -2.6159
  32   0.0000      -0.054782        -1.4907
  33   0.0000      -0.016422        -0.4469

MULLIKEN ATOMIC CHARGES
-----------------------
   0 C :   -0.409558
   1 C :    0.014774
   2 C :   -0.178379
   3 C :   -0.066264
   4 N :   -0.304561
   5 C :   -0.114036
   6 C :    0.091722
   7 C :   -0.405429
   8 H :    0.151581
   9 H :    0.150495
  10 H :    0.150742
  11 H :    0.163323
  12 H :    0.158154
  13 H :    0.153120
  14 H :    0.143307
  15 H :    0.150453
  16 H :    0.150554
Sum of atomic charges:    0.0000000

LOEWDIN ATOMIC CHARGES
----------------------
   0 C :   -0.240306
   1 C :   -0.123769
   2 C :   -0.127765
   3 C :   -0.222258
   4 N :    0.066131
   5 C :   -0.192073
   6 C :   -0.157949
   7 C :   -0.252567
   8 H :    0.131758
   9 H :    0.138367
  10 H :    0.138627
  11 H :    0.157560
  12 H :    0.141248
  13 H :    0.144336
  14 H :    0.131990
  15 H :    0.133330
  16 H :    0.133342

  Mayer bond orders larger than 0.100000
B(  0-C ,  1-C ) :   0.9384 B(  0-C ,  8-H ) :   0.9922 B(  0-C ,  9-H ) :   0.9668
B(  0-C , 10-H ) :   0.9656 B(  1-C ,  2-C ) :   1.3900 B(  1-C ,  6-C ) :   1.3556
B(  2-C ,  3-C ) :   1.4512 B(  2-C , 11-H ) :   0.9668 B(  3-C ,  4-N ) :   1.4760
B(  3-C , 12-H ) :   0.9688 B(  4-N ,  5-C ) :   1.5185 B(  5-C ,  6-C ) :   1.4173
B(  5-C , 13-H ) :   0.9730 B(  6-C ,  7-C ) :   0.9301 B(  7-C , 14-H ) :   0.9791
B(  7-C , 15-H ) :   0.9732 B(  7-C , 16-H ) :   0.9731

FINAL SINGLE POINT ENERGY      -326.936750011515

DIPOLE MOMENT
-------------

Method             : SCF
Type of density    : Electron Density
Multiplicity       :   1
Irrep              :   0
Energy             :  -326.9466679441154611 Eh
Relativity type    :
Basis              : AO
                                X                 Y                 Z
Electronic contribution:     -6.474718194       0.289439343       0.003115350
Nuclear contribution   :      8.038686396      -0.961711111      -0.004375646
                        -----------------------------------------
Total Dipole Moment    :      1.563968201      -0.672271769      -0.001260297
                        -----------------------------------------
Magnitude (a.u.)       :      1.702335882
Magnitude (Debye)      :      4.326993939

Rotational constants in cm-1:             0.105963             0.073467             0.044096
Rotational constants in MHz :          3176.688610          2202.477908          1321.955903

                             ****ORCA TERMINATED NORMALLY****
TOTAL RUN TIME: 0 days 0 hours 2 minutes 22 seconds 659 msec
