                         Program Version 6.0.0  -   RELEASE  -
|  1> ! pbe def2-sv(p) def2/J RI DEFGRID1 loosescf d4 GCP(DFT/SV(P)) printgap
|  2> %output
|  3>     printlevel normal
|  4> end
|  5> * xyz 0 1
|  6> C 4.5447392113 -2.202835659 0.5873927445
|  7> C 4.7333822001 -0.7097992765 0.4134375288
|  8> O 3.5341916923 0.0237253148 0.720186213
|  9> P 2.2360187197 -0.0421707085 -0.2003640985
| 10> S 2.6474805377 -0.0919284897 -2.1217040905
| 11> O 1.4332015027 1.2165412624 0.346939769
| 12> C 1.7602513707 2.5616273759 -0.0650292696
| 13> C 0.8045858121 3.0415595918 -1.1398087224
| 14> S 1.0877499859 -1.586554227 0.6311768226
| 15> C -0.1099746423 -1.796500926 -0.7266579259
| 16> S -0.803072752 -0.2513109468 -1.3746350097
| 17> P -2.1264466869 0.2584244114 0.1907247903
| 18> S -3.1322030318 1.9235993215 -0.030185815
| 19> O -1.1303460537 0.1991269862 1.4193952174
| 20> C -1.4152329224 0.8492307971 2.6725878031
| 21> C -2.5324697963 0.1567815246 3.4239699054
| 22> O -3.0144434508 -1.0467622982 0.4367160393
| 23> C -4.2791929401 -1.2376530818 -0.2166109688
| 24> C -4.1186102696 -1.5203283481 -1.6970925282
| 25> H 3.8490674051 -2.578211812 -0.1617667785
| 26> H 5.5002694088 -2.7020535748 0.4629621125
| 27> H 4.1470828217 -2.4210236508 1.5752539833
| 28> H 5.0267461747 -0.47629265 -0.6151855978
| 29> H 5.4703947917 -0.3101195728 1.111182088
| 30> H 1.6723897237 3.1610474349 0.8428579568
| 31> H 2.7936183317 2.5870754658 -0.4228500171
| 32> H -0.2243133486 2.9708467475 -0.7916524472
| 33> H 1.0263561252 4.0757167467 -1.3825924251
| 34> H 0.9076616812 2.4341448284 -2.0370414871
| 35> H -0.9033606666 -2.4285878919 -0.3348640198
| 36> H 0.3885646618 -2.2608342633 -1.5757039545
| 37> H -0.4679791251 0.7973029663 3.2117815809
| 38> H -1.6722049276 1.8942103343 2.4702516501
| 39> H -2.3112150083 -0.9018037515 3.5318341164
| 40> H -2.6373404881 0.6073632736 4.4059888352
| 41> H -3.4695377407 0.2701458659 2.8807140729
| 42> H -4.7253349272 -2.0822175067 0.3103938755
| 43> H -4.8863604052 -0.3395364893 -0.0641840567
| 44> H -5.0931337047 -1.7191305066 -2.1314492781
| 45> H -3.6809349394 -0.6554277305 -2.195240383
| 46> H -3.4731809884 -2.3802104881 -1.8564932638
| 47> *
| 48>
| 49>                          ****END OF INPUT****

CARTESIAN COORDINATES (ANGSTROEM)
---------------------------------
  C      4.544739   -2.202836    0.587393
  C      4.733382   -0.709799    0.413438
  O      3.534192    0.023725    0.720186
  P      2.236019   -0.042171   -0.200364
  S      2.647481   -0.091928   -2.121704
  O      1.433202    1.216541    0.346940
  C      1.760251    2.561627   -0.065029
  C      0.804586    3.041560   -1.139809
  S      1.087750   -1.586554    0.631177
  C     -0.109975   -1.796501   -0.726658
  S     -0.803073   -0.251311   -1.374635
  P     -2.126447    0.258424    0.190725
  S     -3.132203    1.923599   -0.030186
  O     -1.130346    0.199127    1.419395
  C     -1.415233    0.849231    2.672588
  C     -2.532470    0.156782    3.423970
  O     -3.014443   -1.046762    0.436716
  C     -4.279193   -1.237653   -0.216611
  C     -4.118610   -1.520328   -1.697093
  H      3.849067   -2.578212   -0.161767
  H      5.500269   -2.702054    0.462962
  H      4.147083   -2.421024    1.575254
  H      5.026746   -0.476293   -0.615186
  H      5.470395   -0.310120    1.111182
  H      1.672390    3.161047    0.842858
  H      2.793618    2.587075   -0.422850
  H     -0.224313    2.970847   -0.791652
  H      1.026356    4.075717   -1.382592
  H      0.907662    2.434145   -2.037041
  H     -0.903361   -2.428588   -0.334864
  H      0.388565   -2.260834   -1.575704
  H     -0.467979    0.797303    3.211782
  H     -1.672205    1.894210    2.470252
  H     -2.311215   -0.901804    3.531834
  H     -2.637340    0.607363    4.405989
  H     -3.469538    0.270146    2.880714
  H     -4.725335   -2.082218    0.310394
  H     -4.886360   -0.339536   -0.064184
  H     -5.093134   -1.719131   -2.131449
  H     -3.680935   -0.655428   -2.195240
  H     -3.473181   -2.380210   -1.856493

 Total Charge           Charge          ....    0
 Multiplicity           Mult            ....    1
 Number of Electrons    NEL             ....  202
 Basis Dimension        Dim             ....  334

ORBITAL ENERGIES
----------------

  NO   OCC          E(Eh)            E(eV)
   0   2.0000     -88.044176     -2395.8038
   1   2.0000     -88.041236     -2395.7238
   2   2.0000     -87.992203     -2394.3896
   3   2.0000     -87.985449     -2394.2058
   4   2.0000     -76.426727     -2079.6770
   5   2.0000     -76.424614     -2079.6195
   6   2.0000     -18.796276      -511.4727
   7   2.0000     -18.791190      -511.3343
   8   2.0000     -18.787161      -511.2246
   9   2.0000     -18.781546      -511.0718
  10   2.0000      -9.961530      -271.0670
  11   2.0000      -9.954940      -270.8877
  12   2.0000      -9.950271      -270.7607
  13   2.0000      -9.950004      -270.7534
  14   2.0000      -9.945174      -270.6219
  15   2.0000      -9.886873      -269.0355
  16   2.0000      -9.884194      -268.9626
  17   2.0000      -9.883311      -268.9386
  18   2.0000      -9.868031      -268.5228
  19   2.0000      -7.688739      -209.2212
  20   2.0000      -7.686682      -209.1652
  21   2.0000      -7.637126      -207.8168
  22   2.0000      -7.630400      -207.6337
  23   2.0000      -6.424528      -174.8203
  24   2.0000      -6.421839      -174.7471
  25   2.0000      -5.717075      -155.5695
  26   2.0000      -5.714704      -155.5050
  27   2.0000      -5.713050      -155.4600
  28   2.0000      -5.711317      -155.4128
  29   2.0000      -5.705442      -155.2530
  30   2.0000      -5.703244      -155.1932
  31   2.0000      -5.666009      -154.1799
  32   2.0000      -5.659223      -153.9953
  33   2.0000      -5.657715      -153.9543
  34   2.0000      -5.657386      -153.9453
  35   2.0000      -5.651189      -153.7767
  36   2.0000      -5.650543      -153.7591
  37   2.0000      -4.646816      -126.4463
  38   2.0000      -4.646518      -126.4382
  39   2.0000      -4.645034      -126.3978
  40   2.0000      -4.644374      -126.3799
  41   2.0000      -4.643557      -126.3576
  42   2.0000      -4.642467      -126.3280
  43   2.0000      -0.987580       -26.8734
  44   2.0000      -0.981787       -26.7158
  45   2.0000      -0.946498       -25.7555
  46   2.0000      -0.938698       -25.5433
  47   2.0000      -0.765598       -20.8330
  48   2.0000      -0.720575       -19.6078
  49   2.0000      -0.705325       -19.1929
  50   2.0000      -0.688309       -18.7298
  51   2.0000      -0.681893       -18.5553
  52   2.0000      -0.672060       -18.2877
  53   2.0000      -0.654684       -17.8149
  54   2.0000      -0.639086       -17.3904
  55   2.0000      -0.601402       -16.3650
  56   2.0000      -0.591976       -16.1085
  57   2.0000      -0.574072       -15.6213
  58   2.0000      -0.570175       -15.5153
  59   2.0000      -0.557893       -15.1810
  60   2.0000      -0.497418       -13.5354
  61   2.0000      -0.494576       -13.4581
  62   2.0000      -0.474761       -12.9189
  63   2.0000      -0.465496       -12.6668
  64   2.0000      -0.460500       -12.5308
  65   2.0000      -0.442874       -12.0512
  66   2.0000      -0.437622       -11.9083
  67   2.0000      -0.434868       -11.8333
  68   2.0000      -0.426552       -11.6071
  69   2.0000      -0.416799       -11.3417
  70   2.0000      -0.409732       -11.1494
  71   2.0000      -0.397340       -10.8122
  72   2.0000      -0.392641       -10.6843
  73   2.0000      -0.390887       -10.6366
  74   2.0000      -0.375497       -10.2178
  75   2.0000      -0.372731       -10.1425
  76   2.0000      -0.369617       -10.0578
  77   2.0000      -0.357224        -9.7205
  78   2.0000      -0.352853        -9.6016
  79   2.0000      -0.349473        -9.5096
  80   2.0000      -0.347216        -9.4482
  81   2.0000      -0.344843        -9.3837
  82   2.0000      -0.338977        -9.2240
  83   2.0000      -0.333851        -9.0845
  84   2.0000      -0.329253        -8.9594
  85   2.0000      -0.322400        -8.7730
  86   2.0000      -0.306245        -8.3334
  87   2.0000      -0.294641        -8.0176
  88   2.0000      -0.293654        -7.9907
  89   2.0000      -0.290687        -7.9100
  90   2.0000      -0.281413        -7.6576
  91   2.0000      -0.274261        -7.4630
  92   2.0000      -0.265966        -7.2373
  93   2.0000      -0.264649        -7.2015
  94   2.0000      -0.260503        -7.0886
  95   2.0000      -0.227647        -6.1946
  96   2.0000      -0.218740        -5.9522
  97   2.0000      -0.212996        -5.7959
  98   2.0000      -0.208887        -5.6841
  99   2.0000      -0.199951        -5.4409
 100   2.0000      -0.197623        -5.3776
 101   0.0000      -0.045238        -1.2310
 102   0.0000      -0.024106        -0.6560
 103   0.0000      -0.008447        -0.2299
 104   0.0000       0.000681         0.0185
 105   0.0000       0.009054         0.2464

MULLIKEN ATOMIC CHARGES
-----------------------
   0 C :   -0.314365
   1 C :   -0.004721
   2 O :   -0.373946
   3 P :    0.607310
   4 S :   -0.337911
   5 O :   -0.359793
   6 C :   -0.001101
   7 C :   -0.301340
   8 S :   -0.072702
   9 C :   -0.345988
  10 S :   -0.054520
  11 P :    0.617714
  12 S :   -0.319051
  13 O :   -0.358688
  14 C :    0.000051
  15 C :   -0.306497
  16 O :   -0.382096
  17 C :   -0.009192
  18 C :   -0.310811
  19 H :    0.124096
  20 H :    0.112388
  21 H :    0.116370
  22 H :    0.111634
  23 H :    0.103724
  24 H :    0.102806
  25 H :    0.097285
  26 H :    0.119118
  27 H :    0.102130
  28 H :    0.127377
  29 H :    0.181682
  30 H :    0.192076
  31 H :    0.106497
  32 H :    0.109582
  33 H :    0.115914
  34 H :    0.111439
  35 H :    0.119892
  36 H :    0.104755
  37 H :    0.112118
  38 H :    0.114040
  39 H :    0.129915
  40 H :    0.112809
Sum of atomic charges:   -0.0000000

LOEWDIN ATOMIC CHARGES
----------------------
   0 C :   -0.369387
   1 C :   -0.121336
   2 O :   -0.248237
   3 P :    0.568224
   4 S :   -0.332416
   5 O :   -0.241802
   6 C :   -0.111780
   7 C :   -0.367111
   8 S :    0.098916
   9 C :   -0.473305
  10 S :    0.121614
  11 P :    0.569213
  12 S :   -0.315754
  13 O :   -0.234555
  14 C :   -0.114944
  15 C :   -0.364144
  16 O :   -0.250230
  17 C :   -0.122216
  18 C :   -0.366874
  19 H :    0.120159
  20 H :    0.130655
  21 H :    0.123721
  22 H :    0.109710
  23 H :    0.117874
  24 H :    0.116822
  25 H :    0.106634
  26 H :    0.118903
  27 H :    0.125899
  28 H :    0.124034
  29 H :    0.132018
  30 H :    0.137440
  31 H :    0.119557
  32 H :    0.110014
  33 H :    0.126137
  34 H :    0.129946
  35 H :    0.121757
  36 H :    0.117902
  37 H :    0.109994
  38 H :    0.131581
  39 H :    0.122776
  40 H :    0.122595

  Mayer bond orders larger than 0.100000
B(  0-C ,  1-C ) :   1.1651 B(  0-C , 19-H ) :   0.9353 B(  0-C , 20-H ) :   0.9382
B(  0-C , 21-H ) :   0.9453 B(  1-C ,  2-O ) :   0.9105 B(  1-C , 22-H ) :   0.9134
B(  1-C , 23-H ) :   0.9336 B(  2-O ,  3-P ) :   1.1043 B(  3-P ,  4-S ) :   1.5847
B(  3-P ,  5-O ) :   1.1284 B(  3-P ,  8-S ) :   0.9804 B(  4-S ,  8-S ) :   0.1142
B(  5-O ,  6-C ) :   0.8959 B(  6-C ,  7-C ) :   1.1711 B(  6-C , 24-H ) :   0.9341
B(  6-C , 25-H ) :   0.9151 B(  7-C , 26-H ) :   0.9315 B(  7-C , 27-H ) :   0.9394
B(  7-C , 28-H ) :   0.9366 B(  8-S ,  9-C ) :   0.9870 B(  9-C , 10-S ) :   1.0023
B(  9-C , 29-H ) :   0.8975 B(  9-C , 30-H ) :   0.8994 B( 10-S , 11-P ) :   0.9664
B( 11-P , 12-S ) :   1.6154 B( 11-P , 13-O ) :   1.1300 B( 11-P , 16-O ) :   1.0636
B( 13-O , 14-C ) :   0.9070 B( 14-C , 15-C ) :   1.1620 B( 14-C , 31-H ) :   0.9328
B( 14-C , 32-H ) :   0.9184 B( 15-C , 33-H ) :   0.9466 B( 15-C , 34-H ) :   0.9392
B( 15-C , 35-H ) :   0.9388 B( 16-O , 17-C ) :   0.9109 B( 17-C , 18-C ) :   1.1639
B( 17-C , 36-H ) :   0.9341 B( 17-C , 37-H ) :   0.9141 B( 18-C , 38-H ) :   0.9384
B( 18-C , 39-H ) :   0.9352 B( 18-C , 40-H ) :   0.9469

Dispersion correction           -0.067680171
FINAL SINGLE POINT ENERGY     -2929.522139170374

DIPOLE MOMENT
-------------

Method             : SCF
Type of density    : Electron Density
Multiplicity       :   1
Irrep              :   0
Energy             : -2929.6397385845471035 Eh
Relativity type    :
Basis              : AO
                                X                 Y                 Z
Electronic contribution:      2.654151182       1.650267436      -5.910143032
Nuclear contribution   :     -2.671859075      -2.492876955       6.922638003
                        -----------------------------------------
Total Dipole Moment    :     -0.017707893      -0.842609520       1.012494971
                        -----------------------------------------
Magnitude (a.u.)       :      1.317364960
Magnitude (Debye)      :      3.348475621

Rotational constants in cm-1:             0.012865             0.005129             0.005044
Rotational constants in MHz :           385.678318           153.766185           151.228463

                             ****ORCA TERMINATED NORMALLY****
TOTAL RUN TIME: 0 days 0 hours 0 minutes 21 seconds 561 msec
