                         Program Version 6.0.0  -   RELEASE  -
|  1> ! pbe def2-sv(p) def2/J RI DEFGRID1 loosescf d4 GCP(DFT/SV(P)) printgap
|  2> %output
|  3>     printlevel normal
|  4> end
|  5> * xyz 0 1
|  6> C 4.5798165744 -1.5706955803 -1.0271536305
|  7> C 4.655257565 -0.128200309 -0.5702200986
|  8> O 3.5395063889 0.2361637352 0.2607885768
|  9> P 2.0519245709 0.3497629436 -0.3010019257
| 10> S 1.965121067 1.1068636194 -2.1127789659
| 11> O 1.3725857959 1.160693556 0.8771787557
| 12> C 1.5519108318 2.5882919551 0.9953150374
| 13> C 0.7338034215 3.0574415977 2.1790294433
| 14> S 1.2323633351 -1.5505909414 0.0115728973
| 15> C -0.0119439667 -1.5938751 -1.32898235
| 16> S -1.6833325009 -1.864750384 -0.719730871
| 17> P -1.9501617608 0.0099708275 0.2565035654
| 18> S -1.3709423751 1.5538949978 -0.8059631043
| 19> O -1.1889798886 0.0143637031 1.6356776236
| 20> C -1.5629175405 -0.7037942017 2.8378278235
| 21> C -1.4719097414 -2.2076093932 2.6808793097
| 22> O -3.4651302806 -0.0415537223 0.728273676
| 23> C -4.5774096357 -0.4409529066 -0.0944787794
| 24> C -4.6947453073 0.3800611805 -1.3610568363
| 25> H 5.4994980163 -1.8318787892 -1.5405977494
| 26> H 4.4393463214 -2.2308896421 -0.1750687091
| 27> H 3.7441442942 -1.6976834201 -1.7140628782
| 28> H 4.6767564793 0.5469153529 -1.4317803642
| 29> H 5.5231012839 0.050274506 0.0660293203
| 30> H 2.6174223191 2.793599719 1.1305728675
| 31> H 1.2101436927 3.0532031747 0.0637439702
| 32> H 1.0738954777 2.564237062 3.0848201602
| 33> H 0.8422231308 4.1319289169 2.2840968587
| 34> H -0.3135846145 2.815565305 2.0153596428
| 35> H 0.2140956511 -2.4398718208 -1.9727974052
| 36> H 0.0394019024 -0.6510224625 -1.8811500709
| 37> H -0.8441639799 -0.3369250968 3.5724742703
| 38> H -2.5720524036 -0.3957731155 3.1169722863
| 39> H -0.4948045848 -2.4898099957 2.2943698301
| 40> H -1.6158495061 -2.6686866728 3.6531877026
| 41> H -2.2384689949 -2.5721208147 2.0009894865
| 42> H -4.462432036 -1.5019081907 -0.3319470242
| 43> H -5.4413394444 -0.295375078 0.5564893731
| 44> H -5.5904583885 0.0875036732 -1.899219917
| 45> H -4.7458015178 1.4402581045 -1.1241636245
| 46> H -3.8275664217 0.2141972898 -1.99873951
| 47> *
| 48>
| 49>                          ****END OF INPUT****

CARTESIAN COORDINATES (ANGSTROEM)
---------------------------------
  C      4.579817   -1.570696   -1.027154
  C      4.655258   -0.128200   -0.570220
  O      3.539506    0.236164    0.260789
  P      2.051925    0.349763   -0.301002
  S      1.965121    1.106864   -2.112779
  O      1.372586    1.160694    0.877179
  C      1.551911    2.588292    0.995315
  C      0.733803    3.057442    2.179029
  S      1.232363   -1.550591    0.011573
  C     -0.011944   -1.593875   -1.328982
  S     -1.683333   -1.864750   -0.719731
  P     -1.950162    0.009971    0.256504
  S     -1.370942    1.553895   -0.805963
  O     -1.188980    0.014364    1.635678
  C     -1.562918   -0.703794    2.837828
  C     -1.471910   -2.207609    2.680879
  O     -3.465130   -0.041554    0.728274
  C     -4.577410   -0.440953   -0.094479
  C     -4.694745    0.380061   -1.361057
  H      5.499498   -1.831879   -1.540598
  H      4.439346   -2.230890   -0.175069
  H      3.744144   -1.697683   -1.714063
  H      4.676756    0.546915   -1.431780
  H      5.523101    0.050275    0.066029
  H      2.617422    2.793600    1.130573
  H      1.210144    3.053203    0.063744
  H      1.073895    2.564237    3.084820
  H      0.842223    4.131929    2.284097
  H     -0.313585    2.815565    2.015360
  H      0.214096   -2.439872   -1.972797
  H      0.039402   -0.651022   -1.881150
  H     -0.844164   -0.336925    3.572474
  H     -2.572052   -0.395773    3.116972
  H     -0.494805   -2.489810    2.294370
  H     -1.615850   -2.668687    3.653188
  H     -2.238469   -2.572121    2.000989
  H     -4.462432   -1.501908   -0.331947
  H     -5.441339   -0.295375    0.556489
  H     -5.590458    0.087504   -1.899220
  H     -4.745802    1.440258   -1.124164
  H     -3.827566    0.214197   -1.998740

 Total Charge           Charge          ....    0
 Multiplicity           Mult            ....    1
 Number of Electrons    NEL             ....  202
 Basis Dimension        Dim             ....  334

ORBITAL ENERGIES
----------------

  NO   OCC          E(Eh)            E(eV)
   0   2.0000     -88.045278     -2395.8338
   1   2.0000     -88.041420     -2395.7288
   2   2.0000     -87.978746     -2394.0234
   3   2.0000     -87.976659     -2393.9666
   4   2.0000     -76.425014     -2079.6304
   5   2.0000     -76.417818     -2079.4345
   6   2.0000     -18.797744      -511.5126
   7   2.0000     -18.786591      -511.2091
   8   2.0000     -18.785350      -511.1754
   9   2.0000     -18.775736      -510.9138
  10   2.0000      -9.961732      -271.0725
  11   2.0000      -9.955405      -270.9003
  12   2.0000      -9.953752      -270.8554
  13   2.0000      -9.945862      -270.6407
  14   2.0000      -9.937612      -270.4162
  15   2.0000      -9.884919      -268.9823
  16   2.0000      -9.883444      -268.9422
  17   2.0000      -9.879832      -268.8439
  18   2.0000      -9.872130      -268.6343
  19   2.0000      -7.690254      -209.2625
  20   2.0000      -7.686620      -209.1636
  21   2.0000      -7.623701      -207.4514
  22   2.0000      -7.621552      -207.3930
  23   2.0000      -6.421930      -174.7496
  24   2.0000      -6.415564      -174.5764
  25   2.0000      -5.718045      -155.5959
  26   2.0000      -5.714634      -155.5031
  27   2.0000      -5.714482      -155.4989
  28   2.0000      -5.711159      -155.4085
  29   2.0000      -5.707454      -155.3077
  30   2.0000      -5.703462      -155.1991
  31   2.0000      -5.652588      -153.8147
  32   2.0000      -5.650629      -153.7614
  33   2.0000      -5.644467      -153.5938
  34   2.0000      -5.643759      -153.5745
  35   2.0000      -5.642158      -153.5309
  36   2.0000      -5.641563      -153.5147
  37   2.0000      -4.644986      -126.3965
  38   2.0000      -4.643909      -126.3672
  39   2.0000      -4.641812      -126.3101
  40   2.0000      -4.637890      -126.2034
  41   2.0000      -4.637128      -126.1827
  42   2.0000      -4.636402      -126.1629
  43   2.0000      -0.988782       -26.9061
  44   2.0000      -0.977108       -26.5885
  45   2.0000      -0.943486       -25.6736
  46   2.0000      -0.933327       -25.3971
  47   2.0000      -0.763293       -20.7703
  48   2.0000      -0.719125       -19.5684
  49   2.0000      -0.706960       -19.2374
  50   2.0000      -0.691492       -18.8165
  51   2.0000      -0.680816       -18.5259
  52   2.0000      -0.672485       -18.2992
  53   2.0000      -0.647511       -17.6197
  54   2.0000      -0.629374       -17.1262
  55   2.0000      -0.593428       -16.1480
  56   2.0000      -0.587071       -15.9750
  57   2.0000      -0.580830       -15.8052
  58   2.0000      -0.564444       -15.3593
  59   2.0000      -0.553716       -15.0674
  60   2.0000      -0.499088       -13.5809
  61   2.0000      -0.494054       -13.4439
  62   2.0000      -0.470936       -12.8148
  63   2.0000      -0.464581       -12.6419
  64   2.0000      -0.453428       -12.3384
  65   2.0000      -0.442365       -12.0374
  66   2.0000      -0.436261       -11.8713
  67   2.0000      -0.433437       -11.7944
  68   2.0000      -0.427869       -11.6429
  69   2.0000      -0.417741       -11.3673
  70   2.0000      -0.410692       -11.1755
  71   2.0000      -0.405599       -11.0369
  72   2.0000      -0.388038       -10.5590
  73   2.0000      -0.385778       -10.4975
  74   2.0000      -0.381695       -10.3864
  75   2.0000      -0.363263        -9.8849
  76   2.0000      -0.353940        -9.6312
  77   2.0000      -0.352826        -9.6009
  78   2.0000      -0.349293        -9.5048
  79   2.0000      -0.345505        -9.4017
  80   2.0000      -0.343715        -9.3530
  81   2.0000      -0.340864        -9.2754
  82   2.0000      -0.339966        -9.2509
  83   2.0000      -0.333557        -9.0766
  84   2.0000      -0.325349        -8.8532
  85   2.0000      -0.320872        -8.7314
  86   2.0000      -0.306790        -8.3482
  87   2.0000      -0.298954        -8.1349
  88   2.0000      -0.293609        -7.9895
  89   2.0000      -0.289302        -7.8723
  90   2.0000      -0.277315        -7.5461
  91   2.0000      -0.274802        -7.4777
  92   2.0000      -0.262725        -7.1491
  93   2.0000      -0.259730        -7.0676
  94   2.0000      -0.254629        -6.9288
  95   2.0000      -0.234442        -6.3795
  96   2.0000      -0.218639        -5.9495
  97   2.0000      -0.209966        -5.7135
  98   2.0000      -0.198744        -5.4081
  99   2.0000      -0.188263        -5.1229
 100   2.0000      -0.180901        -4.9226
 101   0.0000      -0.042826        -1.1654
 102   0.0000      -0.030752        -0.8368
 103   0.0000      -0.011408        -0.3104
 104   0.0000       0.011616         0.3161
 105   0.0000       0.018568         0.5053

MULLIKEN ATOMIC CHARGES
-----------------------
   0 C :   -0.310384
   1 C :   -0.001711
   2 O :   -0.380626
   3 P :    0.613882
   4 S :   -0.322692
   5 O :   -0.354175
   6 C :   -0.001979
   7 C :   -0.278999
   8 S :   -0.090008
   9 C :   -0.351698
  10 S :   -0.125058
  11 P :    0.604609
  12 S :   -0.293283
  13 O :   -0.342379
  14 C :    0.005548
  15 C :   -0.321407
  16 O :   -0.383373
  17 C :   -0.016493
  18 C :   -0.306490
  19 H :    0.110438
  20 H :    0.115062
  21 H :    0.119504
  22 H :    0.109324
  23 H :    0.101278
  24 H :    0.094242
  25 H :    0.111757
  26 H :    0.104281
  27 H :    0.103264
  28 H :    0.125778
  29 H :    0.182120
  30 H :    0.213074
  31 H :    0.109008
  32 H :    0.106998
  33 H :    0.131603
  34 H :    0.110197
  35 H :    0.118006
  36 H :    0.114503
  37 H :    0.109319
  38 H :    0.110827
  39 H :    0.126643
  40 H :    0.129491
Sum of atomic charges:   -0.0000000

LOEWDIN ATOMIC CHARGES
----------------------
   0 C :   -0.369234
   1 C :   -0.121049
   2 O :   -0.250261
   3 P :    0.569509
   4 S :   -0.313383
   5 O :   -0.234189
   6 C :   -0.116925
   7 C :   -0.352591
   8 S :    0.090720
   9 C :   -0.477557
  10 S :    0.069429
  11 P :    0.563522
  12 S :   -0.290868
  13 O :   -0.225124
  14 C :   -0.108124
  15 C :   -0.371688
  16 O :   -0.246890
  17 C :   -0.115131
  18 C :   -0.368746
  19 H :    0.129432
  20 H :    0.122920
  21 H :    0.119070
  22 H :    0.109114
  23 H :    0.116676
  24 H :    0.106172
  25 H :    0.110470
  26 H :    0.120935
  27 H :    0.127033
  28 H :    0.127254
  29 H :    0.136898
  30 H :    0.127400
  31 H :    0.121931
  32 H :    0.112694
  33 H :    0.123452
  34 H :    0.129603
  35 H :    0.115090
  36 H :    0.107295
  37 H :    0.121110
  38 H :    0.129991
  39 H :    0.131017
  40 H :    0.123022

  Mayer bond orders larger than 0.100000
B(  0-C ,  1-C ) :   1.1654 B(  0-C , 19-H ) :   0.9385 B(  0-C , 20-H ) :   0.9449
B(  0-C , 21-H ) :   0.9366 B(  1-C ,  2-O ) :   0.9152 B(  1-C , 22-H ) :   0.9130
B(  1-C , 23-H ) :   0.9339 B(  2-O ,  3-P ) :   1.0930 B(  3-P ,  4-S ) :   1.6018
B(  3-P ,  5-O ) :   1.1479 B(  3-P ,  8-S ) :   0.9694 B(  4-S ,  8-S ) :   0.1159
B(  5-O ,  6-C ) :   0.8968 B(  6-C ,  7-C ) :   1.1651 B(  6-C , 24-H ) :   0.9272
B(  6-C , 25-H ) :   0.9149 B(  7-C , 26-H ) :   0.9500 B(  7-C , 27-H ) :   0.9413
B(  7-C , 28-H ) :   0.9419 B(  8-S ,  9-C ) :   0.9940 B(  9-C , 10-S ) :   1.0107
B(  9-C , 29-H ) :   0.9111 B(  9-C , 30-H ) :   0.8435 B( 10-S , 11-P ) :   0.9244
B( 10-S , 12-S ) :   0.1056 B( 11-P , 12-S ) :   1.6543 B( 11-P , 13-O ) :   1.1395
B( 11-P , 16-O ) :   1.0752 B( 13-O , 14-C ) :   0.9000 B( 14-C , 15-C ) :   1.1704
B( 14-C , 31-H ) :   0.9331 B( 14-C , 32-H ) :   0.9282 B( 15-C , 33-H ) :   0.9370
B( 15-C , 34-H ) :   0.9356 B( 15-C , 35-H ) :   0.9403 B( 16-O , 17-C ) :   0.9133
B( 17-C , 18-C ) :   1.1669 B( 17-C , 36-H ) :   0.9253 B( 17-C , 37-H ) :   0.9335
B( 18-C , 38-H ) :   0.9347 B( 18-C , 39-H ) :   0.9433 B( 18-C , 40-H ) :   0.9312

Dispersion correction           -0.068676460
FINAL SINGLE POINT ENERGY     -2929.515170836347

DIPOLE MOMENT
-------------

Method             : SCF
Type of density    : Electron Density
Multiplicity       :   1
Irrep              :   0
Energy             : -2929.6323919132664741 Eh
Relativity type    :
Basis              : AO
                                X                 Y                 Z
Electronic contribution:      1.756582998       0.601099271      -8.318842447
Nuclear contribution   :     -2.217610535      -1.606116655       9.362155419
                        -----------------------------------------
Total Dipole Moment    :     -0.461027537      -1.005017384       1.043312972
                        -----------------------------------------
Magnitude (a.u.)       :      1.520232972
Magnitude (Debye)      :      3.864125128

Rotational constants in cm-1:             0.012403             0.005516             0.005307
Rotational constants in MHz :           371.831588           165.370460           159.109986

                             ****ORCA TERMINATED NORMALLY****
TOTAL RUN TIME: 0 days 0 hours 0 minutes 21 seconds 653 msec
