                         Program Version 6.0.0  -   RELEASE  -
|  1> ! pbe def2-sv(p) def2/J RI DEFGRID1 loosescf d4 GCP(DFT/SV(P)) printgap
|  2> %output
|  3>     printlevel normal
|  4> end
|  5> * xyz 0 1
|  6> C 4.5033908394 0.0064078304 -2.0749443635
|  7> C 4.4425456243 1.0731070061 -1.0008983228
|  8> O 3.6721322878 0.6606166983 0.1413055937
|  9> P 2.1065059059 0.3832919729 0.0794278131
| 10> S 1.0749083891 1.6329304041 -1.0231979691
| 11> O 1.7127359302 0.4660267459 1.6049669829
| 12> C 2.4084321677 -0.2932106554 2.6358790071
| 13> C 1.5062191927 -1.3710590067 3.2012642676
| 14> S 2.0022463899 -1.6728905542 -0.4505585786
| 15> C 0.2537964807 -1.7353552273 -0.9016254533
| 16> S -0.8456807594 -1.2755249214 0.4729114498
| 17> P -2.0680768265 0.2118180937 -0.4381359472
| 18> S -1.9759616303 0.2488894659 -2.3940890082
| 19> O -1.8198380846 1.6137449793 0.2313745142
| 20> C -2.2747758437 2.0179769457 1.5466520962
| 21> C -1.6333385136 1.2058076979 2.6513374053
| 22> O -3.5056000822 -0.1548586282 0.1409920945
| 23> C -4.1988617472 -1.3401695809 -0.2979349238
| 24> C -5.6457786324 -1.2210407563 0.1354741469
| 25> H 5.204016302 0.3143180839 -2.8445017613
| 26> H 4.8240972403 -0.9420118451 -1.6513536717
| 27> H 3.5212661849 -0.1230710248 -2.5275938002
| 28> H 4.0029694762 1.9933698327 -1.3977401627
| 29> H 5.4287068025 1.281941861 -0.5835580002
| 30> H 3.3177278835 -0.719241634 2.2080385691
| 31> H 2.6719289133 0.4457246229 3.3939451053
| 32> H 0.5907163371 -0.9342081683 3.5889084576
| 33> H 1.2451017902 -2.0957016493 2.4339847124
| 34> H 2.0306605494 -1.877508038 4.005165366
| 35> H 0.0524934358 -2.7671968645 -1.1784037469
| 36> H 0.052685352 -1.0583756219 -1.7369578969
| 37> H -1.9781188676 3.0672180754 1.5944293676
| 38> H -3.3628113268 1.9344338262 1.5718497356
| 39> H -0.5503629257 1.2328984715 2.549355535
| 40> H -1.915470121 1.6268044721 3.6113845814
| 41> H -1.9676995099 0.1703954496 2.6021968752
| 42> H -4.1085039633 -1.411312314 -1.3869830404
| 43> H -3.7141055549 -2.2068802322 0.1598619951
| 44> H -6.1012289093 -0.3465925262 -0.3209354139
| 45> H -6.1837894367 -2.1092726655 -0.1785490124
| 46> H -5.7047862349 -1.1270911956 1.2158198888
| 47> *
| 48>
| 49>                          ****END OF INPUT****

CARTESIAN COORDINATES (ANGSTROEM)
---------------------------------
  C      4.503391    0.006408   -2.074944
  C      4.442546    1.073107   -1.000898
  O      3.672132    0.660617    0.141306
  P      2.106506    0.383292    0.079428
  S      1.074908    1.632930   -1.023198
  O      1.712736    0.466027    1.604967
  C      2.408432   -0.293211    2.635879
  C      1.506219   -1.371059    3.201264
  S      2.002246   -1.672891   -0.450559
  C      0.253796   -1.735355   -0.901625
  S     -0.845681   -1.275525    0.472911
  P     -2.068077    0.211818   -0.438136
  S     -1.975962    0.248889   -2.394089
  O     -1.819838    1.613745    0.231375
  C     -2.274776    2.017977    1.546652
  C     -1.633339    1.205808    2.651337
  O     -3.505600   -0.154859    0.140992
  C     -4.198862   -1.340170   -0.297935
  C     -5.645779   -1.221041    0.135474
  H      5.204016    0.314318   -2.844502
  H      4.824097   -0.942012   -1.651354
  H      3.521266   -0.123071   -2.527594
  H      4.002969    1.993370   -1.397740
  H      5.428707    1.281942   -0.583558
  H      3.317728   -0.719242    2.208039
  H      2.671929    0.445725    3.393945
  H      0.590716   -0.934208    3.588908
  H      1.245102   -2.095702    2.433985
  H      2.030661   -1.877508    4.005165
  H      0.052493   -2.767197   -1.178404
  H      0.052685   -1.058376   -1.736958
  H     -1.978119    3.067218    1.594429
  H     -3.362811    1.934434    1.571850
  H     -0.550363    1.232898    2.549356
  H     -1.915470    1.626804    3.611385
  H     -1.967700    0.170395    2.602197
  H     -4.108504   -1.411312   -1.386983
  H     -3.714106   -2.206880    0.159862
  H     -6.101229   -0.346593   -0.320935
  H     -6.183789   -2.109273   -0.178549
  H     -5.704786   -1.127091    1.215820

 Total Charge           Charge          ....    0
 Multiplicity           Mult            ....    1
 Number of Electrons    NEL             ....  202
 Basis Dimension        Dim             ....  334

ORBITAL ENERGIES
----------------

  NO   OCC          E(Eh)            E(eV)
   0   2.0000     -88.042673     -2395.7629
   1   2.0000     -88.038408     -2395.6469
   2   2.0000     -87.979082     -2394.0325
   3   2.0000     -87.975856     -2393.9447
   4   2.0000     -76.422550     -2079.5633
   5   2.0000     -76.420291     -2079.5018
   6   2.0000     -18.790581      -511.3177
   7   2.0000     -18.788801      -511.2693
   8   2.0000     -18.788790      -511.2690
   9   2.0000     -18.783713      -511.1308
  10   2.0000      -9.956516      -270.9306
  11   2.0000      -9.951784      -270.8018
  12   2.0000      -9.950787      -270.7747
  13   2.0000      -9.950541      -270.7680
  14   2.0000      -9.948868      -270.7225
  15   2.0000      -9.887053      -269.0404
  16   2.0000      -9.885657      -269.0024
  17   2.0000      -9.883076      -268.9322
  18   2.0000      -9.882354      -268.9125
  19   2.0000      -7.687609      -209.1905
  20   2.0000      -7.682578      -209.0536
  21   2.0000      -7.623887      -207.4565
  22   2.0000      -7.621076      -207.3800
  23   2.0000      -6.419865      -174.6934
  24   2.0000      -6.417402      -174.6264
  25   2.0000      -5.715430      -155.5248
  26   2.0000      -5.712005      -155.4315
  27   2.0000      -5.710447      -155.3891
  28   2.0000      -5.707041      -155.2965
  29   2.0000      -5.704771      -155.2347
  30   2.0000      -5.699707      -155.0969
  31   2.0000      -5.653006      -153.8261
  32   2.0000      -5.650163      -153.7488
  33   2.0000      -5.644347      -153.5905
  34   2.0000      -5.644045      -153.5823
  35   2.0000      -5.641538      -153.5141
  36   2.0000      -5.641174      -153.5042
  37   2.0000      -4.642715      -126.3347
  38   2.0000      -4.641638      -126.3054
  39   2.0000      -4.640360      -126.2706
  40   2.0000      -4.640084      -126.2631
  41   2.0000      -4.638996      -126.2335
  42   2.0000      -4.637724      -126.1989
  43   2.0000      -0.985938       -26.8287
  44   2.0000      -0.983122       -26.7521
  45   2.0000      -0.942001       -25.6331
  46   2.0000      -0.937777       -25.5182
  47   2.0000      -0.759216       -20.6593
  48   2.0000      -0.717286       -19.5184
  49   2.0000      -0.709533       -19.3074
  50   2.0000      -0.688927       -18.7466
  51   2.0000      -0.688180       -18.7263
  52   2.0000      -0.674775       -18.3616
  53   2.0000      -0.646547       -17.5934
  54   2.0000      -0.628319       -17.0974
  55   2.0000      -0.593115       -16.1395
  56   2.0000      -0.586289       -15.9537
  57   2.0000      -0.574703       -15.6385
  58   2.0000      -0.569141       -15.4871
  59   2.0000      -0.559191       -15.2164
  60   2.0000      -0.502665       -13.6782
  61   2.0000      -0.500801       -13.6275
  62   2.0000      -0.470765       -12.8102
  63   2.0000      -0.468416       -12.7462
  64   2.0000      -0.447497       -12.1770
  65   2.0000      -0.444216       -12.0877
  66   2.0000      -0.441558       -12.0154
  67   2.0000      -0.439475       -11.9587
  68   2.0000      -0.430044       -11.7021
  69   2.0000      -0.423383       -11.5208
  70   2.0000      -0.408906       -11.1269
  71   2.0000      -0.395949       -10.7743
  72   2.0000      -0.390680       -10.6309
  73   2.0000      -0.379740       -10.3333
  74   2.0000      -0.374614       -10.1938
  75   2.0000      -0.365775        -9.9532
  76   2.0000      -0.363872        -9.9015
  77   2.0000      -0.359011        -9.7692
  78   2.0000      -0.352349        -9.5879
  79   2.0000      -0.350089        -9.5264
  80   2.0000      -0.347993        -9.4694
  81   2.0000      -0.344425        -9.3723
  82   2.0000      -0.336679        -9.1615
  83   2.0000      -0.335341        -9.1251
  84   2.0000      -0.334423        -9.1001
  85   2.0000      -0.314917        -8.5693
  86   2.0000      -0.309817        -8.4305
  87   2.0000      -0.301409        -8.2018
  88   2.0000      -0.298550        -8.1240
  89   2.0000      -0.291131        -7.9221
  90   2.0000      -0.286779        -7.8036
  91   2.0000      -0.271501        -7.3879
  92   2.0000      -0.266294        -7.2462
  93   2.0000      -0.259812        -7.0698
  94   2.0000      -0.252574        -6.8729
  95   2.0000      -0.230420        -6.2700
  96   2.0000      -0.221063        -6.0154
  97   2.0000      -0.208065        -5.6617
  98   2.0000      -0.195951        -5.3321
  99   2.0000      -0.188735        -5.1357
 100   2.0000      -0.181354        -4.9349
 101   0.0000      -0.040393        -1.0991
 102   0.0000      -0.033614        -0.9147
 103   0.0000      -0.004730        -0.1287
 104   0.0000       0.009042         0.2460
 105   0.0000       0.019667         0.5352

MULLIKEN ATOMIC CHARGES
-----------------------
   0 C :   -0.320536
   1 C :    0.003175
   2 O :   -0.382493
   3 P :    0.586668
   4 S :   -0.278309
   5 O :   -0.354794
   6 C :   -0.013771
   7 C :   -0.287288
   8 S :   -0.117063
   9 C :   -0.329609
  10 S :   -0.141636
  11 P :    0.627800
  12 S :   -0.301509
  13 O :   -0.347471
  14 C :    0.014125
  15 C :   -0.359243
  16 O :   -0.391471
  17 C :   -0.005614
  18 C :   -0.280712
  19 H :    0.113820
  20 H :    0.115502
  21 H :    0.133099
  22 H :    0.112619
  23 H :    0.103019
  24 H :    0.107701
  25 H :    0.110241
  26 H :    0.123164
  27 H :    0.121404
  28 H :    0.107231
  29 H :    0.175508
  30 H :    0.207200
  31 H :    0.111455
  32 H :    0.107851
  33 H :    0.153822
  34 H :    0.110014
  35 H :    0.121488
  36 H :    0.103164
  37 H :    0.096994
  38 H :    0.121057
  39 H :    0.111264
  40 H :    0.112134
Sum of atomic charges:    0.0000000

LOEWDIN ATOMIC CHARGES
----------------------
   0 C :   -0.371713
   1 C :   -0.115902
   2 O :   -0.251585
   3 P :    0.559555
   4 S :   -0.284741
   5 O :   -0.236857
   6 C :   -0.111588
   7 C :   -0.360676
   8 S :    0.070836
   9 C :   -0.480791
  10 S :    0.066335
  11 P :    0.572959
  12 S :   -0.299827
  13 O :   -0.224859
  14 C :   -0.105474
  15 C :   -0.375960
  16 O :   -0.253993
  17 C :   -0.123756
  18 C :   -0.350756
  19 H :    0.131459
  20 H :    0.121971
  21 H :    0.123647
  22 H :    0.113341
  23 H :    0.117753
  24 H :    0.109261
  25 H :    0.120957
  26 H :    0.127244
  27 H :    0.116190
  28 H :    0.128413
  29 H :    0.134500
  30 H :    0.125061
  31 H :    0.124182
  32 H :    0.112691
  33 H :    0.131966
  34 H :    0.129658
  35 H :    0.114065
  36 H :    0.107788
  37 H :    0.104704
  38 H :    0.128913
  39 H :    0.130603
  40 H :    0.124426

  Mayer bond orders larger than 0.100000
B(  0-C ,  1-C ) :   1.1666 B(  0-C , 19-H ) :   0.9371 B(  0-C , 20-H ) :   0.9435
B(  0-C , 21-H ) :   0.9343 B(  1-C ,  2-O ) :   0.9067 B(  1-C , 22-H ) :   0.9176
B(  1-C , 23-H ) :   0.9347 B(  2-O ,  3-P ) :   1.0823 B(  3-P ,  4-S ) :   1.6671
B(  3-P ,  5-O ) :   1.1171 B(  3-P ,  8-S ) :   0.9342 B(  4-S ,  8-S ) :   0.1078
B(  5-O ,  6-C ) :   0.8827 B(  6-C ,  7-C ) :   1.1663 B(  6-C , 24-H ) :   0.9173
B(  6-C , 25-H ) :   0.9352 B(  7-C , 26-H ) :   0.9445 B(  7-C , 27-H ) :   0.9320
B(  7-C , 28-H ) :   0.9383 B(  8-S ,  9-C ) :   1.0004 B(  9-C , 10-S ) :   0.9998
B(  9-C , 29-H ) :   0.9107 B(  9-C , 30-H ) :   0.8445 B( 10-S , 11-P ) :   0.9346
B( 10-S , 12-S ) :   0.1179 B( 11-P , 12-S ) :   1.6391 B( 11-P , 13-O ) :   1.1463
B( 11-P , 16-O ) :   1.0597 B( 12-S , 30-H ) :   0.1051 B( 13-O , 14-C ) :   0.9011
B( 14-C , 15-C ) :   1.1694 B( 14-C , 31-H ) :   0.9316 B( 14-C , 32-H ) :   0.9267
B( 15-C , 33-H ) :   0.9246 B( 15-C , 34-H ) :   0.9351 B( 15-C , 35-H ) :   0.9350
B( 16-O , 17-C ) :   0.9074 B( 17-C , 18-C ) :   1.1591 B( 17-C , 36-H ) :   0.9084
B( 17-C , 37-H ) :   0.9241 B( 18-C , 38-H ) :   0.9510 B( 18-C , 39-H ) :   0.9423
B( 18-C , 40-H ) :   0.9515

Dispersion correction           -0.067497355
FINAL SINGLE POINT ENERGY     -2929.514735124685

DIPOLE MOMENT
-------------

Method             : SCF
Type of density    : Electron Density
Multiplicity       :   1
Irrep              :   0
Energy             : -2929.6331194550521104 Eh
Relativity type    :
Basis              : AO
                                X                 Y                 Z
Electronic contribution:      2.876256399       4.888245514     -13.045833648
Nuclear contribution   :     -2.521854182      -5.764512464      14.643163247
                        -----------------------------------------
Total Dipole Moment    :      0.354402217      -0.876266950       1.597329599
                        -----------------------------------------
Magnitude (a.u.)       :      1.856045944
Magnitude (Debye)      :      4.717693868

Rotational constants in cm-1:             0.012941             0.005301             0.004884
Rotational constants in MHz :           387.951914           158.911872           146.403715

                             ****ORCA TERMINATED NORMALLY****
TOTAL RUN TIME: 0 days 0 hours 0 minutes 21 seconds 722 msec
