                         Program Version 6.0.0  -   RELEASE  -
|  1> ! pbe def2-sv(p) def2/J RI DEFGRID1 loosescf d4 GCP(DFT/SV(P)) printgap
|  2> %output
|  3>     printlevel normal
|  4> end
|  5> * xyz 0 1
|  6> C 4.4962828745 0.4422127447 -1.9830249629
|  7> C 3.1049744187 -0.1545139951 -2.0200876715
|  8> O 2.2479435149 0.4808474327 -1.0382135359
|  9> P 1.9970308662 -0.0718898091 0.4096019225
| 10> S 0.8677518346 1.1194624642 1.4712681051
| 11> O 3.4588824277 -0.2804176549 0.9921089018
| 12> C 3.6667329642 -0.7040570598 2.356051944
| 13> C 5.0992316443 -0.3830396355 2.73046348
| 14> S 1.3633535297 -2.0956160832 0.1838445307
| 15> C -0.2384120384 -1.8469985879 -0.6208655923
| 16> S -1.5298912423 -1.2354624565 0.5098832516
| 17> P -2.1906951027 0.4145606181 -0.6666976971
| 18> S -0.8731189018 1.24223711 -1.8510775147
| 19> O -2.9437287473 1.3493634593 0.3698159736
| 20> C -2.3070557216 2.2933911049 1.2500182391
| 21> C -3.3589502941 3.2925739107 1.68520143
| 22> O -3.3956010223 -0.1379963767 -1.5175967999
| 23> C -4.5383585506 -0.8237742663 -0.9391106719
| 24> C -4.5148575946 -2.2874227106 -1.3313242945
| 25> H 4.9656758931 0.243119644 -1.0234438986
| 26> H 5.0920950261 -0.0006990449 -2.7749818436
| 27> H 4.4429596225 1.5173038253 -2.1316556493
| 28> H 3.130456613 -1.2306357152 -1.8263104236
| 29> H 2.6089059189 0.0429297013 -2.9726477725
| 30> H 2.9547548841 -0.1737016282 2.9969895704
| 31> H 3.4683099022 -1.7775771349 2.4104763263
| 32> H 5.2772280468 -0.6979459064 3.7533182468
| 33> H 5.7836776 -0.9062275356 2.0691069718
| 34> H 5.2757202761 0.6859095029 2.6489308561
| 35> H -0.5322964608 -2.8262018244 -0.9891510459
| 36> H -0.1311328821 -1.1257451277 -1.4356410331
| 37> H -1.8888730083 1.748901001 2.1007840357
| 38> H -1.4840066558 2.7781564278 0.7155869839
| 39> H -3.7575481829 3.8148502781 0.8198401094
| 40> H -4.169336621 2.7793428815 2.1943214667
| 41> H -2.9046758881 4.0095157569 2.360853792
| 42> H -4.5205470178 -0.6999017713 0.1455362328
| 43> H -5.4091742844 -0.3132759305 -1.3525378859
| 44> H -3.6711868752 -2.7919696835 -0.8671713852
| 45> H -5.4348186166 -2.7572842784 -0.9984758084
| 46> H -4.4341169858 -2.3803641817 -2.4106615873
| 47> *
| 48>
| 49>                          ****END OF INPUT****

CARTESIAN COORDINATES (ANGSTROEM)
---------------------------------
  C      4.496283    0.442213   -1.983025
  C      3.104974   -0.154514   -2.020088
  O      2.247944    0.480847   -1.038214
  P      1.997031   -0.071890    0.409602
  S      0.867752    1.119462    1.471268
  O      3.458882   -0.280418    0.992109
  C      3.666733   -0.704057    2.356052
  C      5.099232   -0.383040    2.730463
  S      1.363354   -2.095616    0.183845
  C     -0.238412   -1.846999   -0.620866
  S     -1.529891   -1.235462    0.509883
  P     -2.190695    0.414561   -0.666698
  S     -0.873119    1.242237   -1.851078
  O     -2.943729    1.349363    0.369816
  C     -2.307056    2.293391    1.250018
  C     -3.358950    3.292574    1.685201
  O     -3.395601   -0.137996   -1.517597
  C     -4.538359   -0.823774   -0.939111
  C     -4.514858   -2.287423   -1.331324
  H      4.965676    0.243120   -1.023444
  H      5.092095   -0.000699   -2.774982
  H      4.442960    1.517304   -2.131656
  H      3.130457   -1.230636   -1.826310
  H      2.608906    0.042930   -2.972648
  H      2.954755   -0.173702    2.996990
  H      3.468310   -1.777577    2.410476
  H      5.277228   -0.697946    3.753318
  H      5.783678   -0.906228    2.069107
  H      5.275720    0.685910    2.648931
  H     -0.532296   -2.826202   -0.989151
  H     -0.131133   -1.125745   -1.435641
  H     -1.888873    1.748901    2.100784
  H     -1.484007    2.778156    0.715587
  H     -3.757548    3.814850    0.819840
  H     -4.169337    2.779343    2.194321
  H     -2.904676    4.009516    2.360854
  H     -4.520547   -0.699902    0.145536
  H     -5.409174   -0.313276   -1.352538
  H     -3.671187   -2.791970   -0.867171
  H     -5.434819   -2.757284   -0.998476
  H     -4.434117   -2.380364   -2.410662

 Total Charge           Charge          ....    0
 Multiplicity           Mult            ....    1
 Number of Electrons    NEL             ....  202
 Basis Dimension        Dim             ....  334

ORBITAL ENERGIES
----------------

  NO   OCC          E(Eh)            E(eV)
   0   2.0000     -88.041460     -2395.7299
   1   2.0000     -88.035282     -2395.5618
   2   2.0000     -87.976406     -2393.9597
   3   2.0000     -87.975584     -2393.9374
   4   2.0000     -76.421852     -2079.5443
   5   2.0000     -76.418320     -2079.4482
   6   2.0000     -18.792315      -511.3649
   7   2.0000     -18.789042      -511.2758
   8   2.0000     -18.788168      -511.2521
   9   2.0000     -18.781369      -511.0670
  10   2.0000      -9.954057      -270.8637
  11   2.0000      -9.953876      -270.8587
  12   2.0000      -9.952540      -270.8224
  13   2.0000      -9.952484      -270.8208
  14   2.0000      -9.943307      -270.5711
  15   2.0000      -9.889728      -269.1132
  16   2.0000      -9.884456      -268.9697
  17   2.0000      -9.883612      -268.9468
  18   2.0000      -9.881416      -268.8870
  19   2.0000      -7.686565      -209.1621
  20   2.0000      -7.680171      -208.9881
  21   2.0000      -7.621708      -207.3972
  22   2.0000      -7.620784      -207.3721
  23   2.0000      -6.419421      -174.6813
  24   2.0000      -6.415973      -174.5875
  25   2.0000      -5.714179      -155.4907
  26   2.0000      -5.711005      -155.4043
  27   2.0000      -5.708008      -155.3228
  28   2.0000      -5.704833      -155.2364
  29   2.0000      -5.703877      -155.2104
  30   2.0000      -5.697061      -155.0249
  31   2.0000      -5.650771      -153.7653
  32   2.0000      -5.649814      -153.7392
  33   2.0000      -5.642568      -153.5421
  34   2.0000      -5.641414      -153.5107
  35   2.0000      -5.641263      -153.5066
  36   2.0000      -5.640903      -153.4968
  37   2.0000      -4.642419      -126.3266
  38   2.0000      -4.641338      -126.2972
  39   2.0000      -4.639331      -126.2426
  40   2.0000      -4.638754      -126.2269
  41   2.0000      -4.637692      -126.1980
  42   2.0000      -4.636263      -126.1591
  43   2.0000      -0.987123       -26.8610
  44   2.0000      -0.981503       -26.7080
  45   2.0000      -0.944925       -25.7127
  46   2.0000      -0.937274       -25.5045
  47   2.0000      -0.757863       -20.6225
  48   2.0000      -0.719098       -19.5676
  49   2.0000      -0.710544       -19.3349
  50   2.0000      -0.691835       -18.8258
  51   2.0000      -0.686499       -18.6806
  52   2.0000      -0.671365       -18.2688
  53   2.0000      -0.644266       -17.5314
  54   2.0000      -0.630067       -17.1450
  55   2.0000      -0.587158       -15.9774
  56   2.0000      -0.581660       -15.8278
  57   2.0000      -0.569439       -15.4952
  58   2.0000      -0.568231       -15.4623
  59   2.0000      -0.561018       -15.2661
  60   2.0000      -0.510043       -13.8790
  61   2.0000      -0.500720       -13.6253
  62   2.0000      -0.481099       -13.0914
  63   2.0000      -0.474326       -12.9071
  64   2.0000      -0.449078       -12.2200
  65   2.0000      -0.444659       -12.0998
  66   2.0000      -0.441025       -12.0009
  67   2.0000      -0.433993       -11.8095
  68   2.0000      -0.428214       -11.6523
  69   2.0000      -0.420857       -11.4521
  70   2.0000      -0.405784       -11.0419
  71   2.0000      -0.389336       -10.5944
  72   2.0000      -0.386066       -10.5054
  73   2.0000      -0.381628       -10.3846
  74   2.0000      -0.377994       -10.2857
  75   2.0000      -0.363707        -9.8970
  76   2.0000      -0.361688        -9.8420
  77   2.0000      -0.355638        -9.6774
  78   2.0000      -0.352357        -9.5881
  79   2.0000      -0.350326        -9.5329
  80   2.0000      -0.347594        -9.4585
  81   2.0000      -0.344126        -9.3641
  82   2.0000      -0.341971        -9.3055
  83   2.0000      -0.336871        -9.1667
  84   2.0000      -0.332111        -9.0372
  85   2.0000      -0.316206        -8.6044
  86   2.0000      -0.307086        -8.3562
  87   2.0000      -0.299331        -8.1452
  88   2.0000      -0.293647        -7.9905
  89   2.0000      -0.291941        -7.9441
  90   2.0000      -0.287907        -7.8343
  91   2.0000      -0.271652        -7.3920
  92   2.0000      -0.267510        -7.2793
  93   2.0000      -0.258960        -7.0467
  94   2.0000      -0.253966        -6.9108
  95   2.0000      -0.240245        -6.5374
  96   2.0000      -0.220516        -6.0006
  97   2.0000      -0.200307        -5.4506
  98   2.0000      -0.197883        -5.3847
  99   2.0000      -0.183561        -4.9950
 100   2.0000      -0.180848        -4.9211
 101   0.0000      -0.036572        -0.9952
 102   0.0000      -0.027079        -0.7369
 103   0.0000      -0.009376        -0.2551
 104   0.0000       0.005251         0.1429
 105   0.0000       0.027729         0.7545

MULLIKEN ATOMIC CHARGES
-----------------------
   0 C :   -0.291588
   1 C :   -0.014433
   2 O :   -0.342578
   3 P :    0.613058
   4 S :   -0.315556
   5 O :   -0.384581
   6 C :   -0.013272
   7 C :   -0.283440
   8 S :   -0.120658
   9 C :   -0.344510
  10 S :   -0.099428
  11 P :    0.599893
  12 S :   -0.295874
  13 O :   -0.384379
  14 C :   -0.027189
  15 C :   -0.273251
  16 O :   -0.358964
  17 C :   -0.008823
  18 C :   -0.286242
  19 H :    0.121971
  20 H :    0.108422
  21 H :    0.122056
  22 H :    0.098505
  23 H :    0.113581
  24 H :    0.106799
  25 H :    0.104992
  26 H :    0.113170
  27 H :    0.116054
  28 H :    0.123570
  29 H :    0.180253
  30 H :    0.188417
  31 H :    0.117717
  32 H :    0.123058
  33 H :    0.117126
  34 H :    0.109581
  35 H :    0.112823
  36 H :    0.103746
  37 H :    0.110060
  38 H :    0.114105
  39 H :    0.107569
  40 H :    0.118237
Sum of atomic charges:    0.0000000

LOEWDIN ATOMIC CHARGES
----------------------
   0 C :   -0.359974
   1 C :   -0.115273
   2 O :   -0.222381
   3 P :    0.566442
   4 S :   -0.305655
   5 O :   -0.250424
   6 C :   -0.120596
   7 C :   -0.350850
   8 S :    0.059218
   9 C :   -0.480808
  10 S :    0.062458
  11 P :    0.566034
  12 S :   -0.295814
  13 O :   -0.245417
  14 C :   -0.118966
  15 C :   -0.351318
  16 O :   -0.243673
  17 C :   -0.113375
  18 C :   -0.359897
  19 H :    0.125216
  20 H :    0.129037
  21 H :    0.129808
  22 H :    0.102159
  23 H :    0.122418
  24 H :    0.109909
  25 H :    0.109452
  26 H :    0.131545
  27 H :    0.125520
  28 H :    0.130280
  29 H :    0.134157
  30 H :    0.120736
  31 H :    0.110553
  32 H :    0.113001
  33 H :    0.127512
  34 H :    0.123662
  35 H :    0.131446
  36 H :    0.107326
  37 H :    0.121146
  38 H :    0.118540
  39 H :    0.128632
  40 H :    0.128214

  Mayer bond orders larger than 0.100000
B(  0-C ,  1-C ) :   1.1670 B(  0-C , 19-H ) :   0.9410 B(  0-C , 20-H ) :   0.9396
B(  0-C , 21-H ) :   0.9471 B(  1-C ,  2-O ) :   0.8937 B(  1-C , 22-H ) :   0.9091
B(  1-C , 23-H ) :   0.9328 B(  2-O ,  3-P ) :   1.1487 B(  3-P ,  4-S ) :   1.6712
B(  3-P ,  5-O ) :   1.0739 B(  3-P ,  8-S ) :   0.9487 B(  4-S ,  8-S ) :   0.1134
B(  5-O ,  6-C ) :   0.9051 B(  6-C ,  7-C ) :   1.1603 B(  6-C , 24-H ) :   0.9068
B(  6-C , 25-H ) :   0.9294 B(  7-C , 26-H ) :   0.9416 B(  7-C , 27-H ) :   0.9509
B(  7-C , 28-H ) :   0.9507 B(  8-S ,  9-C ) :   0.9989 B(  9-C , 10-S ) :   0.9987
B(  9-C , 29-H ) :   0.9114 B(  9-C , 30-H ) :   0.8525 B( 10-S , 11-P ) :   0.9381
B( 10-S , 12-S ) :   0.1144 B( 11-P , 12-S ) :   1.6446 B( 11-P , 13-O ) :   1.1081
B( 11-P , 16-O ) :   1.1294 B( 12-S , 30-H ) :   0.1138 B( 13-O , 14-C ) :   0.8955
B( 14-C , 15-C ) :   1.1523 B( 14-C , 31-H ) :   0.9279 B( 14-C , 32-H ) :   0.9148
B( 15-C , 33-H ) :   0.9499 B( 15-C , 34-H ) :   0.9505 B( 15-C , 35-H ) :   0.9425
B( 16-O , 17-C ) :   0.8922 B( 17-C , 18-C ) :   1.1633 B( 17-C , 36-H ) :   0.9179
B( 17-C , 37-H ) :   0.9347 B( 18-C , 38-H ) :   0.9387 B( 18-C , 39-H ) :   0.9403
B( 18-C , 40-H ) :   0.9465

Dispersion correction           -0.063787521
FINAL SINGLE POINT ENERGY     -2929.513285352840

DIPOLE MOMENT
-------------

Method             : SCF
Type of density    : Electron Density
Multiplicity       :   1
Irrep              :   0
Energy             : -2929.6329590266204832 Eh
Relativity type    :
Basis              : AO
                                X                 Y                 Z
Electronic contribution:     -4.315775059      -0.697244220      -3.058125918
Nuclear contribution   :      4.542471556      -0.314906629       3.423753746
                        -----------------------------------------
Total Dipole Moment    :      0.226696496      -1.012150850       0.365627828
                        -----------------------------------------
Magnitude (a.u.)       :      1.099783775
Magnitude (Debye)      :      2.795428201

Rotational constants in cm-1:             0.012310             0.004723             0.004424
Rotational constants in MHz :           369.032129           141.588585           132.641351

                             ****ORCA TERMINATED NORMALLY****
TOTAL RUN TIME: 0 days 0 hours 0 minutes 20 seconds 443 msec
