                         Program Version 6.0.0  -   RELEASE  -
|  1> ! r2scan-3c def2/J RI DEFGRID2 scfconv6 printgap
|  2> %output
|  3>     printlevel normal
|  4> end
|  5> * xyz 0 1
|  6> C 5.7014266735 -0.2571964418 0.4469652001
|  7> C 4.396287972 -0.6419774843 -0.219876118
|  8> O 3.3420525932 0.1246862959 0.3945162728
|  9> P 1.902964673 0.2401944153 -0.2718447981
| 10> S 1.9304186983 0.7131928783 -2.1789799542
| 11> O 1.1866642621 1.2274382249 0.7325900588
| 12> C 1.2037345002 2.6562041945 0.551274652
| 13> C 2.59150595 3.2308266424 0.7334928857
| 14> S 1.0654688096 -1.6246413867 0.2174444292
| 15> C -0.136897544 -1.8373418986 -1.1383217625
| 16> S -1.8370682013 -1.9862405127 -0.5494353378
| 17> P -2.0988012561 0.0238726515 0.0898789862
| 18> S -1.5197838169 1.3869140134 -1.1890639023
| 19> O -1.3790700807 0.1451911076 1.4842967395
| 20> C -1.7100556902 -0.7084866034 2.6140535769
| 21> C -0.5271475884 -0.7085974611 3.5588097207
| 22> O -3.6281267356 0.0972935079 0.5137434442
| 23> C -4.7021610524 0.2784179999 -0.4282318397
| 24> C -5.1926112572 -1.0458454201 -0.9788737171
| 25> H 5.9062636601 0.7980739542 0.2905993781
| 26> H 5.6413986231 -0.4501706396 1.5139953421
| 27> H 6.5060673978 -0.8454543022 0.0184379178
| 28> H 4.1742381022 -1.7034595449 -0.07894734
| 29> H 4.4080948201 -0.418998724 -1.2922224425
| 30> H 0.8105997636 2.8847853893 -0.4454456914
| 31> H 0.5037224517 3.0203717149 1.3049904635
| 32> H 3.2441816678 2.8744204507 -0.0626388992
| 33> H 2.5391165622 4.3141872275 0.6889000542
| 34> H 3.0014521071 2.9227454627 1.6916764841
| 35> H 0.0903623374 -2.7719111367 -1.6445171266
| 36> H -0.0482254984 -0.9873807317 -1.8209927712
| 37> H -2.6050504922 -0.2961446571 3.082914386
| 38> H -1.9251693892 -1.7142585783 2.2412574295
| 39> H -0.3031644873 0.3056727486 3.8767153759
| 40> H -0.7667067573 -1.3151901577 4.426139047
| 41> H 0.3492280906 -1.1197388859 3.0637691962
| 42> H -5.4802136032 0.7796714879 0.1502380347
| 43> H -4.3577653227 0.9408281585 -1.2291169081
| 44> H -4.4243055007 -1.5171437136 -1.5872809752
| 45> H -5.4522174953 -1.715337068 -0.1637017439
| 46> H -6.0704035654 -0.8693475824 -1.5922189512
| 47> *
| 48>
| 49>                          ****END OF INPUT****

CARTESIAN COORDINATES (ANGSTROEM)
---------------------------------
  C      5.701427   -0.257196    0.446965
  C      4.396288   -0.641977   -0.219876
  O      3.342053    0.124686    0.394516
  P      1.902965    0.240194   -0.271845
  S      1.930419    0.713193   -2.178980
  O      1.186664    1.227438    0.732590
  C      1.203735    2.656204    0.551275
  C      2.591506    3.230827    0.733493
  S      1.065469   -1.624641    0.217444
  C     -0.136898   -1.837342   -1.138322
  S     -1.837068   -1.986241   -0.549435
  P     -2.098801    0.023873    0.089879
  S     -1.519784    1.386914   -1.189064
  O     -1.379070    0.145191    1.484297
  C     -1.710056   -0.708487    2.614054
  C     -0.527148   -0.708597    3.558810
  O     -3.628127    0.097294    0.513743
  C     -4.702161    0.278418   -0.428232
  C     -5.192611   -1.045845   -0.978874
  H      5.906264    0.798074    0.290599
  H      5.641399   -0.450171    1.513995
  H      6.506067   -0.845454    0.018438
  H      4.174238   -1.703460   -0.078947
  H      4.408095   -0.418999   -1.292222
  H      0.810600    2.884785   -0.445446
  H      0.503722    3.020372    1.304990
  H      3.244182    2.874420   -0.062639
  H      2.539117    4.314187    0.688900
  H      3.001452    2.922745    1.691676
  H      0.090362   -2.771911   -1.644517
  H     -0.048225   -0.987381   -1.820993
  H     -2.605050   -0.296145    3.082914
  H     -1.925169   -1.714259    2.241257
  H     -0.303164    0.305673    3.876715
  H     -0.766707   -1.315190    4.426139
  H      0.349228   -1.119739    3.063769
  H     -5.480214    0.779671    0.150238
  H     -4.357765    0.940828   -1.229117
  H     -4.424306   -1.517144   -1.587281
  H     -5.452217   -1.715337   -0.163702
  H     -6.070404   -0.869348   -1.592219

 Total Charge           Charge          ....    0
 Multiplicity           Mult            ....    1
 Number of Electrons    NEL             ....  202
 Basis Dimension        Dim             ....  539

ORBITAL ENERGIES
----------------

  NO   OCC          E(Eh)            E(eV)
   0   2.0000     -88.575936     -2410.2737
   1   2.0000     -88.573162     -2410.1983
   2   2.0000     -88.513945     -2408.5869
   3   2.0000     -88.512503     -2408.5477
   4   2.0000     -76.910822     -2092.8499
   5   2.0000     -76.907491     -2092.7592
   6   2.0000     -18.992709      -516.8179
   7   2.0000     -18.987502      -516.6762
   8   2.0000     -18.986178      -516.6402
   9   2.0000     -18.980488      -516.4853
  10   2.0000     -10.105451      -274.9833
  11   2.0000     -10.098979      -274.8072
  12   2.0000     -10.098466      -274.7932
  13   2.0000     -10.093445      -274.6566
  14   2.0000     -10.085322      -274.4356
  15   2.0000     -10.030758      -272.9508
  16   2.0000     -10.030437      -272.9421
  17   2.0000     -10.028228      -272.8820
  18   2.0000     -10.020223      -272.6641
  19   2.0000      -7.870497      -214.1671
  20   2.0000      -7.867854      -214.0952
  21   2.0000      -7.808750      -212.4869
  22   2.0000      -7.807194      -212.4446
  23   2.0000      -6.589312      -179.3043
  24   2.0000      -6.586019      -179.2147
  25   2.0000      -5.817324      -158.2974
  26   2.0000      -5.814644      -158.2245
  27   2.0000      -5.814117      -158.2102
  28   2.0000      -5.811684      -158.1440
  29   2.0000      -5.807829      -158.0391
  30   2.0000      -5.805000      -157.9621
  31   2.0000      -5.756521      -156.6429
  32   2.0000      -5.754863      -156.5978
  33   2.0000      -5.748921      -156.4361
  34   2.0000      -5.748735      -156.4310
  35   2.0000      -5.747680      -156.4023
  36   2.0000      -5.746987      -156.3835
  37   2.0000      -4.735182      -128.8509
  38   2.0000      -4.734320      -128.8274
  39   2.0000      -4.732626      -128.7813
  40   2.0000      -4.731333      -128.7461
  41   2.0000      -4.730909      -128.7346
  42   2.0000      -4.729945      -128.7083
  43   2.0000      -1.049790       -28.5662
  44   2.0000      -1.043190       -28.3866
  45   2.0000      -1.007925       -27.4270
  46   2.0000      -1.002994       -27.2929
  47   2.0000      -0.799219       -21.7478
  48   2.0000      -0.757313       -20.6075
  49   2.0000      -0.748169       -20.3587
  50   2.0000      -0.733463       -19.9585
  51   2.0000      -0.726275       -19.7629
  52   2.0000      -0.708628       -19.2827
  53   2.0000      -0.681437       -18.5428
  54   2.0000      -0.661259       -17.9938
  55   2.0000      -0.627648       -17.0792
  56   2.0000      -0.619165       -16.8483
  57   2.0000      -0.602065       -16.3830
  58   2.0000      -0.595729       -16.2106
  59   2.0000      -0.589999       -16.0547
  60   2.0000      -0.530263       -14.4292
  61   2.0000      -0.521181       -14.1821
  62   2.0000      -0.497409       -13.5352
  63   2.0000      -0.487616       -13.2687
  64   2.0000      -0.469249       -12.7689
  65   2.0000      -0.464847       -12.6491
  66   2.0000      -0.452209       -12.3052
  67   2.0000      -0.451156       -12.2766
  68   2.0000      -0.444714       -12.1013
  69   2.0000      -0.431295       -11.7361
  70   2.0000      -0.425206       -11.5704
  71   2.0000      -0.410967       -11.1830
  72   2.0000      -0.406565       -11.0632
  73   2.0000      -0.396736       -10.7957
  74   2.0000      -0.393370       -10.7042
  75   2.0000      -0.385231       -10.4827
  76   2.0000      -0.378898       -10.3103
  77   2.0000      -0.372045       -10.1239
  78   2.0000      -0.368841       -10.0367
  79   2.0000      -0.367555       -10.0017
  80   2.0000      -0.357931        -9.7398
  81   2.0000      -0.355042        -9.6612
  82   2.0000      -0.352426        -9.5900
  83   2.0000      -0.348964        -9.4958
  84   2.0000      -0.344718        -9.3803
  85   2.0000      -0.329052        -8.9540
  86   2.0000      -0.320034        -8.7086
  87   2.0000      -0.316929        -8.6241
  88   2.0000      -0.311133        -8.4664
  89   2.0000      -0.306121        -8.3300
  90   2.0000      -0.291152        -7.9226
  91   2.0000      -0.284117        -7.7312
  92   2.0000      -0.278728        -7.5846
  93   2.0000      -0.275798        -7.5048
  94   2.0000      -0.270265        -7.3543
  95   2.0000      -0.249204        -6.7812
  96   2.0000      -0.233073        -6.3422
  97   2.0000      -0.226964        -6.1760
  98   2.0000      -0.214796        -5.8449
  99   2.0000      -0.204276        -5.5586
 100   2.0000      -0.197260        -5.3677
 101   0.0000      -0.040998        -1.1156
 102   0.0000      -0.029440        -0.8011
 103   0.0000      -0.007692        -0.2093
 104   0.0000       0.012990         0.3535
 105   0.0000       0.021679         0.5899

MULLIKEN ATOMIC CHARGES
-----------------------
   0 C :   -0.440892
   1 C :   -0.160585
   2 O :   -0.278746
   3 P :    0.663303
   4 S :   -0.466069
   5 O :   -0.259634
   6 C :   -0.156794
   7 C :   -0.451008
   8 S :   -0.153692
   9 C :   -0.220935
  10 S :   -0.170866
  11 P :    0.671817
  12 S :   -0.418474
  13 O :   -0.256271
  14 C :   -0.104982
  15 C :   -0.455566
  16 O :   -0.299652
  17 C :   -0.172290
  18 C :   -0.444356
  19 H :    0.154662
  20 H :    0.152493
  21 H :    0.146006
  22 H :    0.151299
  23 H :    0.172282
  24 H :    0.182305
  25 H :    0.156286
  26 H :    0.167385
  27 H :    0.146163
  28 H :    0.153902
  29 H :    0.197128
  30 H :    0.220157
  31 H :    0.155112
  32 H :    0.158728
  33 H :    0.154499
  34 H :    0.142757
  35 H :    0.168548
  36 H :    0.148130
  37 H :    0.176945
  38 H :    0.166283
  39 H :    0.156037
  40 H :    0.148583
Sum of atomic charges:   -0.0000000

LOEWDIN ATOMIC CHARGES
----------------------
   0 C :   -0.386558
   1 C :    0.015635
   2 O :   -0.671537
   3 P :    0.368389
   4 S :   -0.129310
   5 O :   -0.660615
   6 C :    0.013310
   7 C :   -0.401220
   8 S :    0.165106
   9 C :   -0.413952
  10 S :    0.120005
  11 P :    0.375533
  12 S :   -0.072907
  13 O :   -0.654592
  14 C :    0.021790
  15 C :   -0.390219
  16 O :   -0.663795
  17 C :    0.022220
  18 C :   -0.403935
  19 H :    0.159926
  20 H :    0.159322
  21 H :    0.159320
  22 H :    0.171417
  23 H :    0.180593
  24 H :    0.185018
  25 H :    0.182823
  26 H :    0.164857
  27 H :    0.158761
  28 H :    0.159937
  29 H :    0.180897
  30 H :    0.203039
  31 H :    0.174782
  32 H :    0.176438
  33 H :    0.161587
  34 H :    0.157897
  35 H :    0.165548
  36 H :    0.179212
  37 H :    0.182225
  38 H :    0.163741
  39 H :    0.159184
  40 H :    0.160127

  Mayer bond orders larger than 0.100000
B(  0-C ,  1-C ) :   0.9533 B(  0-C , 19-H ) :   0.9718 B(  0-C , 20-H ) :   0.9721
B(  0-C , 21-H ) :   0.9654 B(  1-C ,  2-O ) :   0.7890 B(  1-C , 22-H ) :   0.9462
B(  1-C , 23-H ) :   0.9497 B(  2-O ,  3-P ) :   1.0769 B(  3-P ,  4-S ) :   1.7514
B(  3-P ,  5-O ) :   1.1778 B(  3-P ,  8-S ) :   1.0971 B(  5-O ,  6-C ) :   0.7955
B(  6-C ,  7-C ) :   0.9099 B(  6-C , 24-H ) :   0.9610 B(  6-C , 25-H ) :   0.9633
B(  7-C , 26-H ) :   0.9628 B(  7-C , 27-H ) :   0.9616 B(  7-C , 28-H ) :   0.9731
B(  8-S ,  9-C ) :   0.8930 B(  9-C , 10-S ) :   0.9115 B(  9-C , 29-H ) :   0.9150
B(  9-C , 30-H ) :   0.9058 B( 10-S , 11-P ) :   0.9965 B( 11-P , 12-S ) :   1.8453
B( 11-P , 13-O ) :   1.1382 B( 11-P , 16-O ) :   1.0481 B( 13-O , 14-C ) :   0.7476
B( 14-C , 15-C ) :   0.9560 B( 14-C , 31-H ) :   0.9435 B( 14-C , 32-H ) :   0.9529
B( 15-C , 33-H ) :   0.9703 B( 15-C , 34-H ) :   0.9648 B( 15-C , 35-H ) :   0.9655
B( 16-O , 17-C ) :   0.7979 B( 17-C , 18-C ) :   0.9387 B( 17-C , 36-H ) :   0.9617
B( 17-C , 37-H ) :   0.9633 B( 18-C , 38-H ) :   0.9577 B( 18-C , 39-H ) :   0.9738
B( 18-C , 40-H ) :   0.9626

Dispersion correction           -0.021988970
FINAL SINGLE POINT ENERGY     -2932.460819170004

DIPOLE MOMENT
-------------

Method             : SCF
Type of density    : Electron Density
Multiplicity       :   1
Irrep              :   0
Energy             : -2932.4854488419382506 Eh
Relativity type    :
Basis              : AO
                                X                 Y                 Z
Electronic contribution:     -5.842638249      -3.451248564     -10.741420834
Nuclear contribution   :      5.564860080       2.754954453      11.979845257
                        -----------------------------------------
Total Dipole Moment    :     -0.277778169      -0.696294111       1.238424422
                        -----------------------------------------
Magnitude (a.u.)       :      1.447646797
Magnitude (Debye)      :      3.679625734

Rotational constants in cm-1:             0.013349             0.005047             0.004969
Rotational constants in MHz :           400.183736           151.306699           148.973705

                             ****ORCA TERMINATED NORMALLY****
TOTAL RUN TIME: 0 days 0 hours 1 minutes 26 seconds 408 msec
