                         Program Version 6.0.0  -   RELEASE  -
|  1> ! r2scan-3c def2/J RI DEFGRID2 scfconv6 printgap
|  2> %output
|  3>     printlevel normal
|  4> end
|  5> %cpcm
|  6>     smd true
|  7>     smdsolvent "water"
|  8> end
|  9> * xyz 0 1
| 10> C 5.7014266735 -0.2571964418 0.4469652001
| 11> C 4.396287972 -0.6419774843 -0.219876118
| 12> O 3.3420525932 0.1246862959 0.3945162728
| 13> P 1.902964673 0.2401944153 -0.2718447981
| 14> S 1.9304186983 0.7131928783 -2.1789799542
| 15> O 1.1866642621 1.2274382249 0.7325900588
| 16> C 1.2037345002 2.6562041945 0.551274652
| 17> C 2.59150595 3.2308266424 0.7334928857
| 18> S 1.0654688096 -1.6246413867 0.2174444292
| 19> C -0.136897544 -1.8373418986 -1.1383217625
| 20> S -1.8370682013 -1.9862405127 -0.5494353378
| 21> P -2.0988012561 0.0238726515 0.0898789862
| 22> S -1.5197838169 1.3869140134 -1.1890639023
| 23> O -1.3790700807 0.1451911076 1.4842967395
| 24> C -1.7100556902 -0.7084866034 2.6140535769
| 25> C -0.5271475884 -0.7085974611 3.5588097207
| 26> O -3.6281267356 0.0972935079 0.5137434442
| 27> C -4.7021610524 0.2784179999 -0.4282318397
| 28> C -5.1926112572 -1.0458454201 -0.9788737171
| 29> H 5.9062636601 0.7980739542 0.2905993781
| 30> H 5.6413986231 -0.4501706396 1.5139953421
| 31> H 6.5060673978 -0.8454543022 0.0184379178
| 32> H 4.1742381022 -1.7034595449 -0.07894734
| 33> H 4.4080948201 -0.418998724 -1.2922224425
| 34> H 0.8105997636 2.8847853893 -0.4454456914
| 35> H 0.5037224517 3.0203717149 1.3049904635
| 36> H 3.2441816678 2.8744204507 -0.0626388992
| 37> H 2.5391165622 4.3141872275 0.6889000542
| 38> H 3.0014521071 2.9227454627 1.6916764841
| 39> H 0.0903623374 -2.7719111367 -1.6445171266
| 40> H -0.0482254984 -0.9873807317 -1.8209927712
| 41> H -2.6050504922 -0.2961446571 3.082914386
| 42> H -1.9251693892 -1.7142585783 2.2412574295
| 43> H -0.3031644873 0.3056727486 3.8767153759
| 44> H -0.7667067573 -1.3151901577 4.426139047
| 45> H 0.3492280906 -1.1197388859 3.0637691962
| 46> H -5.4802136032 0.7796714879 0.1502380347
| 47> H -4.3577653227 0.9408281585 -1.2291169081
| 48> H -4.4243055007 -1.5171437136 -1.5872809752
| 49> H -5.4522174953 -1.715337068 -0.1637017439
| 50> H -6.0704035654 -0.8693475824 -1.5922189512
| 51> *
| 52>
| 53>                          ****END OF INPUT****

CARTESIAN COORDINATES (ANGSTROEM)
---------------------------------
  C      5.701427   -0.257196    0.446965
  C      4.396288   -0.641977   -0.219876
  O      3.342053    0.124686    0.394516
  P      1.902965    0.240194   -0.271845
  S      1.930419    0.713193   -2.178980
  O      1.186664    1.227438    0.732590
  C      1.203735    2.656204    0.551275
  C      2.591506    3.230827    0.733493
  S      1.065469   -1.624641    0.217444
  C     -0.136898   -1.837342   -1.138322
  S     -1.837068   -1.986241   -0.549435
  P     -2.098801    0.023873    0.089879
  S     -1.519784    1.386914   -1.189064
  O     -1.379070    0.145191    1.484297
  C     -1.710056   -0.708487    2.614054
  C     -0.527148   -0.708597    3.558810
  O     -3.628127    0.097294    0.513743
  C     -4.702161    0.278418   -0.428232
  C     -5.192611   -1.045845   -0.978874
  H      5.906264    0.798074    0.290599
  H      5.641399   -0.450171    1.513995
  H      6.506067   -0.845454    0.018438
  H      4.174238   -1.703460   -0.078947
  H      4.408095   -0.418999   -1.292222
  H      0.810600    2.884785   -0.445446
  H      0.503722    3.020372    1.304990
  H      3.244182    2.874420   -0.062639
  H      2.539117    4.314187    0.688900
  H      3.001452    2.922745    1.691676
  H      0.090362   -2.771911   -1.644517
  H     -0.048225   -0.987381   -1.820993
  H     -2.605050   -0.296145    3.082914
  H     -1.925169   -1.714259    2.241257
  H     -0.303164    0.305673    3.876715
  H     -0.766707   -1.315190    4.426139
  H      0.349228   -1.119739    3.063769
  H     -5.480214    0.779671    0.150238
  H     -4.357765    0.940828   -1.229117
  H     -4.424306   -1.517144   -1.587281
  H     -5.452217   -1.715337   -0.163702
  H     -6.070404   -0.869348   -1.592219

 Total Charge           Charge          ....    0
 Multiplicity           Mult            ....    1
 Number of Electrons    NEL             ....  202
 Basis Dimension        Dim             ....  539

ORBITAL ENERGIES
----------------

  NO   OCC          E(Eh)            E(eV)
   0   2.0000     -88.579309     -2410.3655
   1   2.0000     -88.578339     -2410.3391
   2   2.0000     -88.524656     -2408.8784
   3   2.0000     -88.524616     -2408.8773
   4   2.0000     -76.917695     -2093.0369
   5   2.0000     -76.917207     -2093.0236
   6   2.0000     -18.995159      -516.8846
   7   2.0000     -18.992816      -516.8208
   8   2.0000     -18.992601      -516.8149
   9   2.0000     -18.990954      -516.7701
  10   2.0000     -10.105166      -274.9755
  11   2.0000     -10.091101      -274.5928
  12   2.0000     -10.089972      -274.5621
  13   2.0000     -10.088204      -274.5140
  14   2.0000     -10.086982      -274.4807
  15   2.0000     -10.019134      -272.6345
  16   2.0000     -10.018933      -272.6290
  17   2.0000     -10.018476      -272.6166
  18   2.0000     -10.017619      -272.5933
  19   2.0000      -7.873784      -214.2565
  20   2.0000      -7.872953      -214.2340
  21   2.0000      -7.819805      -212.7877
  22   2.0000      -7.819643      -212.7833
  23   2.0000      -6.596226      -179.4924
  24   2.0000      -6.595787      -179.4805
  25   2.0000      -5.820634      -158.3875
  26   2.0000      -5.819754      -158.3636
  27   2.0000      -5.817424      -158.3001
  28   2.0000      -5.816793      -158.2830
  29   2.0000      -5.811088      -158.1277
  30   2.0000      -5.810093      -158.1007
  31   2.0000      -5.767465      -156.9407
  32   2.0000      -5.767234      -156.9344
  33   2.0000      -5.760115      -156.7407
  34   2.0000      -5.759929      -156.7356
  35   2.0000      -5.759882      -156.7344
  36   2.0000      -5.759463      -156.7230
  37   2.0000      -4.742053      -129.0378
  38   2.0000      -4.741194      -129.0144
  39   2.0000      -4.741070      -129.0111
  40   2.0000      -4.740680      -129.0005
  41   2.0000      -4.739771      -128.9757
  42   2.0000      -4.739659      -128.9727
  43   2.0000      -1.053578       -28.6693
  44   2.0000      -1.051167       -28.6037
  45   2.0000      -1.011702       -27.5298
  46   2.0000      -1.010126       -27.4869
  47   2.0000      -0.801828       -21.8189
  48   2.0000      -0.756818       -20.5941
  49   2.0000      -0.745662       -20.2905
  50   2.0000      -0.725166       -19.7328
  51   2.0000      -0.723411       -19.6850
  52   2.0000      -0.710228       -19.3263
  53   2.0000      -0.687749       -18.7146
  54   2.0000      -0.669756       -18.2250
  55   2.0000      -0.629576       -17.1316
  56   2.0000      -0.617069       -16.7913
  57   2.0000      -0.597932       -16.2706
  58   2.0000      -0.593255       -16.1433
  59   2.0000      -0.589484       -16.0407
  60   2.0000      -0.528774       -14.3887
  61   2.0000      -0.522056       -14.2059
  62   2.0000      -0.495611       -13.4863
  63   2.0000      -0.491394       -13.3715
  64   2.0000      -0.470787       -12.8108
  65   2.0000      -0.467234       -12.7141
  66   2.0000      -0.448972       -12.2171
  67   2.0000      -0.446919       -12.1613
  68   2.0000      -0.443757       -12.0752
  69   2.0000      -0.433721       -11.8021
  70   2.0000      -0.422711       -11.5025
  71   2.0000      -0.411916       -11.2088
  72   2.0000      -0.406568       -11.0633
  73   2.0000      -0.398515       -10.8442
  74   2.0000      -0.391244       -10.6463
  75   2.0000      -0.386376       -10.5138
  76   2.0000      -0.375365       -10.2142
  77   2.0000      -0.367504       -10.0003
  78   2.0000      -0.361212        -9.8291
  79   2.0000      -0.359698        -9.7879
  80   2.0000      -0.354527        -9.6472
  81   2.0000      -0.352816        -9.6006
  82   2.0000      -0.350117        -9.5272
  83   2.0000      -0.344582        -9.3765
  84   2.0000      -0.343366        -9.3435
  85   2.0000      -0.327097        -8.9008
  86   2.0000      -0.320833        -8.7303
  87   2.0000      -0.316624        -8.6158
  88   2.0000      -0.311661        -8.4807
  89   2.0000      -0.302104        -8.2207
  90   2.0000      -0.296261        -8.0617
  91   2.0000      -0.287636        -7.8270
  92   2.0000      -0.280727        -7.6390
  93   2.0000      -0.279170        -7.5966
  94   2.0000      -0.273806        -7.4507
  95   2.0000      -0.253683        -6.9031
  96   2.0000      -0.240864        -6.5542
  97   2.0000      -0.238672        -6.4946
  98   2.0000      -0.226473        -6.1626
  99   2.0000      -0.214136        -5.8269
 100   2.0000      -0.209633        -5.7044
 101   0.0000      -0.046069        -1.2536
 102   0.0000      -0.036391        -0.9902
 103   0.0000      -0.012100        -0.3293
 104   0.0000       0.006793         0.1849
 105   0.0000       0.015962         0.4343

MULLIKEN ATOMIC CHARGES
-----------------------
   0 C :   -0.483360
   1 C :   -0.150434
   2 O :   -0.307108
   3 P :    0.694410
   4 S :   -0.523159
   5 O :   -0.288012
   6 C :   -0.152544
   7 C :   -0.494648
   8 S :   -0.146951
   9 C :   -0.222022
  10 S :   -0.168436
  11 P :    0.683464
  12 S :   -0.473004
  13 O :   -0.285765
  14 C :   -0.092540
  15 C :   -0.506416
  16 O :   -0.323284
  17 C :   -0.160741
  18 C :   -0.477372
  19 H :    0.165506
  20 H :    0.165475
  21 H :    0.169113
  22 H :    0.169791
  23 H :    0.172646
  24 H :    0.180733
  25 H :    0.178813
  26 H :    0.168949
  27 H :    0.171637
  28 H :    0.169811
  29 H :    0.238937
  30 H :    0.212940
  31 H :    0.176021
  32 H :    0.173085
  33 H :    0.169462
  34 H :    0.170342
  35 H :    0.169617
  36 H :    0.174085
  37 H :    0.174583
  38 H :    0.162165
  39 H :    0.172621
  40 H :    0.171593
Sum of atomic charges:   -0.0000000

LOEWDIN ATOMIC CHARGES
----------------------
   0 C :   -0.389719
   1 C :    0.020607
   2 O :   -0.684781
   3 P :    0.372130
   4 S :   -0.165724
   5 O :   -0.679528
   6 C :    0.014219
   7 C :   -0.403245
   8 S :    0.172112
   9 C :   -0.408799
  10 S :    0.129933
  11 P :    0.377481
  12 S :   -0.112449
  13 O :   -0.675257
  14 C :    0.028582
  15 C :   -0.394609
  16 O :   -0.672281
  17 C :    0.027246
  18 C :   -0.405665
  19 H :    0.162328
  20 H :    0.163020
  21 H :    0.168557
  22 H :    0.178943
  23 H :    0.181129
  24 H :    0.183650
  25 H :    0.190704
  26 H :    0.163182
  27 H :    0.168507
  28 H :    0.164240
  29 H :    0.197568
  30 H :    0.199757
  31 H :    0.184127
  32 H :    0.182131
  33 H :    0.164145
  34 H :    0.169114
  35 H :    0.162966
  36 H :    0.190111
  37 H :    0.181704
  38 H :    0.160907
  39 H :    0.164163
  40 H :    0.168790

  Mayer bond orders larger than 0.100000
B(  0-C ,  1-C ) :   0.9501 B(  0-C , 19-H ) :   0.9695 B(  0-C , 20-H ) :   0.9692
B(  0-C , 21-H ) :   0.9589 B(  1-C ,  2-O ) :   0.7820 B(  1-C , 22-H ) :   0.9372
B(  1-C , 23-H ) :   0.9467 B(  2-O ,  3-P ) :   1.0842 B(  3-P ,  4-S ) :   1.6977
B(  3-P ,  5-O ) :   1.1755 B(  3-P ,  8-S ) :   1.1291 B(  5-O ,  6-C ) :   0.7804
B(  6-C ,  7-C ) :   0.9066 B(  6-C , 24-H ) :   0.9574 B(  6-C , 25-H ) :   0.9515
B(  7-C , 26-H ) :   0.9620 B(  7-C , 27-H ) :   0.9548 B(  7-C , 28-H ) :   0.9712
B(  8-S ,  9-C ) :   0.8859 B(  9-C , 10-S ) :   0.9065 B(  9-C , 29-H ) :   0.8985
B(  9-C , 30-H ) :   0.9106 B( 10-S , 11-P ) :   1.0179 B( 11-P , 12-S ) :   1.8161
B( 11-P , 13-O ) :   1.1405 B( 11-P , 16-O ) :   1.0571 B( 13-O , 14-C ) :   0.7407
B( 14-C , 15-C ) :   0.9392 B( 14-C , 31-H ) :   0.9336 B( 14-C , 32-H ) :   0.9465
B( 15-C , 33-H ) :   0.9686 B( 15-C , 34-H ) :   0.9578 B( 15-C , 35-H ) :   0.9670
B( 16-O , 17-C ) :   0.7882 B( 17-C , 18-C ) :   0.9340 B( 17-C , 36-H ) :   0.9521
B( 17-C , 37-H ) :   0.9600 B( 18-C , 38-H ) :   0.9575 B( 18-C , 39-H ) :   0.9710
B( 18-C , 40-H ) :   0.9573

Dispersion correction           -0.021988970
FINAL SINGLE POINT ENERGY     -2932.470124582472

DIPOLE MOMENT
-------------

Method             : SCF
Type of density    : Electron Density
Multiplicity       :   1
Irrep              :   0
Energy             : -2932.4947542544059615 Eh
Relativity type    :
Basis              : AO
                                X                 Y                 Z
Electronic contribution:     -6.006778175      -3.983651141     -10.357374901
Nuclear contribution   :      5.564860080       2.754954453      11.979845257
                        -----------------------------------------
Total Dipole Moment    :     -0.441918094      -1.228696689       1.622470356
                        -----------------------------------------
Magnitude (a.u.)       :      2.082641883
Magnitude (Debye)      :      5.293654972

Rotational constants in cm-1:             0.013349             0.005047             0.004969
Rotational constants in MHz :           400.183736           151.306699           148.973705

                             ****ORCA TERMINATED NORMALLY****
TOTAL RUN TIME: 0 days 0 hours 1 minutes 51 seconds 381 msec
