                         Program Version 6.0.1  -  RELEASE   -
|  1> ! r2scan-3c def2/J RI DEFGRID2 scfconv6 printgap
|  2> %output
|  3>     printlevel normal
|  4> end
|  5> * xyz 0 1
|  6> C 5.0263954664 -2.6310648894 -0.7740278712
|  7> C 3.6453488583 -3.1028845524 -1.1997218552
|  8> O 2.9108725637 -2.0347291322 -1.8308331245
|  9> C 2.2112396368 -1.2180950686 -1.078975969
| 10> O 2.098972498 -1.3072660682 0.1282833851
| 11> C 1.5472038515 -0.125318179 -1.8898354089
| 12> C 0.3958992764 0.4639666489 -1.0889909745
| 13> H 0.0179568035 1.3805350715 -1.5515099214
| 14> C 0.8120907853 0.7944094441 0.3328743047
| 15> O 0.1293805235 0.4963060057 1.294532643
| 16> O 1.9075678061 1.504524002 0.3718893971
| 17> C 2.3575597315 1.9828205476 1.6571198489
| 18> C 1.6554325147 3.280560693 2.0213799818
| 19> S -0.9890035068 -0.7216752416 -0.9883471767
| 20> P -2.2412903737 0.3242592374 0.370047513
| 21> S -2.1452997858 2.2791595162 0.3811740078
| 22> O -3.6717702416 -0.187809451 -0.1757842574
| 23> C -4.1880459797 0.239595609 -1.4380435761
| 24> O -2.3123419281 -0.3594972655 1.7947290587
| 25> C -2.163809714 -1.7772426042 1.9825685248
| 26> H 4.9405009778 -1.8623191006 -0.0093017762
| 27> H 5.5823951824 -3.4695727911 -0.3679478797
| 28> H 5.5622900961 -2.2249754669 -1.6272775401
| 29> H 3.0730659291 -3.4596243145 -0.3388769542
| 30> H 3.7071510199 -3.8777366839 -1.9635689842
| 31> H 1.2022436274 -0.5292906487 -2.8406247358
| 32> H 2.2900653808 0.6519011416 -2.0821200698
| 33> H 2.1627441392 1.2065676734 2.401961271
| 34> H 3.4299110583 2.1293683869 1.5285859516
| 35> H 2.0240665401 3.6330767086 2.9787797624
| 36> H 1.8417006219 4.0348910454 1.2621694698
| 37> H 0.5809834357 3.1197891316 2.0944898292
| 38> H -4.1079893805 1.3247080174 -1.5251821054
| 39> H -5.2310297256 -0.0660557347 -1.4470244795
| 40> H -3.6372454484 -0.2413740559 -2.2464292165
| 41> H -1.1221616392 -2.0558020135 1.8178211498
| 42> H -2.8163981807 -2.3208338726 1.3004852016
| 43> H -2.4463500846 -1.9570427433 3.0165563641
| 44> *
| 45>
| 46>                          ****END OF INPUT****

CARTESIAN COORDINATES (ANGSTROEM)
---------------------------------
  C      5.026395   -2.631065   -0.774028
  C      3.645349   -3.102885   -1.199722
  O      2.910873   -2.034729   -1.830833
  C      2.211240   -1.218095   -1.078976
  O      2.098972   -1.307266    0.128283
  C      1.547204   -0.125318   -1.889835
  C      0.395899    0.463967   -1.088991
  H      0.017957    1.380535   -1.551510
  C      0.812091    0.794409    0.332874
  O      0.129381    0.496306    1.294533
  O      1.907568    1.504524    0.371889
  C      2.357560    1.982821    1.657120
  C      1.655433    3.280561    2.021380
  S     -0.989004   -0.721675   -0.988347
  P     -2.241290    0.324259    0.370048
  S     -2.145300    2.279160    0.381174
  O     -3.671770   -0.187809   -0.175784
  C     -4.188046    0.239596   -1.438044
  O     -2.312342   -0.359497    1.794729
  C     -2.163810   -1.777243    1.982569
  H      4.940501   -1.862319   -0.009302
  H      5.582395   -3.469573   -0.367948
  H      5.562290   -2.224975   -1.627278
  H      3.073066   -3.459624   -0.338877
  H      3.707151   -3.877737   -1.963569
  H      1.202244   -0.529291   -2.840625
  H      2.290065    0.651901   -2.082120
  H      2.162744    1.206568    2.401961
  H      3.429911    2.129368    1.528586
  H      2.024067    3.633077    2.978780
  H      1.841701    4.034891    1.262169
  H      0.580983    3.119789    2.094490
  H     -4.107989    1.324708   -1.525182
  H     -5.231030   -0.066056   -1.447024
  H     -3.637245   -0.241374   -2.246429
  H     -1.122162   -2.055802    1.817821
  H     -2.816398   -2.320834    1.300485
  H     -2.446350   -1.957043    3.016556

 Total Charge           Charge          ....    0
 Multiplicity           Mult            ....    1
 Number of Electrons    NEL             ....  174
 Basis Dimension        Dim             ....  510

ORBITAL ENERGIES
----------------

  NO   OCC          E(Eh)            E(eV)
   0   2.0000     -88.567374     -2410.0408
   1   2.0000     -88.500423     -2408.2190
   2   2.0000     -76.901551     -2092.5976
   3   2.0000     -19.015915      -517.4494
   4   2.0000     -19.003520      -517.1121
   5   2.0000     -18.973885      -516.3057
   6   2.0000     -18.969846      -516.1958
   7   2.0000     -18.947321      -515.5828
   8   2.0000     -18.929967      -515.1106
   9   2.0000     -10.172696      -276.8131
  10   2.0000     -10.161356      -276.5046
  11   2.0000     -10.105307      -274.9794
  12   2.0000     -10.094785      -274.6931
  13   2.0000     -10.091844      -274.6130
  14   2.0000     -10.082036      -274.3461
  15   2.0000     -10.074953      -274.1534
  16   2.0000     -10.071661      -274.0638
  17   2.0000     -10.040587      -273.2183
  18   2.0000     -10.021345      -272.6947
  19   2.0000      -7.861754      -213.9292
  20   2.0000      -7.795495      -212.1262
  21   2.0000      -6.578863      -179.0200
  22   2.0000      -5.808658      -158.0616
  23   2.0000      -5.805657      -157.9799
  24   2.0000      -5.798796      -157.7933
  25   2.0000      -5.743429      -156.2867
  26   2.0000      -5.736030      -156.0853
  27   2.0000      -5.734896      -156.0544
  28   2.0000      -4.724463      -128.5592
  29   2.0000      -4.724243      -128.5532
  30   2.0000      -4.722304      -128.5004
  31   2.0000      -1.093528       -29.7564
  32   2.0000      -1.081571       -29.4310
  33   2.0000      -1.031092       -28.0574
  34   2.0000      -0.996718       -27.1221
  35   2.0000      -0.988688       -26.9036
  36   2.0000      -0.982357       -26.7313
  37   2.0000      -0.812431       -22.1074
  38   2.0000      -0.762295       -20.7431
  39   2.0000      -0.741830       -20.1862
  40   2.0000      -0.724359       -19.7108
  41   2.0000      -0.695614       -18.9286
  42   2.0000      -0.659495       -17.9458
  43   2.0000      -0.655154       -17.8276
  44   2.0000      -0.640884       -17.4393
  45   2.0000      -0.634652       -17.2698
  46   2.0000      -0.595578       -16.2065
  47   2.0000      -0.539564       -14.6823
  48   2.0000      -0.532342       -14.4858
  49   2.0000      -0.520745       -14.1702
  50   2.0000      -0.507237       -13.8026
  51   2.0000      -0.485810       -13.2196
  52   2.0000      -0.476334       -12.9617
  53   2.0000      -0.468915       -12.7598
  54   2.0000      -0.460940       -12.5428
  55   2.0000      -0.452609       -12.3161
  56   2.0000      -0.447376       -12.1737
  57   2.0000      -0.434254       -11.8167
  58   2.0000      -0.433032       -11.7834
  59   2.0000      -0.418883       -11.3984
  60   2.0000      -0.416606       -11.3364
  61   2.0000      -0.415562       -11.3080
  62   2.0000      -0.405008       -11.0208
  63   2.0000      -0.402547       -10.9539
  64   2.0000      -0.398967       -10.8564
  65   2.0000      -0.386725       -10.5233
  66   2.0000      -0.380887       -10.3645
  67   2.0000      -0.365100        -9.9349
  68   2.0000      -0.361666        -9.8414
  69   2.0000      -0.353909        -9.6304
  70   2.0000      -0.347393        -9.4530
  71   2.0000      -0.342860        -9.3297
  72   2.0000      -0.339770        -9.2456
  73   2.0000      -0.322685        -8.7807
  74   2.0000      -0.321806        -8.7568
  75   2.0000      -0.309975        -8.4349
  76   2.0000      -0.301677        -8.2091
  77   2.0000      -0.298322        -8.1178
  78   2.0000      -0.290456        -7.9037
  79   2.0000      -0.277948        -7.5633
  80   2.0000      -0.270383        -7.3575
  81   2.0000      -0.260475        -7.0879
  82   2.0000      -0.255769        -6.9598
  83   2.0000      -0.242998        -6.6123
  84   2.0000      -0.228934        -6.2296
  85   2.0000      -0.203198        -5.5293
  86   2.0000      -0.193749        -5.2722
  87   0.0000      -0.040272        -1.0959
  88   0.0000      -0.027652        -0.7525
  89   0.0000      -0.015362        -0.4180
  90   0.0000       0.011673         0.3176
  91   0.0000       0.034485         0.9384

MULLIKEN ATOMIC CHARGES
-----------------------
   0 C :   -0.465476
   1 C :   -0.140215
   2 O :   -0.159758
   3 C :    0.389689
   4 O :   -0.386707
   5 C :   -0.420797
   6 C :   -0.043154
   7 H :    0.235328
   8 C :    0.328872
   9 O :   -0.393107
  10 O :   -0.141932
  11 C :   -0.135438
  12 C :   -0.475202
  13 S :   -0.209902
  14 P :    0.811627
  15 S :   -0.476224
  16 O :   -0.372221
  17 C :   -0.304229
  18 O :   -0.295975
  19 C :   -0.300692
  20 H :    0.169815
  21 H :    0.151187
  22 H :    0.154478
  23 H :    0.171334
  24 H :    0.152586
  25 H :    0.189002
  26 H :    0.197264
  27 H :    0.172086
  28 H :    0.146163
  29 H :    0.145648
  30 H :    0.148868
  31 H :    0.195982
  32 H :    0.174877
  33 H :    0.147601
  34 H :    0.151284
  35 H :    0.178938
  36 H :    0.156446
  37 H :    0.151952
Sum of atomic charges:   -0.0000000

LOEWDIN ATOMIC CHARGES
----------------------
   0 C :   -0.387314
   1 C :    0.032643
   2 O :   -0.573003
   3 C :    0.368094
   4 O :   -0.423777
   5 C :   -0.206425
   6 C :   -0.197764
   7 H :    0.204568
   8 C :    0.351740
   9 O :   -0.456214
  10 O :   -0.570250
  11 C :    0.036201
  12 C :   -0.389673
  13 S :    0.209656
  14 P :    0.411998
  15 S :   -0.097841
  16 O :   -0.695843
  17 C :   -0.070155
  18 O :   -0.639054
  19 C :   -0.052806
  20 H :    0.164480
  21 H :    0.161335
  22 H :    0.158500
  23 H :    0.189940
  24 H :    0.180316
  25 H :    0.190146
  26 H :    0.201002
  27 H :    0.191213
  28 H :    0.177417
  29 H :    0.158552
  30 H :    0.156773
  31 H :    0.175977
  32 H :    0.175564
  33 H :    0.174324
  34 H :    0.164916
  35 H :    0.177453
  36 H :    0.167953
  37 H :    0.179358

  Mayer bond orders larger than 0.100000
B(  0-C ,  1-C ) :   0.9409 B(  0-C , 20-H ) :   0.9706 B(  0-C , 21-H ) :   0.9635
B(  0-C , 22-H ) :   0.9730 B(  1-C ,  2-O ) :   0.7974 B(  1-C , 23-H ) :   0.9660
B(  1-C , 24-H ) :   0.9615 B(  2-O ,  3-C ) :   1.1378 B(  3-C ,  4-O ) :   1.7669
B(  3-C ,  5-C ) :   0.9724 B(  4-O ,  8-C ) :   0.1437 B(  5-C ,  6-C ) :   0.8907
B(  5-C , 10-O ) :   0.1186 B(  5-C , 25-H ) :   0.9699 B(  5-C , 26-H ) :   0.9239
B(  6-C ,  7-H ) :   0.9091 B(  6-C ,  8-C ) :   0.8830 B(  6-C , 13-S ) :   0.9555
B(  8-C ,  9-O ) :   1.7593 B(  8-C , 10-O ) :   1.1498 B(  9-O , 14-P ) :   0.1234
B( 10-O , 11-C ) :   0.7945 B( 11-C , 12-C ) :   0.9401 B( 11-C , 27-H ) :   0.9709
B( 11-C , 28-H ) :   0.9618 B( 12-C , 29-H ) :   0.9655 B( 12-C , 30-H ) :   0.9717
B( 12-C , 31-H ) :   0.9607 B( 13-S , 14-P ) :   0.9672 B( 14-P , 15-S ) :   1.7684
B( 14-P , 16-O ) :   0.9980 B( 14-P , 18-O ) :   1.2061 B( 16-O , 17-C ) :   0.8430
B( 17-C , 32-H ) :   0.9587 B( 17-C , 33-H ) :   0.9699 B( 17-C , 34-H ) :   0.9578
B( 18-O , 19-C ) :   0.7969 B( 19-C , 35-H ) :   0.9560 B( 19-C , 36-H ) :   0.9652
B( 19-C , 37-H ) :   0.9655

Dispersion correction           -0.017226611
FINAL SINGLE POINT ENERGY     -1981.445743365701

DIPOLE MOMENT
-------------

Method             : SCF
Type of density    : Electron Density
Multiplicity       :   1
Irrep              :   0
Energy             : -1981.4665567570418716 Eh
Relativity type    :
Basis              : AO
                                X                 Y                 Z
Electronic contribution:    -16.284373556       3.426181139      -1.053392197
Nuclear contribution   :     18.108560259      -4.663163989       0.086571667
                        -----------------------------------------
Total Dipole Moment    :      1.824186703      -1.236982850      -0.966820531
                        -----------------------------------------
Magnitude (a.u.)       :      2.406766636
Magnitude (Debye)      :      6.117514621

Rotational constants in cm-1:             0.014165             0.006614             0.005459
Rotational constants in MHz :           424.663674           198.281752           163.661892

                             ****ORCA TERMINATED NORMALLY****
TOTAL RUN TIME: 0 days 0 hours 1 minutes 22 seconds 110 msec
