                         Program Version 6.0.1  -  RELEASE   -
|  1> ! r2scan-3c def2/J RI DEFGRID2 scfconv6 printgap
|  2> %output
|  3>     printlevel normal
|  4> end
|  5> %cpcm
|  6>     smd true
|  7>     smdsolvent "water"
|  8> end
|  9> * xyz 0 1
| 10> C 5.0263954664 -2.6310648894 -0.7740278712
| 11> C 3.6453488583 -3.1028845524 -1.1997218552
| 12> O 2.9108725637 -2.0347291322 -1.8308331245
| 13> C 2.2112396368 -1.2180950686 -1.078975969
| 14> O 2.098972498 -1.3072660682 0.1282833851
| 15> C 1.5472038515 -0.125318179 -1.8898354089
| 16> C 0.3958992764 0.4639666489 -1.0889909745
| 17> H 0.0179568035 1.3805350715 -1.5515099214
| 18> C 0.8120907853 0.7944094441 0.3328743047
| 19> O 0.1293805235 0.4963060057 1.294532643
| 20> O 1.9075678061 1.504524002 0.3718893971
| 21> C 2.3575597315 1.9828205476 1.6571198489
| 22> C 1.6554325147 3.280560693 2.0213799818
| 23> S -0.9890035068 -0.7216752416 -0.9883471767
| 24> P -2.2412903737 0.3242592374 0.370047513
| 25> S -2.1452997858 2.2791595162 0.3811740078
| 26> O -3.6717702416 -0.187809451 -0.1757842574
| 27> C -4.1880459797 0.239595609 -1.4380435761
| 28> O -2.3123419281 -0.3594972655 1.7947290587
| 29> C -2.163809714 -1.7772426042 1.9825685248
| 30> H 4.9405009778 -1.8623191006 -0.0093017762
| 31> H 5.5823951824 -3.4695727911 -0.3679478797
| 32> H 5.5622900961 -2.2249754669 -1.6272775401
| 33> H 3.0730659291 -3.4596243145 -0.3388769542
| 34> H 3.7071510199 -3.8777366839 -1.9635689842
| 35> H 1.2022436274 -0.5292906487 -2.8406247358
| 36> H 2.2900653808 0.6519011416 -2.0821200698
| 37> H 2.1627441392 1.2065676734 2.401961271
| 38> H 3.4299110583 2.1293683869 1.5285859516
| 39> H 2.0240665401 3.6330767086 2.9787797624
| 40> H 1.8417006219 4.0348910454 1.2621694698
| 41> H 0.5809834357 3.1197891316 2.0944898292
| 42> H -4.1079893805 1.3247080174 -1.5251821054
| 43> H -5.2310297256 -0.0660557347 -1.4470244795
| 44> H -3.6372454484 -0.2413740559 -2.2464292165
| 45> H -1.1221616392 -2.0558020135 1.8178211498
| 46> H -2.8163981807 -2.3208338726 1.3004852016
| 47> H -2.4463500846 -1.9570427433 3.0165563641
| 48> *
| 49>
| 50>                          ****END OF INPUT****

CARTESIAN COORDINATES (ANGSTROEM)
---------------------------------
  C      5.026395   -2.631065   -0.774028
  C      3.645349   -3.102885   -1.199722
  O      2.910873   -2.034729   -1.830833
  C      2.211240   -1.218095   -1.078976
  O      2.098972   -1.307266    0.128283
  C      1.547204   -0.125318   -1.889835
  C      0.395899    0.463967   -1.088991
  H      0.017957    1.380535   -1.551510
  C      0.812091    0.794409    0.332874
  O      0.129381    0.496306    1.294533
  O      1.907568    1.504524    0.371889
  C      2.357560    1.982821    1.657120
  C      1.655433    3.280561    2.021380
  S     -0.989004   -0.721675   -0.988347
  P     -2.241290    0.324259    0.370048
  S     -2.145300    2.279160    0.381174
  O     -3.671770   -0.187809   -0.175784
  C     -4.188046    0.239596   -1.438044
  O     -2.312342   -0.359497    1.794729
  C     -2.163810   -1.777243    1.982569
  H      4.940501   -1.862319   -0.009302
  H      5.582395   -3.469573   -0.367948
  H      5.562290   -2.224975   -1.627278
  H      3.073066   -3.459624   -0.338877
  H      3.707151   -3.877737   -1.963569
  H      1.202244   -0.529291   -2.840625
  H      2.290065    0.651901   -2.082120
  H      2.162744    1.206568    2.401961
  H      3.429911    2.129368    1.528586
  H      2.024067    3.633077    2.978780
  H      1.841701    4.034891    1.262169
  H      0.580983    3.119789    2.094490
  H     -4.107989    1.324708   -1.525182
  H     -5.231030   -0.066056   -1.447024
  H     -3.637245   -0.241374   -2.246429
  H     -1.122162   -2.055802    1.817821
  H     -2.816398   -2.320834    1.300485
  H     -2.446350   -1.957043    3.016556

 Total Charge           Charge          ....    0
 Multiplicity           Mult            ....    1
 Number of Electrons    NEL             ....  174
 Basis Dimension        Dim             ....  510

ORBITAL ENERGIES
----------------

  NO   OCC          E(Eh)            E(eV)
   0   2.0000     -88.576873     -2410.2992
   1   2.0000     -88.521252     -2408.7857
   2   2.0000     -76.918485     -2093.0584
   3   2.0000     -19.011312      -517.3241
   4   2.0000     -19.011132      -517.3192
   5   2.0000     -18.991960      -516.7975
   6   2.0000     -18.984412      -516.5921
   7   2.0000     -18.952598      -515.7264
   8   2.0000     -18.947657      -515.5919
   9   2.0000     -10.174778      -276.8698
  10   2.0000     -10.174017      -276.8491
  11   2.0000     -10.096580      -274.7419
  12   2.0000     -10.087956      -274.5072
  13   2.0000     -10.087387      -274.4918
  14   2.0000     -10.083753      -274.3929
  15   2.0000     -10.076521      -274.1961
  16   2.0000     -10.061670      -273.7920
  17   2.0000     -10.019914      -272.6557
  18   2.0000     -10.019096      -272.6335
  19   2.0000      -7.871170      -214.1854
  20   2.0000      -7.816655      -212.7020
  21   2.0000      -6.595976      -179.4856
  22   2.0000      -5.818075      -158.3179
  23   2.0000      -5.815087      -158.2366
  24   2.0000      -5.808212      -158.0495
  25   2.0000      -5.764459      -156.8589
  26   2.0000      -5.757218      -156.6619
  27   2.0000      -5.756089      -156.6312
  28   2.0000      -4.741591      -129.0252
  29   2.0000      -4.741237      -129.0156
  30   2.0000      -4.739521      -128.9689
  31   2.0000      -1.093909       -29.7668
  32   2.0000      -1.088141       -29.6098
  33   2.0000      -1.047692       -28.5091
  34   2.0000      -1.004008       -27.3205
  35   2.0000      -1.000230       -27.2176
  36   2.0000      -0.997872       -27.1535
  37   2.0000      -0.812949       -22.1215
  38   2.0000      -0.751315       -20.4443
  39   2.0000      -0.744111       -20.2483
  40   2.0000      -0.727659       -19.8006
  41   2.0000      -0.696617       -18.9559
  42   2.0000      -0.663284       -18.0489
  43   2.0000      -0.659411       -17.9435
  44   2.0000      -0.653203       -17.7746
  45   2.0000      -0.626278       -17.0419
  46   2.0000      -0.594568       -16.1790
  47   2.0000      -0.537609       -14.6291
  48   2.0000      -0.529711       -14.4142
  49   2.0000      -0.525088       -14.2884
  50   2.0000      -0.508101       -13.8261
  51   2.0000      -0.487473       -13.2648
  52   2.0000      -0.487134       -13.2556
  53   2.0000      -0.469409       -12.7733
  54   2.0000      -0.465467       -12.6660
  55   2.0000      -0.459439       -12.5020
  56   2.0000      -0.446952       -12.1622
  57   2.0000      -0.442907       -12.0521
  58   2.0000      -0.437569       -11.9069
  59   2.0000      -0.424007       -11.5378
  60   2.0000      -0.419736       -11.4216
  61   2.0000      -0.414246       -11.2722
  62   2.0000      -0.407647       -11.0926
  63   2.0000      -0.400246       -10.8913
  64   2.0000      -0.395100       -10.7512
  65   2.0000      -0.388571       -10.5736
  66   2.0000      -0.369068       -10.0429
  67   2.0000      -0.365177        -9.9370
  68   2.0000      -0.359499        -9.7825
  69   2.0000      -0.353027        -9.6064
  70   2.0000      -0.346445        -9.4273
  71   2.0000      -0.346066        -9.4169
  72   2.0000      -0.338739        -9.2176
  73   2.0000      -0.328154        -8.9295
  74   2.0000      -0.314010        -8.5447
  75   2.0000      -0.311232        -8.4691
  76   2.0000      -0.309165        -8.4128
  77   2.0000      -0.307734        -8.3739
  78   2.0000      -0.291951        -7.9444
  79   2.0000      -0.287386        -7.8202
  80   2.0000      -0.279985        -7.6188
  81   2.0000      -0.273479        -7.4417
  82   2.0000      -0.263321        -7.1653
  83   2.0000      -0.257848        -7.0164
  84   2.0000      -0.241046        -6.5592
  85   2.0000      -0.223786        -6.0895
  86   2.0000      -0.215719        -5.8700
  87   0.0000      -0.048500        -1.3198
  88   0.0000      -0.032645        -0.8883
  89   0.0000      -0.025185        -0.6853
  90   0.0000       0.003337         0.0908
  91   0.0000       0.020620         0.5611

MULLIKEN ATOMIC CHARGES
-----------------------
   0 C :   -0.493542
   1 C :   -0.143479
   2 O :   -0.169997
   3 C :    0.419423
   4 O :   -0.452745
   5 C :   -0.447844
   6 C :   -0.024025
   7 H :    0.264747
   8 C :    0.316436
   9 O :   -0.447369
  10 O :   -0.153947
  11 C :   -0.126490
  12 C :   -0.509269
  13 S :   -0.204173
  14 P :    0.808402
  15 S :   -0.519925
  16 O :   -0.407990
  17 C :   -0.310648
  18 O :   -0.348116
  19 C :   -0.304617
  20 H :    0.169556
  21 H :    0.172380
  22 H :    0.167182
  23 H :    0.175935
  24 H :    0.177589
  25 H :    0.221224
  26 H :    0.238007
  27 H :    0.176736
  28 H :    0.178817
  29 H :    0.172864
  30 H :    0.170172
  31 H :    0.172537
  32 H :    0.174728
  33 H :    0.175550
  34 H :    0.170716
  35 H :    0.180231
  36 H :    0.180094
  37 H :    0.180851
Sum of atomic charges:   -0.0000000

LOEWDIN ATOMIC CHARGES
----------------------
   0 C :   -0.390241
   1 C :    0.038077
   2 O :   -0.571264
   3 C :    0.377584
   4 O :   -0.471320
   5 C :   -0.195193
   6 C :   -0.188417
   7 H :    0.215628
   8 C :    0.352982
   9 O :   -0.504344
  10 O :   -0.568779
  11 C :    0.041892
  12 C :   -0.393220
  13 S :    0.220859
  14 P :    0.406562
  15 S :   -0.135289
  16 O :   -0.713864
  17 C :   -0.064927
  18 O :   -0.673006
  19 C :   -0.046455
  20 H :    0.162960
  21 H :    0.168955
  22 H :    0.162909
  23 H :    0.191467
  24 H :    0.191153
  25 H :    0.203497
  26 H :    0.216872
  27 H :    0.192150
  28 H :    0.191791
  29 H :    0.168748
  30 H :    0.163001
  31 H :    0.164582
  32 H :    0.175746
  33 H :    0.186153
  34 H :    0.173473
  35 H :    0.179358
  36 H :    0.178563
  37 H :    0.191358

  Mayer bond orders larger than 0.100000
B(  0-C ,  1-C ) :   0.9386 B(  0-C , 20-H ) :   0.9683 B(  0-C , 21-H ) :   0.9589
B(  0-C , 22-H ) :   0.9694 B(  1-C ,  2-O ) :   0.7809 B(  1-C , 23-H ) :   0.9621
B(  1-C , 24-H ) :   0.9522 B(  2-O ,  3-C ) :   1.1552 B(  3-C ,  4-O ) :   1.7155
B(  3-C ,  5-C ) :   0.9569 B(  4-O ,  8-C ) :   0.1418 B(  5-C ,  6-C ) :   0.8814
B(  5-C , 10-O ) :   0.1055 B(  5-C , 25-H ) :   0.9656 B(  5-C , 26-H ) :   0.9180
B(  6-C ,  7-H ) :   0.8902 B(  6-C ,  8-C ) :   0.8855 B(  6-C , 13-S ) :   0.9376
B(  8-C ,  9-O ) :   1.7204 B(  8-C , 10-O ) :   1.1541 B(  9-O , 14-P ) :   0.1242
B( 10-O , 11-C ) :   0.7780 B( 11-C , 12-C ) :   0.9293 B( 11-C , 27-H ) :   0.9636
B( 11-C , 28-H ) :   0.9500 B( 12-C , 29-H ) :   0.9595 B( 12-C , 30-H ) :   0.9695
B( 12-C , 31-H ) :   0.9668 B( 13-S , 14-P ) :   0.9970 B( 14-P , 15-S ) :   1.7724
B( 14-P , 16-O ) :   0.9947 B( 14-P , 18-O ) :   1.1905 B( 16-O , 17-C ) :   0.8355
B( 17-C , 32-H ) :   0.9553 B( 17-C , 33-H ) :   0.9595 B( 17-C , 34-H ) :   0.9508
B( 18-O , 19-C ) :   0.7910 B( 19-C , 35-H ) :   0.9493 B( 19-C , 36-H ) :   0.9545
B( 19-C , 37-H ) :   0.9543

Dispersion correction           -0.017226611
FINAL SINGLE POINT ENERGY     -1981.461854649716

DIPOLE MOMENT
-------------

Method             : SCF
Type of density    : Electron Density
Multiplicity       :   1
Irrep              :   0
Energy             : -1981.4826680410565132 Eh
Relativity type    :
Basis              : AO
                                X                 Y                 Z
Electronic contribution:    -15.670275571       3.100230487      -1.936691821
Nuclear contribution   :     18.108560259      -4.663163989       0.086571667
                        -----------------------------------------
Total Dipole Moment    :      2.438284688      -1.562933502      -1.850120155
                        -----------------------------------------
Magnitude (a.u.)       :      3.436704517
Magnitude (Debye)      :      8.735408669

Rotational constants in cm-1:             0.014165             0.006614             0.005459
Rotational constants in MHz :           424.663674           198.281752           163.661892

                             ****ORCA TERMINATED NORMALLY****
TOTAL RUN TIME: 0 days 0 hours 1 minutes 50 seconds 185 msec
