                         Program Version 6.0.0  -   RELEASE  -
|  1> ! pbe def2-sv(p) def2/J RI DEFGRID1 loosescf d4 GCP(DFT/SV(P)) printgap
|  2> %output
|  3>     printlevel normal
|  4> end
|  5> * xyz 0 1
|  6> C 2.4337247395 -1.7375083599 -2.8406396031
|  7> C 3.4539649425 -0.9056505187 -2.0904662797
|  8> O 3.2628248949 -0.9837320639 -0.6688369158
|  9> P 1.9649374256 -0.4074561005 0.050281532
| 10> S 1.4030452657 1.3204934551 -0.7203774152
| 11> O 2.4020310082 -0.3849952087 1.572380593
| 12> C 2.945191919 0.7873779552 2.2096192537
| 13> C 4.3387672288 1.0996383443 1.7066099837
| 14> S 0.7379016236 -2.1206426756 0.1020384758
| 15> C -0.4651790668 -1.7022130621 1.4157879305
| 16> S -0.719191258 0.0702243352 1.6858338025
| 17> P -1.9567159463 0.5375619021 0.0407531477
| 18> S -2.3074662384 2.443226952 -0.2410792568
| 19> O -3.2863602373 -0.3285583353 0.245065929
| 20> C -4.4398363608 0.1948674719 0.9196731452
| 21> C -4.2116741304 0.3148094307 2.4130171832
| 22> O -1.2437867344 -0.3216755844 -1.0821407765
| 23> C -1.8141781325 -0.561333738 -2.3884796315
| 24> C -1.511961453 0.5777432507 -3.3407553794
| 25> H 2.6548103921 -1.714647546 -3.9028469532
| 26> H 2.4480264372 -2.764938763 -2.4854991589
| 27> H 1.4382515759 -1.3244283448 -2.6756397083
| 28> H 3.3876312988 0.145503716 -2.3908103364
| 29> H 4.4697551894 -1.272890738 -2.2412628978
| 30> H 2.2671239034 1.6283243017 2.0281875196
| 31> H 2.9408428549 0.5339959762 3.2704645286
| 32> H 4.9790136404 0.2279647753 1.8125396409
| 33> H 4.2965343173 1.3800731252 0.6546915558
| 34> H 4.7513037794 1.9265515159 2.2759966508
| 35> H -0.0911070339 -2.0892341953 2.3608405977
| 36> H -1.4065892688 -2.1715268756 1.1374392223
| 37> H -4.6771539548 1.1731480737 0.4892746233
| 38> H -5.2311842054 -0.5188367463 0.6864788552
| 39> H -5.1283440692 0.6452660631 2.8905245246
| 40> H -3.91073911 -0.6416822479 2.8321352353
| 41> H -3.4285105262 1.0472341475 2.6079981949
| 42> H -1.337362584 -1.49019353 -2.7097687908
| 43> H -2.8902190166 -0.7161508863 -2.2815077733
| 44> H -1.8456928189 0.3122244974 -4.3386205055
| 45> H -2.0204613672 1.4854720429 -3.0214538378
| 46> H -0.4428749583 0.7781180444 -3.3574103347
| 47> *
| 48>
| 49>                          ****END OF INPUT****

CARTESIAN COORDINATES (ANGSTROEM)
---------------------------------
  C      2.433725   -1.737508   -2.840640
  C      3.453965   -0.905651   -2.090466
  O      3.262825   -0.983732   -0.668837
  P      1.964937   -0.407456    0.050282
  S      1.403045    1.320493   -0.720377
  O      2.402031   -0.384995    1.572381
  C      2.945192    0.787378    2.209619
  C      4.338767    1.099638    1.706610
  S      0.737902   -2.120643    0.102038
  C     -0.465179   -1.702213    1.415788
  S     -0.719191    0.070224    1.685834
  P     -1.956716    0.537562    0.040753
  S     -2.307466    2.443227   -0.241079
  O     -3.286360   -0.328558    0.245066
  C     -4.439836    0.194867    0.919673
  C     -4.211674    0.314809    2.413017
  O     -1.243787   -0.321676   -1.082141
  C     -1.814178   -0.561334   -2.388480
  C     -1.511961    0.577743   -3.340755
  H      2.654810   -1.714648   -3.902847
  H      2.448026   -2.764939   -2.485499
  H      1.438252   -1.324428   -2.675640
  H      3.387631    0.145504   -2.390810
  H      4.469755   -1.272891   -2.241263
  H      2.267124    1.628324    2.028188
  H      2.940843    0.533996    3.270465
  H      4.979014    0.227965    1.812540
  H      4.296534    1.380073    0.654692
  H      4.751304    1.926552    2.275997
  H     -0.091107   -2.089234    2.360841
  H     -1.406589   -2.171527    1.137439
  H     -4.677154    1.173148    0.489275
  H     -5.231184   -0.518837    0.686479
  H     -5.128344    0.645266    2.890525
  H     -3.910739   -0.641682    2.832135
  H     -3.428511    1.047234    2.607998
  H     -1.337363   -1.490194   -2.709769
  H     -2.890219   -0.716151   -2.281508
  H     -1.845693    0.312224   -4.338621
  H     -2.020461    1.485472   -3.021454
  H     -0.442875    0.778118   -3.357410

 Total Charge           Charge          ....    0
 Multiplicity           Mult            ....    1
 Number of Electrons    NEL             ....  202
 Basis Dimension        Dim             ....  334

ORBITAL ENERGIES
----------------

  NO   OCC          E(Eh)            E(eV)
   0   2.0000     -88.045785     -2395.8476
   1   2.0000     -88.036860     -2395.6047
   2   2.0000     -87.983269     -2394.1465
   3   2.0000     -87.978273     -2394.0105
   4   2.0000     -76.424395     -2079.6135
   5   2.0000     -76.422372     -2079.5585
   6   2.0000     -18.790222      -511.3079
   7   2.0000     -18.787557      -511.2354
   8   2.0000     -18.787473      -511.2331
   9   2.0000     -18.785988      -511.1927
  10   2.0000      -9.960578      -271.0411
  11   2.0000      -9.951124      -270.7838
  12   2.0000      -9.949373      -270.7362
  13   2.0000      -9.949262      -270.7332
  14   2.0000      -9.946660      -270.6624
  15   2.0000      -9.885462      -268.9971
  16   2.0000      -9.883100      -268.9328
  17   2.0000      -9.879073      -268.8232
  18   2.0000      -9.874294      -268.6932
  19   2.0000      -7.690338      -209.2647
  20   2.0000      -7.682039      -209.0389
  21   2.0000      -7.628393      -207.5791
  22   2.0000      -7.622849      -207.4283
  23   2.0000      -6.421547      -174.7392
  24   2.0000      -6.419290      -174.6778
  25   2.0000      -5.718713      -155.6141
  26   2.0000      -5.714568      -155.5013
  27   2.0000      -5.710269      -155.3843
  28   2.0000      -5.707088      -155.2978
  29   2.0000      -5.706630      -155.2853
  30   2.0000      -5.698532      -155.0649
  31   2.0000      -5.657379      -153.9451
  32   2.0000      -5.651831      -153.7942
  33   2.0000      -5.649184      -153.7221
  34   2.0000      -5.648328      -153.6988
  35   2.0000      -5.643456      -153.5662
  36   2.0000      -5.643019      -153.5544
  37   2.0000      -4.644197      -126.3750
  38   2.0000      -4.643434      -126.3543
  39   2.0000      -4.641933      -126.3134
  40   2.0000      -4.641904      -126.3126
  41   2.0000      -4.641136      -126.2917
  42   2.0000      -4.639706      -126.2528
  43   2.0000      -0.984605       -26.7925
  44   2.0000      -0.982305       -26.7299
  45   2.0000      -0.942773       -25.6542
  46   2.0000      -0.940430       -25.5904
  47   2.0000      -0.762927       -20.7603
  48   2.0000      -0.717476       -19.5235
  49   2.0000      -0.704594       -19.1730
  50   2.0000      -0.684799       -18.6343
  51   2.0000      -0.683144       -18.5893
  52   2.0000      -0.670717       -18.2511
  53   2.0000      -0.652005       -17.7420
  54   2.0000      -0.634733       -17.2719
  55   2.0000      -0.596046       -16.2192
  56   2.0000      -0.587943       -15.9987
  57   2.0000      -0.573135       -15.5958
  58   2.0000      -0.569971       -15.5097
  59   2.0000      -0.563768       -15.3409
  60   2.0000      -0.498062       -13.5530
  61   2.0000      -0.489784       -13.3277
  62   2.0000      -0.470323       -12.7981
  63   2.0000      -0.466422       -12.6920
  64   2.0000      -0.457490       -12.4489
  65   2.0000      -0.438856       -11.9419
  66   2.0000      -0.436942       -11.8898
  67   2.0000      -0.434558       -11.8249
  68   2.0000      -0.422744       -11.5034
  69   2.0000      -0.418156       -11.3786
  70   2.0000      -0.413377       -11.2485
  71   2.0000      -0.395600       -10.7648
  72   2.0000      -0.389732       -10.6052
  73   2.0000      -0.388637       -10.5753
  74   2.0000      -0.379037       -10.3141
  75   2.0000      -0.374639       -10.1944
  76   2.0000      -0.364415        -9.9162
  77   2.0000      -0.357020        -9.7150
  78   2.0000      -0.351072        -9.5531
  79   2.0000      -0.346468        -9.4279
  80   2.0000      -0.345600        -9.4042
  81   2.0000      -0.341638        -9.2964
  82   2.0000      -0.341104        -9.2819
  83   2.0000      -0.334747        -9.1089
  84   2.0000      -0.325898        -8.8681
  85   2.0000      -0.317769        -8.6469
  86   2.0000      -0.310567        -8.4510
  87   2.0000      -0.294760        -8.0208
  88   2.0000      -0.291865        -7.9420
  89   2.0000      -0.289978        -7.8907
  90   2.0000      -0.278075        -7.5668
  91   2.0000      -0.272542        -7.4162
  92   2.0000      -0.269058        -7.3214
  93   2.0000      -0.260613        -7.0916
  94   2.0000      -0.258089        -7.0230
  95   2.0000      -0.233064        -6.3420
  96   2.0000      -0.216808        -5.8997
  97   2.0000      -0.204328        -5.5600
  98   2.0000      -0.197478        -5.3737
  99   2.0000      -0.191901        -5.2219
 100   2.0000      -0.184584        -5.0228
 101   0.0000      -0.049999        -1.3605
 102   0.0000      -0.026064        -0.7092
 103   0.0000      -0.013960        -0.3799
 104   0.0000      -0.000819        -0.0223
 105   0.0000       0.015405         0.4192

MULLIKEN ATOMIC CHARGES
-----------------------
   0 C :   -0.349756
   1 C :    0.002649
   2 O :   -0.369878
   3 P :    0.605853
   4 S :   -0.308932
   5 O :   -0.373151
   6 C :   -0.002833
   7 C :   -0.303714
   8 S :   -0.105335
   9 C :   -0.310820
  10 S :   -0.086670
  11 P :    0.638290
  12 S :   -0.307125
  13 O :   -0.386113
  14 C :   -0.007538
  15 C :   -0.306051
  16 O :   -0.368854
  17 C :   -0.006245
  18 C :   -0.307643
  19 H :    0.114180
  20 H :    0.121673
  21 H :    0.150281
  22 H :    0.108827
  23 H :    0.104517
  24 H :    0.116626
  25 H :    0.100107
  26 H :    0.114720
  27 H :    0.122605
  28 H :    0.110598
  29 H :    0.185506
  30 H :    0.179533
  31 H :    0.110671
  32 H :    0.100385
  33 H :    0.111768
  34 H :    0.109052
  35 H :    0.124448
  36 H :    0.107281
  37 H :    0.101271
  38 H :    0.102616
  39 H :    0.126659
  40 H :    0.130540
Sum of atomic charges:   -0.0000000

LOEWDIN ATOMIC CHARGES
----------------------
   0 C :   -0.373712
   1 C :   -0.121255
   2 O :   -0.245970
   3 P :    0.565224
   4 S :   -0.305176
   5 O :   -0.244706
   6 C :   -0.118697
   7 C :   -0.364254
   8 S :    0.079646
   9 C :   -0.467628
  10 S :    0.110661
  11 P :    0.569617
  12 S :   -0.304842
  13 O :   -0.253565
  14 C :   -0.124916
  15 C :   -0.366536
  16 O :   -0.238036
  17 C :   -0.110351
  18 C :   -0.365647
  19 H :    0.131528
  20 H :    0.124629
  21 H :    0.122389
  22 H :    0.108719
  23 H :    0.118440
  24 H :    0.112125
  25 H :    0.116517
  26 H :    0.125564
  27 H :    0.122905
  28 H :    0.129671
  29 H :    0.137520
  30 H :    0.131940
  31 H :    0.108469
  32 H :    0.115686
  33 H :    0.130170
  34 H :    0.121358
  35 H :    0.120672
  36 H :    0.115280
  37 H :    0.108968
  38 H :    0.125759
  39 H :    0.124380
  40 H :    0.127456

  Mayer bond orders larger than 0.100000
B(  0-C ,  1-C ) :   1.1649 B(  0-C , 19-H ) :   0.9376 B(  0-C , 20-H ) :   0.9418
B(  0-C , 21-H ) :   0.9258 B(  1-C ,  2-O ) :   0.9119 B(  1-C , 22-H ) :   0.9120
B(  1-C , 23-H ) :   0.9327 B(  2-O ,  3-P ) :   1.0974 B(  3-P ,  4-S ) :   1.5846
B(  3-P ,  5-O ) :   1.1134 B(  3-P ,  8-S ) :   0.9743 B(  4-S ,  8-S ) :   0.1191
B(  5-O ,  6-C ) :   0.9024 B(  6-C ,  7-C ) :   1.1668 B(  6-C , 24-H ) :   0.9148
B(  6-C , 25-H ) :   0.9349 B(  7-C , 26-H ) :   0.9461 B(  7-C , 27-H ) :   0.9357
B(  7-C , 28-H ) :   0.9396 B(  8-S ,  9-C ) :   0.9696 B(  9-C , 10-S ) :   1.0058
B(  9-C , 29-H ) :   0.9088 B(  9-C , 30-H ) :   0.9042 B( 10-S , 11-P ) :   0.9526
B( 11-P , 12-S ) :   1.6596 B( 11-P , 13-O ) :   1.0532 B( 11-P , 16-O ) :   1.1159
B( 13-O , 14-C ) :   0.9157 B( 14-C , 15-C ) :   1.1642 B( 14-C , 31-H ) :   0.9096
B( 14-C , 32-H ) :   0.9332 B( 15-C , 33-H ) :   0.9392 B( 15-C , 34-H ) :   0.9470
B( 15-C , 35-H ) :   0.9360 B( 16-O , 17-C ) :   0.8998 B( 17-C , 18-C ) :   1.1726
B( 17-C , 36-H ) :   0.9264 B( 17-C , 37-H ) :   0.9234 B( 18-C , 38-H ) :   0.9384
B( 18-C , 39-H ) :   0.9334 B( 18-C , 40-H ) :   0.9406

Dispersion correction           -0.069361438
FINAL SINGLE POINT ENERGY     -2929.512271357743

DIPOLE MOMENT
-------------

Method             : SCF
Type of density    : Electron Density
Multiplicity       :   1
Irrep              :   0
Energy             : -2929.6283217410900761 Eh
Relativity type    :
Basis              : AO
                                X                 Y                 Z
Electronic contribution:     -1.331488419       2.083803208       6.163926156
Nuclear contribution   :      1.182533357      -3.404907403      -6.069408106
                        -----------------------------------------
Total Dipole Moment    :     -0.148955063      -1.321104195       0.094518050
                        -----------------------------------------
Magnitude (a.u.)       :      1.332830659
Magnitude (Debye)      :      3.387786303

Rotational constants in cm-1:             0.012078             0.005893             0.005247
Rotational constants in MHz :           362.099143           176.680704           157.311738

                             ****ORCA TERMINATED NORMALLY****
TOTAL RUN TIME: 0 days 0 hours 0 minutes 21 seconds 503 msec
