                         Program Version 6.0.0  -   RELEASE  -
|  1> ! pbe def2-sv(p) def2/J RI DEFGRID1 loosescf d4 GCP(DFT/SV(P)) printgap
|  2> %output
|  3>     printlevel normal
|  4> end
|  5> * xyz 0 1
|  6> C 1.2191362646 -0.8378760012 -2.3996357136
|  7> C 2.3196435751 -1.4657166862 -1.5706109301
|  8> O 2.1778198269 -1.1726913844 -0.173441853
|  9> P 2.4552387807 0.2808454433 0.4252487855
| 10> S 3.8008231444 1.3355417427 -0.5285842883
| 11> O 2.774032403 -0.056985125 1.9449940898
| 12> C 4.1212645577 -0.2950809139 2.4024432077
| 13> C 4.6938045226 -1.5790432395 1.8399849614
| 14> S 0.5636514734 1.1672556384 0.7175700089
| 15> C -0.2599011316 -0.1987241529 1.6026998019
| 16> S -1.1367643359 -1.3645063027 0.5265887814
| 17> P -2.4992216419 -0.0299247556 -0.3930811795
| 18> S -1.9432823579 1.0469337368 -1.9412466226
| 19> O -2.9949052723 0.7674018267 0.8803299098
| 20> C -3.4316611685 2.1434254574 0.8461381123
| 21> C -2.589449838 2.9627786047 1.8036902991
| 22> O -3.7661991292 -0.94568319 -0.6965485594
| 23> C -3.9237811693 -1.6587532849 -1.9335491641
| 24> C -2.9905938294 -2.8500510988 -2.0122468591
| 25> H 1.257967986 0.2491731095 -2.3187958916
| 26> H 1.3426889071 -1.1129873363 -3.4418534949
| 27> H 0.2427376767 -1.1727257037 -2.057296707
| 28> H 3.2969325331 -1.1017445322 -1.904324967
| 29> H 2.2864970908 -2.5547946812 -1.6177600158
| 30> H 4.7390257604 0.56115706 2.1145165578
| 31> H 4.0228670411 -0.3346206216 3.4880803904
| 32> H 4.8258090339 -1.484443516 0.763013402
| 33> H 5.6596894828 -1.7711243103 2.2965758725
| 34> H 4.025511946 -2.4120143153 2.0417363516
| 35> H -0.9724494625 0.263154071 2.2807551778
| 36> H 0.4841599858 -0.7774223667 2.1424927567
| 37> H -3.3397484726 2.5213640913 -0.1774301931
| 38> H -4.4826074265 2.1361480407 1.1403647421
| 39> H -2.9437674676 3.9884231884 1.7983744699
| 40> H -2.6677224467 2.5629863545 2.8108733644
| 41> H -1.5459710909 2.9463773528 1.492957743
| 42> H -4.9706612625 -1.9648991888 -1.9329894678
| 43> H -3.7388672422 -0.9642761506 -2.7601593299
| 44> H -3.1939925624 -3.4098985012 -2.9194068527
| 45> H -1.9559017223 -2.5090813106 -2.0307583451
| 46> H -3.1280073369 -3.4947645325 -1.1482456074
| 47> *
| 48>
| 49>                          ****END OF INPUT****

CARTESIAN COORDINATES (ANGSTROEM)
---------------------------------
  C      1.219136   -0.837876   -2.399636
  C      2.319644   -1.465717   -1.570611
  O      2.177820   -1.172691   -0.173442
  P      2.455239    0.280845    0.425249
  S      3.800823    1.335542   -0.528584
  O      2.774032   -0.056985    1.944994
  C      4.121265   -0.295081    2.402443
  C      4.693805   -1.579043    1.839985
  S      0.563651    1.167256    0.717570
  C     -0.259901   -0.198724    1.602700
  S     -1.136764   -1.364506    0.526589
  P     -2.499222   -0.029925   -0.393081
  S     -1.943282    1.046934   -1.941247
  O     -2.994905    0.767402    0.880330
  C     -3.431661    2.143425    0.846138
  C     -2.589450    2.962779    1.803690
  O     -3.766199   -0.945683   -0.696549
  C     -3.923781   -1.658753   -1.933549
  C     -2.990594   -2.850051   -2.012247
  H      1.257968    0.249173   -2.318796
  H      1.342689   -1.112987   -3.441853
  H      0.242738   -1.172726   -2.057297
  H      3.296933   -1.101745   -1.904325
  H      2.286497   -2.554795   -1.617760
  H      4.739026    0.561157    2.114517
  H      4.022867   -0.334621    3.488080
  H      4.825809   -1.484444    0.763013
  H      5.659689   -1.771124    2.296576
  H      4.025512   -2.412014    2.041736
  H     -0.972449    0.263154    2.280755
  H      0.484160   -0.777422    2.142493
  H     -3.339748    2.521364   -0.177430
  H     -4.482607    2.136148    1.140365
  H     -2.943767    3.988423    1.798374
  H     -2.667722    2.562986    2.810873
  H     -1.545971    2.946377    1.492958
  H     -4.970661   -1.964899   -1.932989
  H     -3.738867   -0.964276   -2.760159
  H     -3.193993   -3.409899   -2.919407
  H     -1.955902   -2.509081   -2.030758
  H     -3.128007   -3.494765   -1.148246

 Total Charge           Charge          ....    0
 Multiplicity           Mult            ....    1
 Number of Electrons    NEL             ....  202
 Basis Dimension        Dim             ....  334

ORBITAL ENERGIES
----------------

  NO   OCC          E(Eh)            E(eV)
   0   2.0000     -88.043975     -2395.7984
   1   2.0000     -88.040996     -2395.7173
   2   2.0000     -87.988132     -2394.2788
   3   2.0000     -87.987077     -2394.2501
   4   2.0000     -76.429017     -2079.7393
   5   2.0000     -76.425789     -2079.6514
   6   2.0000     -18.797357      -511.5021
   7   2.0000     -18.791990      -511.3561
   8   2.0000     -18.791379      -511.3394
   9   2.0000     -18.789992      -511.3017
  10   2.0000      -9.960057      -271.0269
  11   2.0000      -9.954593      -270.8782
  12   2.0000      -9.953398      -270.8457
  13   2.0000      -9.953319      -270.8436
  14   2.0000      -9.945197      -270.6226
  15   2.0000      -9.889669      -269.1116
  16   2.0000      -9.888640      -269.0836
  17   2.0000      -9.885603      -269.0009
  18   2.0000      -9.869970      -268.5755
  19   2.0000      -7.689217      -209.2342
  20   2.0000      -7.686032      -209.1476
  21   2.0000      -7.633260      -207.7116
  22   2.0000      -7.631926      -207.6753
  23   2.0000      -6.426438      -174.8723
  24   2.0000      -6.423546      -174.7936
  25   2.0000      -5.717224      -155.5736
  26   2.0000      -5.714339      -155.4951
  27   2.0000      -5.713722      -155.4783
  28   2.0000      -5.710385      -155.3875
  29   2.0000      -5.706015      -155.2686
  30   2.0000      -5.702696      -155.1783
  31   2.0000      -5.662245      -154.0775
  32   2.0000      -5.660684      -154.0350
  33   2.0000      -5.653906      -153.8506
  34   2.0000      -5.653339      -153.8352
  35   2.0000      -5.652728      -153.8186
  36   2.0000      -5.652096      -153.8014
  37   2.0000      -4.649084      -126.5080
  38   2.0000      -4.648266      -126.4858
  39   2.0000      -4.646750      -126.4445
  40   2.0000      -4.645866      -126.4204
  41   2.0000      -4.645473      -126.4097
  42   2.0000      -4.644095      -126.3723
  43   2.0000      -0.989360       -26.9218
  44   2.0000      -0.985444       -26.8153
  45   2.0000      -0.949128       -25.8271
  46   2.0000      -0.944371       -25.6976
  47   2.0000      -0.764133       -20.7931
  48   2.0000      -0.724292       -19.7090
  49   2.0000      -0.709077       -19.2950
  50   2.0000      -0.689570       -18.7642
  51   2.0000      -0.682305       -18.5665
  52   2.0000      -0.672503       -18.2997
  53   2.0000      -0.655980       -17.8501
  54   2.0000      -0.639894       -17.4124
  55   2.0000      -0.600677       -16.3452
  56   2.0000      -0.594354       -16.1732
  57   2.0000      -0.575162       -15.6510
  58   2.0000      -0.569316       -15.4919
  59   2.0000      -0.562870       -15.3165
  60   2.0000      -0.503846       -13.7103
  61   2.0000      -0.492728       -13.4078
  62   2.0000      -0.475949       -12.9512
  63   2.0000      -0.470534       -12.8039
  64   2.0000      -0.462029       -12.5724
  65   2.0000      -0.444914       -12.1067
  66   2.0000      -0.441886       -12.0243
  67   2.0000      -0.435492       -11.8503
  68   2.0000      -0.430735       -11.7209
  69   2.0000      -0.415688       -11.3115
  70   2.0000      -0.411035       -11.1848
  71   2.0000      -0.395884       -10.7725
  72   2.0000      -0.394273       -10.7287
  73   2.0000      -0.391393       -10.6503
  74   2.0000      -0.388192       -10.5633
  75   2.0000      -0.377852       -10.2819
  76   2.0000      -0.367626       -10.0036
  77   2.0000      -0.359930        -9.7942
  78   2.0000      -0.357674        -9.7328
  79   2.0000      -0.351961        -9.5773
  80   2.0000      -0.346496        -9.4286
  81   2.0000      -0.344522        -9.3749
  82   2.0000      -0.338919        -9.2225
  83   2.0000      -0.335108        -9.1188
  84   2.0000      -0.330981        -9.0065
  85   2.0000      -0.320047        -8.7089
  86   2.0000      -0.310839        -8.4583
  87   2.0000      -0.299908        -8.1609
  88   2.0000      -0.292553        -7.9608
  89   2.0000      -0.288305        -7.8452
  90   2.0000      -0.285756        -7.7758
  91   2.0000      -0.277402        -7.5485
  92   2.0000      -0.272822        -7.4239
  93   2.0000      -0.265562        -7.2263
  94   2.0000      -0.262435        -7.1412
  95   2.0000      -0.233529        -6.3547
  96   2.0000      -0.219237        -5.9657
  97   2.0000      -0.209382        -5.6976
  98   2.0000      -0.207554        -5.6478
  99   2.0000      -0.200914        -5.4672
 100   2.0000      -0.195436        -5.3181
 101   0.0000      -0.045767        -1.2454
 102   0.0000      -0.028313        -0.7704
 103   0.0000      -0.019320        -0.5257
 104   0.0000      -0.006901        -0.1878
 105   0.0000       0.015442         0.4202

MULLIKEN ATOMIC CHARGES
-----------------------
   0 C :   -0.340180
   1 C :   -0.004476
   2 O :   -0.379660
   3 P :    0.612336
   4 S :   -0.315037
   5 O :   -0.384441
   6 C :   -0.002768
   7 C :   -0.308074
   8 S :   -0.062762
   9 C :   -0.357433
  10 S :   -0.093469
  11 P :    0.603123
  12 S :   -0.308549
  13 O :   -0.376312
  14 C :   -0.007631
  15 C :   -0.311308
  16 O :   -0.365900
  17 C :   -0.002651
  18 C :   -0.338687
  19 H :    0.130567
  20 H :    0.104384
  21 H :    0.149852
  22 H :    0.108604
  23 H :    0.099088
  24 H :    0.114001
  25 H :    0.104560
  26 H :    0.125378
  27 H :    0.112713
  28 H :    0.114932
  29 H :    0.196420
  30 H :    0.193512
  31 H :    0.114086
  32 H :    0.107719
  33 H :    0.115848
  34 H :    0.117253
  35 H :    0.136317
  36 H :    0.106848
  37 H :    0.110989
  38 H :    0.116327
  39 H :    0.142446
  40 H :    0.122036
Sum of atomic charges:    0.0000000

LOEWDIN ATOMIC CHARGES
----------------------
   0 C :   -0.372560
   1 C :   -0.121936
   2 O :   -0.247356
   3 P :    0.571363
   4 S :   -0.313403
   5 O :   -0.251402
   6 C :   -0.115931
   7 C :   -0.365185
   8 S :    0.100878
   9 C :   -0.474307
  10 S :    0.089990
  11 P :    0.564940
  12 S :   -0.301102
  13 O :   -0.242817
  14 C :   -0.117240
  15 C :   -0.359143
  16 O :   -0.244973
  17 C :   -0.121159
  18 C :   -0.369233
  19 H :    0.123783
  20 H :    0.128150
  21 H :    0.113686
  22 H :    0.106802
  23 H :    0.116471
  24 H :    0.112665
  25 H :    0.118405
  26 H :    0.123609
  27 H :    0.130725
  28 H :    0.125535
  29 H :    0.135494
  30 H :    0.137356
  31 H :    0.109033
  32 H :    0.117939
  33 H :    0.133518
  34 H :    0.124339
  35 H :    0.123209
  36 H :    0.119642
  37 H :    0.108899
  38 H :    0.133127
  39 H :    0.121180
  40 H :    0.127009

  Mayer bond orders larger than 0.100000
B(  0-C ,  1-C ) :   1.1603 B(  0-C , 19-H ) :   0.9331 B(  0-C , 20-H ) :   0.9377
B(  0-C , 21-H ) :   0.9205 B(  1-C ,  2-O ) :   0.9042 B(  1-C , 22-H ) :   0.9144
B(  1-C , 23-H ) :   0.9317 B(  2-O ,  3-P ) :   1.0859 B(  3-P ,  4-S ) :   1.6380
B(  3-P ,  5-O ) :   1.0879 B(  3-P ,  8-S ) :   0.9838 B(  5-O ,  6-C ) :   0.9083
B(  6-C ,  7-C ) :   1.1626 B(  6-C , 24-H ) :   0.9177 B(  6-C , 25-H ) :   0.9359
B(  7-C , 26-H ) :   0.9361 B(  7-C , 27-H ) :   0.9381 B(  7-C , 28-H ) :   0.9463
B(  8-S ,  9-C ) :   0.9891 B(  9-C , 10-S ) :   0.9955 B(  9-C , 29-H ) :   0.8951
B(  9-C , 30-H ) :   0.8920 B( 10-S , 11-P ) :   0.9613 B( 10-S , 12-S ) :   0.1056
B( 11-P , 12-S ) :   1.6343 B( 11-P , 13-O ) :   1.1137 B( 11-P , 16-O ) :   1.1109
B( 13-O , 14-C ) :   0.8944 B( 14-C , 15-C ) :   1.1673 B( 14-C , 31-H ) :   0.9006
B( 14-C , 32-H ) :   0.9323 B( 15-C , 33-H ) :   0.9389 B( 15-C , 34-H ) :   0.9466
B( 15-C , 35-H ) :   0.9359 B( 16-O , 17-C ) :   0.9149 B( 17-C , 18-C ) :   1.1608
B( 17-C , 36-H ) :   0.9326 B( 17-C , 37-H ) :   0.9105 B( 18-C , 38-H ) :   0.9375
B( 18-C , 39-H ) :   0.9298 B( 18-C , 40-H ) :   0.9433

Dispersion correction           -0.065538243
FINAL SINGLE POINT ENERGY     -2929.518614220080

DIPOLE MOMENT
-------------

Method             : SCF
Type of density    : Electron Density
Multiplicity       :   1
Irrep              :   0
Energy             : -2929.6389329143225950 Eh
Relativity type    :
Basis              : AO
                                X                 Y                 Z
Electronic contribution:      0.078509667       8.449416845       0.721176672
Nuclear contribution   :     -0.733755792      -9.536178018       0.092662353
                        -----------------------------------------
Total Dipole Moment    :     -0.655246125      -1.086761173       0.813839025
                        -----------------------------------------
Magnitude (a.u.)       :      1.507558055
Magnitude (Debye)      :      3.831908050

Rotational constants in cm-1:             0.012549             0.004863             0.004378
Rotational constants in MHz :           376.198908           145.778399           131.246535

                             ****ORCA TERMINATED NORMALLY****
TOTAL RUN TIME: 0 days 0 hours 0 minutes 20 seconds 883 msec
