                         Program Version 6.0.0  -   RELEASE  -
|  1> ! pbe def2-sv(p) def2/J RI DEFGRID1 loosescf d4 GCP(DFT/SV(P)) printgap
|  2> %output
|  3>     printlevel normal
|  4> end
|  5> * xyz 0 1
|  6> C 4.2644281863 -0.0838362294 -2.712713806
|  7> C 4.5928731717 0.7017241041 -1.459408832
|  8> O 4.0289833895 0.1009668323 -0.2809431518
|  9> P 2.4620547899 0.0315272661 -0.0126858376
| 10> S 1.4906092116 1.6636168331 -0.5208561295
| 11> O 2.434107592 -0.3609474504 1.5162402182
| 12> C 2.3491215585 0.5944176298 2.5969292895
| 13> C 1.5828730084 -0.0540464111 3.7317680994
| 14> S 1.8528122862 -1.805458865 -0.8475372555
| 15> C 0.0890427618 -1.4394479764 -0.9679094837
| 16> S -0.646200281 -1.0707864161 0.6643179584
| 17> P -2.3755081308 -0.1297548573 -0.0890809813
| 18> S -2.2012984591 1.0181325473 -1.6749795034
| 19> O -3.0503333153 0.5495070723 1.17783855
| 20> C -2.81562584 1.9214360481 1.5395599123
| 21> C -1.4227347759 2.1289470709 2.0967168657
| 22> O -3.2566722539 -1.4298252008 -0.2995489157
| 23> C -4.4369545644 -1.4361253178 -1.1295572722
| 24> C -5.5581013726 -0.6184522858 -0.5237463674
| 25> H 3.1968065931 -0.023073995 -2.9213675986
| 26> H 4.8103538754 0.3337030312 -3.5526738641
| 27> H 4.5365048354 -1.1286026117 -2.5854724113
| 28> H 4.2170229655 1.7271009159 -1.5375945852
| 29> H 5.6650920962 0.7132533697 -1.2593861821
| 30> H 3.3685423064 0.8501872492 2.8945351365
| 31> H 1.8435438914 1.4948284541 2.2314393975
| 32> H 1.4917975175 0.651541002 4.5510283918
| 33> H 0.5936575893 -0.3480130763 3.3898023628
| 34> H 2.1078624074 -0.941057257 4.0732126621
| 35> H -0.3799981768 -2.3264152807 -1.3876597999
| 36> H -0.0622116096 -0.5679174091 -1.6106683493
| 37> H -2.9712437896 2.5472954464 0.6545401746
| 38> H -3.5833443035 2.1315181046 2.2855634644
| 39> H -1.2358841571 1.4359740815 2.9129782379
| 40> H -0.6812972123 1.9656428829 1.3144804777
| 41> H -1.3257949243 3.1479190672 2.4574029159
| 42> H -4.1662639644 -1.048253744 -2.1168736066
| 43> H -4.6982237621 -2.4926391025 -1.2012882807
| 44> H -5.747966491 -0.9401499978 0.4968048986
| 45> H -5.2849005199 0.4358691334 -0.516026242
| 46> H -6.4578132327 -0.745159507 -1.1177378796
| 47> *
| 48>
| 49>                          ****END OF INPUT****

CARTESIAN COORDINATES (ANGSTROEM)
---------------------------------
  C      4.264428   -0.083836   -2.712714
  C      4.592873    0.701724   -1.459409
  O      4.028983    0.100967   -0.280943
  P      2.462055    0.031527   -0.012686
  S      1.490609    1.663617   -0.520856
  O      2.434108   -0.360947    1.516240
  C      2.349122    0.594418    2.596929
  C      1.582873   -0.054046    3.731768
  S      1.852812   -1.805459   -0.847537
  C      0.089043   -1.439448   -0.967909
  S     -0.646200   -1.070786    0.664318
  P     -2.375508   -0.129755   -0.089081
  S     -2.201298    1.018133   -1.674980
  O     -3.050333    0.549507    1.177839
  C     -2.815626    1.921436    1.539560
  C     -1.422735    2.128947    2.096717
  O     -3.256672   -1.429825   -0.299549
  C     -4.436955   -1.436125   -1.129557
  C     -5.558101   -0.618452   -0.523746
  H      3.196807   -0.023074   -2.921368
  H      4.810354    0.333703   -3.552674
  H      4.536505   -1.128603   -2.585472
  H      4.217023    1.727101   -1.537595
  H      5.665092    0.713253   -1.259386
  H      3.368542    0.850187    2.894535
  H      1.843544    1.494828    2.231439
  H      1.491798    0.651541    4.551028
  H      0.593658   -0.348013    3.389802
  H      2.107862   -0.941057    4.073213
  H     -0.379998   -2.326415   -1.387660
  H     -0.062212   -0.567917   -1.610668
  H     -2.971244    2.547295    0.654540
  H     -3.583344    2.131518    2.285563
  H     -1.235884    1.435974    2.912978
  H     -0.681297    1.965643    1.314480
  H     -1.325795    3.147919    2.457403
  H     -4.166264   -1.048254   -2.116874
  H     -4.698224   -2.492639   -1.201288
  H     -5.747966   -0.940150    0.496805
  H     -5.284901    0.435869   -0.516026
  H     -6.457813   -0.745160   -1.117738

 Total Charge           Charge          ....    0
 Multiplicity           Mult            ....    1
 Number of Electrons    NEL             ....  202
 Basis Dimension        Dim             ....  334

ORBITAL ENERGIES
----------------

  NO   OCC          E(Eh)            E(eV)
   0   2.0000     -88.046366     -2395.8634
   1   2.0000     -88.038891     -2395.6600
   2   2.0000     -87.985737     -2394.2136
   3   2.0000     -87.985626     -2394.2106
   4   2.0000     -76.425599     -2079.6463
   5   2.0000     -76.423900     -2079.6000
   6   2.0000     -18.794157      -511.4150
   7   2.0000     -18.791109      -511.3321
   8   2.0000     -18.788166      -511.2520
   9   2.0000     -18.787881      -511.2442
  10   2.0000      -9.953034      -270.8358
  11   2.0000      -9.951025      -270.7812
  12   2.0000      -9.950765      -270.7741
  13   2.0000      -9.950301      -270.7615
  14   2.0000      -9.949708      -270.7453
  15   2.0000      -9.883875      -268.9539
  16   2.0000      -9.883253      -268.9370
  17   2.0000      -9.883210      -268.9358
  18   2.0000      -9.879147      -268.8253
  19   2.0000      -7.691811      -209.3048
  20   2.0000      -7.683815      -209.0872
  21   2.0000      -7.630507      -207.6366
  22   2.0000      -7.630308      -207.6312
  23   2.0000      -6.423106      -174.7816
  24   2.0000      -6.421600      -174.7406
  25   2.0000      -5.719751      -155.6423
  26   2.0000      -5.716351      -155.5498
  27   2.0000      -5.711755      -155.4248
  28   2.0000      -5.708641      -155.3400
  29   2.0000      -5.708622      -155.3395
  30   2.0000      -5.700418      -155.1163
  31   2.0000      -5.659229      -153.9954
  32   2.0000      -5.659089      -153.9916
  33   2.0000      -5.651250      -153.7783
  34   2.0000      -5.651045      -153.7728
  35   2.0000      -5.650760      -153.7650
  36   2.0000      -5.650535      -153.7589
  37   2.0000      -4.645488      -126.4102
  38   2.0000      -4.644872      -126.3934
  39   2.0000      -4.644130      -126.3732
  40   2.0000      -4.643708      -126.3617
  41   2.0000      -4.643227      -126.3486
  42   2.0000      -4.642187      -126.3203
  43   2.0000      -0.985721       -26.8228
  44   2.0000      -0.984893       -26.8003
  45   2.0000      -0.945384       -25.7252
  46   2.0000      -0.943542       -25.6751
  47   2.0000      -0.764091       -20.7920
  48   2.0000      -0.722316       -19.6552
  49   2.0000      -0.707776       -19.2596
  50   2.0000      -0.686220       -18.6730
  51   2.0000      -0.684998       -18.6397
  52   2.0000      -0.673646       -18.3308
  53   2.0000      -0.649991       -17.6871
  54   2.0000      -0.635199       -17.2846
  55   2.0000      -0.602512       -16.3952
  56   2.0000      -0.592781       -16.1304
  57   2.0000      -0.571530       -15.5521
  58   2.0000      -0.570533       -15.5250
  59   2.0000      -0.554163       -15.0795
  60   2.0000      -0.501478       -13.6459
  61   2.0000      -0.492289       -13.3959
  62   2.0000      -0.472629       -12.8609
  63   2.0000      -0.471455       -12.8289
  64   2.0000      -0.448845       -12.2137
  65   2.0000      -0.444321       -12.0906
  66   2.0000      -0.438112       -11.9216
  67   2.0000      -0.437448       -11.9036
  68   2.0000      -0.427021       -11.6198
  69   2.0000      -0.418285       -11.3821
  70   2.0000      -0.410555       -11.1718
  71   2.0000      -0.392828       -10.6894
  72   2.0000      -0.392292       -10.6748
  73   2.0000      -0.391122       -10.6430
  74   2.0000      -0.383801       -10.4438
  75   2.0000      -0.378602       -10.3023
  76   2.0000      -0.363126        -9.8812
  77   2.0000      -0.354665        -9.6509
  78   2.0000      -0.354407        -9.6439
  79   2.0000      -0.351092        -9.5537
  80   2.0000      -0.347274        -9.4498
  81   2.0000      -0.341408        -9.2902
  82   2.0000      -0.338873        -9.2212
  83   2.0000      -0.337174        -9.1750
  84   2.0000      -0.329880        -8.9765
  85   2.0000      -0.315607        -8.5881
  86   2.0000      -0.312618        -8.5068
  87   2.0000      -0.295499        -8.0409
  88   2.0000      -0.292683        -7.9643
  89   2.0000      -0.284836        -7.7508
  90   2.0000      -0.281582        -7.6622
  91   2.0000      -0.274646        -7.4735
  92   2.0000      -0.271590        -7.3903
  93   2.0000      -0.263907        -7.1813
  94   2.0000      -0.261459        -7.1147
  95   2.0000      -0.231353        -6.2954
  96   2.0000      -0.222904        -6.0655
  97   2.0000      -0.210482        -5.7275
  98   2.0000      -0.202161        -5.5011
  99   2.0000      -0.198152        -5.3920
 100   2.0000      -0.195239        -5.3127
 101   0.0000      -0.043886        -1.1942
 102   0.0000      -0.031142        -0.8474
 103   0.0000      -0.007003        -0.1906
 104   0.0000       0.010931         0.2974
 105   0.0000       0.017248         0.4693

MULLIKEN ATOMIC CHARGES
-----------------------
   0 C :   -0.319799
   1 C :   -0.001177
   2 O :   -0.371827
   3 P :    0.602850
   4 S :   -0.312732
   5 O :   -0.364822
   6 C :   -0.010337
   7 C :   -0.295576
   8 S :   -0.076572
   9 C :   -0.357396
  10 S :   -0.085793
  11 P :    0.612485
  12 S :   -0.321910
  13 O :   -0.372608
  14 C :    0.002503
  15 C :   -0.361714
  16 O :   -0.370183
  17 C :   -0.003707
  18 C :   -0.307213
  19 H :    0.129632
  20 H :    0.113823
  21 H :    0.117970
  22 H :    0.111087
  23 H :    0.104729
  24 H :    0.103150
  25 H :    0.113817
  26 H :    0.107986
  27 H :    0.137149
  28 H :    0.116028
  29 H :    0.181027
  30 H :    0.206631
  31 H :    0.111567
  32 H :    0.102955
  33 H :    0.116152
  34 H :    0.166944
  35 H :    0.110430
  36 H :    0.108795
  37 H :    0.104202
  38 H :    0.117913
  39 H :    0.122029
  40 H :    0.111514
Sum of atomic charges:   -0.0000000

LOEWDIN ATOMIC CHARGES
----------------------
   0 C :   -0.369541
   1 C :   -0.118910
   2 O :   -0.247426
   3 P :    0.565164
   4 S :   -0.300835
   5 O :   -0.242108
   6 C :   -0.113128
   7 C :   -0.353989
   8 S :    0.099826
   9 C :   -0.478415
  10 S :    0.085441
  11 P :    0.572662
  12 S :   -0.308794
  13 O :   -0.241912
  14 C :   -0.117683
  15 C :   -0.377044
  16 O :   -0.246682
  17 C :   -0.118648
  18 C :   -0.364269
  19 H :    0.122059
  20 H :    0.131383
  21 H :    0.124101
  22 H :    0.110645
  23 H :    0.118563
  24 H :    0.113903
  25 H :    0.108485
  26 H :    0.128509
  27 H :    0.124584
  28 H :    0.127267
  29 H :    0.133994
  30 H :    0.122575
  31 H :    0.110923
  32 H :    0.117404
  33 H :    0.121800
  34 H :    0.121682
  35 H :    0.130912
  36 H :    0.109466
  37 H :    0.118343
  38 H :    0.126923
  39 H :    0.122777
  40 H :    0.129994

  Mayer bond orders larger than 0.100000
B(  0-C ,  1-C ) :   1.1643 B(  0-C , 19-H ) :   0.9358 B(  0-C , 20-H ) :   0.9380
B(  0-C , 21-H ) :   0.9447 B(  1-C ,  2-O ) :   0.9098 B(  1-C , 22-H ) :   0.9157
B(  1-C , 23-H ) :   0.9340 B(  2-O ,  3-P ) :   1.1146 B(  3-P ,  4-S ) :   1.6089
B(  3-P ,  5-O ) :   1.1320 B(  3-P ,  8-S ) :   0.9552 B(  4-S ,  8-S ) :   0.1127
B(  5-O ,  6-C ) :   0.8954 B(  6-C ,  7-C ) :   1.1660 B(  6-C , 24-H ) :   0.9327
B(  6-C , 25-H ) :   0.9057 B(  7-C , 26-H ) :   0.9415 B(  7-C , 27-H ) :   0.9388
B(  7-C , 28-H ) :   0.9479 B(  8-S ,  9-C ) :   1.0143 B(  9-C , 10-S ) :   0.9809
B(  9-C , 29-H ) :   0.9072 B(  9-C , 30-H ) :   0.8572 B( 10-S , 11-P ) :   0.9646
B( 10-S , 12-S ) :   0.1164 B( 11-P , 12-S ) :   1.6036 B( 11-P , 13-O ) :   1.1118
B( 11-P , 16-O ) :   1.1181 B( 13-O , 14-C ) :   0.9044 B( 14-C , 15-C ) :   1.1661
B( 14-C , 31-H ) :   0.9139 B( 14-C , 32-H ) :   0.9328 B( 15-C , 33-H ) :   0.9393
B( 15-C , 34-H ) :   0.9149 B( 15-C , 35-H ) :   0.9364 B( 16-O , 17-C ) :   0.9111
B( 17-C , 18-C ) :   1.1647 B( 17-C , 36-H ) :   0.9153 B( 17-C , 37-H ) :   0.9349
B( 18-C , 38-H ) :   0.9462 B( 18-C , 39-H ) :   0.9380 B( 18-C , 40-H ) :   0.9388

Dispersion correction           -0.065362122
FINAL SINGLE POINT ENERGY     -2929.522153844339

DIPOLE MOMENT
-------------

Method             : SCF
Type of density    : Electron Density
Multiplicity       :   1
Irrep              :   0
Energy             : -2929.6406168578464531 Eh
Relativity type    :
Basis              : AO
                                X                 Y                 Z
Electronic contribution:      4.542051924      -6.627087710      -6.653880124
Nuclear contribution   :     -4.558597257       6.525080509       7.185206533
                        -----------------------------------------
Total Dipole Moment    :     -0.016545333      -0.102007200       0.531326409
                        -----------------------------------------
Magnitude (a.u.)       :      0.541282708
Magnitude (Debye)      :      1.375831304

Rotational constants in cm-1:             0.012810             0.004886             0.004409
Rotational constants in MHz :           384.026453           146.469739           132.186106

                             ****ORCA TERMINATED NORMALLY****
TOTAL RUN TIME: 0 days 0 hours 0 minutes 20 seconds 891 msec
