                         Program Version 6.0.1  -  RELEASE   -
|  1> ! pbe def2-sv(p) def2/J RI DEFGRID1 loosescf d4 GCP(DFT/SV(P)) printgap
|  2> %output
|  3>     printlevel normal
|  4> end
|  5> * xyz 0 1
|  6> C 3.5628569406 -1.3684900196 1.8767077568
|  7> C 2.7597368593 -2.2270129592 0.913434298
|  8> O 2.5395304528 -1.5369547756 -0.3340616672
|  9> C 1.5729541872 -0.6651540711 -0.4144946649
| 10> O 0.8259692592 -0.3614532902 0.5061412692
| 11> C 1.4457720941 -0.0310229242 -1.7759267331
| 12> C 0.3600811585 1.0318070468 -1.7049198887
| 13> H 0.3507385247 1.6422946789 -2.6117370331
| 14> C 0.5374436599 1.9482489437 -0.5011562131
| 15> O -0.3737494377 2.3907995959 0.1568264694
| 16> O 1.8136793268 2.2261067716 -0.309536346
| 17> C 2.1579388651 3.1337503634 0.7565913584
| 18> C 2.0553554237 4.5789009513 0.2976528775
| 19> S -1.3302393678 0.3388275246 -1.6784248711
| 20> P -1.6917945467 -0.7743614937 0.0902318148
| 21> S -0.9957330905 -2.6024267758 0.3406232431
| 22> O -1.7544889556 0.1843820591 1.3480873489
| 23> C -1.0511972575 -0.0080707205 2.5725249806
| 24> O -3.284741243 -0.8480537366 -0.1087612927
| 25> C -3.8847527047 -1.6761483887 -1.1072728037
| 26> H 3.7628131528 -1.9369754543 2.7787168669
| 27> H 4.5040109277 -1.0750984921 1.420123443
| 28> H 3.0006483403 -0.4755932785 2.1419376031
| 29> H 1.7888382009 -2.4991378631 1.3371031323
| 30> H 3.3052114574 -3.1253347052 0.6263206504
| 31> H 1.1932889248 -0.7970257011 -2.5109136868
| 32> H 2.404519611 0.4111333824 -2.05040458
| 33> H 1.4912376351 2.9462218587 1.6033398121
| 34> H 3.1835990328 2.8689333808 1.0146022014
| 35> H 2.3855309777 5.2316987635 1.0988731149
| 36> H 2.6796753288 4.7388310322 -0.5768020572
| 37> H 1.024335264 4.8199050038 0.0488259202
| 38> H -0.210074881 0.6828721067 2.6059338107
| 39> H -0.6891326388 -1.0351694898 2.6494081195
| 40> H -1.7597899154 0.2078711193 3.3691991755
| 41> H -4.9328490155 -1.75656576 -0.8296937475
| 42> H -3.4156522246 -2.6625509408 -1.1067981329
| 43> H -3.7819643219 -1.2150799505 -2.089502853
| 44> *
| 45>
| 46>                          ****END OF INPUT****

CARTESIAN COORDINATES (ANGSTROEM)
---------------------------------
  C      3.562857   -1.368490    1.876708
  C      2.759737   -2.227013    0.913434
  O      2.539530   -1.536955   -0.334062
  C      1.572954   -0.665154   -0.414495
  O      0.825969   -0.361453    0.506141
  C      1.445772   -0.031023   -1.775927
  C      0.360081    1.031807   -1.704920
  H      0.350739    1.642295   -2.611737
  C      0.537444    1.948249   -0.501156
  O     -0.373749    2.390800    0.156826
  O      1.813679    2.226107   -0.309536
  C      2.157939    3.133750    0.756591
  C      2.055355    4.578901    0.297653
  S     -1.330239    0.338828   -1.678425
  P     -1.691795   -0.774361    0.090232
  S     -0.995733   -2.602427    0.340623
  O     -1.754489    0.184382    1.348087
  C     -1.051197   -0.008071    2.572525
  O     -3.284741   -0.848054   -0.108761
  C     -3.884753   -1.676148   -1.107273
  H      3.762813   -1.936975    2.778717
  H      4.504011   -1.075098    1.420123
  H      3.000648   -0.475593    2.141938
  H      1.788838   -2.499138    1.337103
  H      3.305211   -3.125335    0.626321
  H      1.193289   -0.797026   -2.510914
  H      2.404520    0.411133   -2.050405
  H      1.491238    2.946222    1.603340
  H      3.183599    2.868933    1.014602
  H      2.385531    5.231699    1.098873
  H      2.679675    4.738831   -0.576802
  H      1.024335    4.819905    0.048826
  H     -0.210075    0.682872    2.605934
  H     -0.689133   -1.035169    2.649408
  H     -1.759790    0.207871    3.369199
  H     -4.932849   -1.756566   -0.829694
  H     -3.415652   -2.662551   -1.106798
  H     -3.781964   -1.215080   -2.089503

 Total Charge           Charge          ....    0
 Multiplicity           Mult            ....    1
 Number of Electrons    NEL             ....  174
 Basis Dimension        Dim             ....  316

ORBITAL ENERGIES
----------------

  NO   OCC          E(Eh)            E(eV)
   0   2.0000     -88.029490     -2395.4042
   1   2.0000     -87.965118     -2393.6525
   2   2.0000     -76.414638     -2079.3480
   3   2.0000     -18.816744      -512.0296
   4   2.0000     -18.810055      -511.8476
   5   2.0000     -18.774539      -510.8812
   6   2.0000     -18.769152      -510.7346
   7   2.0000     -18.758526      -510.4455
   8   2.0000     -18.735931      -509.8306
   9   2.0000     -10.025818      -272.8164
  10   2.0000     -10.015817      -272.5442
  11   2.0000      -9.955183      -270.8943
  12   2.0000      -9.952016      -270.8081
  13   2.0000      -9.951072      -270.7824
  14   2.0000      -9.927710      -270.1467
  15   2.0000      -9.927391      -270.1380
  16   2.0000      -9.918854      -269.9057
  17   2.0000      -9.893565      -269.2176
  18   2.0000      -9.892051      -269.1764
  19   2.0000      -7.674384      -208.8306
  20   2.0000      -7.610359      -207.0884
  21   2.0000      -6.410472      -174.4378
  22   2.0000      -5.702915      -155.1842
  23   2.0000      -5.698611      -155.0671
  24   2.0000      -5.690944      -154.8585
  25   2.0000      -5.639412      -153.4562
  26   2.0000      -5.631077      -153.2294
  27   2.0000      -5.630201      -153.2056
  28   2.0000      -4.632987      -126.0700
  29   2.0000      -4.632728      -126.0629
  30   2.0000      -4.630877      -126.0126
  31   2.0000      -1.027132       -27.9497
  32   2.0000      -1.015594       -27.6357
  33   2.0000      -0.967202       -26.3189
  34   2.0000      -0.933965       -25.4145
  35   2.0000      -0.923033       -25.1170
  36   2.0000      -0.917750       -24.9732
  37   2.0000      -0.765428       -20.8284
  38   2.0000      -0.717581       -19.5264
  39   2.0000      -0.707438       -19.2504
  40   2.0000      -0.686044       -18.6682
  41   2.0000      -0.655354       -17.8331
  42   2.0000      -0.624547       -16.9948
  43   2.0000      -0.615418       -16.7464
  44   2.0000      -0.607619       -16.5342
  45   2.0000      -0.602629       -16.3984
  46   2.0000      -0.569272       -15.4907
  47   2.0000      -0.512939       -13.9578
  48   2.0000      -0.506200       -13.7744
  49   2.0000      -0.493098       -13.4179
  50   2.0000      -0.487283       -13.2597
  51   2.0000      -0.464951       -12.6520
  52   2.0000      -0.457992       -12.4626
  53   2.0000      -0.445808       -12.1311
  54   2.0000      -0.440366       -11.9830
  55   2.0000      -0.430899       -11.7254
  56   2.0000      -0.426868       -11.6157
  57   2.0000      -0.417887       -11.3713
  58   2.0000      -0.408839       -11.1251
  59   2.0000      -0.399843       -10.8803
  60   2.0000      -0.398361       -10.8400
  61   2.0000      -0.393921       -10.7191
  62   2.0000      -0.390595       -10.6286
  63   2.0000      -0.385755       -10.4969
  64   2.0000      -0.379802       -10.3349
  65   2.0000      -0.377684       -10.2773
  66   2.0000      -0.363806        -9.8997
  67   2.0000      -0.357528        -9.7288
  68   2.0000      -0.344724        -9.3804
  69   2.0000      -0.342838        -9.3291
  70   2.0000      -0.337232        -9.1766
  71   2.0000      -0.332034        -9.0351
  72   2.0000      -0.328590        -8.9414
  73   2.0000      -0.304722        -8.2919
  74   2.0000      -0.302633        -8.2351
  75   2.0000      -0.298891        -8.1332
  76   2.0000      -0.285585        -7.7712
  77   2.0000      -0.276664        -7.5284
  78   2.0000      -0.270651        -7.3648
  79   2.0000      -0.265312        -7.2195
  80   2.0000      -0.250046        -6.8041
  81   2.0000      -0.246675        -6.7124
  82   2.0000      -0.238776        -6.4974
  83   2.0000      -0.225969        -6.1489
  84   2.0000      -0.215030        -5.8513
  85   2.0000      -0.184004        -5.0070
  86   2.0000      -0.177205        -4.8220
  87   0.0000      -0.048933        -1.3315
  88   0.0000      -0.027802        -0.7565
  89   0.0000      -0.021250        -0.5782
  90   0.0000      -0.004990        -0.1358
  91   0.0000       0.024256         0.6600

MULLIKEN ATOMIC CHARGES
-----------------------
   0 C :   -0.314558
   1 C :   -0.021172
   2 O :   -0.209139
   3 C :    0.147935
   4 O :   -0.233425
   5 C :   -0.053482
   6 C :   -0.306645
   7 H :    0.146056
   8 C :    0.195566
   9 O :   -0.168414
  10 O :   -0.248636
  11 C :   -0.017731
  12 C :   -0.303663
  13 S :   -0.092423
  14 P :    0.637840
  15 S :   -0.369255
  16 O :   -0.349701
  17 C :   -0.091014
  18 O :   -0.375270
  19 C :   -0.103862
  20 H :    0.117983
  21 H :    0.112844
  22 H :    0.125675
  23 H :    0.133938
  24 H :    0.107062
  25 H :    0.136713
  26 H :    0.124945
  27 H :    0.119225
  28 H :    0.101216
  29 H :    0.114635
  30 H :    0.112017
  31 H :    0.132072
  32 H :    0.117885
  33 H :    0.113295
  34 H :    0.116487
  35 H :    0.120377
  36 H :    0.111995
  37 H :    0.112631
Sum of atomic charges:   -0.0000000

LOEWDIN ATOMIC CHARGES
----------------------
   0 C :   -0.357860
   1 C :   -0.109678
   2 O :   -0.031977
   3 C :    0.046248
   4 O :   -0.164860
   5 C :   -0.253811
   6 C :   -0.264106
   7 H :    0.151976
   8 C :    0.007926
   9 O :   -0.147343
  10 O :   -0.065416
  11 C :   -0.108907
  12 C :   -0.356173
  13 S :    0.112553
  14 P :    0.584152
  15 S :   -0.350269
  16 O :   -0.221413
  17 C :   -0.208373
  18 O :   -0.258388
  19 C :   -0.221239
  20 H :    0.133425
  21 H :    0.124060
  22 H :    0.127468
  23 H :    0.122785
  24 H :    0.121264
  25 H :    0.150345
  26 H :    0.148483
  27 H :    0.122072
  28 H :    0.116579
  29 H :    0.131793
  30 H :    0.124130
  31 H :    0.132832
  32 H :    0.108806
  33 H :    0.105306
  34 H :    0.116726
  35 H :    0.120006
  36 H :    0.105529
  37 H :    0.105352

  Mayer bond orders larger than 0.100000
B(  0-C ,  1-C ) :   1.1668 B(  0-C , 20-H ) :   0.9437 B(  0-C , 21-H ) :   0.9473
B(  0-C , 22-H ) :   0.9446 B(  1-C ,  2-O ) :   0.8998 B(  1-C , 23-H ) :   0.9071
B(  1-C , 24-H ) :   0.9381 B(  2-O ,  3-C ) :   1.2990 B(  3-C ,  4-O ) :   1.8419
B(  3-C ,  5-C ) :   1.0143 B(  5-C ,  6-C ) :   1.0303 B(  5-C , 25-H ) :   0.8812
B(  5-C , 26-H ) :   0.8723 B(  6-C ,  7-H ) :   0.8652 B(  6-C ,  8-C ) :   0.8720
B(  6-C , 13-S ) :   1.0577 B(  8-C ,  9-O ) :   2.0974 B(  8-C , 10-O ) :   1.2120
B( 10-O , 11-C ) :   0.9116 B( 11-C , 12-C ) :   1.1759 B( 11-C , 27-H ) :   0.9127
B( 11-C , 28-H ) :   0.9365 B( 12-C , 29-H ) :   0.9437 B( 12-C , 30-H ) :   0.9484
B( 12-C , 31-H ) :   0.9445 B( 13-S , 14-P ) :   0.9600 B( 13-S , 15-S ) :   0.1113
B( 14-P , 15-S ) :   1.5534 B( 14-P , 16-O ) :   1.1433 B( 14-P , 18-O ) :   1.0684
B( 16-O , 17-C ) :   0.9325 B( 17-C , 32-H ) :   0.9491 B( 17-C , 33-H ) :   0.9308
B( 17-C , 34-H ) :   0.9537 B( 18-O , 19-C ) :   0.9457 B( 19-C , 35-H ) :   0.9598
B( 19-C , 36-H ) :   0.9281 B( 19-C , 37-H ) :   0.9474

Dispersion correction           -0.054777259
FINAL SINGLE POINT ENERGY     -1979.004649225085

DIPOLE MOMENT
-------------

Method             : SCF
Type of density    : Electron Density
Multiplicity       :   1
Irrep              :   0
Energy             : -1979.1349532081953839 Eh
Relativity type    :
Basis              : AO
                                X                 Y                 Z
Electronic contribution:    -14.968239370      -6.733590312      -8.415270074
Nuclear contribution   :     16.853606192       7.328065453       8.343857138
                        -----------------------------------------
Total Dipole Moment    :      1.885366822       0.594475141      -0.071412936
                        -----------------------------------------
Magnitude (a.u.)       :      1.978157869
Magnitude (Debye)      :      5.028077714

Rotational constants in cm-1:             0.012663             0.008621             0.006738
Rotational constants in MHz :           379.637254           258.452167           202.012154

                             ****ORCA TERMINATED NORMALLY****
TOTAL RUN TIME: 0 days 0 hours 0 minutes 34 seconds 95 msec
