                         Program Version 6.0.1  -  RELEASE   -
|  1> ! r2scan-3c def2/J RI DEFGRID2 scfconv6 printgap
|  2> %output
|  3>     printlevel normal
|  4> end
|  5> * xyz 0 1
|  6> C 5.7274692394 -1.591129359 -0.6748558937
|  7> C 4.6675812083 -2.3050185322 -1.4983417296
|  8> O 3.4439508432 -2.4459778582 -0.7491330523
|  9> C 2.5740587586 -1.4587392861 -0.7683717668
| 10> O 2.7022800276 -0.434981869 -1.4087008543
| 11> C 1.3778763954 -1.7535141332 0.1124614497
| 12> C 0.3034973709 -0.7201981995 -0.1657976096
| 13> H -0.0945864208 -0.8043302141 -1.1827377158
| 14> C 0.7644982432 0.7074473001 0.0395794286
| 15> O 0.2516399258 1.6394674565 -0.5450925792
| 16> O 1.6832495079 0.8161909431 0.9721336656
| 17> C 2.1513544618 2.1370723322 1.3120456363
| 18> C 1.1698988889 2.8532730379 2.2254131172
| 19> S -1.1051996564 -0.8887337879 0.9811631159
| 20> P -2.4506343151 0.3970633223 -0.0580510819
| 21> S -2.3694071405 0.3450774542 -2.010411761
| 22> O -3.8525990228 -0.0719579155 0.5492551676
| 23> C -4.4270291905 -1.3348108471 0.1907737371
| 24> O -2.3351082079 1.8364386075 0.5863264712
| 25> C -2.616069605 2.0572749074 1.9852280425
| 26> H 5.887994014 -2.1153526711 0.2629457442
| 27> H 6.6568448966 -1.562415214 -1.2339267152
| 28> H 5.411658374 -0.5718459705 -0.463962658
| 29> H 4.9636407391 -3.3284398781 -1.7282365068
| 30> H 4.4527821233 -1.7530726855 -2.4178772751
| 31> H 1.6984437609 -1.7005820577 1.1548459976
| 32> H 1.0143421537 -2.7616453162 -0.0838800085
| 33> H 3.1051294443 1.9583185473 1.8082420312
| 34> H 2.3020174021 2.6974946509 0.3850071205
| 35> H 0.9706904164 2.2509001653 3.1076058656
| 36> H 1.5936937944 3.8051678691 2.5273363494
| 37> H 0.2385395855 3.0351479213 1.693930004
| 38> H -5.4640454159 -1.2859699428 0.5124533962
| 39> H -3.8999786383 -2.1372503814 0.7055390046
| 40> H -4.3679094143 -1.4795630608 -0.888961624
| 41> H -2.0351827162 1.3664964991 2.5974154921
| 42> H -3.6786189313 1.9160219777 2.1710363119
| 43> H -2.3237395654 3.0866721279 2.1763516858
| 44> *
| 45>
| 46>                          ****END OF INPUT****

CARTESIAN COORDINATES (ANGSTROEM)
---------------------------------
  C      5.727469   -1.591129   -0.674856
  C      4.667581   -2.305019   -1.498342
  O      3.443951   -2.445978   -0.749133
  C      2.574059   -1.458739   -0.768372
  O      2.702280   -0.434982   -1.408701
  C      1.377876   -1.753514    0.112461
  C      0.303497   -0.720198   -0.165798
  H     -0.094586   -0.804330   -1.182738
  C      0.764498    0.707447    0.039579
  O      0.251640    1.639467   -0.545093
  O      1.683250    0.816191    0.972134
  C      2.151354    2.137072    1.312046
  C      1.169899    2.853273    2.225413
  S     -1.105200   -0.888734    0.981163
  P     -2.450634    0.397063   -0.058051
  S     -2.369407    0.345077   -2.010412
  O     -3.852599   -0.071958    0.549255
  C     -4.427029   -1.334811    0.190774
  O     -2.335108    1.836439    0.586326
  C     -2.616070    2.057275    1.985228
  H      5.887994   -2.115353    0.262946
  H      6.656845   -1.562415   -1.233927
  H      5.411658   -0.571846   -0.463963
  H      4.963641   -3.328440   -1.728237
  H      4.452782   -1.753073   -2.417877
  H      1.698444   -1.700582    1.154846
  H      1.014342   -2.761645   -0.083880
  H      3.105129    1.958319    1.808242
  H      2.302017    2.697495    0.385007
  H      0.970690    2.250900    3.107606
  H      1.593694    3.805168    2.527336
  H      0.238540    3.035148    1.693930
  H     -5.464045   -1.285970    0.512453
  H     -3.899979   -2.137250    0.705539
  H     -4.367909   -1.479563   -0.888962
  H     -2.035183    1.366496    2.597415
  H     -3.678619    1.916022    2.171036
  H     -2.323740    3.086672    2.176352

 Total Charge           Charge          ....    0
 Multiplicity           Mult            ....    1
 Number of Electrons    NEL             ....  174
 Basis Dimension        Dim             ....  510

ORBITAL ENERGIES
----------------

  NO   OCC          E(Eh)            E(eV)
   0   2.0000     -88.576849     -2410.2986
   1   2.0000     -88.510561     -2408.4948
   2   2.0000     -76.909050     -2092.8016
   3   2.0000     -19.009662      -517.2792
   4   2.0000     -18.996778      -516.9286
   5   2.0000     -18.989919      -516.7420
   6   2.0000     -18.989019      -516.7175
   7   2.0000     -18.942383      -515.4485
   8   2.0000     -18.920556      -514.8545
   9   2.0000     -10.168022      -276.6859
  10   2.0000     -10.152386      -276.2605
  11   2.0000     -10.100736      -274.8550
  12   2.0000     -10.094153      -274.6759
  13   2.0000     -10.092479      -274.6303
  14   2.0000     -10.090029      -274.5636
  15   2.0000     -10.087634      -274.4985
  16   2.0000     -10.063747      -273.8485
  17   2.0000     -10.036425      -273.1050
  18   2.0000     -10.028140      -272.8796
  19   2.0000      -7.871004      -214.1809
  20   2.0000      -7.805098      -212.3875
  21   2.0000      -6.587275      -179.2489
  22   2.0000      -5.817603      -158.3050
  23   2.0000      -5.814902      -158.2315
  24   2.0000      -5.808402      -158.0547
  25   2.0000      -5.753026      -156.5478
  26   2.0000      -5.745391      -156.3400
  27   2.0000      -5.744853      -156.3254
  28   2.0000      -4.733133      -128.7951
  29   2.0000      -4.732377      -128.7745
  30   2.0000      -4.730539      -128.7245
  31   2.0000      -1.086727       -29.5714
  32   2.0000      -1.073718       -29.2174
  33   2.0000      -1.047966       -28.5166
  34   2.0000      -1.005279       -27.3550
  35   2.0000      -0.990734       -26.9592
  36   2.0000      -0.972882       -26.4735
  37   2.0000      -0.810964       -22.0675
  38   2.0000      -0.759656       -20.6713
  39   2.0000      -0.742245       -20.1975
  40   2.0000      -0.729797       -19.8588
  41   2.0000      -0.700276       -19.0555
  42   2.0000      -0.675179       -18.3725
  43   2.0000      -0.655901       -17.8480
  44   2.0000      -0.645562       -17.5666
  45   2.0000      -0.632994       -17.2247
  46   2.0000      -0.597706       -16.2644
  47   2.0000      -0.539143       -14.6708
  48   2.0000      -0.533773       -14.5247
  49   2.0000      -0.520099       -14.1526
  50   2.0000      -0.496873       -13.5206
  51   2.0000      -0.492406       -13.3990
  52   2.0000      -0.485740       -13.2176
  53   2.0000      -0.463795       -12.6205
  54   2.0000      -0.458156       -12.4671
  55   2.0000      -0.449831       -12.2405
  56   2.0000      -0.446380       -12.1466
  57   2.0000      -0.444786       -12.1033
  58   2.0000      -0.431666       -11.7462
  59   2.0000      -0.429880       -11.6976
  60   2.0000      -0.421015       -11.4564
  61   2.0000      -0.417148       -11.3512
  62   2.0000      -0.412057       -11.2126
  63   2.0000      -0.406149       -11.0519
  64   2.0000      -0.394133       -10.7249
  65   2.0000      -0.384774       -10.4702
  66   2.0000      -0.372141       -10.1265
  67   2.0000      -0.368146       -10.0178
  68   2.0000      -0.365201        -9.9376
  69   2.0000      -0.352050        -9.5798
  70   2.0000      -0.349361        -9.5066
  71   2.0000      -0.345569        -9.4034
  72   2.0000      -0.340286        -9.2597
  73   2.0000      -0.327300        -8.9063
  74   2.0000      -0.318791        -8.6747
  75   2.0000      -0.317327        -8.6349
  76   2.0000      -0.311503        -8.4764
  77   2.0000      -0.308043        -8.3823
  78   2.0000      -0.286570        -7.7980
  79   2.0000      -0.283306        -7.7092
  80   2.0000      -0.275090        -7.4856
  81   2.0000      -0.265706        -7.2302
  82   2.0000      -0.251175        -6.8348
  83   2.0000      -0.247286        -6.7290
  84   2.0000      -0.232769        -6.3340
  85   2.0000      -0.208915        -5.6849
  86   2.0000      -0.199262        -5.4222
  87   0.0000      -0.047526        -1.2933
  88   0.0000      -0.025538        -0.6949
  89   0.0000      -0.009511        -0.2588
  90   0.0000       0.016272         0.4428
  91   0.0000       0.020383         0.5546

MULLIKEN ATOMIC CHARGES
-----------------------
   0 C :   -0.467581
   1 C :   -0.136841
   2 O :   -0.167209
   3 C :    0.385010
   4 O :   -0.412282
   5 C :   -0.372232
   6 C :   -0.095127
   7 H :    0.251714
   8 C :    0.334773
   9 O :   -0.393128
  10 O :   -0.140719
  11 C :   -0.115887
  12 C :   -0.499017
  13 S :   -0.242680
  14 P :    0.741538
  15 S :   -0.419051
  16 O :   -0.331909
  17 C :   -0.298708
  18 O :   -0.290764
  19 C :   -0.287908
  20 H :    0.153756
  21 H :    0.150404
  22 H :    0.170582
  23 H :    0.151336
  24 H :    0.171476
  25 H :    0.195465
  26 H :    0.179827
  27 H :    0.147244
  28 H :    0.171997
  29 H :    0.153001
  30 H :    0.148206
  31 H :    0.185191
  32 H :    0.151029
  33 H :    0.154445
  34 H :    0.179637
  35 H :    0.169114
  36 H :    0.166211
  37 H :    0.159084
Sum of atomic charges:    0.0000000

LOEWDIN ATOMIC CHARGES
----------------------
   0 C :   -0.388156
   1 C :    0.031795
   2 O :   -0.577905
   3 C :    0.374287
   4 O :   -0.418100
   5 C :   -0.209490
   6 C :   -0.195022
   7 H :    0.211735
   8 C :    0.338303
   9 O :   -0.418972
  10 O :   -0.590219
  11 C :    0.036425
  12 C :   -0.392395
  13 S :    0.177845
  14 P :    0.392243
  15 S :   -0.073243
  16 O :   -0.688342
  17 C :   -0.059720
  18 O :   -0.641972
  19 C :   -0.055698
  20 H :    0.157970
  21 H :    0.160834
  22 H :    0.164867
  23 H :    0.179673
  24 H :    0.189694
  25 H :    0.200550
  26 H :    0.188500
  27 H :    0.178136
  28 H :    0.190038
  29 H :    0.157214
  30 H :    0.159021
  31 H :    0.171945
  32 H :    0.176528
  33 H :    0.167529
  34 H :    0.178822
  35 H :    0.171575
  36 H :    0.174503
  37 H :    0.179200

  Mayer bond orders larger than 0.100000
B(  0-C ,  1-C ) :   0.9402 B(  0-C , 20-H ) :   0.9734 B(  0-C , 21-H ) :   0.9637
B(  0-C , 22-H ) :   0.9707 B(  1-C ,  2-O ) :   0.7987 B(  1-C , 23-H ) :   0.9612
B(  1-C , 24-H ) :   0.9666 B(  2-O ,  3-C ) :   1.1301 B(  3-C ,  4-O ) :   1.7840
B(  3-C ,  5-C ) :   1.0031 B(  4-O ,  8-C ) :   0.1050 B(  5-C ,  6-C ) :   0.9660
B(  5-C , 10-O ) :   0.1313 B(  5-C , 25-H ) :   0.9483 B(  5-C , 26-H ) :   0.9355
B(  6-C ,  7-H ) :   0.9582 B(  6-C ,  8-C ) :   0.8520 B(  6-C , 13-S ) :   0.8232
B(  8-C ,  9-O ) :   1.8455 B(  8-C , 10-O ) :   1.1077 B( 10-O , 11-C ) :   0.8104
B( 11-C , 12-C ) :   0.9224 B( 11-C , 27-H ) :   0.9624 B( 11-C , 28-H ) :   0.9740
B( 12-C , 29-H ) :   0.9717 B( 12-C , 30-H ) :   0.9634 B( 12-C , 31-H ) :   0.9685
B( 13-S , 14-P ) :   0.9534 B( 14-P , 15-S ) :   1.8583 B( 14-P , 16-O ) :   1.0372
B( 14-P , 18-O ) :   1.1418 B( 16-O , 17-C ) :   0.8307 B( 17-C , 32-H ) :   0.9681
B( 17-C , 33-H ) :   0.9575 B( 17-C , 34-H ) :   0.9575 B( 18-O , 19-C ) :   0.7925
B( 19-C , 35-H ) :   0.9573 B( 19-C , 36-H ) :   0.9588 B( 19-C , 37-H ) :   0.9642

Dispersion correction           -0.017147904
FINAL SINGLE POINT ENERGY     -1981.451640232972

DIPOLE MOMENT
-------------

Method             : SCF
Type of density    : Electron Density
Multiplicity       :   1
Irrep              :   0
Energy             : -1981.4715574117540200 Eh
Relativity type    :
Basis              : AO
                                X                 Y                 Z
Electronic contribution:    -16.755600271      -1.258574084      -8.635250799
Nuclear contribution   :     17.734049039       0.258474133      10.489484428
                        -----------------------------------------
Total Dipole Moment    :      0.978448768      -1.000099951       1.854233629
                        -----------------------------------------
Magnitude (a.u.)       :      2.322874136
Magnitude (Debye)      :      5.904276834

Rotational constants in cm-1:             0.016149             0.005767             0.004947
Rotational constants in MHz :           484.126089           172.891372           148.303031

                             ****ORCA TERMINATED NORMALLY****
TOTAL RUN TIME: 0 days 0 hours 1 minutes 22 seconds 825 msec
