                         Program Version 6.0.1  -  RELEASE   -
|  1> ! r2scan-3c def2/J RI DEFGRID2 scfconv6 printgap
|  2> %output
|  3>     printlevel normal
|  4> end
|  5> %cpcm
|  6>     smd true
|  7>     smdsolvent "water"
|  8> end
|  9> * xyz 0 1
| 10> C 5.7274692394 -1.591129359 -0.6748558937
| 11> C 4.6675812083 -2.3050185322 -1.4983417296
| 12> O 3.4439508432 -2.4459778582 -0.7491330523
| 13> C 2.5740587586 -1.4587392861 -0.7683717668
| 14> O 2.7022800276 -0.434981869 -1.4087008543
| 15> C 1.3778763954 -1.7535141332 0.1124614497
| 16> C 0.3034973709 -0.7201981995 -0.1657976096
| 17> H -0.0945864208 -0.8043302141 -1.1827377158
| 18> C 0.7644982432 0.7074473001 0.0395794286
| 19> O 0.2516399258 1.6394674565 -0.5450925792
| 20> O 1.6832495079 0.8161909431 0.9721336656
| 21> C 2.1513544618 2.1370723322 1.3120456363
| 22> C 1.1698988889 2.8532730379 2.2254131172
| 23> S -1.1051996564 -0.8887337879 0.9811631159
| 24> P -2.4506343151 0.3970633223 -0.0580510819
| 25> S -2.3694071405 0.3450774542 -2.010411761
| 26> O -3.8525990228 -0.0719579155 0.5492551676
| 27> C -4.4270291905 -1.3348108471 0.1907737371
| 28> O -2.3351082079 1.8364386075 0.5863264712
| 29> C -2.616069605 2.0572749074 1.9852280425
| 30> H 5.887994014 -2.1153526711 0.2629457442
| 31> H 6.6568448966 -1.562415214 -1.2339267152
| 32> H 5.411658374 -0.5718459705 -0.463962658
| 33> H 4.9636407391 -3.3284398781 -1.7282365068
| 34> H 4.4527821233 -1.7530726855 -2.4178772751
| 35> H 1.6984437609 -1.7005820577 1.1548459976
| 36> H 1.0143421537 -2.7616453162 -0.0838800085
| 37> H 3.1051294443 1.9583185473 1.8082420312
| 38> H 2.3020174021 2.6974946509 0.3850071205
| 39> H 0.9706904164 2.2509001653 3.1076058656
| 40> H 1.5936937944 3.8051678691 2.5273363494
| 41> H 0.2385395855 3.0351479213 1.693930004
| 42> H -5.4640454159 -1.2859699428 0.5124533962
| 43> H -3.8999786383 -2.1372503814 0.7055390046
| 44> H -4.3679094143 -1.4795630608 -0.888961624
| 45> H -2.0351827162 1.3664964991 2.5974154921
| 46> H -3.6786189313 1.9160219777 2.1710363119
| 47> H -2.3237395654 3.0866721279 2.1763516858
| 48> *
| 49>
| 50>                          ****END OF INPUT****

CARTESIAN COORDINATES (ANGSTROEM)
---------------------------------
  C      5.727469   -1.591129   -0.674856
  C      4.667581   -2.305019   -1.498342
  O      3.443951   -2.445978   -0.749133
  C      2.574059   -1.458739   -0.768372
  O      2.702280   -0.434982   -1.408701
  C      1.377876   -1.753514    0.112461
  C      0.303497   -0.720198   -0.165798
  H     -0.094586   -0.804330   -1.182738
  C      0.764498    0.707447    0.039579
  O      0.251640    1.639467   -0.545093
  O      1.683250    0.816191    0.972134
  C      2.151354    2.137072    1.312046
  C      1.169899    2.853273    2.225413
  S     -1.105200   -0.888734    0.981163
  P     -2.450634    0.397063   -0.058051
  S     -2.369407    0.345077   -2.010412
  O     -3.852599   -0.071958    0.549255
  C     -4.427029   -1.334811    0.190774
  O     -2.335108    1.836439    0.586326
  C     -2.616070    2.057275    1.985228
  H      5.887994   -2.115353    0.262946
  H      6.656845   -1.562415   -1.233927
  H      5.411658   -0.571846   -0.463963
  H      4.963641   -3.328440   -1.728237
  H      4.452782   -1.753073   -2.417877
  H      1.698444   -1.700582    1.154846
  H      1.014342   -2.761645   -0.083880
  H      3.105129    1.958319    1.808242
  H      2.302017    2.697495    0.385007
  H      0.970690    2.250900    3.107606
  H      1.593694    3.805168    2.527336
  H      0.238540    3.035148    1.693930
  H     -5.464045   -1.285970    0.512453
  H     -3.899979   -2.137250    0.705539
  H     -4.367909   -1.479563   -0.888962
  H     -2.035183    1.366496    2.597415
  H     -3.678619    1.916022    2.171036
  H     -2.323740    3.086672    2.176352

 Total Charge           Charge          ....    0
 Multiplicity           Mult            ....    1
 Number of Electrons    NEL             ....  174
 Basis Dimension        Dim             ....  510

ORBITAL ENERGIES
----------------

  NO   OCC          E(Eh)            E(eV)
   0   2.0000     -88.585336     -2410.5295
   1   2.0000     -88.529880     -2409.0205
   2   2.0000     -76.922281     -2093.1617
   3   2.0000     -19.009820      -517.2835
   4   2.0000     -19.007385      -517.2172
   5   2.0000     -18.999616      -517.0058
   6   2.0000     -18.996641      -516.9249
   7   2.0000     -18.952709      -515.7294
   8   2.0000     -18.944148      -515.4965
   9   2.0000     -10.174647      -276.8662
  10   2.0000     -10.171003      -276.7671
  11   2.0000     -10.094200      -274.6771
  12   2.0000     -10.087029      -274.4820
  13   2.0000     -10.086908      -274.4787
  14   2.0000     -10.085347      -274.4362
  15   2.0000     -10.082510      -274.3590
  16   2.0000     -10.058751      -273.7125
  17   2.0000     -10.019671      -272.6491
  18   2.0000     -10.018752      -272.6241
  19   2.0000      -7.879349      -214.4080
  20   2.0000      -7.824874      -212.9257
  21   2.0000      -6.600621      -179.6120
  22   2.0000      -5.826002      -158.5336
  23   2.0000      -5.823328      -158.4608
  24   2.0000      -5.816626      -158.2784
  25   2.0000      -5.772642      -157.0816
  26   2.0000      -5.765195      -156.8789
  27   2.0000      -5.764672      -156.8647
  28   2.0000      -4.746430      -129.1569
  29   2.0000      -4.745635      -129.1353
  30   2.0000      -4.744066      -129.0926
  31   2.0000      -1.090038       -29.6614
  32   2.0000      -1.085490       -29.5377
  33   2.0000      -1.056296       -28.7433
  34   2.0000      -1.012737       -27.5580
  35   2.0000      -0.998831       -27.1796
  36   2.0000      -0.993990       -27.0478
  37   2.0000      -0.815713       -22.1967
  38   2.0000      -0.753747       -20.5105
  39   2.0000      -0.742182       -20.1958
  40   2.0000      -0.728806       -19.8318
  41   2.0000      -0.699645       -19.0383
  42   2.0000      -0.672597       -18.3023
  43   2.0000      -0.661329       -17.9957
  44   2.0000      -0.650313       -17.6959
  45   2.0000      -0.627099       -17.0642
  46   2.0000      -0.597786       -16.2666
  47   2.0000      -0.542159       -14.7529
  48   2.0000      -0.527442       -14.3524
  49   2.0000      -0.521402       -14.1881
  50   2.0000      -0.498760       -13.5719
  51   2.0000      -0.494968       -13.4688
  52   2.0000      -0.487680       -13.2704
  53   2.0000      -0.469382       -12.7725
  54   2.0000      -0.461451       -12.5567
  55   2.0000      -0.458661       -12.4808
  56   2.0000      -0.452816       -12.3218
  57   2.0000      -0.447705       -12.1827
  58   2.0000      -0.436133       -11.8678
  59   2.0000      -0.428057       -11.6480
  60   2.0000      -0.419483       -11.4147
  61   2.0000      -0.416019       -11.3204
  62   2.0000      -0.410704       -11.1758
  63   2.0000      -0.406056       -11.0493
  64   2.0000      -0.392281       -10.6745
  65   2.0000      -0.381486       -10.3808
  66   2.0000      -0.371827       -10.1179
  67   2.0000      -0.364694        -9.9238
  68   2.0000      -0.361886        -9.8474
  69   2.0000      -0.356445        -9.6994
  70   2.0000      -0.346807        -9.4371
  71   2.0000      -0.341744        -9.2993
  72   2.0000      -0.340028        -9.2526
  73   2.0000      -0.331093        -9.0095
  74   2.0000      -0.322600        -8.7784
  75   2.0000      -0.315875        -8.5954
  76   2.0000      -0.309062        -8.4100
  77   2.0000      -0.308501        -8.3947
  78   2.0000      -0.292840        -7.9686
  79   2.0000      -0.285533        -7.7698
  80   2.0000      -0.282249        -7.6804
  81   2.0000      -0.278059        -7.5664
  82   2.0000      -0.263719        -7.1762
  83   2.0000      -0.261599        -7.1185
  84   2.0000      -0.248917        -6.7734
  85   2.0000      -0.228788        -6.2256
  86   2.0000      -0.220066        -5.9883
  87   0.0000      -0.059193        -1.6107
  88   0.0000      -0.029941        -0.8147
  89   0.0000      -0.024001        -0.6531
  90   0.0000       0.004436         0.1207
  91   0.0000       0.012863         0.3500

MULLIKEN ATOMIC CHARGES
-----------------------
   0 C :   -0.494088
   1 C :   -0.141222
   2 O :   -0.179697
   3 C :    0.415602
   4 O :   -0.481833
   5 C :   -0.369569
   6 C :   -0.108419
   7 H :    0.266839
   8 C :    0.313743
   9 O :   -0.454923
  10 O :   -0.154732
  11 C :   -0.115821
  12 C :   -0.520202
  13 S :   -0.215555
  14 P :    0.758392
  15 S :   -0.490760
  16 O :   -0.354771
  17 C :   -0.307337
  18 O :   -0.334676
  19 C :   -0.291952
  20 H :    0.167370
  21 H :    0.172522
  22 H :    0.169250
  23 H :    0.177106
  24 H :    0.175350
  25 H :    0.227131
  26 H :    0.210489
  27 H :    0.177706
  28 H :    0.174544
  29 H :    0.171815
  30 H :    0.173097
  31 H :    0.176217
  32 H :    0.180560
  33 H :    0.176364
  34 H :    0.178662
  35 H :    0.183814
  36 H :    0.182829
  37 H :    0.186153
Sum of atomic charges:    0.0000000

LOEWDIN ATOMIC CHARGES
----------------------
   0 C :   -0.390786
   1 C :    0.037364
   2 O :   -0.576027
   3 C :    0.386101
   4 O :   -0.469163
   5 C :   -0.201162
   6 C :   -0.193589
   7 H :    0.212487
   8 C :    0.336473
   9 O :   -0.479939
  10 O :   -0.587876
  11 C :    0.041348
  12 C :   -0.391597
  13 S :    0.202491
  14 P :    0.392617
  15 S :   -0.129587
  16 O :   -0.693588
  17 C :   -0.052821
  18 O :   -0.670389
  19 C :   -0.045101
  20 H :    0.162847
  21 H :    0.168931
  22 H :    0.162957
  23 H :    0.190928
  24 H :    0.190958
  25 H :    0.212275
  26 H :    0.203437
  27 H :    0.191601
  28 H :    0.190343
  29 H :    0.164252
  30 H :    0.168763
  31 H :    0.167515
  32 H :    0.189334
  33 H :    0.176780
  34 H :    0.178551
  35 H :    0.179574
  36 H :    0.182525
  37 H :    0.191174

  Mayer bond orders larger than 0.100000
B(  0-C ,  1-C ) :   0.9378 B(  0-C , 20-H ) :   0.9695 B(  0-C , 21-H ) :   0.9589
B(  0-C , 22-H ) :   0.9682 B(  1-C ,  2-O ) :   0.7810 B(  1-C , 23-H ) :   0.9516
B(  1-C , 24-H ) :   0.9628 B(  2-O ,  3-C ) :   1.1521 B(  3-C ,  4-O ) :   1.7346
B(  3-C ,  5-C ) :   1.0118 B(  4-O ,  8-C ) :   0.1069 B(  5-C ,  6-C ) :   0.9727
B(  5-C , 10-O ) :   0.1171 B(  5-C , 25-H ) :   0.9413 B(  5-C , 26-H ) :   0.9150
B(  6-C ,  7-H ) :   0.9504 B(  6-C ,  8-C ) :   0.8509 B(  6-C , 13-S ) :   0.8140
B(  8-C ,  9-O ) :   1.7986 B(  8-C , 10-O ) :   1.1196 B( 10-O , 11-C ) :   0.7907
B( 11-C , 12-C ) :   0.9184 B( 11-C , 27-H ) :   0.9501 B( 11-C , 28-H ) :   0.9660
B( 12-C , 29-H ) :   0.9677 B( 12-C , 30-H ) :   0.9579 B( 12-C , 31-H ) :   0.9666
B( 13-S , 14-P ) :   0.9786 B( 14-P , 15-S ) :   1.8188 B( 14-P , 16-O ) :   1.0506
B( 14-P , 18-O ) :   1.1442 B( 16-O , 17-C ) :   0.8206 B( 17-C , 32-H ) :   0.9574
B( 17-C , 33-H ) :   0.9496 B( 17-C , 34-H ) :   0.9548 B( 18-O , 19-C ) :   0.7827
B( 19-C , 35-H ) :   0.9469 B( 19-C , 36-H ) :   0.9501 B( 19-C , 37-H ) :   0.9530

Dispersion correction           -0.017147904
FINAL SINGLE POINT ENERGY     -1981.470528382327

DIPOLE MOMENT
-------------

Method             : SCF
Type of density    : Electron Density
Multiplicity       :   1
Irrep              :   0
Energy             : -1981.4904455611092544 Eh
Relativity type    :
Basis              : AO
                                X                 Y                 Z
Electronic contribution:    -16.518673457      -2.030641520      -7.576655361
Nuclear contribution   :     17.734049039       0.258474133      10.489484428
                        -----------------------------------------
Total Dipole Moment    :      1.215375582      -1.772167387       2.912829067
                        -----------------------------------------
Magnitude (a.u.)       :      3.619708307
Magnitude (Debye)      :      9.200567336

Rotational constants in cm-1:             0.016149             0.005767             0.004947
Rotational constants in MHz :           484.126089           172.891372           148.303031

                             ****ORCA TERMINATED NORMALLY****
TOTAL RUN TIME: 0 days 0 hours 1 minutes 51 seconds 203 msec
