                         Program Version 6.0.0  -   RELEASE  -
|  1> ! pbe def2-sv(p) def2/J RI DEFGRID1 loosescf d4 GCP(DFT/SV(P)) printgap
|  2> %output
|  3>     printlevel normal
|  4> end
|  5> * xyz 0 1
|  6> C 1.8755324311 0.0763484874 0.1901665847
|  7> C 0.6877879823 0.2109492246 -0.367416573
|  8> C -0.528872639 -0.5664956503 0.0328408416
|  9> O -1.6393126487 0.3129760749 0.0901701346
| 10> H 2.7247195385 0.6458259734 -0.1439465417
| 11> H 2.0478379742 -0.6178446488 0.9959090721
| 12> H 0.516225269 0.9167657866 -1.1676357608
| 13> H -0.36700202 -1.0494582919 1.0050532896
| 14> H -0.7115196829 -1.3473768016 -0.7218934417
| 15> H -2.4315732577 -0.1889392815 0.3220062197
| 16> *
| 17>
| 18>                          ****END OF INPUT****

CARTESIAN COORDINATES (ANGSTROEM)
---------------------------------
  C      1.875532    0.076348    0.190167
  C      0.687788    0.210949   -0.367417
  C     -0.528873   -0.566496    0.032841
  O     -1.639313    0.312976    0.090170
  H      2.724720    0.645826   -0.143947
  H      2.047838   -0.617845    0.995909
  H      0.516225    0.916766   -1.167636
  H     -0.367002   -1.049458    1.005053
  H     -0.711520   -1.347377   -0.721893
  H     -2.431573   -0.188939    0.322006

 Total Charge           Charge          ....    0
 Multiplicity           Mult            ....    1
 Number of Electrons    NEL             ....   32
 Basis Dimension        Dim             ....   68

ORBITAL ENERGIES
----------------

  NO   OCC          E(Eh)            E(eV)
   0   2.0000     -18.743145      -510.0269
   1   2.0000      -9.934201      -270.3234
   2   2.0000      -9.891392      -269.1585
   3   2.0000      -9.879992      -268.8483
   4   2.0000      -0.917683       -24.9714
   5   2.0000      -0.703472       -19.1424
   6   2.0000      -0.602864       -16.4048
   7   2.0000      -0.498328       -13.5602
   8   2.0000      -0.461517       -12.5585
   9   2.0000      -0.420794       -11.4504
  10   2.0000      -0.392950       -10.6927
  11   2.0000      -0.357104        -9.7173
  12   2.0000      -0.319214        -8.6863
  13   2.0000      -0.277602        -7.5539
  14   2.0000      -0.239911        -6.5283
  15   2.0000      -0.211039        -5.7427
  16   0.0000      -0.022729        -0.6185
  17   0.0000       0.035354         0.9620
  18   0.0000       0.068965         1.8766
  19   0.0000       0.077933         2.1207
  20   0.0000       0.099554         2.7090

MULLIKEN ATOMIC CHARGES
-----------------------
   0 C :   -0.197678
   1 C :   -0.132031
   2 C :    0.040325
   3 O :   -0.446300
   4 H :    0.102118
   5 H :    0.093873
   6 H :    0.086223
   7 H :    0.072058
   8 H :    0.084190
   9 H :    0.297222
Sum of atomic charges:    0.0000000

LOEWDIN ATOMIC CHARGES
----------------------
   0 C :   -0.247373
   1 C :   -0.141274
   2 C :   -0.116914
   3 O :   -0.353093
   4 H :    0.123714
   5 H :    0.119315
   6 H :    0.127104
   7 H :    0.099741
   8 H :    0.104532
   9 H :    0.284249

  Mayer bond orders larger than 0.100000
B(  0-C ,  1-C ) :   2.0637 B(  0-C ,  4-H ) :   0.9258 B(  0-C ,  5-H ) :   0.9199
B(  1-C ,  2-C ) :   1.0821 B(  1-C ,  6-H ) :   0.9325 B(  2-C ,  3-O ) :   1.0595
B(  2-C ,  7-H ) :   0.9219 B(  2-C ,  8-H ) :   0.9049 B(  3-O ,  9-H ) :   0.8530

Dispersion correction           -0.005207994
FINAL SINGLE POINT ENERGY      -192.660477339919

DIPOLE MOMENT
-------------

Method             : SCF
Type of density    : Electron Density
Multiplicity       :   1
Irrep              :   0
Energy             :  -192.6996962863989893 Eh
Relativity type    :
Basis              : AO
                                X                 Y                 Z
Electronic contribution:     -1.827697838       0.934605176      -0.183600454
Nuclear contribution   :      1.644351728      -1.534915453       0.272934493
                        -----------------------------------------
Total Dipole Moment    :     -0.183346111      -0.600310277       0.089334038
                        -----------------------------------------
Magnitude (a.u.)       :      0.634010091
Magnitude (Debye)      :      1.611525581

Rotational constants in cm-1:             0.999775             0.142806             0.135263
Rotational constants in MHz :         29972.487991          4281.208703          4055.078480

                             ****ORCA TERMINATED NORMALLY****
TOTAL RUN TIME: 0 days 0 hours 0 minutes 3 seconds 590 msec
