                         Program Version 6.0.0  -   RELEASE  -
|  1> ! pbe def2-sv(p) def2/J RI DEFGRID1 loosescf d4 GCP(DFT/SV(P)) printgap
|  2> %output
|  3>     printlevel normal
|  4> end
|  5> * xyz 0 1
|  6> C 5.0298767359 -1.450376783 0.0419160135
|  7> C 4.5837334105 -0.6936388155 -1.1908918112
|  8> O 3.1558713862 -0.4796668008 -1.2000054807
|  9> P 2.4535639955 0.5032521165 -0.1743784043
| 10> S 3.4544620691 2.0917021522 0.3759545279
| 11> O 2.030539416 -0.4990231306 0.9880714254
| 12> C 1.6411542274 -0.0535447171 2.3024717642
| 13> C 2.7851029012 -0.2428750429 3.2789151563
| 14> S 0.6688623699 0.8866888857 -1.2522079892
| 15> C 0.0266335217 -0.8207843585 -1.2861050375
| 16> S -0.976354775 -1.2098325894 0.1580559497
| 17> P -2.6622346369 -0.0276495417 -0.4059623549
| 18> S -3.0453248829 0.0234353058 -2.3265620928
| 19> O -2.4345198454 1.448302662 0.0953687486
| 20> C -1.8097017687 1.8958375118 1.3207200683
| 21> C -2.301418076 1.1763073827 2.5578998277
| 22> O -3.8175469548 -0.5378419898 0.5533901436
| 23> C -4.1785529225 -1.9147320243 0.772295414
| 24> C -4.4854107869 -2.6558762251 -0.5120073783
| 25> H 4.4660109959 -2.3739411103 0.1423982941
| 26> H 6.0876987553 -1.6793926706 -0.0411309614
| 27> H 4.8685636305 -0.8381187431 0.9274003697
| 28> H 4.7678474071 -1.2577686329 -2.1062470431
| 29> H 5.0791753671 0.2806348419 -1.247946198
| 30> H 1.348466773 0.9995654508 2.2590929141
| 31> H 0.7799790123 -0.6702791019 2.5663003503
| 32> H 3.1196186619 -1.2760960989 3.2677788322
| 33> H 3.6158607442 0.4059891108 3.0092183656
| 34> H 2.4474079154 0.015208843 4.2772599465
| 35> H 0.8559695714 -1.5209495867 -1.3170038232
| 36> H -0.5975477902 -0.8907336615 -2.1785466524
| 37> H -0.727834295 1.7822732126 1.1975648785
| 38> H -2.0545363241 2.9589261696 1.3503349027
| 39> H -3.3831516244 1.2520708505 2.6290040269
| 40> H -2.0208615451 0.1254530047 2.5276180495
| 41> H -1.8511247634 1.6372687261 3.4318868578
| 42> H -3.3598820471 -2.3996520648 1.3110384899
| 43> H -5.0591312293 -1.8490981377 1.4136122925
| 44> H -3.5915274047 -2.7272893442 -1.1298164391
| 45> H -4.8347188133 -3.6560697732 -0.2767316063
| 46> H -5.2502340233 -2.1312160711 -1.0797715723
| 47> *
| 48>
| 49>                          ****END OF INPUT****

CARTESIAN COORDINATES (ANGSTROEM)
---------------------------------
  C      5.029877   -1.450377    0.041916
  C      4.583733   -0.693639   -1.190892
  O      3.155871   -0.479667   -1.200005
  P      2.453564    0.503252   -0.174378
  S      3.454462    2.091702    0.375955
  O      2.030539   -0.499023    0.988071
  C      1.641154   -0.053545    2.302472
  C      2.785103   -0.242875    3.278915
  S      0.668862    0.886689   -1.252208
  C      0.026634   -0.820784   -1.286105
  S     -0.976355   -1.209833    0.158056
  P     -2.662235   -0.027650   -0.405962
  S     -3.045325    0.023435   -2.326562
  O     -2.434520    1.448303    0.095369
  C     -1.809702    1.895838    1.320720
  C     -2.301418    1.176307    2.557900
  O     -3.817547   -0.537842    0.553390
  C     -4.178553   -1.914732    0.772295
  C     -4.485411   -2.655876   -0.512007
  H      4.466011   -2.373941    0.142398
  H      6.087699   -1.679393   -0.041131
  H      4.868564   -0.838119    0.927400
  H      4.767847   -1.257769   -2.106247
  H      5.079175    0.280635   -1.247946
  H      1.348467    0.999565    2.259093
  H      0.779979   -0.670279    2.566300
  H      3.119619   -1.276096    3.267779
  H      3.615861    0.405989    3.009218
  H      2.447408    0.015209    4.277260
  H      0.855970   -1.520950   -1.317004
  H     -0.597548   -0.890734   -2.178547
  H     -0.727834    1.782273    1.197565
  H     -2.054536    2.958926    1.350335
  H     -3.383152    1.252071    2.629004
  H     -2.020862    0.125453    2.527618
  H     -1.851125    1.637269    3.431887
  H     -3.359882   -2.399652    1.311038
  H     -5.059131   -1.849098    1.413612
  H     -3.591527   -2.727289   -1.129816
  H     -4.834719   -3.656070   -0.276732
  H     -5.250234   -2.131216   -1.079772

 Total Charge           Charge          ....    0
 Multiplicity           Mult            ....    1
 Number of Electrons    NEL             ....  202
 Basis Dimension        Dim             ....  334

ORBITAL ENERGIES
----------------

  NO   OCC          E(Eh)            E(eV)
   0   2.0000     -88.049709     -2395.9544
   1   2.0000     -88.042661     -2395.7626
   2   2.0000     -87.992574     -2394.3997
   3   2.0000     -87.981613     -2394.1014
   4   2.0000     -76.429980     -2079.7655
   5   2.0000     -76.429074     -2079.7408
   6   2.0000     -18.797650      -511.5101
   7   2.0000     -18.797487      -511.5056
   8   2.0000     -18.796182      -511.4701
   9   2.0000     -18.790227      -511.3081
  10   2.0000      -9.962540      -271.0945
  11   2.0000      -9.959456      -271.0106
  12   2.0000      -9.957373      -270.9539
  13   2.0000      -9.957034      -270.9447
  14   2.0000      -9.955782      -270.9106
  15   2.0000      -9.892165      -269.1795
  16   2.0000      -9.889936      -269.1188
  17   2.0000      -9.889399      -269.1042
  18   2.0000      -9.885367      -268.9945
  19   2.0000      -7.694321      -209.3731
  20   2.0000      -7.687558      -209.1891
  21   2.0000      -7.637720      -207.8329
  22   2.0000      -7.626943      -207.5397
  23   2.0000      -6.427868      -174.9112
  24   2.0000      -6.425991      -174.8601
  25   2.0000      -5.721898      -155.7007
  26   2.0000      -5.718790      -155.6162
  27   2.0000      -5.715720      -155.5327
  28   2.0000      -5.711981      -155.4309
  29   2.0000      -5.711719      -155.4238
  30   2.0000      -5.704356      -155.2234
  31   2.0000      -5.666639      -154.1971
  32   2.0000      -5.658293      -153.9700
  33   2.0000      -5.657953      -153.9607
  34   2.0000      -5.656028      -153.9083
  35   2.0000      -5.647562      -153.6780
  36   2.0000      -5.646883      -153.6595
  37   2.0000      -4.650263      -126.5401
  38   2.0000      -4.649790      -126.5272
  39   2.0000      -4.648728      -126.4983
  40   2.0000      -4.648317      -126.4871
  41   2.0000      -4.648255      -126.4855
  42   2.0000      -4.645916      -126.4218
  43   2.0000      -0.992019       -26.9942
  44   2.0000      -0.989145       -26.9160
  45   2.0000      -0.950888       -25.8750
  46   2.0000      -0.946763       -25.7627
  47   2.0000      -0.766852       -20.8671
  48   2.0000      -0.726398       -19.7663
  49   2.0000      -0.715014       -19.4565
  50   2.0000      -0.694314       -18.8933
  51   2.0000      -0.692860       -18.8537
  52   2.0000      -0.678467       -18.4620
  53   2.0000      -0.657789       -17.8993
  54   2.0000      -0.640353       -17.4249
  55   2.0000      -0.602257       -16.3882
  56   2.0000      -0.594341       -16.1728
  57   2.0000      -0.581894       -15.8341
  58   2.0000      -0.575130       -15.6501
  59   2.0000      -0.568424       -15.4676
  60   2.0000      -0.507611       -13.8128
  61   2.0000      -0.496146       -13.5008
  62   2.0000      -0.482275       -13.1234
  63   2.0000      -0.473649       -12.8887
  64   2.0000      -0.464396       -12.6369
  65   2.0000      -0.450814       -12.2673
  66   2.0000      -0.443768       -12.0755
  67   2.0000      -0.440650       -11.9907
  68   2.0000      -0.433908       -11.8072
  69   2.0000      -0.415941       -11.3183
  70   2.0000      -0.412246       -11.2178
  71   2.0000      -0.407595       -11.0912
  72   2.0000      -0.405726       -11.0404
  73   2.0000      -0.395206       -10.7541
  74   2.0000      -0.389047       -10.5865
  75   2.0000      -0.374104       -10.1799
  76   2.0000      -0.365425        -9.9437
  77   2.0000      -0.364575        -9.9206
  78   2.0000      -0.356932        -9.7126
  79   2.0000      -0.356625        -9.7043
  80   2.0000      -0.350070        -9.5259
  81   2.0000      -0.349275        -9.5043
  82   2.0000      -0.344780        -9.3819
  83   2.0000      -0.343488        -9.3468
  84   2.0000      -0.336443        -9.1551
  85   2.0000      -0.331020        -9.0075
  86   2.0000      -0.316871        -8.6225
  87   2.0000      -0.301440        -8.2026
  88   2.0000      -0.298688        -8.1277
  89   2.0000      -0.292600        -7.9621
  90   2.0000      -0.287524        -7.8239
  91   2.0000      -0.280791        -7.6407
  92   2.0000      -0.277387        -7.5481
  93   2.0000      -0.270135        -7.3508
  94   2.0000      -0.260962        -7.1011
  95   2.0000      -0.241093        -6.5605
  96   2.0000      -0.221609        -6.0303
  97   2.0000      -0.211178        -5.7465
  98   2.0000      -0.207053        -5.6342
  99   2.0000      -0.201591        -5.4856
 100   2.0000      -0.195984        -5.3330
 101   0.0000      -0.044475        -1.2102
 102   0.0000      -0.025711        -0.6996
 103   0.0000      -0.016200        -0.4408
 104   0.0000       0.000661         0.0180
 105   0.0000       0.008186         0.2228

MULLIKEN ATOMIC CHARGES
-----------------------
   0 C :   -0.318005
   1 C :   -0.004691
   2 O :   -0.377014
   3 P :    0.598432
   4 S :   -0.320474
   5 O :   -0.381593
   6 C :   -0.040165
   7 C :   -0.283576
   8 S :   -0.048939
   9 C :   -0.357100
  10 S :   -0.119434
  11 P :    0.594457
  12 S :   -0.306347
  13 O :   -0.351613
  14 C :   -0.009435
  15 C :   -0.319444
  16 O :   -0.373382
  17 C :   -0.010864
  18 C :   -0.306053
  19 H :    0.116202
  20 H :    0.114725
  21 H :    0.131169
  22 H :    0.108735
  23 H :    0.116236
  24 H :    0.117919
  25 H :    0.112931
  26 H :    0.115130
  27 H :    0.130616
  28 H :    0.109175
  29 H :    0.190383
  30 H :    0.198189
  31 H :    0.122111
  32 H :    0.112556
  33 H :    0.125783
  34 H :    0.116572
  35 H :    0.113843
  36 H :    0.108401
  37 H :    0.110355
  38 H :    0.124066
  39 H :    0.110839
  40 H :    0.129303
Sum of atomic charges:   -0.0000000

LOEWDIN ATOMIC CHARGES
----------------------
   0 C :   -0.366016
   1 C :   -0.114282
   2 O :   -0.246149
   3 P :    0.565086
   4 S :   -0.321135
   5 O :   -0.249380
   6 C :   -0.122241
   7 C :   -0.359601
   8 S :    0.103214
   9 C :   -0.481779
  10 S :    0.070724
  11 P :    0.568629
  12 S :   -0.306195
  13 O :   -0.230171
  14 C :   -0.112928
  15 C :   -0.369092
  16 O :   -0.240968
  17 C :   -0.114066
  18 C :   -0.368708
  19 H :    0.125956
  20 H :    0.132034
  21 H :    0.124058
  22 H :    0.120442
  23 H :    0.113715
  24 H :    0.107729
  25 H :    0.111493
  26 H :    0.125670
  27 H :    0.125771
  28 H :    0.129854
  29 H :    0.134773
  30 H :    0.130725
  31 H :    0.103402
  32 H :    0.125209
  33 H :    0.129606
  34 H :    0.112967
  35 H :    0.130982
  36 H :    0.106088
  37 H :    0.121887
  38 H :    0.121044
  39 H :    0.129905
  40 H :    0.131747

  Mayer bond orders larger than 0.100000
B(  0-C ,  1-C ) :   1.1618 B(  0-C , 19-H ) :   0.9462 B(  0-C , 20-H ) :   0.9371
B(  0-C , 21-H ) :   0.9323 B(  1-C ,  2-O ) :   0.9047 B(  1-C , 22-H ) :   0.9355
B(  1-C , 23-H ) :   0.9181 B(  2-O ,  3-P ) :   1.1040 B(  3-P ,  4-S ) :   1.6358
B(  3-P ,  5-O ) :   1.0787 B(  3-P ,  8-S ) :   0.9869 B(  5-O ,  6-C ) :   0.9013
B(  6-C ,  7-C ) :   1.1678 B(  6-C , 24-H ) :   0.9012 B(  6-C , 25-H ) :   0.9249
B(  7-C , 26-H ) :   0.9449 B(  7-C , 27-H ) :   0.9318 B(  7-C , 28-H ) :   0.9392
B(  8-S ,  9-C ) :   0.9814 B(  9-C , 10-S ) :   1.0028 B(  9-C , 29-H ) :   0.8921
B(  9-C , 30-H ) :   0.8626 B( 10-S , 11-P ) :   0.9234 B( 10-S , 12-S ) :   0.1095
B( 11-P , 12-S ) :   1.6409 B( 11-P , 13-O ) :   1.1477 B( 11-P , 16-O ) :   1.0967
B( 13-O , 14-C ) :   0.9020 B( 14-C , 15-C ) :   1.1663 B( 14-C , 31-H ) :   0.9075
B( 14-C , 32-H ) :   0.9329 B( 15-C , 33-H ) :   0.9411 B( 15-C , 34-H ) :   0.9358
B( 15-C , 35-H ) :   0.9360 B( 16-O , 17-C ) :   0.9111 B( 17-C , 18-C ) :   1.1677
B( 17-C , 36-H ) :   0.9258 B( 17-C , 37-H ) :   0.9334 B( 18-C , 38-H ) :   0.9327
B( 18-C , 39-H ) :   0.9348 B( 18-C , 40-H ) :   0.9426

Dispersion correction           -0.065505400
FINAL SINGLE POINT ENERGY     -2929.516170307775

DIPOLE MOMENT
-------------

Method             : SCF
Type of density    : Electron Density
Multiplicity       :   1
Irrep              :   0
Energy             : -2929.6367756860222471 Eh
Relativity type    :
Basis              : AO
                                X                 Y                 Z
Electronic contribution:     -4.272653125      11.903420981     -18.531185819
Nuclear contribution   :      4.582805853     -13.437005670      20.252189562
                        -----------------------------------------
Total Dipole Moment    :      0.310152727      -1.533584690       1.721003743
                        -----------------------------------------
Magnitude (a.u.)       :      2.325925751
Magnitude (Debye)      :      5.912033421

Rotational constants in cm-1:             0.013672             0.004472             0.004242
Rotational constants in MHz :           409.879199           134.068298           127.167953

                             ****ORCA TERMINATED NORMALLY****
TOTAL RUN TIME: 0 days 0 hours 0 minutes 21 seconds 300 msec
