                         Program Version 6.0.0  -   RELEASE  -
|  1> ! pbe def2-sv(p) def2/J RI DEFGRID1 loosescf d4 GCP(DFT/SV(P)) printgap
|  2> %output
|  3>     printlevel normal
|  4> end
|  5> * xyz 0 1
|  6> C 4.1008378232 0.3032934965 -1.9594348143
|  7> C 2.6826793008 -0.1877020172 -2.1485249386
|  8> O 2.1502558753 -0.7628034205 -0.9374714378
|  9> P 1.8798353462 0.1067524182 0.3528168326
| 10> S 1.4305970585 2.0080853266 0.1380644095
| 11> O 3.2411130983 -0.0820507014 1.1596136118
| 12> C 3.5809953569 0.6905707158 2.3236520709
| 13> C 5.0921103441 0.7327699372 2.4375100352
| 14> S 0.6291018102 -1.2158365456 1.442951
| 15> C -0.301457654 -2.1623896286 0.1873209512
| 16> S -2.0774085716 -1.8567756135 0.2436395442
| 17> P -1.9924081053 0.1090070797 -0.5600444706
| 18> S -0.7932845586 0.2528814387 -2.1049404779
| 19> O -1.5235496148 1.1113489981 0.5593523344
| 20> C -2.2980972975 1.5993648051 1.6821490817
| 21> C -2.6365002127 0.5089665685 2.6775297235
| 22> O -3.5125794445 0.5128369543 -0.7517253869
| 23> C -4.5189741281 -0.3204360991 -1.3611415947
| 24> C -4.1609757301 -0.7331060257 -2.7728677663
| 25> H 4.1097098694 1.1402309963 -1.2620660423
| 26> H 4.7236146685 -0.4946336978 -1.5636232903
| 27> H 4.4947761809 0.6352279503 -2.9148072415
| 28> H 2.6223925289 -1.0044765671 -2.8691656614
| 29> H 2.0203583723 0.6244811796 -2.466085417
| 30> H 3.1582190689 1.6953503361 2.21130669
| 31> H 3.1296212498 0.2054638719 3.1934973989
| 32> H 5.3652125234 1.2768018634 3.3355999893
| 33> H 5.4864037242 -0.2776366185 2.4928286094
| 34> H 5.5198701759 1.2316536008 1.5724218016
| 35> H -0.1600737331 -3.2150473663 0.4159640442
| 36> H 0.078862546 -1.9092399528 -0.8023483126
| 37> H -1.6393625068 2.35308216 2.1181608612
| 38> H -3.1989920092 2.0751171622 1.2907823915
| 39> H -3.3428712598 -0.1983900624 2.2485302036
| 40> H -1.7364025719 -0.025880249 2.9740302531
| 41> H -3.0833622444 0.9657464438 3.5550846491
| 42> H -4.6631996663 -1.1988357346 -0.7264018222
| 43> H -5.4127696736 0.3055537538 -1.3416303441
| 44> H -3.272341979 -1.3625090428 -2.7666533476
| 45> H -4.9864209469 -1.2889200834 -3.2055381033
| 46> H -3.9554888521 0.1425233679 -3.38427778
| 47> *
| 48>
| 49>                          ****END OF INPUT****

CARTESIAN COORDINATES (ANGSTROEM)
---------------------------------
  C      4.100838    0.303293   -1.959435
  C      2.682679   -0.187702   -2.148525
  O      2.150256   -0.762803   -0.937471
  P      1.879835    0.106752    0.352817
  S      1.430597    2.008085    0.138064
  O      3.241113   -0.082051    1.159614
  C      3.580995    0.690571    2.323652
  C      5.092110    0.732770    2.437510
  S      0.629102   -1.215837    1.442951
  C     -0.301458   -2.162390    0.187321
  S     -2.077409   -1.856776    0.243640
  P     -1.992408    0.109007   -0.560044
  S     -0.793285    0.252881   -2.104940
  O     -1.523550    1.111349    0.559352
  C     -2.298097    1.599365    1.682149
  C     -2.636500    0.508967    2.677530
  O     -3.512579    0.512837   -0.751725
  C     -4.518974   -0.320436   -1.361142
  C     -4.160976   -0.733106   -2.772868
  H      4.109710    1.140231   -1.262066
  H      4.723615   -0.494634   -1.563623
  H      4.494776    0.635228   -2.914807
  H      2.622393   -1.004477   -2.869166
  H      2.020358    0.624481   -2.466085
  H      3.158219    1.695350    2.211307
  H      3.129621    0.205464    3.193497
  H      5.365213    1.276802    3.335600
  H      5.486404   -0.277637    2.492829
  H      5.519870    1.231654    1.572422
  H     -0.160074   -3.215047    0.415964
  H      0.078863   -1.909240   -0.802348
  H     -1.639363    2.353082    2.118161
  H     -3.198992    2.075117    1.290782
  H     -3.342871   -0.198390    2.248530
  H     -1.736403   -0.025880    2.974030
  H     -3.083362    0.965746    3.555085
  H     -4.663200   -1.198836   -0.726402
  H     -5.412770    0.305554   -1.341630
  H     -3.272342   -1.362509   -2.766653
  H     -4.986421   -1.288920   -3.205538
  H     -3.955489    0.142523   -3.384278

 Total Charge           Charge          ....    0
 Multiplicity           Mult            ....    1
 Number of Electrons    NEL             ....  202
 Basis Dimension        Dim             ....  334

ORBITAL ENERGIES
----------------

  NO   OCC          E(Eh)            E(eV)
   0   2.0000     -88.042882     -2395.7686
   1   2.0000     -88.033662     -2395.5177
   2   2.0000     -87.977486     -2393.9891
   3   2.0000     -87.972563     -2393.8552
   4   2.0000     -76.424510     -2079.6167
   5   2.0000     -76.416603     -2079.4015
   6   2.0000     -18.797507      -511.5062
   7   2.0000     -18.785774      -511.1869
   8   2.0000     -18.782790      -511.1057
   9   2.0000     -18.778642      -510.9928
  10   2.0000      -9.962016      -271.0802
  11   2.0000      -9.955677      -270.9077
  12   2.0000      -9.948943      -270.7245
  13   2.0000      -9.944030      -270.5908
  14   2.0000      -9.943432      -270.5745
  15   2.0000      -9.884245      -268.9640
  16   2.0000      -9.882423      -268.9144
  17   2.0000      -9.881187      -268.8808
  18   2.0000      -9.876348      -268.7491
  19   2.0000      -7.688070      -209.2030
  20   2.0000      -7.679077      -208.9583
  21   2.0000      -7.622514      -207.4192
  22   2.0000      -7.617448      -207.2813
  23   2.0000      -6.421503      -174.7380
  24   2.0000      -6.414112      -174.5369
  25   2.0000      -5.715718      -155.5326
  26   2.0000      -5.712555      -155.4465
  27   2.0000      -5.707390      -155.3060
  28   2.0000      -5.705270      -155.2483
  29   2.0000      -5.703403      -155.1975
  30   2.0000      -5.695686      -154.9875
  31   2.0000      -5.651486      -153.7847
  32   2.0000      -5.646428      -153.6471
  33   2.0000      -5.643199      -153.5592
  34   2.0000      -5.642501      -153.5403
  35   2.0000      -5.638297      -153.4259
  36   2.0000      -5.637344      -153.3999
  37   2.0000      -4.644582      -126.3855
  38   2.0000      -4.643441      -126.3545
  39   2.0000      -4.641402      -126.2990
  40   2.0000      -4.636660      -126.1699
  41   2.0000      -4.636004      -126.1521
  42   2.0000      -4.634454      -126.1099
  43   2.0000      -0.987606       -26.8741
  44   2.0000      -0.978351       -26.6223
  45   2.0000      -0.941351       -25.6155
  46   2.0000      -0.937119       -25.5003
  47   2.0000      -0.759954       -20.6794
  48   2.0000      -0.717302       -19.5188
  49   2.0000      -0.707462       -19.2510
  50   2.0000      -0.690046       -18.7771
  51   2.0000      -0.681793       -18.5525
  52   2.0000      -0.669406       -18.2155
  53   2.0000      -0.645961       -17.5775
  54   2.0000      -0.628498       -17.1023
  55   2.0000      -0.592429       -16.1208
  56   2.0000      -0.586562       -15.9612
  57   2.0000      -0.579143       -15.7593
  58   2.0000      -0.562077       -15.2949
  59   2.0000      -0.558623       -15.2009
  60   2.0000      -0.498763       -13.5720
  61   2.0000      -0.493526       -13.4295
  62   2.0000      -0.470438       -12.8013
  63   2.0000      -0.468935       -12.7604
  64   2.0000      -0.453113       -12.3298
  65   2.0000      -0.444728       -12.1017
  66   2.0000      -0.434818       -11.8320
  67   2.0000      -0.431130       -11.7316
  68   2.0000      -0.425192       -11.5701
  69   2.0000      -0.417323       -11.3559
  70   2.0000      -0.410105       -11.1595
  71   2.0000      -0.401372       -10.9219
  72   2.0000      -0.392136       -10.6706
  73   2.0000      -0.385677       -10.4948
  74   2.0000      -0.374962       -10.2032
  75   2.0000      -0.366936        -9.9848
  76   2.0000      -0.354631        -9.6500
  77   2.0000      -0.352404        -9.5894
  78   2.0000      -0.350732        -9.5439
  79   2.0000      -0.346959        -9.4412
  80   2.0000      -0.342595        -9.3225
  81   2.0000      -0.340381        -9.2622
  82   2.0000      -0.338324        -9.2063
  83   2.0000      -0.335052        -9.1172
  84   2.0000      -0.326985        -8.8977
  85   2.0000      -0.321376        -8.7451
  86   2.0000      -0.306300        -8.3349
  87   2.0000      -0.298778        -8.1302
  88   2.0000      -0.290900        -7.9158
  89   2.0000      -0.286662        -7.8005
  90   2.0000      -0.278504        -7.5785
  91   2.0000      -0.275383        -7.4936
  92   2.0000      -0.266444        -7.2503
  93   2.0000      -0.259221        -7.0538
  94   2.0000      -0.250587        -6.8188
  95   2.0000      -0.233264        -6.3474
  96   2.0000      -0.214169        -5.8278
  97   2.0000      -0.206709        -5.6248
  98   2.0000      -0.194777        -5.3001
  99   2.0000      -0.186229        -5.0676
 100   2.0000      -0.173688        -4.7263
 101   0.0000      -0.043666        -1.1882
 102   0.0000      -0.024705        -0.6722
 103   0.0000      -0.018788        -0.5112
 104   0.0000       0.000087         0.0024
 105   0.0000       0.018125         0.4932

MULLIKEN ATOMIC CHARGES
-----------------------
   0 C :   -0.306854
   1 C :   -0.006017
   2 O :   -0.371396
   3 P :    0.621691
   4 S :   -0.306039
   5 O :   -0.379068
   6 C :   -0.007222
   7 C :   -0.285097
   8 S :   -0.113358
   9 C :   -0.349520
  10 S :   -0.121576
  11 P :    0.611859
  12 S :   -0.309918
  13 O :   -0.334163
  14 C :    0.007712
  15 C :   -0.320166
  16 O :   -0.380370
  17 C :   -0.015771
  18 C :   -0.305883
  19 H :    0.125507
  20 H :    0.114072
  21 H :    0.110118
  22 H :    0.101735
  23 H :    0.127796
  24 H :    0.100609
  25 H :    0.094966
  26 H :    0.108452
  27 H :    0.115287
  28 H :    0.119639
  29 H :    0.182199
  30 H :    0.210515
  31 H :    0.110286
  32 H :    0.106306
  33 H :    0.113861
  34 H :    0.131576
  35 H :    0.108957
  36 H :    0.114453
  37 H :    0.110436
  38 H :    0.126061
  39 H :    0.110789
  40 H :    0.127537
Sum of atomic charges:    0.0000000

LOEWDIN ATOMIC CHARGES
----------------------
   0 C :   -0.366815
   1 C :   -0.116935
   2 O :   -0.234654
   3 P :    0.567296
   4 S :   -0.302797
   5 O :   -0.252203
   6 C :   -0.124493
   7 C :   -0.351263
   8 S :    0.063622
   9 C :   -0.474571
  10 S :    0.064047
  11 P :    0.569808
  12 S :   -0.297888
  13 O :   -0.221535
  14 C :   -0.106973
  15 C :   -0.371393
  16 O :   -0.243412
  17 C :   -0.113954
  18 C :   -0.368895
  19 H :    0.121700
  20 H :    0.124940
  21 H :    0.129910
  22 H :    0.117691
  23 H :    0.112231
  24 H :    0.102961
  25 H :    0.107817
  26 H :    0.128933
  27 H :    0.125915
  28 H :    0.127389
  29 H :    0.137882
  30 H :    0.130780
  31 H :    0.122812
  32 H :    0.112449
  33 H :    0.113967
  34 H :    0.124215
  35 H :    0.128873
  36 H :    0.107649
  37 H :    0.121676
  38 H :    0.121746
  39 H :    0.129968
  40 H :    0.131506

  Mayer bond orders larger than 0.100000
B(  0-C ,  1-C ) :   1.1645 B(  0-C , 19-H ) :   0.9316 B(  0-C , 20-H ) :   0.9448
B(  0-C , 21-H ) :   0.9383 B(  1-C ,  2-O ) :   0.8920 B(  1-C , 22-H ) :   0.9360
B(  1-C , 23-H ) :   0.9117 B(  2-O ,  3-P ) :   1.1265 B(  3-P ,  4-S ) :   1.6400
B(  3-P ,  5-O ) :   1.0789 B(  3-P ,  8-S ) :   0.9425 B(  4-S ,  8-S ) :   0.1052
B(  5-O ,  6-C ) :   0.9168 B(  6-C ,  7-C ) :   1.1607 B(  6-C , 24-H ) :   0.8993
B(  6-C , 25-H ) :   0.9304 B(  7-C , 26-H ) :   0.9423 B(  7-C , 27-H ) :   0.9507
B(  7-C , 28-H ) :   0.9516 B(  8-S ,  9-C ) :   1.0033 B(  9-C , 10-S ) :   1.0073
B(  9-C , 29-H ) :   0.9106 B(  9-C , 30-H ) :   0.8583 B( 10-S , 11-P ) :   0.9265
B( 10-S , 12-S ) :   0.1071 B( 11-P , 12-S ) :   1.6333 B( 11-P , 13-O ) :   1.1590
B( 11-P , 16-O ) :   1.0857 B( 13-O , 14-C ) :   0.8973 B( 14-C , 15-C ) :   1.1685
B( 14-C , 31-H ) :   0.9304 B( 14-C , 32-H ) :   0.9298 B( 15-C , 33-H ) :   0.9413
B( 15-C , 34-H ) :   0.9365 B( 15-C , 35-H ) :   0.9362 B( 16-O , 17-C ) :   0.9109
B( 17-C , 18-C ) :   1.1673 B( 17-C , 36-H ) :   0.9255 B( 17-C , 37-H ) :   0.9335
B( 18-C , 38-H ) :   0.9307 B( 18-C , 39-H ) :   0.9347 B( 18-C , 40-H ) :   0.9435

Dispersion correction           -0.067950610
FINAL SINGLE POINT ENERGY     -2929.506387212924

DIPOLE MOMENT
-------------

Method             : SCF
Type of density    : Electron Density
Multiplicity       :   1
Irrep              :   0
Energy             : -2929.6239853521637997 Eh
Relativity type    :
Basis              : AO
                                X                 Y                 Z
Electronic contribution:     -5.683309739      -2.073058777      -1.636061321
Nuclear contribution   :      5.061999248       1.414314838       2.169136868
                        -----------------------------------------
Total Dipole Moment    :     -0.621310491      -0.658743938       0.533075547
                        -----------------------------------------
Magnitude (a.u.)       :      1.050780586
Magnitude (Debye)      :      2.670871993

Rotational constants in cm-1:             0.013513             0.005309             0.004788
Rotational constants in MHz :           405.095404           159.172025           143.539974

                             ****ORCA TERMINATED NORMALLY****
TOTAL RUN TIME: 0 days 0 hours 0 minutes 21 seconds 380 msec
