                         Program Version 6.0.0  -   RELEASE  -
|  1> ! pbe def2-sv(p) def2/J RI DEFGRID1 loosescf d4 GCP(DFT/SV(P)) printgap
|  2> %output
|  3>     printlevel normal
|  4> end
|  5> * xyz 0 1
|  6> C 0.605474829 1.6981171979 -0.0077728819
|  7> C 1.4026998207 0.4140806919 -0.2591236493
|  8> H 1.6120610917 0.3308423404 -1.3401872523
|  9> C 0.5555346196 -0.7909864927 0.1742208519
| 10> H 0.3986750246 -0.7432830901 1.2576070681
| 11> C -0.8055172156 -0.7454348735 -0.5325557307
| 12> H -0.6568931306 -0.8560736153 -1.6189975367
| 13> C -1.4718292379 0.6239528891 -0.2791020611
| 14> H -2.3694969833 0.715567924 -0.9102114912
| 15> O -0.6437221708 1.6699477009 -0.6831375947
| 16> O -1.8075441721 0.7661348803 1.0711164323
| 17> O -1.6810945522 -1.7330145487 -0.0507766173
| 18> O 1.2180846255 -2.0130950544 -0.0554226934
| 19> O 2.6074682222 0.4892237192 0.4600226908
| 20> H 1.1362852357 2.5623634093 -0.4043151969
| 21> H 0.4545355744 1.824022507 1.0695041663
| 22> H -2.3084262067 -0.0219626747 1.3368845779
| 23> H -1.1906391507 -2.5641128036 0.0533507345
| 24> H 1.411972136 -2.1090853445 -1.0003671943
| 25> H 2.9696512749 -0.4058544186 0.5581796106
| 26> *
| 27>
| 28>                          ****END OF INPUT****

CARTESIAN COORDINATES (ANGSTROEM)
---------------------------------
  C      0.605475    1.698117   -0.007773
  C      1.402700    0.414081   -0.259124
  H      1.612061    0.330842   -1.340187
  C      0.555535   -0.790986    0.174221
  H      0.398675   -0.743283    1.257607
  C     -0.805517   -0.745435   -0.532556
  H     -0.656893   -0.856074   -1.618998
  C     -1.471829    0.623953   -0.279102
  H     -2.369497    0.715568   -0.910211
  O     -0.643722    1.669948   -0.683138
  O     -1.807544    0.766135    1.071116
  O     -1.681095   -1.733015   -0.050777
  O      1.218085   -2.013095   -0.055423
  O      2.607468    0.489224    0.460023
  H      1.136285    2.562363   -0.404315
  H      0.454536    1.824023    1.069504
  H     -2.308426   -0.021963    1.336885
  H     -1.190639   -2.564113    0.053351
  H      1.411972   -2.109085   -1.000367
  H      2.969651   -0.405854    0.558180

 Total Charge           Charge          ....    0
 Multiplicity           Mult            ....    1
 Number of Electrons    NEL             ....   80
 Basis Dimension        Dim             ....  160

ORBITAL ENERGIES
----------------

  NO   OCC          E(Eh)            E(eV)
   0   2.0000     -18.779514      -511.0166
   1   2.0000     -18.769411      -510.7417
   2   2.0000     -18.768159      -510.7076
   3   2.0000     -18.755490      -510.3628
   4   2.0000     -18.753437      -510.3070
   5   2.0000      -9.986416      -271.7442
   6   2.0000      -9.950079      -270.7554
   7   2.0000      -9.948223      -270.7049
   8   2.0000      -9.946373      -270.6546
   9   2.0000      -9.931580      -270.2520
  10   2.0000      -0.982042       -26.7227
  11   2.0000      -0.960558       -26.1381
  12   2.0000      -0.940437       -25.5906
  13   2.0000      -0.924883       -25.1673
  14   2.0000      -0.908990       -24.7349
  15   2.0000      -0.705986       -19.2109
  16   2.0000      -0.680802       -18.5256
  17   2.0000      -0.595826       -16.2132
  18   2.0000      -0.578815       -15.7504
  19   2.0000      -0.532946       -14.5022
  20   2.0000      -0.505106       -13.7446
  21   2.0000      -0.477203       -12.9854
  22   2.0000      -0.470972       -12.8158
  23   2.0000      -0.468956       -12.7609
  24   2.0000      -0.437439       -11.9033
  25   2.0000      -0.420506       -11.4425
  26   2.0000      -0.414848       -11.2886
  27   2.0000      -0.385697       -10.4953
  28   2.0000      -0.370368       -10.0782
  29   2.0000      -0.354123        -9.6362
  30   2.0000      -0.329829        -8.9751
  31   2.0000      -0.310424        -8.4471
  32   2.0000      -0.305824        -8.3219
  33   2.0000      -0.297043        -8.0829
  34   2.0000      -0.281879        -7.6703
  35   2.0000      -0.261500        -7.1158
  36   2.0000      -0.243914        -6.6372
  37   2.0000      -0.232044        -6.3142
  38   2.0000      -0.219150        -5.9634
  39   2.0000      -0.214743        -5.8434
  40   0.0000       0.000149         0.0040
  41   0.0000       0.032498         0.8843
  42   0.0000       0.035652         0.9701
  43   0.0000       0.052315         1.4236
  44   0.0000       0.066577         1.8117

MULLIKEN ATOMIC CHARGES
-----------------------
   0 C :    0.098767
   1 C :    0.004104
   2 H :    0.043159
   3 C :    0.011471
   4 H :    0.070426
   5 C :    0.029314
   6 H :    0.049251
   7 C :    0.189819
   8 H :    0.070417
   9 O :   -0.305685
  10 O :   -0.412737
  11 O :   -0.421252
  12 O :   -0.420730
  13 O :   -0.413462
  14 H :    0.101849
  15 H :    0.086853
  16 H :    0.307622
  17 H :    0.308932
  18 H :    0.300240
  19 H :    0.301643
Sum of atomic charges:   -0.0000000

LOEWDIN ATOMIC CHARGES
----------------------
   0 C :   -0.111149
   1 C :   -0.084380
   2 H :    0.092665
   3 C :   -0.095372
   4 H :    0.120631
   5 C :   -0.102431
   6 H :    0.099098
   7 C :    0.011868
   8 H :    0.099332
   9 O :   -0.134869
  10 O :   -0.319723
  11 O :   -0.321949
  12 O :   -0.313988
  13 O :   -0.321414
  14 H :    0.122197
  15 H :    0.115572
  16 H :    0.289139
  17 H :    0.286927
  18 H :    0.285183
  19 H :    0.282663

  Mayer bond orders larger than 0.100000
B(  0-C ,  1-C ) :   1.0574 B(  0-C ,  9-O ) :   0.9972 B(  0-C , 14-H ) :   0.9246
B(  0-C , 15-H ) :   0.8919 B(  1-C ,  2-H ) :   0.8708 B(  1-C ,  3-C ) :   1.0312
B(  1-C , 13-O ) :   1.0860 B(  3-C ,  4-H ) :   0.8641 B(  3-C ,  5-C ) :   0.9911
B(  3-C , 12-O ) :   1.0188 B(  5-C ,  6-H ) :   0.8732 B(  5-C ,  7-C ) :   0.9919
B(  5-C , 11-O ) :   1.0783 B(  7-C ,  8-H ) :   0.9047 B(  7-C ,  9-O ) :   1.0898
B(  7-C , 10-O ) :   1.0453 B( 10-O , 16-H ) :   0.8217 B( 11-O , 17-H ) :   0.8316
B( 12-O , 18-H ) :   0.8458 B( 13-O , 19-H ) :   0.8346

Dispersion correction           -0.019228816
FINAL SINGLE POINT ENERGY      -571.419308234899

DIPOLE MOMENT
-------------

Method             : SCF
Type of density    : Electron Density
Multiplicity       :   1
Irrep              :   0
Energy             :  -571.5282850293306183 Eh
Relativity type    :
Basis              : AO
                                X                 Y                 Z
Electronic contribution:     -1.091700902      -0.015909188       0.402889791
Nuclear contribution   :      1.363048704      -1.201361489      -0.925822708
                        -----------------------------------------
Total Dipole Moment    :      0.271347802      -1.217270677      -0.522932916
                        -----------------------------------------
Magnitude (a.u.)       :      1.352344766
Magnitude (Debye)      :      3.437387222

Rotational constants in cm-1:             0.057031             0.044792             0.029076
Rotational constants in MHz :          1709.745266          1342.816404           871.675969

                             ****ORCA TERMINATED NORMALLY****
TOTAL RUN TIME: 0 days 0 hours 0 minutes 11 seconds 579 msec
