                         Program Version 6.0.0  -   RELEASE  -
|  1> ! pbe def2-sv(p) def2/J RI DEFGRID1 loosescf d4 GCP(DFT/SV(P)) printgap
|  2> %output
|  3>     printlevel normal
|  4> end
|  5> * xyz 0 1
|  6> C 1.8685298399 2.7801547123 -0.3210662293
|  7> C 2.731369529 2.5206678756 0.8962654361
|  8> O 3.095699013 1.1338516218 1.0185967121
|  9> P 2.0270009483 -0.0111649728 1.2931217334
| 10> S 0.5979578033 0.4203903386 2.5560369972
| 11> O 2.9226460564 -1.182361175 1.8573646026
| 12> C 4.1500021664 -1.6403555324 1.2294253829
| 13> C 3.9295959558 -2.9677335623 0.5310993211
| 14> S 1.4452249333 -0.6332420073 -0.6573509604
| 15> C 0.1514457505 -1.7965782053 -0.1199096645
| 16> S -1.2493810771 -1.8812061941 -1.2708254036
| 17> P -2.1930117434 -0.03159571 -0.9290919839
| 18> S -3.9152224288 0.2319338514 -1.8242313297
| 19> O -1.1391829069 1.1311148848 -1.2408908893
| 20> C -1.0585300118 1.734251919 -2.5439791277
| 21> C -0.465936622 0.7851075389 -3.5657109353
| 22> O -2.1779286634 -0.0436619563 0.6556837329
| 23> C -2.8110848525 1.0062359151 1.4212813172
| 24> C -4.1880445169 0.5705864294 1.8777479386
| 25> H 1.7146457791 3.8493466968 -0.4285571145
| 26> H 2.3494644151 2.3909025788 -1.2152829913
| 27> H 0.9011030137 2.2943062775 -0.1987087838
| 28> H 2.2099922876 2.8223478065 1.8100416988
| 29> H 3.6910434702 3.0353374082 0.8292985489
| 30> H 4.5037996228 -0.8759535758 0.5359129635
| 31> H 4.8551637513 -1.7414515631 2.0558277138
| 32> H 3.2860918672 -2.8465719472 -0.3366551351
| 33> H 4.8891354533 -3.3555706089 0.203731089
| 34> H 3.4750787033 -3.677795171 1.2169197935
| 35> H -0.2052236819 -1.4917839194 0.8648218932
| 36> H 0.5573035811 -2.8053586656 -0.1019268362
| 37> H -2.0661997504 2.0409597341 -2.8430434988
| 38> H -0.4296289971 2.6125396289 -2.3939799262
| 39> H -1.13605364 -0.0613477318 -3.7156932359
| 40> H -0.3407982795 1.3062971584 -4.5090845245
| 41> H 0.4974995161 0.413255899 -3.224787521
| 42> H -2.1382531075 1.1731462668 2.2657810527
| 43> H -2.8648805509 1.9121990189 0.8118927531
| 44> H -4.1163204966 -0.3507888774 2.4489222659
| 45> H -4.6194862126 1.3475236473 2.5005556583
| 46> H -4.8328383201 0.4028676201 1.0173114851
| 47> *
| 48>
| 49>                          ****END OF INPUT****

CARTESIAN COORDINATES (ANGSTROEM)
---------------------------------
  C      1.868530    2.780155   -0.321066
  C      2.731370    2.520668    0.896265
  O      3.095699    1.133852    1.018597
  P      2.027001   -0.011165    1.293122
  S      0.597958    0.420390    2.556037
  O      2.922646   -1.182361    1.857365
  C      4.150002   -1.640356    1.229425
  C      3.929596   -2.967734    0.531099
  S      1.445225   -0.633242   -0.657351
  C      0.151446   -1.796578   -0.119910
  S     -1.249381   -1.881206   -1.270825
  P     -2.193012   -0.031596   -0.929092
  S     -3.915222    0.231934   -1.824231
  O     -1.139183    1.131115   -1.240891
  C     -1.058530    1.734252   -2.543979
  C     -0.465937    0.785108   -3.565711
  O     -2.177929   -0.043662    0.655684
  C     -2.811085    1.006236    1.421281
  C     -4.188045    0.570586    1.877748
  H      1.714646    3.849347   -0.428557
  H      2.349464    2.390903   -1.215283
  H      0.901103    2.294306   -0.198709
  H      2.209992    2.822348    1.810042
  H      3.691043    3.035337    0.829299
  H      4.503800   -0.875954    0.535913
  H      4.855164   -1.741452    2.055828
  H      3.286092   -2.846572   -0.336655
  H      4.889135   -3.355571    0.203731
  H      3.475079   -3.677795    1.216920
  H     -0.205224   -1.491784    0.864822
  H      0.557304   -2.805359   -0.101927
  H     -2.066200    2.040960   -2.843043
  H     -0.429629    2.612540   -2.393980
  H     -1.136054   -0.061348   -3.715693
  H     -0.340798    1.306297   -4.509085
  H      0.497500    0.413256   -3.224788
  H     -2.138253    1.173146    2.265781
  H     -2.864881    1.912199    0.811893
  H     -4.116320   -0.350789    2.448922
  H     -4.619486    1.347524    2.500556
  H     -4.832838    0.402868    1.017311

 Total Charge           Charge          ....    0
 Multiplicity           Mult            ....    1
 Number of Electrons    NEL             ....  202
 Basis Dimension        Dim             ....  334

ORBITAL ENERGIES
----------------

  NO   OCC          E(Eh)            E(eV)
   0   2.0000     -88.046884     -2395.8775
   1   2.0000     -88.046709     -2395.8728
   2   2.0000     -87.990767     -2394.3505
   3   2.0000     -87.985803     -2394.2154
   4   2.0000     -76.431909     -2079.8180
   5   2.0000     -76.424177     -2079.6076
   6   2.0000     -18.802059      -511.6300
   7   2.0000     -18.794886      -511.4349
   8   2.0000     -18.788427      -511.2591
   9   2.0000     -18.786113      -511.1961
  10   2.0000      -9.961721      -271.0722
  11   2.0000      -9.960141      -271.0292
  12   2.0000      -9.958297      -270.9790
  13   2.0000      -9.948158      -270.7031
  14   2.0000      -9.945351      -270.6267
  15   2.0000      -9.892795      -269.1966
  16   2.0000      -9.889275      -269.1008
  17   2.0000      -9.880806      -268.8704
  18   2.0000      -9.874679      -268.7037
  19   2.0000      -7.692224      -209.3161
  20   2.0000      -7.691302      -209.2910
  21   2.0000      -7.635856      -207.7822
  22   2.0000      -7.630911      -207.6476
  23   2.0000      -6.429388      -174.9525
  24   2.0000      -6.422012      -174.7518
  25   2.0000      -5.720581      -155.6649
  26   2.0000      -5.719149      -155.6260
  27   2.0000      -5.716374      -155.5505
  28   2.0000      -5.716022      -155.5409
  29   2.0000      -5.709045      -155.3510
  30   2.0000      -5.708128      -155.3261
  31   2.0000      -5.664855      -154.1485
  32   2.0000      -5.659870      -154.0129
  33   2.0000      -5.656563      -153.9229
  34   2.0000      -5.655801      -153.9022
  35   2.0000      -5.651695      -153.7904
  36   2.0000      -5.650887      -153.7685
  37   2.0000      -4.652395      -126.5981
  38   2.0000      -4.651001      -126.5602
  39   2.0000      -4.649612      -126.5224
  40   2.0000      -4.644490      -126.3830
  41   2.0000      -4.643940      -126.3680
  42   2.0000      -4.642414      -126.3265
  43   2.0000      -0.994005       -27.0482
  44   2.0000      -0.982561       -26.7368
  45   2.0000      -0.950634       -25.8681
  46   2.0000      -0.940418       -25.5901
  47   2.0000      -0.764741       -20.8097
  48   2.0000      -0.725298       -19.7364
  49   2.0000      -0.709601       -19.3092
  50   2.0000      -0.695781       -18.9332
  51   2.0000      -0.683486       -18.5986
  52   2.0000      -0.676921       -18.4200
  53   2.0000      -0.654973       -17.8227
  54   2.0000      -0.639810       -17.4101
  55   2.0000      -0.600523       -16.3411
  56   2.0000      -0.589614       -16.0442
  57   2.0000      -0.582539       -15.8517
  58   2.0000      -0.568994       -15.4831
  59   2.0000      -0.560336       -15.2475
  60   2.0000      -0.508412       -13.8346
  61   2.0000      -0.497034       -13.5250
  62   2.0000      -0.478598       -13.0233
  63   2.0000      -0.465483       -12.6664
  64   2.0000      -0.456740       -12.4285
  65   2.0000      -0.450695       -12.2640
  66   2.0000      -0.449302       -12.2261
  67   2.0000      -0.436634       -11.8814
  68   2.0000      -0.434688       -11.8285
  69   2.0000      -0.418842       -11.3973
  70   2.0000      -0.413150       -11.2424
  71   2.0000      -0.402212       -10.9447
  72   2.0000      -0.394977       -10.7479
  73   2.0000      -0.386177       -10.5084
  74   2.0000      -0.378502       -10.2996
  75   2.0000      -0.374486       -10.1903
  76   2.0000      -0.367579       -10.0023
  77   2.0000      -0.363408        -9.8888
  78   2.0000      -0.356689        -9.7060
  79   2.0000      -0.353178        -9.6105
  80   2.0000      -0.350250        -9.5308
  81   2.0000      -0.343984        -9.3603
  82   2.0000      -0.342781        -9.3275
  83   2.0000      -0.334418        -9.1000
  84   2.0000      -0.328443        -8.9374
  85   2.0000      -0.321246        -8.7416
  86   2.0000      -0.312388        -8.5005
  87   2.0000      -0.307478        -8.3669
  88   2.0000      -0.299543        -8.1510
  89   2.0000      -0.292368        -7.9557
  90   2.0000      -0.287159        -7.8140
  91   2.0000      -0.275220        -7.4891
  92   2.0000      -0.271053        -7.3757
  93   2.0000      -0.266262        -7.2454
  94   2.0000      -0.265640        -7.2284
  95   2.0000      -0.230456        -6.2710
  96   2.0000      -0.223083        -6.0704
  97   2.0000      -0.211859        -5.7650
  98   2.0000      -0.207882        -5.6568
  99   2.0000      -0.202204        -5.5023
 100   2.0000      -0.199400        -5.4260
 101   0.0000      -0.043631        -1.1873
 102   0.0000      -0.030529        -0.8307
 103   0.0000      -0.023618        -0.6427
 104   0.0000       0.001643         0.0447
 105   0.0000       0.012920         0.3516

MULLIKEN ATOMIC CHARGES
-----------------------
   0 C :   -0.370249
   1 C :    0.012691
   2 O :   -0.381945
   3 P :    0.600597
   4 S :   -0.304510
   5 O :   -0.362509
   6 C :   -0.010454
   7 C :   -0.299703
   8 S :   -0.104468
   9 C :   -0.357988
  10 S :   -0.075051
  11 P :    0.619814
  12 S :   -0.322198
  13 O :   -0.370197
  14 C :   -0.010503
  15 C :   -0.321590
  16 O :   -0.370544
  17 C :   -0.007890
  18 C :   -0.288721
  19 H :    0.115595
  20 H :    0.117145
  21 H :    0.164379
  22 H :    0.113258
  23 H :    0.105582
  24 H :    0.108575
  25 H :    0.113444
  26 H :    0.123582
  27 H :    0.112106
  28 H :    0.121039
  29 H :    0.209445
  30 H :    0.181936
  31 H :    0.113117
  32 H :    0.106135
  33 H :    0.123305
  34 H :    0.110162
  35 H :    0.125093
  36 H :    0.118551
  37 H :    0.097387
  38 H :    0.114770
  39 H :    0.105893
  40 H :    0.124916
Sum of atomic charges:    0.0000000

LOEWDIN ATOMIC CHARGES
----------------------
   0 C :   -0.379437
   1 C :   -0.113869
   2 O :   -0.246767
   3 P :    0.572340
   4 S :   -0.295571
   5 O :   -0.243557
   6 C :   -0.111595
   7 C :   -0.362410
   8 S :    0.076528
   9 C :   -0.478383
  10 S :    0.101253
  11 P :    0.567615
  12 S :   -0.318508
  13 O :   -0.243931
  14 C :   -0.123871
  15 C :   -0.370667
  16 O :   -0.238055
  17 C :   -0.114275
  18 C :   -0.360830
  19 H :    0.131930
  20 H :    0.122622
  21 H :    0.127828
  22 H :    0.114018
  23 H :    0.119112
  24 H :    0.111197
  25 H :    0.123401
  26 H :    0.119511
  27 H :    0.131362
  28 H :    0.128868
  29 H :    0.128742
  30 H :    0.133312
  31 H :    0.108547
  32 H :    0.114940
  33 H :    0.120534
  34 H :    0.129570
  35 H :    0.117925
  36 H :    0.113577
  37 H :    0.107914
  38 H :    0.126676
  39 H :    0.127994
  40 H :    0.124409

  Mayer bond orders larger than 0.100000
B(  0-C ,  1-C ) :   1.1631 B(  0-C , 19-H ) :   0.9357 B(  0-C , 20-H ) :   0.9429
B(  0-C , 21-H ) :   0.9166 B(  1-C ,  2-O ) :   0.9024 B(  1-C , 22-H ) :   0.9189
B(  1-C , 23-H ) :   0.9328 B(  2-O ,  3-P ) :   1.0940 B(  3-P ,  4-S ) :   1.6304
B(  3-P ,  5-O ) :   1.1302 B(  3-P ,  8-S ) :   0.9519 B(  4-S ,  8-S ) :   0.1108
B(  5-O ,  6-C ) :   0.8911 B(  6-C ,  7-C ) :   1.1645 B(  6-C , 24-H ) :   0.9182
B(  6-C , 25-H ) :   0.9349 B(  7-C , 26-H ) :   0.9337 B(  7-C , 27-H ) :   0.9388
B(  7-C , 28-H ) :   0.9461 B(  8-S ,  9-C ) :   0.9802 B(  9-C , 10-S ) :   1.0028
B(  9-C , 29-H ) :   0.8557 B(  9-C , 30-H ) :   0.9067 B( 10-S , 11-P ) :   0.9675
B( 11-P , 12-S ) :   1.6434 B( 11-P , 13-O ) :   1.0713 B( 11-P , 16-O ) :   1.1229
B( 13-O , 14-C ) :   0.9068 B( 14-C , 15-C ) :   1.1644 B( 14-C , 31-H ) :   0.9115
B( 14-C , 32-H ) :   0.9268 B( 15-C , 33-H ) :   0.9352 B( 15-C , 34-H ) :   0.9385
B( 15-C , 35-H ) :   0.9398 B( 16-O , 17-C ) :   0.8880 B( 17-C , 18-C ) :   1.1702
B( 17-C , 36-H ) :   0.9209 B( 17-C , 37-H ) :   0.9167 B( 18-C , 38-H ) :   0.9472
B( 18-C , 39-H ) :   0.9409 B( 18-C , 40-H ) :   0.9356

Dispersion correction           -0.065942499
FINAL SINGLE POINT ENERGY     -2929.518752430065

DIPOLE MOMENT
-------------

Method             : SCF
Type of density    : Electron Density
Multiplicity       :   1
Irrep              :   0
Energy             : -2929.6396287445991220 Eh
Relativity type    :
Basis              : AO
                                X                 Y                 Z
Electronic contribution:     -7.909347654      -7.449002286       2.340372071
Nuclear contribution   :      9.829881679       7.982893864      -2.514605024
                        -----------------------------------------
Total Dipole Moment    :      1.920534025       0.533891579      -0.174232953
                        -----------------------------------------
Magnitude (a.u.)       :      2.000961839
Magnitude (Debye)      :      5.086040799

Rotational constants in cm-1:             0.011618             0.005195             0.005021
Rotational constants in MHz :           348.308964           155.732960           150.513888

                             ****ORCA TERMINATED NORMALLY****
TOTAL RUN TIME: 0 days 0 hours 0 minutes 21 seconds 690 msec
