                         Program Version 6.0.1  -  RELEASE   -
|  1> ! pbe def2-sv(p) def2/J RI DEFGRID1 loosescf d4 GCP(DFT/SV(P)) printgap
|  2> %output
|  3>     printlevel normal
|  4> end
|  5> * xyz 0 1
|  6> C 3.6853744955 -2.3227988777 1.3545757612
|  7> C 2.8962177878 -2.8715795185 0.1773699092
|  8> O 2.7976395002 -1.8854683284 -0.8716220156
|  9> C 1.8236058763 -1.0164475665 -0.8314887835
| 10> O 0.96623683 -0.998115663 0.0413569532
| 11> C 1.8438937417 -0.0438385619 -1.9785159221
| 12> C 0.7651912209 1.0093009072 -1.7930615461
| 13> H 0.7176698402 1.68368214 -2.6510146666
| 14> C 0.9506418111 1.8370022548 -0.5311377593
| 15> O 1.8545874487 1.6597910352 0.2570106176
| 16> O 0.0343677011 2.7702751097 -0.4412597029
| 17> C 0.0164002244 3.6450068819 0.7039164287
| 18> C -1.4235006689 3.836739547 1.142337422
| 19> S -0.9293193758 0.2855933413 -1.7915259902
| 20> P -1.3461277155 -0.5140003342 0.1237728274
| 21> S -1.424898366 -2.4360252627 0.5523272948
| 22> O -0.8612463412 0.4462524707 1.317089001
| 23> C 0.0183299045 0.0626421247 2.3705839697
| 24> O -2.8511344373 0.0515196686 -0.0423954342
| 25> C -3.9140215991 -0.315526463 0.8365473592
| 26> H 3.77170919 -3.0898760038 2.1167343024
| 27> H 4.6777036955 -2.0208636245 1.0318509524
| 28> H 3.1745790005 -1.4605815772 1.7784849729
| 29> H 1.8869333856 -3.1641967584 0.4821793316
| 30> H 3.4083179937 -3.712234982 -0.290120414
| 31> H 1.6791127008 -0.5909869818 -2.9080070112
| 32> H 2.8315712122 0.4191733977 -2.0175927176
| 33> H 0.6289738832 3.200809905 1.4935095777
| 34> H 0.4632134254 4.5904049347 0.3849426937
| 35> H -2.0045758455 4.2642543021 0.3307584943
| 36> H -1.8598264554 2.8782410393 1.4130372208
| 37> H -1.4540476988 4.5006771551 1.9997778888
| 38> H 1.0255040107 0.4132942063 2.1444922946
| 39> H 0.0208821267 -1.0228603051 2.4815326061
| 40> H -0.3619779775 0.5377252857 3.2726193939
| 41> H -3.834445471 0.2372974438 1.772611379
| 42> H -3.881120272 -1.3885950261 1.0394994707
| 43> H -4.8321018902 -0.0560034854 0.3153990059
| 44> *
| 45>
| 46>                          ****END OF INPUT****

CARTESIAN COORDINATES (ANGSTROEM)
---------------------------------
  C      3.685374   -2.322799    1.354576
  C      2.896218   -2.871580    0.177370
  O      2.797640   -1.885468   -0.871622
  C      1.823606   -1.016448   -0.831489
  O      0.966237   -0.998116    0.041357
  C      1.843894   -0.043839   -1.978516
  C      0.765191    1.009301   -1.793062
  H      0.717670    1.683682   -2.651015
  C      0.950642    1.837002   -0.531138
  O      1.854587    1.659791    0.257011
  O      0.034368    2.770275   -0.441260
  C      0.016400    3.645007    0.703916
  C     -1.423501    3.836740    1.142337
  S     -0.929319    0.285593   -1.791526
  P     -1.346128   -0.514000    0.123773
  S     -1.424898   -2.436025    0.552327
  O     -0.861246    0.446252    1.317089
  C      0.018330    0.062642    2.370584
  O     -2.851134    0.051520   -0.042395
  C     -3.914022   -0.315526    0.836547
  H      3.771709   -3.089876    2.116734
  H      4.677704   -2.020864    1.031851
  H      3.174579   -1.460582    1.778485
  H      1.886933   -3.164197    0.482179
  H      3.408318   -3.712235   -0.290120
  H      1.679113   -0.590987   -2.908007
  H      2.831571    0.419173   -2.017593
  H      0.628974    3.200810    1.493510
  H      0.463213    4.590405    0.384943
  H     -2.004576    4.264254    0.330758
  H     -1.859826    2.878241    1.413037
  H     -1.454048    4.500677    1.999778
  H      1.025504    0.413294    2.144492
  H      0.020882   -1.022860    2.481533
  H     -0.361978    0.537725    3.272619
  H     -3.834445    0.237297    1.772611
  H     -3.881120   -1.388595    1.039499
  H     -4.832102   -0.056003    0.315399

 Total Charge           Charge          ....    0
 Multiplicity           Mult            ....    1
 Number of Electrons    NEL             ....  174
 Basis Dimension        Dim             ....  316

ORBITAL ENERGIES
----------------

  NO   OCC          E(Eh)            E(eV)
   0   2.0000     -88.031747     -2395.4656
   1   2.0000     -87.961870     -2393.5642
   2   2.0000     -76.415597     -2079.3741
   3   2.0000     -18.816871      -512.0331
   4   2.0000     -18.808322      -511.8005
   5   2.0000     -18.783554      -511.1265
   6   2.0000     -18.765345      -510.6310
   7   2.0000     -18.759910      -510.4831
   8   2.0000     -18.746033      -510.1055
   9   2.0000     -10.027328      -272.8575
  10   2.0000     -10.022389      -272.7231
  11   2.0000      -9.952716      -270.8272
  12   2.0000      -9.952499      -270.8213
  13   2.0000      -9.949635      -270.7433
  14   2.0000      -9.927995      -270.1545
  15   2.0000      -9.924457      -270.0582
  16   2.0000      -9.920529      -269.9513
  17   2.0000      -9.890917      -269.1455
  18   2.0000      -9.883436      -268.9420
  19   2.0000      -7.676529      -208.8890
  20   2.0000      -7.607201      -207.0025
  21   2.0000      -6.410815      -174.4471
  22   2.0000      -5.705297      -155.2490
  23   2.0000      -5.700965      -155.1311
  24   2.0000      -5.692687      -154.9059
  25   2.0000      -5.636447      -153.3755
  26   2.0000      -5.627916      -153.1434
  27   2.0000      -5.626852      -153.1144
  28   2.0000      -4.633870      -126.0940
  29   2.0000      -4.632863      -126.0666
  30   2.0000      -4.631082      -126.0182
  31   2.0000      -1.027932       -27.9714
  32   2.0000      -1.017790       -27.6955
  33   2.0000      -0.966051       -26.2876
  34   2.0000      -0.935383       -25.4531
  35   2.0000      -0.923513       -25.1301
  36   2.0000      -0.921630       -25.0788
  37   2.0000      -0.765642       -20.8342
  38   2.0000      -0.720755       -19.6127
  39   2.0000      -0.704411       -19.1680
  40   2.0000      -0.690172       -18.7805
  41   2.0000      -0.652815       -17.7640
  42   2.0000      -0.621463       -16.9109
  43   2.0000      -0.612750       -16.6738
  44   2.0000      -0.606352       -16.4997
  45   2.0000      -0.602166       -16.3858
  46   2.0000      -0.562994       -15.3199
  47   2.0000      -0.511637       -13.9223
  48   2.0000      -0.508566       -13.8388
  49   2.0000      -0.497410       -13.5352
  50   2.0000      -0.488964       -13.3054
  51   2.0000      -0.471864       -12.8401
  52   2.0000      -0.460363       -12.5271
  53   2.0000      -0.452297       -12.3076
  54   2.0000      -0.444949       -12.1077
  55   2.0000      -0.437274       -11.8988
  56   2.0000      -0.420482       -11.4419
  57   2.0000      -0.416118       -11.3231
  58   2.0000      -0.409948       -11.1553
  59   2.0000      -0.401470       -10.9246
  60   2.0000      -0.397602       -10.8193
  61   2.0000      -0.391619       -10.6565
  62   2.0000      -0.387788       -10.5522
  63   2.0000      -0.383558       -10.4371
  64   2.0000      -0.380492       -10.3537
  65   2.0000      -0.365824        -9.9546
  66   2.0000      -0.361347        -9.8328
  67   2.0000      -0.355142        -9.6639
  68   2.0000      -0.350096        -9.5266
  69   2.0000      -0.340735        -9.2719
  70   2.0000      -0.337331        -9.1793
  71   2.0000      -0.327210        -8.9038
  72   2.0000      -0.322637        -8.7794
  73   2.0000      -0.308479        -8.3942
  74   2.0000      -0.302603        -8.2343
  75   2.0000      -0.298401        -8.1199
  76   2.0000      -0.289697        -7.8831
  77   2.0000      -0.276098        -7.5130
  78   2.0000      -0.269206        -7.3255
  79   2.0000      -0.264093        -7.1863
  80   2.0000      -0.258065        -7.0223
  81   2.0000      -0.251013        -6.8304
  82   2.0000      -0.241050        -6.5593
  83   2.0000      -0.232772        -6.3340
  84   2.0000      -0.209057        -5.6887
  85   2.0000      -0.181931        -4.9506
  86   2.0000      -0.174497        -4.7483
  87   0.0000      -0.047918        -1.3039
  88   0.0000      -0.044816        -1.2195
  89   0.0000      -0.023370        -0.6359
  90   0.0000       0.001355         0.0369
  91   0.0000       0.035245         0.9591

MULLIKEN ATOMIC CHARGES
-----------------------
   0 C :   -0.313189
   1 C :   -0.024944
   2 O :   -0.217212
   3 C :    0.162280
   4 O :   -0.224367
   5 C :   -0.043104
   6 C :   -0.324502
   7 H :    0.149272
   8 C :    0.196094
   9 O :   -0.197159
  10 O :   -0.217563
  11 C :   -0.024067
  12 C :   -0.295604
  13 S :   -0.063674
  14 P :    0.665603
  15 S :   -0.344828
  16 O :   -0.400667
  17 C :   -0.123428
  18 O :   -0.399160
  19 C :   -0.099800
  20 H :    0.117462
  21 H :    0.115423
  22 H :    0.135332
  23 H :    0.132064
  24 H :    0.107425
  25 H :    0.128620
  26 H :    0.126232
  27 H :    0.114847
  28 H :    0.103486
  29 H :    0.114866
  30 H :    0.135800
  31 H :    0.106115
  32 H :    0.144760
  33 H :    0.118037
  34 H :    0.108989
  35 H :    0.101407
  36 H :    0.113368
  37 H :    0.115787
Sum of atomic charges:   -0.0000000

LOEWDIN ATOMIC CHARGES
----------------------
   0 C :   -0.354769
   1 C :   -0.109088
   2 O :   -0.038567
   3 C :    0.059909
   4 O :   -0.160978
   5 C :   -0.250295
   6 C :   -0.264995
   7 H :    0.151688
   8 C :    0.012006
   9 O :   -0.160739
  10 O :   -0.046148
  11 C :   -0.105394
  12 C :   -0.354795
  13 S :    0.125732
  14 P :    0.591191
  15 S :   -0.342893
  16 O :   -0.249252
  17 C :   -0.227206
  18 O :   -0.274636
  19 C :   -0.221015
  20 H :    0.133281
  21 H :    0.125776
  22 H :    0.131748
  23 H :    0.127209
  24 H :    0.120654
  25 H :    0.150327
  26 H :    0.150773
  27 H :    0.119289
  28 H :    0.116295
  29 H :    0.127022
  30 H :    0.130630
  31 H :    0.127447
  32 H :    0.112453
  33 H :    0.107567
  34 H :    0.112458
  35 H :    0.105548
  36 H :    0.104412
  37 H :    0.117356

  Mayer bond orders larger than 0.100000
B(  0-C ,  1-C ) :   1.1732 B(  0-C , 20-H ) :   0.9430 B(  0-C , 21-H ) :   0.9477
B(  0-C , 22-H ) :   0.9428 B(  1-C ,  2-O ) :   0.8974 B(  1-C , 23-H ) :   0.9091
B(  1-C , 24-H ) :   0.9365 B(  2-O ,  3-C ) :   1.2843 B(  3-C ,  4-O ) :   1.8322
B(  3-C ,  5-C ) :   1.0211 B(  4-O , 14-P ) :   0.1544 B(  5-C ,  6-C ) :   1.0193
B(  5-C , 25-H ) :   0.8814 B(  5-C , 26-H ) :   0.8767 B(  6-C ,  7-H ) :   0.8763
B(  6-C ,  8-C ) :   0.8934 B(  6-C , 13-S ) :   1.0182 B(  8-C ,  9-O ) :   2.0311
B(  8-C , 10-O ) :   1.2622 B(  9-O , 10-O ) :   0.1011 B( 10-O , 11-C ) :   0.9007
B( 11-C , 12-C ) :   1.1682 B( 11-C , 27-H ) :   0.9129 B( 11-C , 28-H ) :   0.9359
B( 12-C , 29-H ) :   0.9474 B( 12-C , 30-H ) :   0.9380 B( 12-C , 31-H ) :   0.9429
B( 13-S , 14-P ) :   0.9502 B( 14-P , 15-S ) :   1.5749 B( 14-P , 16-O ) :   1.0370
B( 14-P , 18-O ) :   1.0424 B( 16-O , 17-C ) :   0.9276 B( 17-C , 32-H ) :   0.9284
B( 17-C , 33-H ) :   0.9273 B( 17-C , 34-H ) :   0.9513 B( 18-O , 19-C ) :   0.9483
B( 19-C , 35-H ) :   0.9513 B( 19-C , 36-H ) :   0.9263 B( 19-C , 37-H ) :   0.9599

Dispersion correction           -0.055623021
FINAL SINGLE POINT ENERGY     -1979.004817789841

DIPOLE MOMENT
-------------

Method             : SCF
Type of density    : Electron Density
Multiplicity       :   1
Irrep              :   0
Energy             : -1979.1367345230942192 Eh
Relativity type    :
Basis              : AO
                                X                 Y                 Z
Electronic contribution:     -5.887399435      -5.481212075     -13.021397569
Nuclear contribution   :      6.983175912       6.386616910      13.242437622
                        -----------------------------------------
Total Dipole Moment    :      1.095776477       0.905404835       0.221040053
                        -----------------------------------------
Magnitude (a.u.)       :      1.438521014
Magnitude (Debye)      :      3.656429837

Rotational constants in cm-1:             0.012372             0.009240             0.007169
Rotational constants in MHz :           370.908042           277.001303           214.921079

                             ****ORCA TERMINATED NORMALLY****
TOTAL RUN TIME: 0 days 0 hours 0 minutes 43 seconds 883 msec
