                         Program Version 6.0.1  -  RELEASE   -
|  1> ! pbe def2-sv(p) def2/J RI DEFGRID1 loosescf d4 GCP(DFT/SV(P)) printgap
|  2> %output
|  3>     printlevel normal
|  4> end
|  5> * xyz 0 1
|  6> C 3.1288647852 -3.8770990221 -0.9347642314
|  7> C 3.9546275988 -2.6028925262 -1.0098819458
|  8> O 3.2203555807 -1.5630882808 -1.6862082451
|  9> C 2.413538747 -0.8027041567 -0.9865910433
| 10> O 2.2584002165 -0.8739941499 0.217803586
| 11> C 1.6948876935 0.2165728776 -1.8454300975
| 12> C 0.4151145467 0.6349698522 -1.1353926888
| 13> H -0.0465129975 1.4983656946 -1.6219612838
| 14> C 0.6812196937 0.9879145356 0.3139486548
| 15> O -0.026738809 0.5868420838 1.2228095721
| 16> O 1.6503157269 1.8458663337 0.4531729232
| 17> C 1.9620052818 2.2906630845 1.7912582035
| 18> C 3.0185787032 3.3717973335 1.6886144236
| 19> S -0.795151828 -0.7378242402 -1.1486528499
| 20> P -2.206767677 -0.0246985322 0.2627780762
| 21> S -2.5183627458 1.9155885547 0.3941376095
| 22> O -3.5017959015 -0.7630371069 -0.3414805818
| 23> C -4.0669482185 -0.3659507299 -1.5925799017
| 24> O -2.2266880012 -0.921384838 1.5726268519
| 25> C -1.8967845841 -0.4966592625 2.8947516471
| 26> H 2.8344919885 -4.1916100882 -1.9319688335
| 27> H 3.7169147722 -4.6612006014 -0.4694113421
| 28> H 2.2326713834 -3.7079129957 -0.3410874135
| 29> H 4.8499906132 -2.7431829702 -1.6152422528
| 30> H 4.2193051808 -2.2517896847 -0.0085631331
| 31> H 1.4819295124 -0.2091770178 -2.8245021783
| 32> H 2.345378088 1.0854895988 -1.9651289141
| 33> H 1.0400197895 2.6590036625 2.2519926328
| 34> H 2.3141131907 1.4225816064 2.3568311812
| 35> H 2.646292174 4.20021988 1.0936521529
| 36> H 3.2606138845 3.7272368216 2.6845201129
| 37> H 3.9149119924 2.9750873711 1.2220826133
| 38> H -3.4218449662 -0.6787242727 -2.4142060235
| 39> H -4.2009189939 0.7177131354 -1.6152015489
| 40> H -5.0296234603 -0.8674201728 -1.6497860066
| 41> H -2.5874737578 -1.0190495803 3.5535308373
| 42> H -2.0196222081 0.5831195405 2.9911174782
| 43> H -0.8656418056 -0.7678024378 3.1147135751
| 44> *
| 45>
| 46>                          ****END OF INPUT****

CARTESIAN COORDINATES (ANGSTROEM)
---------------------------------
  C      3.128865   -3.877099   -0.934764
  C      3.954628   -2.602893   -1.009882
  O      3.220356   -1.563088   -1.686208
  C      2.413539   -0.802704   -0.986591
  O      2.258400   -0.873994    0.217804
  C      1.694888    0.216573   -1.845430
  C      0.415115    0.634970   -1.135393
  H     -0.046513    1.498366   -1.621961
  C      0.681220    0.987915    0.313949
  O     -0.026739    0.586842    1.222810
  O      1.650316    1.845866    0.453173
  C      1.962005    2.290663    1.791258
  C      3.018579    3.371797    1.688614
  S     -0.795152   -0.737824   -1.148653
  P     -2.206768   -0.024699    0.262778
  S     -2.518363    1.915589    0.394138
  O     -3.501796   -0.763037   -0.341481
  C     -4.066948   -0.365951   -1.592580
  O     -2.226688   -0.921385    1.572627
  C     -1.896785   -0.496659    2.894752
  H      2.834492   -4.191610   -1.931969
  H      3.716915   -4.661201   -0.469411
  H      2.232671   -3.707913   -0.341087
  H      4.849991   -2.743183   -1.615242
  H      4.219305   -2.251790   -0.008563
  H      1.481930   -0.209177   -2.824502
  H      2.345378    1.085490   -1.965129
  H      1.040020    2.659004    2.251993
  H      2.314113    1.422582    2.356831
  H      2.646292    4.200220    1.093652
  H      3.260614    3.727237    2.684520
  H      3.914912    2.975087    1.222083
  H     -3.421845   -0.678724   -2.414206
  H     -4.200919    0.717713   -1.615202
  H     -5.029623   -0.867420   -1.649786
  H     -2.587474   -1.019050    3.553531
  H     -2.019622    0.583120    2.991117
  H     -0.865642   -0.767802    3.114714

 Total Charge           Charge          ....    0
 Multiplicity           Mult            ....    1
 Number of Electrons    NEL             ....  174
 Basis Dimension        Dim             ....  316

ORBITAL ENERGIES
----------------

  NO   OCC          E(Eh)            E(eV)
   0   2.0000     -88.029575     -2395.4065
   1   2.0000     -87.961925     -2393.5657
   2   2.0000     -76.412168     -2079.2808
   3   2.0000     -18.819480      -512.1041
   4   2.0000     -18.813677      -511.9462
   5   2.0000     -18.770284      -510.7654
   6   2.0000     -18.762873      -510.5637
   7   2.0000     -18.755046      -510.3508
   8   2.0000     -18.747031      -510.1326
   9   2.0000     -10.026517      -272.8354
  10   2.0000     -10.022092      -272.7150
  11   2.0000      -9.959399      -271.0090
  12   2.0000      -9.952879      -270.8316
  13   2.0000      -9.947644      -270.6892
  14   2.0000      -9.925208      -270.0786
  15   2.0000      -9.924601      -270.0621
  16   2.0000      -9.922996      -270.0185
  17   2.0000      -9.894248      -269.2362
  18   2.0000      -9.893584      -269.2181
  19   2.0000      -7.674544      -208.8350
  20   2.0000      -7.607191      -207.0022
  21   2.0000      -6.407164      -174.3478
  22   2.0000      -5.702515      -155.1733
  23   2.0000      -5.699142      -155.0815
  24   2.0000      -5.691354      -154.8696
  25   2.0000      -5.636343      -153.3727
  26   2.0000      -5.628139      -153.1494
  27   2.0000      -5.626764      -153.1120
  28   2.0000      -4.629651      -125.9792
  29   2.0000      -4.629292      -125.9694
  30   2.0000      -4.627842      -125.9300
  31   2.0000      -1.029100       -28.0032
  32   2.0000      -1.022912       -27.8349
  33   2.0000      -0.962901       -26.2019
  34   2.0000      -0.932993       -25.3880
  35   2.0000      -0.926359       -25.2075
  36   2.0000      -0.915784       -24.9197
  37   2.0000      -0.767804       -20.8930
  38   2.0000      -0.720896       -19.6166
  39   2.0000      -0.711957       -19.3733
  40   2.0000      -0.686198       -18.6724
  41   2.0000      -0.654401       -17.8071
  42   2.0000      -0.623637       -16.9700
  43   2.0000      -0.610829       -16.6215
  44   2.0000      -0.602220       -16.3872
  45   2.0000      -0.601077       -16.3561
  46   2.0000      -0.561782       -15.2869
  47   2.0000      -0.517114       -14.0714
  48   2.0000      -0.510443       -13.8899
  49   2.0000      -0.495858       -13.4930
  50   2.0000      -0.490699       -13.3526
  51   2.0000      -0.464040       -12.6272
  52   2.0000      -0.455618       -12.3980
  53   2.0000      -0.455053       -12.3826
  54   2.0000      -0.447099       -12.1662
  55   2.0000      -0.431247       -11.7348
  56   2.0000      -0.429781       -11.6949
  57   2.0000      -0.417146       -11.3511
  58   2.0000      -0.405021       -11.0212
  59   2.0000      -0.401929       -10.9371
  60   2.0000      -0.393336       -10.7032
  61   2.0000      -0.392428       -10.6785
  62   2.0000      -0.390062       -10.6141
  63   2.0000      -0.376097       -10.2341
  64   2.0000      -0.374826       -10.1995
  65   2.0000      -0.369036       -10.0420
  66   2.0000      -0.363996        -9.9048
  67   2.0000      -0.360823        -9.8185
  68   2.0000      -0.354516        -9.6469
  69   2.0000      -0.348090        -9.4720
  70   2.0000      -0.335718        -9.1353
  71   2.0000      -0.332135        -9.0379
  72   2.0000      -0.323565        -8.8046
  73   2.0000      -0.313254        -8.5241
  74   2.0000      -0.306766        -8.3475
  75   2.0000      -0.299170        -8.1408
  76   2.0000      -0.284829        -7.7506
  77   2.0000      -0.279537        -7.6066
  78   2.0000      -0.272632        -7.4187
  79   2.0000      -0.266198        -7.2436
  80   2.0000      -0.252260        -6.8643
  81   2.0000      -0.241142        -6.5618
  82   2.0000      -0.238252        -6.4832
  83   2.0000      -0.231387        -6.2964
  84   2.0000      -0.212588        -5.7848
  85   2.0000      -0.184923        -5.0320
  86   2.0000      -0.174600        -4.7511
  87   0.0000      -0.042601        -1.1592
  88   0.0000      -0.030593        -0.8325
  89   0.0000      -0.024198        -0.6585
  90   0.0000       0.012392         0.3372
  91   0.0000       0.032659         0.8887

MULLIKEN ATOMIC CHARGES
-----------------------
   0 C :   -0.306896
   1 C :   -0.016161
   2 O :   -0.218808
   3 C :    0.120071
   4 O :   -0.196781
   5 C :   -0.095924
   6 C :   -0.281890
   7 H :    0.147593
   8 C :    0.245041
   9 O :   -0.210438
  10 O :   -0.229469
  11 C :   -0.028763
  12 C :   -0.276196
  13 S :   -0.103384
  14 P :    0.633760
  15 S :   -0.367467
  16 O :   -0.380075
  17 C :   -0.097090
  18 O :   -0.368102
  19 C :   -0.081148
  20 H :    0.118291
  21 H :    0.116856
  22 H :    0.136596
  23 H :    0.107572
  24 H :    0.111243
  25 H :    0.128813
  26 H :    0.139555
  27 H :    0.119220
  28 H :    0.112967
  29 H :    0.119395
  30 H :    0.114497
  31 H :    0.113792
  32 H :    0.103397
  33 H :    0.108427
  34 H :    0.117289
  35 H :    0.115063
  36 H :    0.111993
  37 H :    0.117160
Sum of atomic charges:   -0.0000000

LOEWDIN ATOMIC CHARGES
----------------------
   0 C :   -0.354765
   1 C :   -0.109181
   2 O :   -0.047865
   3 C :    0.038303
   4 O :   -0.148845
   5 C :   -0.250608
   6 C :   -0.260078
   7 H :    0.145733
   8 C :    0.023939
   9 O :   -0.156790
  10 O :   -0.043730
  11 C :   -0.101963
  12 C :   -0.350600
  13 S :    0.092956
  14 P :    0.590944
  15 S :   -0.361726
  16 O :   -0.263523
  17 C :   -0.223400
  18 O :   -0.237914
  19 C :   -0.207536
  20 H :    0.127150
  21 H :    0.132645
  22 H :    0.134976
  23 H :    0.120062
  24 H :    0.120981
  25 H :    0.142814
  26 H :    0.155190
  27 H :    0.123094
  28 H :    0.121334
  29 H :    0.128686
  30 H :    0.132859
  31 H :    0.125822
  32 H :    0.100407
  33 H :    0.104898
  34 H :    0.118232
  35 H :    0.115294
  36 H :    0.108740
  37 H :    0.113466

  Mayer bond orders larger than 0.100000
B(  0-C ,  1-C ) :   1.1753 B(  0-C , 20-H ) :   0.9484 B(  0-C , 21-H ) :   0.9434
B(  0-C , 22-H ) :   0.9447 B(  1-C ,  2-O ) :   0.9052 B(  1-C , 23-H ) :   0.9364
B(  1-C , 24-H ) :   0.9143 B(  2-O ,  3-C ) :   1.2648 B(  3-C ,  4-O ) :   1.9744
B(  3-C ,  5-C ) :   0.9908 B(  4-O ,  8-C ) :   0.1162 B(  5-C ,  6-C ) :   1.0574
B(  5-C , 25-H ) :   0.9034 B(  5-C , 26-H ) :   0.8743 B(  6-C ,  7-H ) :   0.8606
B(  6-C ,  8-C ) :   0.8951 B(  6-C , 13-S ) :   1.0365 B(  8-C ,  9-O ) :   1.8930
B(  8-C , 10-O ) :   1.2621 B(  9-O , 14-P ) :   0.1441 B( 10-O , 11-C ) :   0.8956
B( 11-C , 12-C ) :   1.1551 B( 11-C , 27-H ) :   0.9287 B( 11-C , 28-H ) :   0.9300
B( 12-C , 29-H ) :   0.9500 B( 12-C , 30-H ) :   0.9429 B( 12-C , 31-H ) :   0.9498
B( 13-S , 14-P ) :   0.9241 B( 13-S , 15-S ) :   0.1116 B( 14-P , 15-S ) :   1.5587
B( 14-P , 16-O ) :   1.0699 B( 14-P , 18-O ) :   1.1347 B( 16-O , 17-C ) :   0.9509
B( 17-C , 32-H ) :   0.9435 B( 17-C , 33-H ) :   0.9316 B( 17-C , 34-H ) :   0.9597
B( 18-O , 19-C ) :   0.9308 B( 19-C , 35-H ) :   0.9538 B( 19-C , 36-H ) :   0.9381
B( 19-C , 37-H ) :   0.9531

Dispersion correction           -0.051290913
FINAL SINGLE POINT ENERGY     -1979.011698913104

DIPOLE MOMENT
-------------

Method             : SCF
Type of density    : Electron Density
Multiplicity       :   1
Irrep              :   0
Energy             : -1979.1433235953732037 Eh
Relativity type    :
Basis              : AO
                                X                 Y                 Z
Electronic contribution:    -15.546030029       1.832065025      -2.871250515
Nuclear contribution   :     17.741413403      -2.128270962       2.445913624
                        -----------------------------------------
Total Dipole Moment    :      2.195383374      -0.296205937      -0.425336891
                        -----------------------------------------
Magnitude (a.u.)       :      2.255738812
Magnitude (Debye)      :      5.733632401

Rotational constants in cm-1:             0.012416             0.007128             0.005596
Rotational constants in MHz :           372.225287           213.683088           167.769735

                             ****ORCA TERMINATED NORMALLY****
TOTAL RUN TIME: 0 days 0 hours 0 minutes 32 seconds 751 msec
