                         Program Version 6.0.0  -   RELEASE  -
|  1> ! pbe def2-sv(p) def2/J RI DEFGRID1 loosescf d4 GCP(DFT/SV(P)) printgap
|  2> %output
|  3>     printlevel normal
|  4> end
|  5> * xyz 0 1
|  6> C 4.0578860916 -0.5939245744 -2.3088605234
|  7> C 4.3774394397 -0.7876819049 -0.8402963411
|  8> O 3.1880612947 -0.8334300555 -0.0370652831
|  9> P 2.3336084934 0.4835122716 0.2619987082
| 10> S 3.3869332839 2.1276803652 0.427744242
| 11> O 1.459111082 0.0170466928 1.4975995
| 12> C 1.9650486844 -0.7202569434 2.6338601994
| 13> C 2.9663329685 0.0853509708 3.4342276591
| 14> S 0.8116048752 0.5759094346 -1.2055472652
| 15> C 0.1813477255 -1.1271995407 -1.0516472728
| 16> S -1.0206793531 -1.3327146673 0.2780294253
| 17> P -2.5050774989 -0.0393567167 -0.5349366734
| 18> S -2.6263156709 -0.0927494482 -2.4899965683
| 19> O -2.2185051991 1.4467369789 -0.0835086322
| 20> C -2.4722481518 2.0223252967 1.2194633395
| 21> C -1.6448802946 1.3835468809 2.3154988159
| 22> O -3.8009207644 -0.3833675199 0.3170785916
| 23> C -4.3016438489 -1.7114028539 0.5655264286
| 24> C -4.5712627564 -2.4853237848 -0.7073511447
| 25> H 3.3871209793 -1.3724837452 -2.6632848127
| 26> H 3.5820605641 0.3750584307 -2.4590634616
| 27> H 4.9776096779 -0.6247131231 -2.8840358886
| 28> H 5.0094369053 0.0291471256 -0.477089675
| 29> H 4.862660114 -1.7468601905 -0.6544713286
| 30> H 1.0658907394 -0.9390454971 3.2121142554
| 31> H 2.40856185 -1.6499920039 2.2727415381
| 32> H 3.8433532336 0.3048329179 2.826620939
| 33> H 2.5280457911 1.0278111934 3.7531968357
| 34> H 3.2713159587 -0.483040183 4.3071474514
| 35> H 1.0030277838 -1.8093306415 -0.8494931599
| 36> H -0.3020497596 -1.3458575798 -2.004036237
| 37> H -2.2082135725 3.0722613091 1.0804764006
| 38> H -3.5396301164 1.9316769033 1.4296576144
| 39> H -1.9489798785 0.3504105639 2.4713188509
| 40> H -0.589029367 1.4041470419 2.0526261321
| 41> H -1.7909911772 1.9393889358 3.2365515194
| 42> H -3.5756649397 -2.2381666549 1.1909274729
| 43> H -5.2203217397 -1.5358250552 1.1281825221
| 44> H -3.6410267941 -2.6609665056 -1.2451499471
| 45> H -5.0240143722 -3.4398039586 -0.4591223939
| 46> H -5.2403222802 -1.9265088648 -1.3573141418
| 47> *
| 48>
| 49>                          ****END OF INPUT****

CARTESIAN COORDINATES (ANGSTROEM)
---------------------------------
  C      4.057886   -0.593925   -2.308861
  C      4.377439   -0.787682   -0.840296
  O      3.188061   -0.833430   -0.037065
  P      2.333608    0.483512    0.261999
  S      3.386933    2.127680    0.427744
  O      1.459111    0.017047    1.497599
  C      1.965049   -0.720257    2.633860
  C      2.966333    0.085351    3.434228
  S      0.811605    0.575909   -1.205547
  C      0.181348   -1.127200   -1.051647
  S     -1.020679   -1.332715    0.278029
  P     -2.505077   -0.039357   -0.534937
  S     -2.626316   -0.092749   -2.489997
  O     -2.218505    1.446737   -0.083509
  C     -2.472248    2.022325    1.219463
  C     -1.644880    1.383547    2.315499
  O     -3.800921   -0.383368    0.317079
  C     -4.301644   -1.711403    0.565526
  C     -4.571263   -2.485324   -0.707351
  H      3.387121   -1.372484   -2.663285
  H      3.582061    0.375058   -2.459063
  H      4.977610   -0.624713   -2.884036
  H      5.009437    0.029147   -0.477090
  H      4.862660   -1.746860   -0.654471
  H      1.065891   -0.939045    3.212114
  H      2.408562   -1.649992    2.272742
  H      3.843353    0.304833    2.826621
  H      2.528046    1.027811    3.753197
  H      3.271316   -0.483040    4.307147
  H      1.003028   -1.809331   -0.849493
  H     -0.302050   -1.345858   -2.004036
  H     -2.208214    3.072261    1.080476
  H     -3.539630    1.931677    1.429658
  H     -1.948980    0.350411    2.471319
  H     -0.589029    1.404147    2.052626
  H     -1.790991    1.939389    3.236552
  H     -3.575665   -2.238167    1.190927
  H     -5.220322   -1.535825    1.128183
  H     -3.641027   -2.660967   -1.245150
  H     -5.024014   -3.439804   -0.459122
  H     -5.240322   -1.926509   -1.357314

 Total Charge           Charge          ....    0
 Multiplicity           Mult            ....    1
 Number of Electrons    NEL             ....  202
 Basis Dimension        Dim             ....  334

ORBITAL ENERGIES
----------------

  NO   OCC          E(Eh)            E(eV)
   0   2.0000     -88.042873     -2395.7684
   1   2.0000     -88.040608     -2395.7067
   2   2.0000     -87.986231     -2394.2271
   3   2.0000     -87.980481     -2394.0706
   4   2.0000     -76.427697     -2079.7034
   5   2.0000     -76.426880     -2079.6811
   6   2.0000     -18.799882      -511.5708
   7   2.0000     -18.799247      -511.5535
   8   2.0000     -18.794200      -511.4162
   9   2.0000     -18.785571      -511.1814
  10   2.0000      -9.962480      -271.0929
  11   2.0000      -9.959451      -271.0104
  12   2.0000      -9.955507      -270.9031
  13   2.0000      -9.955378      -270.8996
  14   2.0000      -9.951240      -270.7870
  15   2.0000      -9.887264      -269.0461
  16   2.0000      -9.885866      -269.0081
  17   2.0000      -9.885268      -268.9918
  18   2.0000      -9.882261      -268.9100
  19   2.0000      -7.687754      -209.1944
  20   2.0000      -7.685387      -209.1300
  21   2.0000      -7.631397      -207.6609
  22   2.0000      -7.625814      -207.5089
  23   2.0000      -6.425031      -174.8340
  24   2.0000      -6.423695      -174.7976
  25   2.0000      -5.715431      -155.5248
  26   2.0000      -5.713611      -155.4753
  27   2.0000      -5.712310      -155.4399
  28   2.0000      -5.709743      -155.3700
  29   2.0000      -5.704903      -155.2383
  30   2.0000      -5.702225      -155.1654
  31   2.0000      -5.660372      -154.0265
  32   2.0000      -5.654883      -153.8772
  33   2.0000      -5.651915      -153.7964
  34   2.0000      -5.651632      -153.7887
  35   2.0000      -5.646434      -153.6473
  36   2.0000      -5.645782      -153.6295
  37   2.0000      -4.647983      -126.4781
  38   2.0000      -4.646841      -126.4470
  39   2.0000      -4.646803      -126.4459
  40   2.0000      -4.645546      -126.4117
  41   2.0000      -4.645134      -126.4005
  42   2.0000      -4.643697      -126.3614
  43   2.0000      -0.992413       -27.0049
  44   2.0000      -0.988658       -26.9028
  45   2.0000      -0.949075       -25.8256
  46   2.0000      -0.942609       -25.6497
  47   2.0000      -0.763753       -20.7828
  48   2.0000      -0.722991       -19.6736
  49   2.0000      -0.710823       -19.3425
  50   2.0000      -0.691740       -18.8232
  51   2.0000      -0.691159       -18.8074
  52   2.0000      -0.676901       -18.4194
  53   2.0000      -0.654071       -17.7982
  54   2.0000      -0.636115       -17.3096
  55   2.0000      -0.595395       -16.2015
  56   2.0000      -0.590733       -16.0747
  57   2.0000      -0.582133       -15.8406
  58   2.0000      -0.580710       -15.8019
  59   2.0000      -0.563084       -15.3223
  60   2.0000      -0.502428       -13.6718
  61   2.0000      -0.498334       -13.5603
  62   2.0000      -0.476052       -12.9540
  63   2.0000      -0.470467       -12.8021
  64   2.0000      -0.463870       -12.6225
  65   2.0000      -0.448673       -12.2090
  66   2.0000      -0.442245       -12.0341
  67   2.0000      -0.432834       -11.7780
  68   2.0000      -0.430738       -11.7210
  69   2.0000      -0.418744       -11.3946
  70   2.0000      -0.415565       -11.3081
  71   2.0000      -0.410665       -11.1748
  72   2.0000      -0.402204       -10.9445
  73   2.0000      -0.389358       -10.5950
  74   2.0000      -0.385106       -10.4793
  75   2.0000      -0.367466        -9.9993
  76   2.0000      -0.361137        -9.8270
  77   2.0000      -0.357031        -9.7153
  78   2.0000      -0.353460        -9.6181
  79   2.0000      -0.351404        -9.5622
  80   2.0000      -0.349906        -9.5214
  81   2.0000      -0.343081        -9.3357
  82   2.0000      -0.341563        -9.2944
  83   2.0000      -0.337026        -9.1709
  84   2.0000      -0.333705        -9.0806
  85   2.0000      -0.330330        -8.9887
  86   2.0000      -0.319582        -8.6963
  87   2.0000      -0.300115        -8.1666
  88   2.0000      -0.299439        -8.1481
  89   2.0000      -0.294452        -8.0124
  90   2.0000      -0.287139        -7.8135
  91   2.0000      -0.280679        -7.6377
  92   2.0000      -0.276329        -7.5193
  93   2.0000      -0.266056        -7.2398
  94   2.0000      -0.255159        -6.9432
  95   2.0000      -0.232041        -6.3142
  96   2.0000      -0.218014        -5.9325
  97   2.0000      -0.205139        -5.5821
  98   2.0000      -0.201402        -5.4804
  99   2.0000      -0.200132        -5.4459
 100   2.0000      -0.193799        -5.2736
 101   0.0000      -0.043612        -1.1867
 102   0.0000      -0.022125        -0.6020
 103   0.0000      -0.009242        -0.2515
 104   0.0000       0.001348         0.0367
 105   0.0000       0.002724         0.0741

MULLIKEN ATOMIC CHARGES
-----------------------
   0 C :   -0.311753
   1 C :   -0.008431
   2 O :   -0.391773
   3 P :    0.607926
   4 S :   -0.316348
   5 O :   -0.371362
   6 C :   -0.002217
   7 C :   -0.310197
   8 S :   -0.037493
   9 C :   -0.365895
  10 S :   -0.108128
  11 P :    0.613340
  12 S :   -0.313468
  13 O :   -0.351389
  14 C :    0.008147
  15 C :   -0.340319
  16 O :   -0.384499
  17 C :   -0.012127
  18 C :   -0.305836
  19 H :    0.113494
  20 H :    0.132419
  21 H :    0.114424
  22 H :    0.113539
  23 H :    0.102313
  24 H :    0.107955
  25 H :    0.107325
  26 H :    0.127579
  27 H :    0.123591
  28 H :    0.109927
  29 H :    0.179754
  30 H :    0.196727
  31 H :    0.112509
  32 H :    0.106132
  33 H :    0.111158
  34 H :    0.150604
  35 H :    0.108382
  36 H :    0.111488
  37 H :    0.109008
  38 H :    0.125244
  39 H :    0.110713
  40 H :    0.127538
Sum of atomic charges:   -0.0000000

LOEWDIN ATOMIC CHARGES
----------------------
   0 C :   -0.366135
   1 C :   -0.123439
   2 O :   -0.250755
   3 P :    0.561514
   4 S :   -0.318706
   5 O :   -0.238308
   6 C :   -0.111975
   7 C :   -0.365152
   8 S :    0.111999
   9 C :   -0.484869
  10 S :    0.071556
  11 P :    0.569083
  12 S :   -0.309624
  13 O :   -0.232362
  14 C :   -0.107532
  15 C :   -0.373997
  16 O :   -0.245490
  17 C :   -0.114626
  18 C :   -0.368488
  19 H :    0.123347
  20 H :    0.124547
  21 H :    0.131954
  22 H :    0.110167
  23 H :    0.116437
  24 H :    0.118733
  25 H :    0.111744
  26 H :    0.122670
  27 H :    0.130179
  28 H :    0.129179
  29 H :    0.128768
  30 H :    0.131136
  31 H :    0.124192
  32 H :    0.112242
  33 H :    0.112565
  34 H :    0.130260
  35 H :    0.128815
  36 H :    0.106655
  37 H :    0.120989
  38 H :    0.121445
  39 H :    0.129950
  40 H :    0.131329

  Mayer bond orders larger than 0.100000
B(  0-C ,  1-C ) :   1.1646 B(  0-C , 19-H ) :   0.9473 B(  0-C , 20-H ) :   0.9344
B(  0-C , 21-H ) :   0.9388 B(  1-C ,  2-O ) :   0.9075 B(  1-C , 22-H ) :   0.9106
B(  1-C , 23-H ) :   0.9330 B(  2-O ,  3-P ) :   1.0405 B(  3-P ,  4-S ) :   1.6573
B(  3-P ,  5-O ) :   1.0937 B(  3-P ,  8-S ) :   0.9878 B(  5-O ,  6-C ) :   0.8992
B(  6-C ,  7-C ) :   1.1691 B(  6-C , 24-H ) :   0.9325 B(  6-C , 25-H ) :   0.9276
B(  7-C , 26-H ) :   0.9350 B(  7-C , 27-H ) :   0.9471 B(  7-C , 28-H ) :   0.9365
B(  8-S ,  9-C ) :   0.9855 B(  9-C , 10-S ) :   1.0069 B(  9-C , 29-H ) :   0.8906
B(  9-C , 30-H ) :   0.8731 B( 10-S , 11-P ) :   0.9378 B( 10-S , 12-S ) :   0.1123
B( 11-P , 12-S ) :   1.6397 B( 11-P , 13-O ) :   1.1385 B( 11-P , 16-O ) :   1.0790
B( 13-O , 14-C ) :   0.9012 B( 14-C , 15-C ) :   1.1706 B( 14-C , 31-H ) :   0.9336
B( 14-C , 32-H ) :   0.9291 B( 15-C , 33-H ) :   0.9416 B( 15-C , 34-H ) :   0.9258
B( 15-C , 35-H ) :   0.9354 B( 16-O , 17-C ) :   0.9113 B( 17-C , 18-C ) :   1.1679
B( 17-C , 36-H ) :   0.9252 B( 17-C , 37-H ) :   0.9333 B( 18-C , 38-H ) :   0.9315
B( 18-C , 39-H ) :   0.9350 B( 18-C , 40-H ) :   0.9434

Dispersion correction           -0.065879041
FINAL SINGLE POINT ENERGY     -2929.515150441382

DIPOLE MOMENT
-------------

Method             : SCF
Type of density    : Electron Density
Multiplicity       :   1
Irrep              :   0
Energy             : -2929.6356758890674428 Eh
Relativity type    :
Basis              : AO
                                X                 Y                 Z
Electronic contribution:     -2.788412783       9.371836373     -11.813776091
Nuclear contribution   :      2.799002158     -11.067055728      13.404070128
                        -----------------------------------------
Total Dipole Moment    :      0.010589375      -1.695219355       1.590294037
                        -----------------------------------------
Magnitude (a.u.)       :      2.324417329
Magnitude (Debye)      :      5.908199318

Rotational constants in cm-1:             0.013040             0.004828             0.004396
Rotational constants in MHz :           390.935197           144.740009           131.785097

                             ****ORCA TERMINATED NORMALLY****
TOTAL RUN TIME: 0 days 0 hours 0 minutes 21 seconds 328 msec
