                         Program Version 6.0.0  -   RELEASE  -
|  1> ! pbe def2-sv(p) def2/J RI DEFGRID1 loosescf d4 GCP(DFT/SV(P)) printgap
|  2> %output
|  3>     printlevel normal
|  4> end
|  5> * xyz 0 1
|  6> C 4.2914118845 0.830348933 -0.7890489688
|  7> C 2.9583910332 1.5421832166 -0.6918962155
|  8> O 2.1916010536 1.1518584112 0.4683647253
|  9> P 1.7491305785 -0.3356635911 0.8188734314
| 10> S 0.2931487194 -0.3688171338 2.1221189729
| 11> O 3.0575145515 -1.1083813826 1.324396499
| 12> C 3.3988482835 -1.2069708231 2.7160032491
| 13> C 3.9060224312 0.1131291837 3.2615060905
| 14> S 1.5198667308 -1.3443694953 -1.0263596768
| 15> C -0.1597679512 -2.0005270138 -0.8273940297
| 16> S -1.3283279084 -1.3252312057 -2.0486433289
| 17> P -2.0166285084 0.372994863 -1.0135631686
| 18> S -3.3675376282 1.4480202649 -1.93328765
| 19> O -0.6303999906 1.10472175 -0.7105542357
| 20> C -0.6253198674 2.523814356 -0.4346844647
| 21> C -1.3081315708 2.8550717122 0.8747687954
| 22> O -2.4377148896 -0.1443844666 0.4332138052
| 23> C -3.7846382189 -0.5371126172 0.7394511029
| 24> C -4.1469476851 -1.8635735976 0.1016785291
| 25> H 4.8802842267 1.0040856118 0.1076137162
| 26> H 4.1401690572 -0.2409488166 -0.9121250185
| 27> H 4.8315995615 1.2113033099 -1.6503023815
| 28> H 2.3536655155 1.3506400373 -1.5831810433
| 29> H 3.0907293402 2.6177958214 -0.5585567754
| 30> H 2.5144961327 -1.5353613351 3.2715908203
| 31> H 4.1655815467 -1.9820705247 2.748811116
| 32> H 4.7817725775 0.4419319711 2.7084773725
| 33> H 3.1262618373 0.8695363805 3.1725745529
| 34> H 4.1667070218 -0.0046207855 4.3085885441
| 35> H -0.5134029032 -1.7753432979 0.1819230918
| 36> H -0.1239996459 -3.0701415308 -1.0138559723
| 37> H 0.4321222984 2.7852886165 -0.4092110951
| 38> H -1.1190861413 3.0327454605 -1.2685775604
| 39> H -2.374357716 2.6445191436 0.8029647548
| 40> H -0.8867191665 2.2569721992 1.6796449699
| 41> H -1.1691894114 3.90868418 1.0951897279
| 42> H -3.7995208311 -0.5932897891 1.8289764433
| 43> H -4.4615092108 0.2518631005 0.3952600562
| 44> H -3.4410457333 -2.6343716717 0.4004645208
| 45> H -5.1448660785 -2.150448922 0.4173284686
| 46> H -4.1324595812 -1.7708017688 -0.9839905929
| 47> *
| 48>
| 49>                          ****END OF INPUT****

CARTESIAN COORDINATES (ANGSTROEM)
---------------------------------
  C      4.291412    0.830349   -0.789049
  C      2.958391    1.542183   -0.691896
  O      2.191601    1.151858    0.468365
  P      1.749131   -0.335664    0.818873
  S      0.293149   -0.368817    2.122119
  O      3.057515   -1.108381    1.324396
  C      3.398848   -1.206971    2.716003
  C      3.906022    0.113129    3.261506
  S      1.519867   -1.344369   -1.026360
  C     -0.159768   -2.000527   -0.827394
  S     -1.328328   -1.325231   -2.048643
  P     -2.016629    0.372995   -1.013563
  S     -3.367538    1.448020   -1.933288
  O     -0.630400    1.104722   -0.710554
  C     -0.625320    2.523814   -0.434684
  C     -1.308132    2.855072    0.874769
  O     -2.437715   -0.144384    0.433214
  C     -3.784638   -0.537113    0.739451
  C     -4.146948   -1.863574    0.101679
  H      4.880284    1.004086    0.107614
  H      4.140169   -0.240949   -0.912125
  H      4.831600    1.211303   -1.650302
  H      2.353666    1.350640   -1.583181
  H      3.090729    2.617796   -0.558557
  H      2.514496   -1.535361    3.271591
  H      4.165582   -1.982071    2.748811
  H      4.781773    0.441932    2.708477
  H      3.126262    0.869536    3.172575
  H      4.166707   -0.004621    4.308589
  H     -0.513403   -1.775343    0.181923
  H     -0.124000   -3.070142   -1.013856
  H      0.432122    2.785289   -0.409211
  H     -1.119086    3.032745   -1.268578
  H     -2.374358    2.644519    0.802965
  H     -0.886719    2.256972    1.679645
  H     -1.169189    3.908684    1.095190
  H     -3.799521   -0.593290    1.828976
  H     -4.461509    0.251863    0.395260
  H     -3.441046   -2.634372    0.400465
  H     -5.144866   -2.150449    0.417328
  H     -4.132460   -1.770802   -0.983991

 Total Charge           Charge          ....    0
 Multiplicity           Mult            ....    1
 Number of Electrons    NEL             ....  202
 Basis Dimension        Dim             ....  334

ORBITAL ENERGIES
----------------

  NO   OCC          E(Eh)            E(eV)
   0   2.0000     -88.044839     -2395.8219
   1   2.0000     -88.041244     -2395.7241
   2   2.0000     -87.990563     -2394.3449
   3   2.0000     -87.985152     -2394.1977
   4   2.0000     -76.428667     -2079.7298
   5   2.0000     -76.421941     -2079.5467
   6   2.0000     -18.797764      -511.5132
   7   2.0000     -18.789650      -511.2924
   8   2.0000     -18.786938      -511.2186
   9   2.0000     -18.783649      -511.1291
  10   2.0000      -9.962223      -271.0859
  11   2.0000      -9.958706      -270.9902
  12   2.0000      -9.951574      -270.7961
  13   2.0000      -9.947710      -270.6910
  14   2.0000      -9.941793      -270.5299
  15   2.0000      -9.895073      -269.2586
  16   2.0000      -9.886944      -269.0374
  17   2.0000      -9.881669      -268.8939
  18   2.0000      -9.869491      -268.5625
  19   2.0000      -7.690226      -209.2617
  20   2.0000      -7.686735      -209.1667
  21   2.0000      -7.635555      -207.7740
  22   2.0000      -7.630323      -207.6316
  23   2.0000      -6.426424      -174.8719
  24   2.0000      -6.419836      -174.6926
  25   2.0000      -5.718139      -155.5985
  26   2.0000      -5.714965      -155.5121
  27   2.0000      -5.714830      -155.5084
  28   2.0000      -5.710966      -155.4033
  29   2.0000      -5.706967      -155.2945
  30   2.0000      -5.703551      -155.2015
  31   2.0000      -5.664533      -154.1398
  32   2.0000      -5.659236      -153.9956
  33   2.0000      -5.656614      -153.9243
  34   2.0000      -5.655084      -153.8826
  35   2.0000      -5.650946      -153.7701
  36   2.0000      -5.650470      -153.7571
  37   2.0000      -4.649170      -126.5103
  38   2.0000      -4.647883      -126.4753
  39   2.0000      -4.647038      -126.4523
  40   2.0000      -4.642063      -126.3170
  41   2.0000      -4.641826      -126.3105
  42   2.0000      -4.640381      -126.2712
  43   2.0000      -0.985919       -26.8282
  44   2.0000      -0.979786       -26.6613
  45   2.0000      -0.946943       -25.7676
  46   2.0000      -0.939248       -25.5582
  47   2.0000      -0.763433       -20.7741
  48   2.0000      -0.722657       -19.6645
  49   2.0000      -0.706829       -19.2338
  50   2.0000      -0.695329       -18.9209
  51   2.0000      -0.681145       -18.5349
  52   2.0000      -0.672928       -18.3113
  53   2.0000      -0.654700       -17.8153
  54   2.0000      -0.640156       -17.4195
  55   2.0000      -0.602186       -16.3863
  56   2.0000      -0.591834       -16.1046
  57   2.0000      -0.579860       -15.7788
  58   2.0000      -0.566223       -15.4077
  59   2.0000      -0.561221       -15.2716
  60   2.0000      -0.497718       -13.5436
  61   2.0000      -0.487251       -13.2588
  62   2.0000      -0.478271       -13.0144
  63   2.0000      -0.466706       -12.6997
  64   2.0000      -0.460579       -12.5330
  65   2.0000      -0.450806       -12.2670
  66   2.0000      -0.437228       -11.8976
  67   2.0000      -0.435288       -11.8448
  68   2.0000      -0.426535       -11.6066
  69   2.0000      -0.416985       -11.3467
  70   2.0000      -0.412850       -11.2342
  71   2.0000      -0.399820       -10.8796
  72   2.0000      -0.391319       -10.6483
  73   2.0000      -0.390100       -10.6152
  74   2.0000      -0.384878       -10.4731
  75   2.0000      -0.375738       -10.2244
  76   2.0000      -0.365194        -9.9374
  77   2.0000      -0.359199        -9.7743
  78   2.0000      -0.358089        -9.7441
  79   2.0000      -0.350609        -9.5406
  80   2.0000      -0.347779        -9.4636
  81   2.0000      -0.342418        -9.3177
  82   2.0000      -0.338314        -9.2060
  83   2.0000      -0.335407        -9.1269
  84   2.0000      -0.325835        -8.8664
  85   2.0000      -0.317780        -8.6472
  86   2.0000      -0.313761        -8.5379
  87   2.0000      -0.309640        -8.4257
  88   2.0000      -0.290287        -7.8991
  89   2.0000      -0.284286        -7.7358
  90   2.0000      -0.280502        -7.6328
  91   2.0000      -0.276303        -7.5186
  92   2.0000      -0.267213        -7.2712
  93   2.0000      -0.263740        -7.1767
  94   2.0000      -0.261644        -7.1197
  95   2.0000      -0.230725        -6.2784
  96   2.0000      -0.216129        -5.8812
  97   2.0000      -0.212314        -5.7773
  98   2.0000      -0.205760        -5.5990
  99   2.0000      -0.201916        -5.4944
 100   2.0000      -0.199881        -5.4390
 101   0.0000      -0.042825        -1.1653
 102   0.0000      -0.027032        -0.7356
 103   0.0000      -0.018977        -0.5164
 104   0.0000       0.005369         0.1461
 105   0.0000       0.017196         0.4679

MULLIKEN ATOMIC CHARGES
-----------------------
   0 C :   -0.306447
   1 C :   -0.038592
   2 O :   -0.382256
   3 P :    0.627743
   4 S :   -0.297205
   5 O :   -0.381917
   6 C :   -0.007269
   7 C :   -0.318486
   8 S :   -0.087471
   9 C :   -0.367640
  10 S :   -0.069273
  11 P :    0.616158
  12 S :   -0.323118
  13 O :   -0.383238
  14 C :   -0.016177
  15 C :   -0.314107
  16 O :   -0.363811
  17 C :   -0.006480
  18 C :   -0.313194
  19 H :    0.123539
  20 H :    0.135023
  21 H :    0.116839
  22 H :    0.128975
  23 H :    0.114916
  24 H :    0.111836
  25 H :    0.103957
  26 H :    0.118304
  27 H :    0.127105
  28 H :    0.112502
  29 H :    0.209021
  30 H :    0.185866
  31 H :    0.110760
  32 H :    0.111107
  33 H :    0.115114
  34 H :    0.134287
  35 H :    0.102892
  36 H :    0.106867
  37 H :    0.110775
  38 H :    0.114533
  39 H :    0.112090
  40 H :    0.126471
Sum of atomic charges:    0.0000000

LOEWDIN ATOMIC CHARGES
----------------------
   0 C :   -0.365949
   1 C :   -0.122766
   2 O :   -0.241756
   3 P :    0.580508
   4 S :   -0.278201
   5 O :   -0.256364
   6 C :   -0.122293
   7 C :   -0.365581
   8 S :    0.087811
   9 C :   -0.480061
  10 S :    0.090887
  11 P :    0.573681
  12 S :   -0.317819
  13 O :   -0.250463
  14 C :   -0.121198
  15 C :   -0.371081
  16 O :   -0.235120
  17 C :   -0.121087
  18 C :   -0.367297
  19 H :    0.126609
  20 H :    0.121688
  21 H :    0.134078
  22 H :    0.114700
  23 H :    0.121350
  24 H :    0.108182
  25 H :    0.117978
  26 H :    0.121825
  27 H :    0.124872
  28 H :    0.130927
  29 H :    0.125810
  30 H :    0.139332
  31 H :    0.114629
  32 H :    0.108400
  33 H :    0.118467
  34 H :    0.124622
  35 H :    0.126899
  36 H :    0.119540
  37 H :    0.108865
  38 H :    0.123295
  39 H :    0.130593
  40 H :    0.121488

  Mayer bond orders larger than 0.100000
B(  0-C ,  1-C ) :   1.1682 B(  0-C , 19-H ) :   0.9402 B(  0-C , 20-H ) :   0.9335
B(  0-C , 21-H ) :   0.9342 B(  1-C ,  2-O ) :   0.8995 B(  1-C , 22-H ) :   0.9158
B(  1-C , 23-H ) :   0.9289 B(  2-O ,  3-P ) :   1.0967 B(  3-P ,  4-S ) :   1.6195
B(  3-P ,  5-O ) :   1.0764 B(  3-P ,  8-S ) :   0.9605 B(  4-S ,  8-S ) :   0.1073
B(  5-O ,  6-C ) :   0.9156 B(  6-C ,  7-C ) :   1.1604 B(  6-C , 24-H ) :   0.9105
B(  6-C , 25-H ) :   0.9338 B(  7-C , 26-H ) :   0.9428 B(  7-C , 27-H ) :   0.9367
B(  7-C , 28-H ) :   0.9388 B(  8-S ,  9-C ) :   1.0025 B(  9-C , 10-S ) :   0.9861
B(  9-C , 29-H ) :   0.8459 B(  9-C , 30-H ) :   0.9108 B( 10-S , 11-P ) :   0.9823
B( 11-P , 12-S ) :   1.6342 B( 11-P , 13-O ) :   1.1018 B( 11-P , 16-O ) :   1.0827
B( 13-O , 14-C ) :   0.8999 B( 14-C , 15-C ) :   1.1707 B( 14-C , 31-H ) :   0.9200
B( 14-C , 32-H ) :   0.9171 B( 15-C , 33-H ) :   0.9345 B( 15-C , 34-H ) :   0.9313
B( 15-C , 35-H ) :   0.9373 B( 16-O , 17-C ) :   0.9109 B( 17-C , 18-C ) :   1.1642
B( 17-C , 36-H ) :   0.9324 B( 17-C , 37-H ) :   0.9124 B( 18-C , 38-H ) :   0.9472
B( 18-C , 39-H ) :   0.9392 B( 18-C , 40-H ) :   0.9361

Dispersion correction           -0.068750536
FINAL SINGLE POINT ENERGY     -2929.516744880689

DIPOLE MOMENT
-------------

Method             : SCF
Type of density    : Electron Density
Multiplicity       :   1
Irrep              :   0
Energy             : -2929.6375757814903409 Eh
Relativity type    :
Basis              : AO
                                X                 Y                 Z
Electronic contribution:     -9.560015745      -6.435833196     -13.363926453
Nuclear contribution   :     10.972270889       6.236339053      14.108230842
                        -----------------------------------------
Total Dipole Moment    :      1.412255144      -0.199494143       0.744304389
                        -----------------------------------------
Magnitude (a.u.)       :      1.608804378
Magnitude (Debye)      :      4.089255751

Rotational constants in cm-1:             0.013069             0.005269             0.005162
Rotational constants in MHz :           391.798311           157.970964           154.764347

                             ****ORCA TERMINATED NORMALLY****
TOTAL RUN TIME: 0 days 0 hours 0 minutes 22 seconds 616 msec
