                         Program Version 6.0.1  -  RELEASE   -
|  1> ! pbe def2-sv(p) def2/J RI DEFGRID1 loosescf d4 GCP(DFT/SV(P)) printgap
|  2> %output
|  3>     printlevel normal
|  4> end
|  5> * xyz 0 1
|  6> C 5.3525080693 -0.4448916049 -0.3218486639
|  7> C 4.8454510682 -1.1195705147 -1.5861996594
|  8> O 3.5180481945 -1.6446933739 -1.387322371
|  9> C 2.4897061474 -0.8522505886 -1.60930282
| 10> O 2.5685701921 0.2918061596 -1.9973977691
| 11> C 1.1775910892 -1.5719891617 -1.3489505856
| 12> C 0.1890076764 -0.6079719224 -0.7108479452
| 13> H 0.1630052674 0.3251864598 -1.2908447563
| 14> C 0.5471799526 -0.2238697301 0.7078469035
| 15> O -0.307858047 0.0113890731 1.5411952397
| 16> O 1.8320057616 -0.1667199869 0.9150867612
| 17> C 2.2991963319 0.3144848355 2.1963849006
| 18> C 2.3613596165 1.8323404038 2.2042765112
| 19> S -1.5051274579 -1.291471537 -0.6775295578
| 20> P -2.4956349319 0.3562405341 0.2192456461
| 21> S -1.7346901046 2.1529768199 -0.0411748229
| 22> O -3.9263724022 0.2080098038 -0.4903554949
| 23> C -4.0892762794 0.458559294 -1.8882547255
| 24> O -3.0515348325 -0.0470667171 1.6472378673
| 25> C -2.678144751 0.5545206879 2.8885189128
| 26> H 5.3391678152 -1.1472674817 0.5067642225
| 27> H 6.3679138654 -0.0975910861 -0.4814226406
| 28> H 4.7207835104 0.4063324208 -0.079574198
| 29> H 5.4489685327 -1.9898218559 -1.8442720872
| 30> H 4.819447782 -0.411313185 -2.4190340731
| 31> H 1.3565261893 -2.4424140446 -0.7202827074
| 32> H 0.7752511678 -1.9055148778 -2.3073175664
| 33> H 1.6244130967 -0.0533461726 2.973425748
| 34> H 3.2889306732 -0.128332942 2.3055505564
| 35> H 2.9992268844 2.1878255123 1.3992334331
| 36> H 1.3664714822 2.251691124 2.0654911075
| 37> H 2.7588603123 2.1720113922 3.1546669601
| 38> H -5.1627330828 0.4819595481 -2.0573379136
| 39> H -3.6274505067 -0.3390392103 -2.4711542202
| 40> H -3.6425019901 1.4194769668 -2.1520450314
| 41> H -1.9959652261 -0.1108927749 3.413817424
| 42> H -3.6006679122 0.6890558928 3.4493665366
| 43> H -2.1940134608 1.5172257451 2.7167987164
| 44> *
| 45>
| 46>                          ****END OF INPUT****

CARTESIAN COORDINATES (ANGSTROEM)
---------------------------------
  C      5.352508   -0.444892   -0.321849
  C      4.845451   -1.119571   -1.586200
  O      3.518048   -1.644693   -1.387322
  C      2.489706   -0.852251   -1.609303
  O      2.568570    0.291806   -1.997398
  C      1.177591   -1.571989   -1.348951
  C      0.189008   -0.607972   -0.710848
  H      0.163005    0.325186   -1.290845
  C      0.547180   -0.223870    0.707847
  O     -0.307858    0.011389    1.541195
  O      1.832006   -0.166720    0.915087
  C      2.299196    0.314485    2.196385
  C      2.361360    1.832340    2.204277
  S     -1.505127   -1.291472   -0.677530
  P     -2.495635    0.356241    0.219246
  S     -1.734690    2.152977   -0.041175
  O     -3.926372    0.208010   -0.490355
  C     -4.089276    0.458559   -1.888255
  O     -3.051535   -0.047067    1.647238
  C     -2.678145    0.554521    2.888519
  H      5.339168   -1.147267    0.506764
  H      6.367914   -0.097591   -0.481423
  H      4.720784    0.406332   -0.079574
  H      5.448969   -1.989822   -1.844272
  H      4.819448   -0.411313   -2.419034
  H      1.356526   -2.442414   -0.720283
  H      0.775251   -1.905515   -2.307318
  H      1.624413   -0.053346    2.973426
  H      3.288931   -0.128333    2.305551
  H      2.999227    2.187826    1.399233
  H      1.366471    2.251691    2.065491
  H      2.758860    2.172011    3.154667
  H     -5.162733    0.481960   -2.057338
  H     -3.627451   -0.339039   -2.471154
  H     -3.642502    1.419477   -2.152045
  H     -1.995965   -0.110893    3.413817
  H     -3.600668    0.689056    3.449367
  H     -2.194013    1.517226    2.716799

 Total Charge           Charge          ....    0
 Multiplicity           Mult            ....    1
 Number of Electrons    NEL             ....  174
 Basis Dimension        Dim             ....  316

ORBITAL ENERGIES
----------------

  NO   OCC          E(Eh)            E(eV)
   0   2.0000     -88.034716     -2395.5464
   1   2.0000     -87.971613     -2393.8293
   2   2.0000     -76.417009     -2079.4125
   3   2.0000     -18.828411      -512.3471
   4   2.0000     -18.809359      -511.8287
   5   2.0000     -18.777677      -510.9666
   6   2.0000     -18.771392      -510.7956
   7   2.0000     -18.758380      -510.4415
   8   2.0000     -18.744963      -510.0764
   9   2.0000     -10.029655      -272.9208
  10   2.0000     -10.018190      -272.6088
  11   2.0000      -9.963288      -271.1149
  12   2.0000      -9.955450      -270.9016
  13   2.0000      -9.947370      -270.6817
  14   2.0000      -9.931415      -270.2475
  15   2.0000      -9.929480      -270.1949
  16   2.0000      -9.919383      -269.9201
  17   2.0000      -9.896600      -269.3002
  18   2.0000      -9.893897      -269.2266
  19   2.0000      -7.679777      -208.9774
  20   2.0000      -7.616677      -207.2603
  21   2.0000      -6.412715      -174.4988
  22   2.0000      -5.707660      -155.3133
  23   2.0000      -5.704476      -155.2267
  24   2.0000      -5.696579      -155.0118
  25   2.0000      -5.645724      -153.6280
  26   2.0000      -5.637547      -153.4055
  27   2.0000      -5.636451      -153.3756
  28   2.0000      -4.635046      -126.1260
  29   2.0000      -4.634875      -126.1214
  30   2.0000      -4.633344      -126.0797
  31   2.0000      -1.036985       -28.2178
  32   2.0000      -1.017265       -27.6812
  33   2.0000      -0.970720       -26.4146
  34   2.0000      -0.938921       -25.5493
  35   2.0000      -0.924768       -25.1642
  36   2.0000      -0.922692       -25.1077
  37   2.0000      -0.768355       -20.9080
  38   2.0000      -0.718062       -19.5395
  39   2.0000      -0.715942       -19.4818
  40   2.0000      -0.689412       -18.7599
  41   2.0000      -0.657321       -17.8866
  42   2.0000      -0.628933       -17.1141
  43   2.0000      -0.619525       -16.8581
  44   2.0000      -0.609476       -16.5847
  45   2.0000      -0.602861       -16.4047
  46   2.0000      -0.570228       -15.5167
  47   2.0000      -0.514973       -14.0131
  48   2.0000      -0.507874       -13.8200
  49   2.0000      -0.502591       -13.6762
  50   2.0000      -0.479738       -13.0543
  51   2.0000      -0.475862       -12.9489
  52   2.0000      -0.460333       -12.5263
  53   2.0000      -0.449848       -12.2410
  54   2.0000      -0.439849       -11.9689
  55   2.0000      -0.434544       -11.8245
  56   2.0000      -0.428388       -11.6570
  57   2.0000      -0.422713       -11.5026
  58   2.0000      -0.412475       -11.2240
  59   2.0000      -0.406441       -11.0598
  60   2.0000      -0.400262       -10.8917
  61   2.0000      -0.398865       -10.8537
  62   2.0000      -0.393755       -10.7146
  63   2.0000      -0.384032       -10.4500
  64   2.0000      -0.378277       -10.2934
  65   2.0000      -0.370734       -10.0882
  66   2.0000      -0.366159        -9.9637
  67   2.0000      -0.359025        -9.7696
  68   2.0000      -0.354962        -9.6590
  69   2.0000      -0.347199        -9.4478
  70   2.0000      -0.341467        -9.2918
  71   2.0000      -0.333998        -9.0885
  72   2.0000      -0.330876        -9.0036
  73   2.0000      -0.312076        -8.4920
  74   2.0000      -0.305514        -8.3135
  75   2.0000      -0.300598        -8.1797
  76   2.0000      -0.292518        -7.9598
  77   2.0000      -0.284186        -7.7331
  78   2.0000      -0.277259        -7.5446
  79   2.0000      -0.266431        -7.2500
  80   2.0000      -0.259537        -7.0624
  81   2.0000      -0.246194        -6.6993
  82   2.0000      -0.241951        -6.5838
  83   2.0000      -0.231970        -6.3122
  84   2.0000      -0.216679        -5.8961
  85   2.0000      -0.193372        -5.2619
  86   2.0000      -0.185209        -5.0398
  87   0.0000      -0.049324        -1.3422
  88   0.0000      -0.033074        -0.9000
  89   0.0000      -0.024129        -0.6566
  90   0.0000       0.012598         0.3428
  91   0.0000       0.024232         0.6594

MULLIKEN ATOMIC CHARGES
-----------------------
   0 C :   -0.321941
   1 C :   -0.013721
   2 O :   -0.229372
   3 C :    0.116431
   4 O :   -0.202520
   5 C :   -0.063406
   6 C :   -0.341094
   7 H :    0.176924
   8 C :    0.241313
   9 O :   -0.195705
  10 O :   -0.217835
  11 C :   -0.015208
  12 C :   -0.318323
  13 S :   -0.096059
  14 P :    0.628850
  15 S :   -0.351788
  16 O :   -0.373702
  17 C :   -0.099267
  18 O :   -0.367259
  19 C :   -0.083957
  20 H :    0.116776
  21 H :    0.116160
  22 H :    0.138463
  23 H :    0.106073
  24 H :    0.111764
  25 H :    0.109721
  26 H :    0.129281
  27 H :    0.113959
  28 H :    0.109616
  29 H :    0.130424
  30 H :    0.139929
  31 H :    0.116249
  32 H :    0.120951
  33 H :    0.107883
  34 H :    0.112273
  35 H :    0.113809
  36 H :    0.118141
  37 H :    0.116168
Sum of atomic charges:   -0.0000000

LOEWDIN ATOMIC CHARGES
----------------------
   0 C :   -0.356788
   1 C :   -0.109445
   2 O :   -0.056714
   3 C :    0.030203
   4 O :   -0.166863
   5 C :   -0.247679
   6 C :   -0.273865
   7 H :    0.153150
   8 C :    0.033314
   9 O :   -0.155383
  10 O :   -0.028454
  11 C :   -0.106044
  12 C :   -0.356118
  13 S :    0.098060
  14 P :    0.587988
  15 S :   -0.343404
  16 O :   -0.258612
  17 C :   -0.221436
  18 O :   -0.237456
  19 C :   -0.207404
  20 H :    0.123667
  21 H :    0.132393
  22 H :    0.129902
  23 H :    0.119167
  24 H :    0.121747
  25 H :    0.136274
  26 H :    0.151207
  27 H :    0.122480
  28 H :    0.119211
  29 H :    0.129743
  30 H :    0.136096
  31 H :    0.132843
  32 H :    0.120153
  33 H :    0.103046
  34 H :    0.107583
  35 H :    0.112049
  36 H :    0.116587
  37 H :    0.108803

  Mayer bond orders larger than 0.100000
B(  0-C ,  1-C ) :   1.1750 B(  0-C , 20-H ) :   0.9453 B(  0-C , 21-H ) :   0.9417
B(  0-C , 22-H ) :   0.9390 B(  1-C ,  2-O ) :   0.9153 B(  1-C , 23-H ) :   0.9373
B(  1-C , 24-H ) :   0.9126 B(  2-O ,  3-C ) :   1.2415 B(  3-C ,  4-O ) :   2.0393
B(  3-C ,  5-C ) :   1.0023 B(  5-C ,  6-C ) :   1.0511 B(  5-C , 25-H ) :   0.9078
B(  5-C , 26-H ) :   0.8767 B(  6-C ,  7-H ) :   0.8285 B(  6-C ,  8-C ) :   0.9076
B(  6-C , 13-S ) :   1.0337 B(  8-C ,  9-O ) :   1.9424 B(  8-C , 10-O ) :   1.2789
B(  9-O , 14-P ) :   0.1071 B( 10-O , 11-C ) :   0.8928 B( 11-C , 12-C ) :   1.1789
B( 11-C , 27-H ) :   0.9147 B( 11-C , 28-H ) :   0.9308 B( 12-C , 29-H ) :   0.9463
B( 12-C , 30-H ) :   0.9364 B( 12-C , 31-H ) :   0.9414 B( 13-S , 14-P ) :   0.9272
B( 13-S , 15-S ) :   0.1158 B( 14-P , 15-S ) :   1.5706 B( 14-P , 16-O ) :   1.0866
B( 14-P , 18-O ) :   1.1390 B( 16-O , 17-C ) :   0.9452 B( 17-C , 32-H ) :   0.9595
B( 17-C , 33-H ) :   0.9436 B( 17-C , 34-H ) :   0.9340 B( 18-O , 19-C ) :   0.9271
B( 19-C , 35-H ) :   0.9548 B( 19-C , 36-H ) :   0.9541 B( 19-C , 37-H ) :   0.9343

Dispersion correction           -0.051491977
FINAL SINGLE POINT ENERGY     -1979.017179629015

DIPOLE MOMENT
-------------

Method             : SCF
Type of density    : Electron Density
Multiplicity       :   1
Irrep              :   0
Energy             : -1979.1493102876092962 Eh
Relativity type    :
Basis              : AO
                                X                 Y                 Z
Electronic contribution:    -20.112057857      -3.149295525      -5.078272920
Nuclear contribution   :     21.852276795       2.287355006       5.609143333
                        -----------------------------------------
Total Dipole Moment    :      1.740218938      -0.861940519       0.530870413
                        -----------------------------------------
Magnitude (a.u.)       :      2.013237891
Magnitude (Debye)      :      5.117244045

Rotational constants in cm-1:             0.017308             0.005903             0.005104
Rotational constants in MHz :           518.883574           176.977999           153.025678

                             ****ORCA TERMINATED NORMALLY****
TOTAL RUN TIME: 0 days 0 hours 0 minutes 32 seconds 136 msec
