                         Program Version 6.0.0  -   RELEASE  -
|  1> ! pbe def2-sv(p) def2/J RI DEFGRID1 loosescf d4 GCP(DFT/SV(P)) printgap
|  2> %output
|  3>     printlevel normal
|  4> end
|  5> * xyz 0 1
|  6> C 4.5476013807 -0.7800479765 -2.0321261999
|  7> C 3.6495245452 -1.9253677062 -1.6124383956
|  8> O 3.0202959869 -1.7077311432 -0.3374244444
|  9> P 2.2034982624 -0.4143973551 0.0879082561
| 10> S 3.2147003425 1.1990982697 0.5759531373
| 11> O 1.3209429508 -1.0011488184 1.2663609893
| 12> C 1.6796255562 -0.8267926735 2.6511654394
| 13> C 2.8714204065 -1.6855550573 3.0166937802
| 14> S 0.7796318015 -0.1932819416 -1.4665607008
| 15> C 0.2024991127 1.4433316709 -0.9526518603
| 16> S -0.7921806366 1.3954823264 0.5543842287
| 17> P -2.4812695154 0.4321937979 -0.3344754094
| 18> S -2.8738084908 0.9490746898 -2.1786076541
| 19> O -3.6085374466 0.6145746908 0.7712127263
| 20> C -3.9817054278 1.8604369857 1.3905398614
| 21> C -4.3336336898 2.9350673952 0.3838006689
| 22> O -2.2346736069 -1.1219000244 -0.2649452076
| 23> C -2.0025743183 -1.8431840626 0.9710001839
| 24> C -1.2432164439 -3.1095983729 0.6346990284
| 25> H 3.9562682415 0.1190239949 -2.2018996108
| 26> H 5.2817882094 -0.5687121055 -1.2581931729
| 27> H 5.060824078 -1.0426087381 -2.9516565849
| 28> H 4.2189112391 -2.8448156991 -1.4638568814
| 29> H 2.8641784329 -2.0921853191 -2.3553859418
| 30> H 1.8938599795 0.2324696713 2.8270601255
| 31> H 0.7835251127 -1.119019052 3.1998659713
| 32> H 3.0857226993 -1.5779847617 4.0752317345
| 33> H 2.6685844666 -2.7284670472 2.7893617705
| 34> H 3.7403852018 -1.3647167688 2.4429244991
| 35> H -0.4042121732 1.8322523126 -1.7711939273
| 36> H 1.0608478071 2.0835624415 -0.7456017921
| 37> H -4.8425438567 1.591580544 2.0052701387
| 38> H -3.1545597625 2.1839905336 2.0285569727
| 39> H -4.6893990608 3.8166963188 0.9071136154
| 40> H -3.4568201374 3.2011842766 -0.204887238
| 41> H -5.1063097962 2.5814086084 -0.2947285362
| 42> H -1.4315573637 -1.2021815699 1.6494539704
| 43> H -2.9771912729 -2.0606908453 1.4118309391
| 44> H -1.1264349008 -3.705503586 1.5341360578
| 45> H -1.7893420457 -3.6809461541 -0.1103810179
| 46> H -0.261173107 -2.864646401 0.2371940672
| 47> *
| 48>
| 49>                          ****END OF INPUT****

CARTESIAN COORDINATES (ANGSTROEM)
---------------------------------
  C      4.547601   -0.780048   -2.032126
  C      3.649525   -1.925368   -1.612438
  O      3.020296   -1.707731   -0.337424
  P      2.203498   -0.414397    0.087908
  S      3.214700    1.199098    0.575953
  O      1.320943   -1.001149    1.266361
  C      1.679626   -0.826793    2.651165
  C      2.871420   -1.685555    3.016694
  S      0.779632   -0.193282   -1.466561
  C      0.202499    1.443332   -0.952652
  S     -0.792181    1.395482    0.554384
  P     -2.481270    0.432194   -0.334475
  S     -2.873808    0.949075   -2.178608
  O     -3.608537    0.614575    0.771213
  C     -3.981705    1.860437    1.390540
  C     -4.333634    2.935067    0.383801
  O     -2.234674   -1.121900   -0.264945
  C     -2.002574   -1.843184    0.971000
  C     -1.243216   -3.109598    0.634699
  H      3.956268    0.119024   -2.201900
  H      5.281788   -0.568712   -1.258193
  H      5.060824   -1.042609   -2.951657
  H      4.218911   -2.844816   -1.463857
  H      2.864178   -2.092185   -2.355386
  H      1.893860    0.232470    2.827060
  H      0.783525   -1.119019    3.199866
  H      3.085723   -1.577985    4.075232
  H      2.668584   -2.728467    2.789362
  H      3.740385   -1.364717    2.442924
  H     -0.404212    1.832252   -1.771194
  H      1.060848    2.083562   -0.745602
  H     -4.842544    1.591581    2.005270
  H     -3.154560    2.183991    2.028557
  H     -4.689399    3.816696    0.907114
  H     -3.456820    3.201184   -0.204887
  H     -5.106310    2.581409   -0.294729
  H     -1.431557   -1.202182    1.649454
  H     -2.977191   -2.060691    1.411831
  H     -1.126435   -3.705504    1.534136
  H     -1.789342   -3.680946   -0.110381
  H     -0.261173   -2.864646    0.237194

 Total Charge           Charge          ....    0
 Multiplicity           Mult            ....    1
 Number of Electrons    NEL             ....  202
 Basis Dimension        Dim             ....  334

ORBITAL ENERGIES
----------------

  NO   OCC          E(Eh)            E(eV)
   0   2.0000     -88.045463     -2395.8389
   1   2.0000     -88.043453     -2395.7842
   2   2.0000     -87.991082     -2394.3591
   3   2.0000     -87.982064     -2394.1137
   4   2.0000     -76.431184     -2079.7983
   5   2.0000     -76.425011     -2079.6303
   6   2.0000     -18.798308      -511.5280
   7   2.0000     -18.795555      -511.4530
   8   2.0000     -18.793675      -511.4019
   9   2.0000     -18.787145      -511.2242
  10   2.0000      -9.961834      -271.0753
  11   2.0000      -9.959814      -271.0203
  12   2.0000      -9.953892      -270.8592
  13   2.0000      -9.953291      -270.8428
  14   2.0000      -9.950389      -270.7639
  15   2.0000      -9.886109      -269.0147
  16   2.0000      -9.886085      -269.0140
  17   2.0000      -9.883544      -268.9449
  18   2.0000      -9.880997      -268.8756
  19   2.0000      -7.690477      -209.2685
  20   2.0000      -7.688201      -209.2066
  21   2.0000      -7.635948      -207.7847
  22   2.0000      -7.627426      -207.5528
  23   2.0000      -6.428404      -174.9258
  24   2.0000      -6.422211      -174.7573
  25   2.0000      -5.718215      -155.6005
  26   2.0000      -5.715830      -155.5357
  27   2.0000      -5.715092      -155.5156
  28   2.0000      -5.712722      -155.4511
  29   2.0000      -5.707495      -155.3088
  30   2.0000      -5.705472      -155.2538
  31   2.0000      -5.664808      -154.1473
  32   2.0000      -5.656660      -153.9255
  33   2.0000      -5.656489      -153.9209
  34   2.0000      -5.656099      -153.9103
  35   2.0000      -5.647948      -153.6885
  36   2.0000      -5.647484      -153.6759
  37   2.0000      -4.650925      -126.5581
  38   2.0000      -4.650329      -126.5419
  39   2.0000      -4.648789      -126.5000
  40   2.0000      -4.645073      -126.3989
  41   2.0000      -4.644225      -126.3758
  42   2.0000      -4.642235      -126.3216
  43   2.0000      -0.991637       -26.9838
  44   2.0000      -0.987505       -26.8714
  45   2.0000      -0.950384       -25.8613
  46   2.0000      -0.942770       -25.6541
  47   2.0000      -0.766631       -20.8611
  48   2.0000      -0.722846       -19.6696
  49   2.0000      -0.711879       -19.3712
  50   2.0000      -0.691033       -18.8040
  51   2.0000      -0.689026       -18.7493
  52   2.0000      -0.677668       -18.4403
  53   2.0000      -0.652284       -17.7496
  54   2.0000      -0.639585       -17.4040
  55   2.0000      -0.601747       -16.3744
  56   2.0000      -0.589568       -16.0429
  57   2.0000      -0.577789       -15.7224
  58   2.0000      -0.569087       -15.4856
  59   2.0000      -0.565040       -15.3755
  60   2.0000      -0.507810       -13.8182
  61   2.0000      -0.496790       -13.5183
  62   2.0000      -0.474824       -12.9206
  63   2.0000      -0.473510       -12.8849
  64   2.0000      -0.463822       -12.6213
  65   2.0000      -0.449434       -12.2297
  66   2.0000      -0.442100       -12.0301
  67   2.0000      -0.435580       -11.8527
  68   2.0000      -0.428999       -11.6737
  69   2.0000      -0.420371       -11.4389
  70   2.0000      -0.416337       -11.3291
  71   2.0000      -0.399271       -10.8647
  72   2.0000      -0.394398       -10.7321
  73   2.0000      -0.387346       -10.5402
  74   2.0000      -0.384002       -10.4492
  75   2.0000      -0.379085       -10.3154
  76   2.0000      -0.363849        -9.9008
  77   2.0000      -0.352323        -9.5872
  78   2.0000      -0.350675        -9.5423
  79   2.0000      -0.349958        -9.5228
  80   2.0000      -0.347955        -9.4683
  81   2.0000      -0.346707        -9.4344
  82   2.0000      -0.344237        -9.3672
  83   2.0000      -0.338453        -9.2098
  84   2.0000      -0.336900        -9.1675
  85   2.0000      -0.322287        -8.7699
  86   2.0000      -0.313772        -8.5382
  87   2.0000      -0.301023        -8.1913
  88   2.0000      -0.297354        -8.0914
  89   2.0000      -0.293406        -7.9840
  90   2.0000      -0.291470        -7.9313
  91   2.0000      -0.279175        -7.5967
  92   2.0000      -0.274489        -7.4692
  93   2.0000      -0.267888        -7.2896
  94   2.0000      -0.256077        -6.9682
  95   2.0000      -0.236129        -6.4254
  96   2.0000      -0.221273        -6.0211
  97   2.0000      -0.211308        -5.7500
  98   2.0000      -0.205157        -5.5826
  99   2.0000      -0.199666        -5.4332
 100   2.0000      -0.197299        -5.3688
 101   0.0000      -0.046428        -1.2634
 102   0.0000      -0.025683        -0.6989
 103   0.0000      -0.007928        -0.2157
 104   0.0000      -0.002543        -0.0692
 105   0.0000       0.012185         0.3316

MULLIKEN ATOMIC CHARGES
-----------------------
   0 C :   -0.312039
   1 C :   -0.012905
   2 O :   -0.376631
   3 P :    0.614002
   4 S :   -0.329709
   5 O :   -0.360010
   6 C :   -0.011165
   7 C :   -0.300956
   8 S :   -0.069740
   9 C :   -0.368728
  10 S :   -0.106417
  11 P :    0.599901
  12 S :   -0.309917
  13 O :   -0.384023
  14 C :   -0.010070
  15 C :   -0.308621
  16 O :   -0.350613
  17 C :   -0.014676
  18 C :   -0.282922
  19 H :    0.127122
  20 H :    0.126239
  21 H :    0.113858
  22 H :    0.110647
  23 H :    0.118043
  24 H :    0.114501
  25 H :    0.103565
  26 H :    0.111718
  27 H :    0.114802
  28 H :    0.124258
  29 H :    0.196219
  30 H :    0.193328
  31 H :    0.108697
  32 H :    0.112061
  33 H :    0.111365
  34 H :    0.125868
  35 H :    0.127548
  36 H :    0.107014
  37 H :    0.104034
  38 H :    0.100821
  39 H :    0.117179
  40 H :    0.126354
Sum of atomic charges:   -0.0000000

LOEWDIN ATOMIC CHARGES
----------------------
   0 C :   -0.369773
   1 C :   -0.113525
   2 O :   -0.243354
   3 P :    0.574090
   4 S :   -0.316378
   5 O :   -0.234341
   6 C :   -0.120760
   7 C :   -0.363218
   8 S :    0.094914
   9 C :   -0.487170
  10 S :    0.066287
  11 P :    0.567884
  12 S :   -0.306546
  13 O :   -0.247687
  14 C :   -0.114243
  15 C :   -0.368739
  16 O :   -0.232370
  17 C :   -0.114405
  18 C :   -0.353419
  19 H :    0.121934
  20 H :    0.129471
  21 H :    0.131256
  22 H :    0.122189
  23 H :    0.111933
  24 H :    0.109846
  25 H :    0.114011
  26 H :    0.130354
  27 H :    0.125570
  28 H :    0.123669
  29 H :    0.129085
  30 H :    0.128104
  31 H :    0.120979
  32 H :    0.107970
  33 H :    0.130147
  34 H :    0.121700
  35 H :    0.130882
  36 H :    0.103202
  37 H :    0.113156
  38 H :    0.126009
  39 H :    0.128052
  40 H :    0.123232

  Mayer bond orders larger than 0.100000
B(  0-C ,  1-C ) :   1.1655 B(  0-C , 19-H ) :   0.9329 B(  0-C , 20-H ) :   0.9426
B(  0-C , 21-H ) :   0.9347 B(  1-C ,  2-O ) :   0.9116 B(  1-C , 22-H ) :   0.9339
B(  1-C , 23-H ) :   0.9281 B(  2-O ,  3-P ) :   1.1075 B(  3-P ,  4-S ) :   1.5920
B(  3-P ,  5-O ) :   1.1070 B(  3-P ,  8-S ) :   0.9580 B(  4-S ,  8-S ) :   0.1091
B(  5-O ,  6-C ) :   0.9031 B(  6-C ,  7-C ) :   1.1652 B(  6-C , 24-H ) :   0.9108
B(  6-C , 25-H ) :   0.9289 B(  7-C , 26-H ) :   0.9394 B(  7-C , 27-H ) :   0.9470
B(  7-C , 28-H ) :   0.9351 B(  8-S ,  9-C ) :   1.0079 B(  9-C , 10-S ) :   1.0085
B(  9-C , 29-H ) :   0.8693 B(  9-C , 30-H ) :   0.8708 B( 10-S , 11-P ) :   0.9356
B( 10-S , 12-S ) :   0.1097 B( 11-P , 12-S ) :   1.6463 B( 11-P , 13-O ) :   1.0851
B( 11-P , 16-O ) :   1.1427 B( 13-O , 14-C ) :   0.9138 B( 14-C , 15-C ) :   1.1671
B( 14-C , 31-H ) :   0.9334 B( 14-C , 32-H ) :   0.9267 B( 15-C , 33-H ) :   0.9348
B( 15-C , 34-H ) :   0.9323 B( 15-C , 35-H ) :   0.9432 B( 16-O , 17-C ) :   0.8868
B( 17-C , 18-C ) :   1.1691 B( 17-C , 36-H ) :   0.9088 B( 17-C , 37-H ) :   0.9319
B( 18-C , 38-H ) :   0.9411 B( 18-C , 39-H ) :   0.9478 B( 18-C , 40-H ) :   0.9391

Dispersion correction           -0.066284444
FINAL SINGLE POINT ENERGY     -2929.520749686318

DIPOLE MOMENT
-------------

Method             : SCF
Type of density    : Electron Density
Multiplicity       :   1
Irrep              :   0
Energy             : -2929.6401725653186077 Eh
Relativity type    :
Basis              : AO
                                X                 Y                 Z
Electronic contribution:     -5.023304055       8.078690997     -10.073349082
Nuclear contribution   :      5.259444580      -8.801370364      11.338082665
                        -----------------------------------------
Total Dipole Moment    :      0.236140525      -0.722679367       1.264733583
                        -----------------------------------------
Magnitude (a.u.)       :      1.475662174
Magnitude (Debye)      :      3.750835162

Rotational constants in cm-1:             0.012890             0.004886             0.004673
Rotational constants in MHz :           386.439707           146.472766           140.083357

                             ****ORCA TERMINATED NORMALLY****
TOTAL RUN TIME: 0 days 0 hours 0 minutes 21 seconds 317 msec
