                         Program Version 6.0.0  -   RELEASE  -
|  1> ! pbe def2-sv(p) def2/J RI DEFGRID1 loosescf d4 GCP(DFT/SV(P)) printgap
|  2> %output
|  3>     printlevel normal
|  4> end
|  5> * xyz 0 1
|  6> C 4.5878575805 0.5440212996 -2.1653581845
|  7> C 4.4727270318 1.1752048743 -0.7932007595
|  8> O 3.7106877058 0.3586332458 0.1127290849
|  9> P 2.1489549083 0.1103699297 -0.066086482
| 10> S 1.1669051068 1.7185586049 -0.6291621589
| 11> O 1.7675563072 -0.4885557829 1.3485558492
| 12> C 1.7209068159 0.3397847624 2.5317351565
| 13> C 0.9545845939 -0.418407751 3.5953500687
| 14> S 2.0221845553 -1.6312850018 -1.2300424918
| 15> C 0.2413657964 -1.6506756049 -1.5634608823
| 16> S -0.7673624323 -1.9168569174 -0.073452791
| 17> P -1.8947669308 -0.1324014785 -0.0466711608
| 18> S -2.0898277564 0.7384448717 -1.7998662451
| 19> O -1.2513336306 0.6366826479 1.1778148236
| 20> C -1.9373773133 1.6614978904 1.933830571
| 21> C -2.2376781671 2.8854047258 1.0944300262
| 22> O -3.280204274 -0.5810912649 0.5929872999
| 23> C -4.3138915676 -1.2112843947 -0.1880789045
| 24> C -5.6424992164 -0.9569325396 0.4954357355
| 25> H 4.9607453282 -0.4737217829 -2.083189353
| 26> H 3.6104920707 0.5208689372 -2.6461729224
| 27> H 5.2661465872 1.1312154428 -2.7759913931
| 28> H 3.9922435296 2.1567886806 -0.8595947213
| 29> H 5.4447067245 1.2675611732 -0.3069507444
| 30> H 2.7493156637 0.5419133275 2.8411088636
| 31> H 1.2325057342 1.2850736112 2.2711902817
| 32> H 1.4483100692 -1.3636784423 3.8007062737
| 33> H 0.9169387172 0.1755857139 4.5028301637
| 34> H -0.0560945306 -0.6213729929 3.2508202716
| 35> H 0.0801984816 -2.4894540169 -2.2358991946
| 36> H -0.0695848253 -0.7103106771 -2.0292206777
| 37> H -2.852004246 1.2296156229 2.3455404771
| 38> H -1.2388612061 1.894075831 2.7397230459
| 39> H -2.9601264549 2.6425404558 0.316503852
| 40> H -2.6434193656 3.6691850778 1.7260545553
| 41> H -1.3282427364 3.2421093669 0.6135674723
| 42> H -4.2939833111 -0.7885579823 -1.1983932388
| 43> H -4.0895335244 -2.2793627501 -0.2407644919
| 44> H -5.6196575802 -1.3474358866 1.5087538131
| 45> H -5.8491791539 0.1091636469 0.5312224448
| 46> H -6.428703292 -1.4535363158 -0.0634684906
| 47> *
| 48>
| 49>                          ****END OF INPUT****

CARTESIAN COORDINATES (ANGSTROEM)
---------------------------------
  C      4.587858    0.544021   -2.165358
  C      4.472727    1.175205   -0.793201
  O      3.710688    0.358633    0.112729
  P      2.148955    0.110370   -0.066086
  S      1.166905    1.718559   -0.629162
  O      1.767556   -0.488556    1.348556
  C      1.720907    0.339785    2.531735
  C      0.954585   -0.418408    3.595350
  S      2.022185   -1.631285   -1.230042
  C      0.241366   -1.650676   -1.563461
  S     -0.767362   -1.916857   -0.073453
  P     -1.894767   -0.132401   -0.046671
  S     -2.089828    0.738445   -1.799866
  O     -1.251334    0.636683    1.177815
  C     -1.937377    1.661498    1.933831
  C     -2.237678    2.885405    1.094430
  O     -3.280204   -0.581091    0.592987
  C     -4.313892   -1.211284   -0.188079
  C     -5.642499   -0.956933    0.495436
  H      4.960745   -0.473722   -2.083189
  H      3.610492    0.520869   -2.646173
  H      5.266147    1.131215   -2.775991
  H      3.992244    2.156789   -0.859595
  H      5.444707    1.267561   -0.306951
  H      2.749316    0.541913    2.841109
  H      1.232506    1.285074    2.271190
  H      1.448310   -1.363678    3.800706
  H      0.916939    0.175586    4.502830
  H     -0.056095   -0.621373    3.250820
  H      0.080198   -2.489454   -2.235899
  H     -0.069585   -0.710311   -2.029221
  H     -2.852004    1.229616    2.345540
  H     -1.238861    1.894076    2.739723
  H     -2.960126    2.642540    0.316504
  H     -2.643419    3.669185    1.726055
  H     -1.328243    3.242109    0.613567
  H     -4.293983   -0.788558   -1.198393
  H     -4.089534   -2.279363   -0.240764
  H     -5.619658   -1.347436    1.508754
  H     -5.849179    0.109164    0.531222
  H     -6.428703   -1.453536   -0.063468

 Total Charge           Charge          ....    0
 Multiplicity           Mult            ....    1
 Number of Electrons    NEL             ....  202
 Basis Dimension        Dim             ....  334

ORBITAL ENERGIES
----------------

  NO   OCC          E(Eh)            E(eV)
   0   2.0000     -88.040666     -2395.7083
   1   2.0000     -88.039103     -2395.6658
   2   2.0000     -87.981624     -2394.1017
   3   2.0000     -87.978458     -2394.0156
   4   2.0000     -76.424405     -2079.6138
   5   2.0000     -76.419866     -2079.4903
   6   2.0000     -18.793334      -511.3926
   7   2.0000     -18.788836      -511.2702
   8   2.0000     -18.788811      -511.2695
   9   2.0000     -18.781991      -511.0840
  10   2.0000      -9.953542      -270.8496
  11   2.0000      -9.952190      -270.8129
  12   2.0000      -9.950640      -270.7707
  13   2.0000      -9.948245      -270.7055
  14   2.0000      -9.946179      -270.6493
  15   2.0000      -9.888810      -269.0882
  16   2.0000      -9.881024      -268.8763
  17   2.0000      -9.881000      -268.8757
  18   2.0000      -9.877682      -268.7854
  19   2.0000      -7.686354      -209.1563
  20   2.0000      -7.684398      -209.1031
  21   2.0000      -7.626579      -207.5298
  22   2.0000      -7.623296      -207.4404
  23   2.0000      -6.421690      -174.7431
  24   2.0000      -6.417575      -174.6311
  25   2.0000      -5.714369      -155.4959
  26   2.0000      -5.712263      -155.4386
  27   2.0000      -5.710737      -155.3970
  28   2.0000      -5.708927      -155.3478
  29   2.0000      -5.703197      -155.1919
  30   2.0000      -5.701309      -155.1405
  31   2.0000      -5.655461      -153.8929
  32   2.0000      -5.652017      -153.7992
  33   2.0000      -5.647439      -153.6746
  34   2.0000      -5.646507      -153.6493
  35   2.0000      -5.644041      -153.5822
  36   2.0000      -5.643527      -153.5682
  37   2.0000      -4.644492      -126.3831
  38   2.0000      -4.643265      -126.3497
  39   2.0000      -4.642110      -126.3182
  40   2.0000      -4.640169      -126.2654
  41   2.0000      -4.639287      -126.2414
  42   2.0000      -4.638019      -126.2069
  43   2.0000      -0.987218       -26.8636
  44   2.0000      -0.981241       -26.7009
  45   2.0000      -0.942381       -25.6435
  46   2.0000      -0.938614       -25.5410
  47   2.0000      -0.760929       -20.7059
  48   2.0000      -0.720384       -19.6026
  49   2.0000      -0.706739       -19.2314
  50   2.0000      -0.688331       -18.7304
  51   2.0000      -0.683333       -18.5944
  52   2.0000      -0.672263       -18.2932
  53   2.0000      -0.647272       -17.6132
  54   2.0000      -0.629693       -17.1348
  55   2.0000      -0.596072       -16.2199
  56   2.0000      -0.587498       -15.9866
  57   2.0000      -0.571302       -15.5459
  58   2.0000      -0.568814       -15.4782
  59   2.0000      -0.554544       -15.0899
  60   2.0000      -0.504435       -13.7264
  61   2.0000      -0.498282       -13.5589
  62   2.0000      -0.471936       -12.8420
  63   2.0000      -0.468827       -12.7574
  64   2.0000      -0.452226       -12.3057
  65   2.0000      -0.442233       -12.0338
  66   2.0000      -0.438189       -11.9237
  67   2.0000      -0.435391       -11.8476
  68   2.0000      -0.423165       -11.5149
  69   2.0000      -0.414777       -11.2866
  70   2.0000      -0.408566       -11.1176
  71   2.0000      -0.403727       -10.9860
  72   2.0000      -0.386313       -10.5121
  73   2.0000      -0.384491       -10.4625
  74   2.0000      -0.377643       -10.2762
  75   2.0000      -0.368095       -10.0164
  76   2.0000      -0.366902        -9.9839
  77   2.0000      -0.354201        -9.6383
  78   2.0000      -0.351623        -9.5682
  79   2.0000      -0.348063        -9.4713
  80   2.0000      -0.342907        -9.3310
  81   2.0000      -0.338921        -9.2225
  82   2.0000      -0.335265        -9.1230
  83   2.0000      -0.334751        -9.1090
  84   2.0000      -0.331340        -9.0162
  85   2.0000      -0.313921        -8.5422
  86   2.0000      -0.310894        -8.4599
  87   2.0000      -0.299817        -8.1584
  88   2.0000      -0.292775        -7.9668
  89   2.0000      -0.289133        -7.8677
  90   2.0000      -0.283896        -7.7252
  91   2.0000      -0.272134        -7.4052
  92   2.0000      -0.268103        -7.2955
  93   2.0000      -0.259102        -7.0505
  94   2.0000      -0.257666        -7.0115
  95   2.0000      -0.233743        -6.3605
  96   2.0000      -0.220441        -5.9985
  97   2.0000      -0.212718        -5.7884
  98   2.0000      -0.197876        -5.3845
  99   2.0000      -0.190771        -5.1911
 100   2.0000      -0.182124        -4.9558
 101   0.0000      -0.037967        -1.0331
 102   0.0000      -0.031274        -0.8510
 103   0.0000      -0.008474        -0.2306
 104   0.0000       0.012172         0.3312
 105   0.0000       0.020277         0.5518

MULLIKEN ATOMIC CHARGES
-----------------------
   0 C :   -0.319670
   1 C :   -0.001313
   2 O :   -0.380871
   3 P :    0.604584
   4 S :   -0.316066
   5 O :   -0.361443
   6 C :   -0.005225
   7 C :   -0.287330
   8 S :   -0.081215
   9 C :   -0.363052
  10 S :   -0.086176
  11 P :    0.629835
  12 S :   -0.308627
  13 O :   -0.361430
  14 C :   -0.009591
  15 C :   -0.313697
  16 O :   -0.389671
  17 C :   -0.006372
  18 C :   -0.284330
  19 H :    0.117561
  20 H :    0.129276
  21 H :    0.112857
  22 H :    0.109000
  23 H :    0.102413
  24 H :    0.099872
  25 H :    0.103532
  26 H :    0.115655
  27 H :    0.102981
  28 H :    0.127401
  29 H :    0.181462
  30 H :    0.207737
  31 H :    0.108470
  32 H :    0.105971
  33 H :    0.124907
  34 H :    0.106025
  35 H :    0.136331
  36 H :    0.105427
  37 H :    0.099849
  38 H :    0.115245
  39 H :    0.116946
  40 H :    0.112744
Sum of atomic charges:   -0.0000000

LOEWDIN ATOMIC CHARGES
----------------------
   0 C :   -0.370147
   1 C :   -0.120681
   2 O :   -0.249281
   3 P :    0.560848
   4 S :   -0.309578
   5 O :   -0.240770
   6 C :   -0.114836
   7 C :   -0.353450
   8 S :    0.092584
   9 C :   -0.481385
  10 S :    0.082440
  11 P :    0.569923
  12 S :   -0.297462
  13 O :   -0.233873
  14 C :   -0.110049
  15 C :   -0.367902
  16 O :   -0.251826
  17 C :   -0.122745
  18 C :   -0.351294
  19 H :    0.123843
  20 H :    0.122235
  21 H :    0.131009
  22 H :    0.109375
  23 H :    0.117303
  24 H :    0.110725
  25 H :    0.105510
  26 H :    0.127493
  27 H :    0.126056
  28 H :    0.126260
  29 H :    0.137378
  30 H :    0.125718
  31 H :    0.111250
  32 H :    0.115363
  33 H :    0.120854
  34 H :    0.127284
  35 H :    0.131695
  36 H :    0.106105
  37 H :    0.110508
  38 H :    0.125662
  39 H :    0.126576
  40 H :    0.131280

  Mayer bond orders larger than 0.100000
B(  0-C ,  1-C ) :   1.1651 B(  0-C , 19-H ) :   0.9449 B(  0-C , 20-H ) :   0.9347
B(  0-C , 21-H ) :   0.9381 B(  1-C ,  2-O ) :   0.9111 B(  1-C , 22-H ) :   0.9128
B(  1-C , 23-H ) :   0.9335 B(  2-O ,  3-P ) :   1.0921 B(  3-P ,  4-S ) :   1.6319
B(  3-P ,  5-O ) :   1.1319 B(  3-P ,  8-S ) :   0.9632 B(  4-S ,  8-S ) :   0.1139
B(  5-O ,  6-C ) :   0.8993 B(  6-C ,  7-C ) :   1.1652 B(  6-C , 24-H ) :   0.9299
B(  6-C , 25-H ) :   0.9067 B(  7-C , 26-H ) :   0.9484 B(  7-C , 27-H ) :   0.9412
B(  7-C , 28-H ) :   0.9432 B(  8-S ,  9-C ) :   0.9970 B(  9-C , 10-S ) :   1.0032
B(  9-C , 29-H ) :   0.9117 B(  9-C , 30-H ) :   0.8458 B( 10-S , 11-P ) :   0.9727
B( 10-S , 12-S ) :   0.1257 B( 11-P , 12-S ) :   1.6131 B( 11-P , 13-O ) :   1.1227
B( 11-P , 16-O ) :   1.0783 B( 12-S , 30-H ) :   0.1005 B( 13-O , 14-C ) :   0.9006
B( 14-C , 15-C ) :   1.1708 B( 14-C , 31-H ) :   0.9284 B( 14-C , 32-H ) :   0.9263
B( 15-C , 33-H ) :   0.9339 B( 15-C , 34-H ) :   0.9362 B( 15-C , 35-H ) :   0.9408
B( 16-O , 17-C ) :   0.9062 B( 17-C , 18-C ) :   1.1593 B( 17-C , 36-H ) :   0.9025
B( 17-C , 37-H ) :   0.9298 B( 18-C , 38-H ) :   0.9510 B( 18-C , 39-H ) :   0.9514
B( 18-C , 40-H ) :   0.9422

Dispersion correction           -0.067084520
FINAL SINGLE POINT ENERGY     -2929.518731522081

DIPOLE MOMENT
-------------

Method             : SCF
Type of density    : Electron Density
Multiplicity       :   1
Irrep              :   0
Energy             : -2929.6372438396456346 Eh
Relativity type    :
Basis              : AO
                                X                 Y                 Z
Electronic contribution:      7.275876908      -8.047090410     -10.573897090
Nuclear contribution   :     -7.472697025       7.872895995      11.522583624
                        -----------------------------------------
Total Dipole Moment    :     -0.196820117      -0.174194415       0.948686535
                        -----------------------------------------
Magnitude (a.u.)       :      0.984422670
Magnitude (Debye)      :      2.502203574

Rotational constants in cm-1:             0.012883             0.005291             0.004983
Rotational constants in MHz :           386.212078           158.626146           149.399994

                             ****ORCA TERMINATED NORMALLY****
TOTAL RUN TIME: 0 days 0 hours 0 minutes 21 seconds 224 msec
