                         Program Version 6.0.0  -   RELEASE  -
|  1> ! pbe def2-sv(p) def2/J RI DEFGRID1 loosescf d4 GCP(DFT/SV(P)) printgap
|  2> %output
|  3>     printlevel normal
|  4> end
|  5> * xyz 0 1
|  6> C 5.5614468557 0.0073710209 -1.5505473854
|  7> C 4.3966736748 0.6861042114 -0.8587438218
|  8> O 3.2807456399 -0.2277147666 -0.8643783257
|  9> P 2.0788648413 -0.081764092 0.161444431
| 10> S 2.6087100452 0.1894088859 2.0317347811
| 11> O 1.2159339947 -1.3646424284 -0.1542053055
| 12> C 1.3490193996 -2.5943157077 0.5881830405
| 13> C 2.7032850679 -3.2344130156 0.3739789897
| 14> S 0.8995451772 1.4413812049 -0.6980455559
| 15> C -0.0811779813 1.8018442299 0.7874789046
| 16> S -1.0950434175 0.4084024645 1.3525337705
| 17> P -2.2585250803 0.0684430746 -0.4216773709
| 18> S -1.5062472605 -0.9859910173 -1.8855264173
| 19> O -2.6955084208 1.5129286613 -0.8725501776
| 20> C -3.5572844992 2.3617894792 -0.0640361498
| 21> C -3.4331083274 3.7770557537 -0.5886440073
| 22> O -3.6081746192 -0.5259158037 0.1798657379
| 23> C -3.7930069001 -1.9350826279 0.3948333892
| 24> C -2.9018399414 -2.4552428354 1.5039415471
| 25> H 6.3996181025 0.6951210373 -1.5918579794
| 26> H 5.8554096251 -0.8843467457 -1.0042115871
| 27> H 5.2768409758 -0.276171279 -2.5597141771
| 28> H 4.0939964579 1.5951416323 -1.3855307007
| 29> H 4.6366165411 0.9366053988 0.1803849148
| 30> H 1.1824477824 -2.3764498089 1.6485835301
| 31> H 0.539873548 -3.2157092391 0.2002086431
| 32> H 3.4818473655 -2.5939078678 0.7875162728
| 33> H 2.7310365978 -4.1959721581 0.8768131484
| 34> H 2.8869784049 -3.372346284 -0.6884427701
| 35> H -0.7070166303 2.655165896 0.5409620489
| 36> H 0.5891280462 2.0297452543 1.6172152078
| 37> H -4.5767616397 1.9859533923 -0.1641564841
| 38> H -3.2510614847 2.283367572 0.982876061
| 39> H -3.7247090313 3.811110111 -1.6343384524
| 40> H -4.0833571087 4.4273067175 -0.012317612
| 41> H -2.4087230786 4.1309073535 -0.5058026682
| 42> H -4.8500696591 -2.0257681995 0.6478845805
| 43> H -3.586048684 -2.4576471131 -0.5446521482
| 44> H -3.0550161364 -1.8826180593 2.4151546566
| 45> H -3.1259209217 -3.5004964426 1.6899811446
| 46> H -1.8567829981 -2.3644723022 1.207619111
| 47> *
| 48>
| 49>                          ****END OF INPUT****

CARTESIAN COORDINATES (ANGSTROEM)
---------------------------------
  C      5.561447    0.007371   -1.550547
  C      4.396674    0.686104   -0.858744
  O      3.280746   -0.227715   -0.864378
  P      2.078865   -0.081764    0.161444
  S      2.608710    0.189409    2.031735
  O      1.215934   -1.364642   -0.154205
  C      1.349019   -2.594316    0.588183
  C      2.703285   -3.234413    0.373979
  S      0.899545    1.441381   -0.698046
  C     -0.081178    1.801844    0.787479
  S     -1.095043    0.408402    1.352534
  P     -2.258525    0.068443   -0.421677
  S     -1.506247   -0.985991   -1.885526
  O     -2.695508    1.512929   -0.872550
  C     -3.557284    2.361789   -0.064036
  C     -3.433108    3.777056   -0.588644
  O     -3.608175   -0.525916    0.179866
  C     -3.793007   -1.935083    0.394833
  C     -2.901840   -2.455243    1.503942
  H      6.399618    0.695121   -1.591858
  H      5.855410   -0.884347   -1.004212
  H      5.276841   -0.276171   -2.559714
  H      4.093996    1.595142   -1.385531
  H      4.636617    0.936605    0.180385
  H      1.182448   -2.376450    1.648584
  H      0.539874   -3.215709    0.200209
  H      3.481847   -2.593908    0.787516
  H      2.731037   -4.195972    0.876813
  H      2.886978   -3.372346   -0.688443
  H     -0.707017    2.655166    0.540962
  H      0.589128    2.029745    1.617215
  H     -4.576762    1.985953   -0.164156
  H     -3.251061    2.283368    0.982876
  H     -3.724709    3.811110   -1.634338
  H     -4.083357    4.427307   -0.012318
  H     -2.408723    4.130907   -0.505803
  H     -4.850070   -2.025768    0.647885
  H     -3.586049   -2.457647   -0.544652
  H     -3.055016   -1.882618    2.415155
  H     -3.125921   -3.500496    1.689981
  H     -1.856783   -2.364472    1.207619

 Total Charge           Charge          ....    0
 Multiplicity           Mult            ....    1
 Number of Electrons    NEL             ....  202
 Basis Dimension        Dim             ....  334

ORBITAL ENERGIES
----------------

  NO   OCC          E(Eh)            E(eV)
   0   2.0000     -88.038721     -2395.6554
   1   2.0000     -88.037667     -2395.6267
   2   2.0000     -87.984750     -2394.1868
   3   2.0000     -87.976571     -2393.9642
   4   2.0000     -76.422525     -2079.5626
   5   2.0000     -76.421950     -2079.5470
   6   2.0000     -18.793691      -511.4023
   7   2.0000     -18.790712      -511.3213
   8   2.0000     -18.790396      -511.3127
   9   2.0000     -18.783134      -511.1151
  10   2.0000      -9.959205      -271.0037
  11   2.0000      -9.956839      -270.9394
  12   2.0000      -9.952468      -270.8204
  13   2.0000      -9.950904      -270.7779
  14   2.0000      -9.945669      -270.6354
  15   2.0000      -9.894672      -269.2477
  16   2.0000      -9.887325      -269.0478
  17   2.0000      -9.886701      -269.0308
  18   2.0000      -9.879122      -268.8246
  19   2.0000      -7.683120      -209.0683
  20   2.0000      -7.683054      -209.0665
  21   2.0000      -7.629757      -207.6162
  22   2.0000      -7.621843      -207.4009
  23   2.0000      -6.420147      -174.7011
  24   2.0000      -6.419359      -174.6796
  25   2.0000      -5.711026      -155.4049
  26   2.0000      -5.710943      -155.4027
  27   2.0000      -5.707681      -155.3139
  28   2.0000      -5.707642      -155.3128
  29   2.0000      -5.700163      -155.1093
  30   2.0000      -5.699816      -155.0999
  31   2.0000      -5.658439      -153.9740
  32   2.0000      -5.650928      -153.7696
  33   2.0000      -5.650502      -153.7580
  34   2.0000      -5.650034      -153.7453
  35   2.0000      -5.642563      -153.5420
  36   2.0000      -5.641719      -153.5190
  37   2.0000      -4.642610      -126.3318
  38   2.0000      -4.642516      -126.3293
  39   2.0000      -4.641899      -126.3125
  40   2.0000      -4.641068      -126.2899
  41   2.0000      -4.640786      -126.2822
  42   2.0000      -4.639248      -126.2404
  43   2.0000      -0.988087       -26.8872
  44   2.0000      -0.983062       -26.7505
  45   2.0000      -0.945040       -25.7159
  46   2.0000      -0.941862       -25.6294
  47   2.0000      -0.761149       -20.7119
  48   2.0000      -0.720562       -19.6075
  49   2.0000      -0.710411       -19.3313
  50   2.0000      -0.691785       -18.8244
  51   2.0000      -0.685218       -18.6457
  52   2.0000      -0.670634       -18.2489
  53   2.0000      -0.647231       -17.6121
  54   2.0000      -0.635770       -17.3002
  55   2.0000      -0.595990       -16.2177
  56   2.0000      -0.588760       -16.0210
  57   2.0000      -0.575745       -15.6668
  58   2.0000      -0.564335       -15.3563
  59   2.0000      -0.559227       -15.2173
  60   2.0000      -0.508512       -13.8373
  61   2.0000      -0.500346       -13.6151
  62   2.0000      -0.475193       -12.9307
  63   2.0000      -0.473503       -12.8847
  64   2.0000      -0.461667       -12.5626
  65   2.0000      -0.444291       -12.0898
  66   2.0000      -0.438452       -11.9309
  67   2.0000      -0.433256       -11.7895
  68   2.0000      -0.427341       -11.6285
  69   2.0000      -0.416819       -11.3422
  70   2.0000      -0.405098       -11.0233
  71   2.0000      -0.394292       -10.7292
  72   2.0000      -0.391401       -10.6506
  73   2.0000      -0.381591       -10.3836
  74   2.0000      -0.378049       -10.2872
  75   2.0000      -0.370650       -10.0859
  76   2.0000      -0.365388        -9.9427
  77   2.0000      -0.364294        -9.9130
  78   2.0000      -0.359631        -9.7861
  79   2.0000      -0.354802        -9.6547
  80   2.0000      -0.347007        -9.4425
  81   2.0000      -0.346378        -9.4254
  82   2.0000      -0.341695        -9.2980
  83   2.0000      -0.339145        -9.2286
  84   2.0000      -0.328892        -8.9496
  85   2.0000      -0.319081        -8.6826
  86   2.0000      -0.311737        -8.4828
  87   2.0000      -0.304168        -8.2768
  88   2.0000      -0.297880        -8.1057
  89   2.0000      -0.292276        -7.9532
  90   2.0000      -0.280469        -7.6320
  91   2.0000      -0.271087        -7.3767
  92   2.0000      -0.269153        -7.3240
  93   2.0000      -0.260309        -7.0834
  94   2.0000      -0.256622        -6.9830
  95   2.0000      -0.234891        -6.3917
  96   2.0000      -0.216255        -5.8846
  97   2.0000      -0.206572        -5.6211
  98   2.0000      -0.202529        -5.5111
  99   2.0000      -0.191997        -5.2245
 100   2.0000      -0.185030        -5.0349
 101   0.0000      -0.045607        -1.2410
 102   0.0000      -0.018918        -0.5148
 103   0.0000      -0.010541        -0.2868
 104   0.0000       0.005361         0.1459
 105   0.0000       0.020872         0.5679

MULLIKEN ATOMIC CHARGES
-----------------------
   0 C :   -0.282232
   1 C :   -0.011900
   2 O :   -0.373122
   3 P :    0.622211
   4 S :   -0.347683
   5 O :   -0.342915
   6 C :   -0.020421
   7 C :   -0.296974
   8 S :   -0.074902
   9 C :   -0.366221
  10 S :   -0.107929
  11 P :    0.597345
  12 S :   -0.286647
  13 O :   -0.369114
  14 C :   -0.020189
  15 C :   -0.287870
  16 O :   -0.385982
  17 C :    0.004467
  18 C :   -0.349075
  19 H :    0.111489
  20 H :    0.119486
  21 H :    0.119534
  22 H :    0.103006
  23 H :    0.105257
  24 H :    0.112288
  25 H :    0.114415
  26 H :    0.120903
  27 H :    0.108974
  28 H :    0.118752
  29 H :    0.188960
  30 H :    0.192631
  31 H :    0.113196
  32 H :    0.105321
  33 H :    0.125934
  34 H :    0.113892
  35 H :    0.123667
  36 H :    0.103875
  37 H :    0.109757
  38 H :    0.122270
  39 H :    0.115837
  40 H :    0.149710
Sum of atomic charges:    0.0000000

LOEWDIN ATOMIC CHARGES
----------------------
   0 C :   -0.350429
   1 C :   -0.120686
   2 O :   -0.244805
   3 P :    0.573052
   4 S :   -0.332571
   5 O :   -0.224339
   6 C :   -0.117256
   7 C :   -0.365581
   8 S :    0.089873
   9 C :   -0.480332
  10 S :    0.068684
  11 P :    0.563594
  12 S :   -0.296460
  13 O :   -0.242858
  14 C :   -0.116388
  15 C :   -0.350205
  16 O :   -0.251654
  17 C :   -0.118820
  18 C :   -0.373462
  19 H :    0.130661
  20 H :    0.127863
  21 H :    0.128261
  22 H :    0.110729
  23 H :    0.107441
  24 H :    0.110119
  25 H :    0.118273
  26 H :    0.120502
  27 H :    0.129368
  28 H :    0.127513
  29 H :    0.126585
  30 H :    0.130990
  31 H :    0.118799
  32 H :    0.105170
  33 H :    0.132556
  34 H :    0.131984
  35 H :    0.123939
  36 H :    0.118186
  37 H :    0.110588
  38 H :    0.125840
  39 H :    0.132569
  40 H :    0.122709

  Mayer bond orders larger than 0.100000
B(  0-C ,  1-C ) :   1.1614 B(  0-C , 19-H ) :   0.9418 B(  0-C , 20-H ) :   0.9514
B(  0-C , 21-H ) :   0.9501 B(  1-C ,  2-O ) :   0.9042 B(  1-C , 22-H ) :   0.9294
B(  1-C , 23-H ) :   0.9080 B(  2-O ,  3-P ) :   1.1110 B(  3-P ,  4-S ) :   1.5862
B(  3-P ,  5-O ) :   1.1538 B(  3-P ,  8-S ) :   0.9616 B(  4-S ,  8-S ) :   0.1100
B(  5-O ,  6-C ) :   0.9046 B(  6-C ,  7-C ) :   1.1625 B(  6-C , 24-H ) :   0.9180
B(  6-C , 25-H ) :   0.9243 B(  7-C , 26-H ) :   0.9331 B(  7-C , 27-H ) :   0.9388
B(  7-C , 28-H ) :   0.9446 B(  8-S ,  9-C ) :   1.0129 B(  9-C , 10-S ) :   0.9990
B(  9-C , 29-H ) :   0.8926 B(  9-C , 30-H ) :   0.8801 B( 10-S , 11-P ) :   0.9325
B( 10-S , 12-S ) :   0.1095 B( 11-P , 12-S ) :   1.6942 B( 11-P , 13-O ) :   1.1152
B( 11-P , 16-O ) :   1.0660 B( 13-O , 14-C ) :   0.8864 B( 14-C , 15-C ) :   1.1586
B( 14-C , 31-H ) :   0.9295 B( 14-C , 32-H ) :   0.9122 B( 15-C , 33-H ) :   0.9460
B( 15-C , 34-H ) :   0.9400 B( 15-C , 35-H ) :   0.9476 B( 16-O , 17-C ) :   0.9131
B( 17-C , 18-C ) :   1.1628 B( 17-C , 36-H ) :   0.9331 B( 17-C , 37-H ) :   0.9133
B( 18-C , 38-H ) :   0.9420 B( 18-C , 39-H ) :   0.9378 B( 18-C , 40-H ) :   0.9259

Dispersion correction           -0.065651293
FINAL SINGLE POINT ENERGY     -2929.518062861786

DIPOLE MOMENT
-------------

Method             : SCF
Type of density    : Electron Density
Multiplicity       :   1
Irrep              :   0
Energy             : -2929.6364509059299053 Eh
Relativity type    :
Basis              : AO
                                X                 Y                 Z
Electronic contribution:     -2.909566454       4.609855771      -2.302888078
Nuclear contribution   :      2.404461635      -4.338901016       2.720977838
                        -----------------------------------------
Total Dipole Moment    :     -0.505104818       0.270954755       0.418089759
                        -----------------------------------------
Magnitude (a.u.)       :      0.709469100
Magnitude (Debye)      :      1.803327139

Rotational constants in cm-1:             0.012172             0.005214             0.004543
Rotational constants in MHz :           364.916437           156.325684           136.196942

                             ****ORCA TERMINATED NORMALLY****
TOTAL RUN TIME: 0 days 0 hours 0 minutes 21 seconds 209 msec
