                         Program Version 6.0.0  -   RELEASE  -
|  1> ! pbe def2-sv(p) def2/J RI DEFGRID1 loosescf d4 GCP(DFT/SV(P)) printgap
|  2> %output
|  3>     printlevel normal
|  4> end
|  5> * xyz 0 1
|  6> C 4.5664124262 -1.6996962252 -0.5729950313
|  7> C 4.6055612249 -0.2169760125 -0.2650652857
|  8> O 3.4554446059 0.2100356503 0.4845946068
|  9> P 2.0009817454 0.2967396975 -0.1578698899
| 10> S 2.0086828802 0.8627618612 -2.041703683
| 11> O 1.2523568253 1.1582648246 0.939561968
| 12> C 1.7180179633 2.4165185211 1.4695984928
| 13> C 1.8918249108 3.4705329201 0.396195756
| 14> S 1.1401210996 -1.5879112958 0.2069070877
| 15> C -0.0119378574 -1.7037426486 -1.2030264539
| 16> S -1.7388884985 -1.8404274871 -0.6994607339
| 17> P -1.9698255609 0.0734808904 0.2031243958
| 18> S -1.3531871811 1.5786320108 -0.8882995237
| 19> O -1.2582913495 0.0283089037 1.6105298646
| 20> C -1.7670314267 -0.6062795504 2.8110080144
| 21> C -1.8909179646 -2.1094730102 2.6769016929
| 22> O -3.5057191778 0.1147709173 0.6086572397
| 23> C -4.5381965919 0.5570201714 -0.2905852807
| 24> C -4.7265069607 -0.3838890941 -1.4625099217
| 25> H 4.3980381309 -2.2706056757 0.3364769337
| 26> H 3.7619837209 -1.9113680477 -1.2756433461
| 27> H 5.5100458691 -1.9972955428 -1.0186315743
| 28> H 4.6499993068 0.3660890607 -1.1907096183
| 29> H 5.4475675504 0.0400995189 0.37907785
| 30> H 0.9332466811 2.6959423327 2.1752103985
| 31> H 2.6554358951 2.2357449941 2.0011422555
| 32> H 2.1322176958 4.4229973022 0.8577090131
| 33> H 2.6951954571 3.1895888296 -0.2838895886
| 34> H 0.9737993182 3.5704445665 -0.1809611563
| 35> H 0.2105241987 -2.6180643693 -1.7470629159
| 36> H 0.1298218943 -0.8240357261 -1.8378920703
| 37> H -1.0244825514 -0.3331220178 3.5626902578
| 38> H -2.7296763263 -0.1520146915 3.0526288148
| 39> H -2.6743573868 -2.3665681721 1.9676303048
| 40> H -0.9507693007 -2.5381533231 2.3362689275
| 41> H -2.1417790792 -2.5267016154 3.6472935937
| 42> H -5.4275849192 0.5982781278 0.3400107817
| 43> H -4.282343779 1.5616356816 -0.6414757652
| 44> H -5.6037341115 -0.0811330202 -2.0252308932
| 45> H -3.857711357 -0.3430542152 -2.1174454016
| 46> H -4.8544991522 -1.4052728287 -1.1135247054
| 47> *
| 48>
| 49>                          ****END OF INPUT****

CARTESIAN COORDINATES (ANGSTROEM)
---------------------------------
  C      4.566412   -1.699696   -0.572995
  C      4.605561   -0.216976   -0.265065
  O      3.455445    0.210036    0.484595
  P      2.000982    0.296740   -0.157870
  S      2.008683    0.862762   -2.041704
  O      1.252357    1.158265    0.939562
  C      1.718018    2.416519    1.469598
  C      1.891825    3.470533    0.396196
  S      1.140121   -1.587911    0.206907
  C     -0.011938   -1.703743   -1.203026
  S     -1.738888   -1.840427   -0.699461
  P     -1.969826    0.073481    0.203124
  S     -1.353187    1.578632   -0.888300
  O     -1.258291    0.028309    1.610530
  C     -1.767031   -0.606280    2.811008
  C     -1.890918   -2.109473    2.676902
  O     -3.505719    0.114771    0.608657
  C     -4.538197    0.557020   -0.290585
  C     -4.726507   -0.383889   -1.462510
  H      4.398038   -2.270606    0.336477
  H      3.761984   -1.911368   -1.275643
  H      5.510046   -1.997296   -1.018632
  H      4.649999    0.366089   -1.190710
  H      5.447568    0.040100    0.379078
  H      0.933247    2.695942    2.175210
  H      2.655436    2.235745    2.001142
  H      2.132218    4.422997    0.857709
  H      2.695195    3.189589   -0.283890
  H      0.973799    3.570445   -0.180961
  H      0.210524   -2.618064   -1.747063
  H      0.129822   -0.824036   -1.837892
  H     -1.024483   -0.333122    3.562690
  H     -2.729676   -0.152015    3.052629
  H     -2.674357   -2.366568    1.967630
  H     -0.950769   -2.538153    2.336269
  H     -2.141779   -2.526702    3.647294
  H     -5.427585    0.598278    0.340011
  H     -4.282344    1.561636   -0.641476
  H     -5.603734   -0.081133   -2.025231
  H     -3.857711   -0.343054   -2.117445
  H     -4.854499   -1.405273   -1.113525

 Total Charge           Charge          ....    0
 Multiplicity           Mult            ....    1
 Number of Electrons    NEL             ....  202
 Basis Dimension        Dim             ....  334

ORBITAL ENERGIES
----------------

  NO   OCC          E(Eh)            E(eV)
   0   2.0000     -88.038769     -2395.6567
   1   2.0000     -88.038093     -2395.6383
   2   2.0000     -87.979248     -2394.0371
   3   2.0000     -87.976228     -2393.9549
   4   2.0000     -76.422001     -2079.5484
   5   2.0000     -76.420436     -2079.5058
   6   2.0000     -18.794551      -511.4257
   7   2.0000     -18.790055      -511.3034
   8   2.0000     -18.783798      -511.1331
   9   2.0000     -18.777138      -510.9519
  10   2.0000      -9.953132      -270.8385
  11   2.0000      -9.952984      -270.8345
  12   2.0000      -9.950799      -270.7750
  13   2.0000      -9.948049      -270.7002
  14   2.0000      -9.944739      -270.6101
  15   2.0000      -9.883641      -268.9476
  16   2.0000      -9.883046      -268.9313
  17   2.0000      -9.880667      -268.8666
  18   2.0000      -9.871252      -268.6104
  19   2.0000      -7.683773      -209.0861
  20   2.0000      -7.683192      -209.0703
  21   2.0000      -7.624169      -207.4642
  22   2.0000      -7.621258      -207.3850
  23   2.0000      -6.419117      -174.6731
  24   2.0000      -6.417612      -174.6321
  25   2.0000      -5.711655      -155.4220
  26   2.0000      -5.711045      -155.4054
  27   2.0000      -5.708227      -155.3288
  28   2.0000      -5.707767      -155.3162
  29   2.0000      -5.700791      -155.1264
  30   2.0000      -5.700038      -155.1059
  31   2.0000      -5.653057      -153.8275
  32   2.0000      -5.650182      -153.7493
  33   2.0000      -5.644976      -153.6076
  34   2.0000      -5.644179      -153.5859
  35   2.0000      -5.641960      -153.5255
  36   2.0000      -5.641297      -153.5075
  37   2.0000      -4.642271      -126.3226
  38   2.0000      -4.640716      -126.2803
  39   2.0000      -4.640393      -126.2715
  40   2.0000      -4.639248      -126.2403
  41   2.0000      -4.639086      -126.2360
  42   2.0000      -4.638215      -126.2122
  43   2.0000      -0.985425       -26.8148
  44   2.0000      -0.980595       -26.6833
  45   2.0000      -0.940736       -25.5987
  46   2.0000      -0.935214       -25.4485
  47   2.0000      -0.759010       -20.6537
  48   2.0000      -0.716438       -19.4953
  49   2.0000      -0.705150       -19.1881
  50   2.0000      -0.689059       -18.7503
  51   2.0000      -0.682508       -18.5720
  52   2.0000      -0.671289       -18.2667
  53   2.0000      -0.647821       -17.6281
  54   2.0000      -0.628157       -17.0930
  55   2.0000      -0.596110       -16.2210
  56   2.0000      -0.587442       -15.9851
  57   2.0000      -0.577006       -15.7011
  58   2.0000      -0.569929       -15.5085
  59   2.0000      -0.555057       -15.1039
  60   2.0000      -0.493691       -13.4340
  61   2.0000      -0.489683       -13.3249
  62   2.0000      -0.468171       -12.7396
  63   2.0000      -0.462808       -12.5937
  64   2.0000      -0.448714       -12.2101
  65   2.0000      -0.447216       -12.1694
  66   2.0000      -0.440144       -11.9769
  67   2.0000      -0.426813       -11.6142
  68   2.0000      -0.424960       -11.5638
  69   2.0000      -0.414259       -11.2725
  70   2.0000      -0.409547       -11.1443
  71   2.0000      -0.402016       -10.9394
  72   2.0000      -0.397335       -10.8120
  73   2.0000      -0.381382       -10.3779
  74   2.0000      -0.375911       -10.2291
  75   2.0000      -0.365878        -9.9561
  76   2.0000      -0.363924        -9.9029
  77   2.0000      -0.354125        -9.6362
  78   2.0000      -0.349579        -9.5125
  79   2.0000      -0.348258        -9.4766
  80   2.0000      -0.340573        -9.2675
  81   2.0000      -0.338710        -9.2168
  82   2.0000      -0.336349        -9.1525
  83   2.0000      -0.332065        -9.0359
  84   2.0000      -0.325172        -8.8484
  85   2.0000      -0.317494        -8.6395
  86   2.0000      -0.309138        -8.4121
  87   2.0000      -0.294936        -8.0256
  88   2.0000      -0.292222        -7.9518
  89   2.0000      -0.290910        -7.9161
  90   2.0000      -0.274691        -7.4747
  91   2.0000      -0.270862        -7.3705
  92   2.0000      -0.266344        -7.2476
  93   2.0000      -0.258024        -7.0212
  94   2.0000      -0.254874        -6.9355
  95   2.0000      -0.229818        -6.2537
  96   2.0000      -0.216589        -5.8937
  97   2.0000      -0.210039        -5.7154
  98   2.0000      -0.196295        -5.3415
  99   2.0000      -0.186537        -5.0759
 100   2.0000      -0.181008        -4.9255
 101   0.0000      -0.039123        -1.0646
 102   0.0000      -0.029620        -0.8060
 103   0.0000      -0.006302        -0.1715
 104   0.0000       0.012057         0.3281
 105   0.0000       0.019509         0.5309

MULLIKEN ATOMIC CHARGES
-----------------------
   0 C :   -0.307588
   1 C :   -0.003666
   2 O :   -0.383711
   3 P :    0.626073
   4 S :   -0.313929
   5 O :   -0.350912
   6 C :    0.009057
   7 C :   -0.321955
   8 S :   -0.095041
   9 C :   -0.353284
  10 S :   -0.109262
  11 P :    0.605414
  12 S :   -0.296747
  13 O :   -0.348651
  14 C :    0.008706
  15 C :   -0.318538
  16 O :   -0.387088
  17 C :    0.001166
  18 C :   -0.322256
  19 H :    0.114522
  20 H :    0.120838
  21 H :    0.110627
  22 H :    0.109735
  23 H :    0.100737
  24 H :    0.102818
  25 H :    0.101248
  26 H :    0.103935
  27 H :    0.121727
  28 H :    0.137636
  29 H :    0.179605
  30 H :    0.208719
  31 H :    0.106278
  32 H :    0.106578
  33 H :    0.121045
  34 H :    0.127113
  35 H :    0.109233
  36 H :    0.102597
  37 H :    0.112252
  38 H :    0.114582
  39 H :    0.134029
  40 H :    0.116357
Sum of atomic charges:   -0.0000000

LOEWDIN ATOMIC CHARGES
----------------------
   0 C :   -0.368304
   1 C :   -0.121831
   2 O :   -0.248778
   3 P :    0.572331
   4 S :   -0.302384
   5 O :   -0.230545
   6 C :   -0.108105
   7 C :   -0.369873
   8 S :    0.085839
   9 C :   -0.481550
  10 S :    0.078515
  11 P :    0.566085
  12 S :   -0.299623
  13 O :   -0.230953
  14 C :   -0.106840
  15 C :   -0.371222
  16 O :   -0.249919
  17 C :   -0.117268
  18 C :   -0.372182
  19 H :    0.123406
  20 H :    0.119840
  21 H :    0.129670
  22 H :    0.108796
  23 H :    0.116151
  24 H :    0.119407
  25 H :    0.109021
  26 H :    0.126123
  27 H :    0.119047
  28 H :    0.131210
  29 H :    0.136387
  30 H :    0.125660
  31 H :    0.120884
  32 H :    0.112901
  33 H :    0.116885
  34 H :    0.123312
  35 H :    0.128963
  36 H :    0.117403
  37 H :    0.112799
  38 H :    0.132140
  39 H :    0.123983
  40 H :    0.122621

  Mayer bond orders larger than 0.100000
B(  0-C ,  1-C ) :   1.1675 B(  0-C , 19-H ) :   0.9453 B(  0-C , 20-H ) :   0.9366
B(  0-C , 21-H ) :   0.9385 B(  1-C ,  2-O ) :   0.9125 B(  1-C , 22-H ) :   0.9113
B(  1-C , 23-H ) :   0.9333 B(  2-O ,  3-P ) :   1.0801 B(  3-P ,  4-S ) :   1.5970
B(  3-P ,  5-O ) :   1.1430 B(  3-P ,  8-S ) :   0.9638 B(  4-S ,  8-S ) :   0.1198
B(  5-O ,  6-C ) :   0.9094 B(  6-C ,  7-C ) :   1.1660 B(  6-C , 24-H ) :   0.9328
B(  6-C , 25-H ) :   0.9315 B(  7-C , 26-H ) :   0.9361 B(  7-C , 27-H ) :   0.9363
B(  7-C , 28-H ) :   0.9396 B(  8-S ,  9-C ) :   0.9991 B(  9-C , 10-S ) :   1.0039
B(  9-C , 29-H ) :   0.9118 B(  9-C , 30-H ) :   0.8451 B( 10-S , 11-P ) :   0.9358
B( 10-S , 12-S ) :   0.1069 B( 11-P , 12-S ) :   1.6563 B( 11-P , 13-O ) :   1.1354
B( 11-P , 16-O ) :   1.0706 B( 13-O , 14-C ) :   0.9021 B( 14-C , 15-C ) :   1.1713
B( 14-C , 31-H ) :   0.9340 B( 14-C , 32-H ) :   0.9276 B( 15-C , 33-H ) :   0.9395
B( 15-C , 34-H ) :   0.9385 B( 15-C , 35-H ) :   0.9352 B( 16-O , 17-C ) :   0.9055
B( 17-C , 18-C ) :   1.1677 B( 17-C , 36-H ) :   0.9341 B( 17-C , 37-H ) :   0.9157
B( 18-C , 38-H ) :   0.9368 B( 18-C , 39-H ) :   0.9329 B( 18-C , 40-H ) :   0.9440

Dispersion correction           -0.068973504
FINAL SINGLE POINT ENERGY     -2929.512724792043

DIPOLE MOMENT
-------------

Method             : SCF
Type of density    : Electron Density
Multiplicity       :   1
Irrep              :   0
Energy             : -2929.6297509296323369 Eh
Relativity type    :
Basis              : AO
                                X                 Y                 Z
Electronic contribution:     -0.151948094       0.333594015      -5.679869009
Nuclear contribution   :     -0.076341661      -0.923960356       6.889642575
                        -----------------------------------------
Total Dipole Moment    :     -0.228289755      -0.590366340       1.209773566
                        -----------------------------------------
Magnitude (a.u.)       :      1.365357356
Magnitude (Debye)      :      3.470462596

Rotational constants in cm-1:             0.012783             0.005517             0.005198
Rotational constants in MHz :           383.229340           165.391589           155.819526

                             ****ORCA TERMINATED NORMALLY****
TOTAL RUN TIME: 0 days 0 hours 0 minutes 21 seconds 816 msec
