                         Program Version 6.0.0  -   RELEASE  -
|  1> ! pbe def2-sv(p) def2/J RI DEFGRID1 loosescf d4 GCP(DFT/SV(P)) printgap
|  2> %output
|  3>     printlevel normal
|  4> end
|  5> * xyz 0 1
|  6> C 2.8448039078 1.765367196 -2.1410395362
|  7> C 3.1575453786 0.2842857801 -2.1264607414
|  8> O 2.2885393226 -0.4581656105 -1.2462827258
|  9> P 2.1216163079 -0.2127619627 0.3081683801
| 10> S 1.0772481293 1.3359559794 0.9304893318
| 11> O 3.6299930946 -0.1919174044 0.8048302148
| 12> C 3.9985696715 0.2646511993 2.1178028631
| 13> C 3.5519670067 -0.7034132553 3.1935166045
| 14> S 1.4077524596 -2.1209413571 0.8504101862
| 15> C -0.19859505 -2.1083101924 0.0055424848
| 16> S -1.4726358786 -1.1320228636 0.8560574687
| 17> P -1.8738143862 0.3896406081 -0.5908325033
| 18> S -0.7750986271 0.3042649265 -2.2090586066
| 19> O -1.8664405678 1.8105383759 0.0723686742
| 20> C -2.8395445449 2.3142995865 1.0212363415
| 21> C -2.8311906197 1.5378147364 2.3200318481
| 22> O -3.4336678496 0.1938807345 -0.8664002402
| 23> C -3.9292649047 -0.9734978467 -1.5477749101
| 24> C -5.3966874068 -0.7472371647 -1.8502952971
| 25> H 3.0393000011 2.2034182782 -1.1626352582
| 26> H 3.4641620634 2.2591803845 -2.8828835175
| 27> H 1.7959810383 1.9218519717 -2.3876108521
| 28> H 4.188780688 0.1024082181 -1.8154340222
| 29> H 2.9708359571 -0.168709124 -3.1017187684
| 30> H 5.085127263 0.347915001 2.0713711196
| 31> H 3.5527184231 1.2518189075 2.2782590372
| 32> H 3.9110997746 -1.7053213957 2.9731065649
| 33> H 3.9416116376 -0.3806747521 4.153514298
| 34> H 2.4638360888 -0.72562791 3.2419705336
| 35> H -0.5281273887 -3.1437018419 -0.0009495099
| 36> H -0.0750210623 -1.7179892116 -1.0083438794
| 37> H -2.5193840046 3.3466772965 1.1702806421
| 38> H -3.8225336438 2.288209553 0.54738756
| 39> H -1.8200699848 1.4923847133 2.7189221528
| 40> H -3.4773154435 2.0352077594 3.0364800047
| 41> H -3.1914328097 0.5224934398 2.1603523713
| 42> H -3.3463680229 -1.114279212 -2.4642108208
| 43> H -3.7852506116 -1.8391555496 -0.8943402835
| 44> H -5.9475848811 -0.5946866457 -0.9269053932
| 45> H -5.5161310686 0.1286447576 -2.4817762238
| 46> H -5.7912145851 -1.6168262209 -2.3653074815
| 47> *
| 48>
| 49>                          ****END OF INPUT****

CARTESIAN COORDINATES (ANGSTROEM)
---------------------------------
  C      2.844804    1.765367   -2.141040
  C      3.157545    0.284286   -2.126461
  O      2.288539   -0.458166   -1.246283
  P      2.121616   -0.212762    0.308168
  S      1.077248    1.335956    0.930489
  O      3.629993   -0.191917    0.804830
  C      3.998570    0.264651    2.117803
  C      3.551967   -0.703413    3.193517
  S      1.407752   -2.120941    0.850410
  C     -0.198595   -2.108310    0.005542
  S     -1.472636   -1.132023    0.856057
  P     -1.873814    0.389641   -0.590833
  S     -0.775099    0.304265   -2.209059
  O     -1.866441    1.810538    0.072369
  C     -2.839545    2.314300    1.021236
  C     -2.831191    1.537815    2.320032
  O     -3.433668    0.193881   -0.866400
  C     -3.929265   -0.973498   -1.547775
  C     -5.396687   -0.747237   -1.850295
  H      3.039300    2.203418   -1.162635
  H      3.464162    2.259180   -2.882884
  H      1.795981    1.921852   -2.387611
  H      4.188781    0.102408   -1.815434
  H      2.970836   -0.168709   -3.101719
  H      5.085127    0.347915    2.071371
  H      3.552718    1.251819    2.278259
  H      3.911100   -1.705321    2.973107
  H      3.941612   -0.380675    4.153514
  H      2.463836   -0.725628    3.241971
  H     -0.528127   -3.143702   -0.000950
  H     -0.075021   -1.717989   -1.008344
  H     -2.519384    3.346677    1.170281
  H     -3.822534    2.288210    0.547388
  H     -1.820070    1.492385    2.718922
  H     -3.477315    2.035208    3.036480
  H     -3.191433    0.522493    2.160352
  H     -3.346368   -1.114279   -2.464211
  H     -3.785251   -1.839156   -0.894340
  H     -5.947585   -0.594687   -0.926905
  H     -5.516131    0.128645   -2.481776
  H     -5.791215   -1.616826   -2.365307

 Total Charge           Charge          ....    0
 Multiplicity           Mult            ....    1
 Number of Electrons    NEL             ....  202
 Basis Dimension        Dim             ....  334

ORBITAL ENERGIES
----------------

  NO   OCC          E(Eh)            E(eV)
   0   2.0000     -88.036349     -2395.5908
   1   2.0000     -88.034191     -2395.5321
   2   2.0000     -87.978771     -2394.0241
   3   2.0000     -87.976136     -2393.9524
   4   2.0000     -76.421305     -2079.5294
   5   2.0000     -76.419250     -2079.4735
   6   2.0000     -18.789512      -511.2886
   7   2.0000     -18.787496      -511.2338
   8   2.0000     -18.785598      -511.1821
   9   2.0000     -18.778643      -510.9928
  10   2.0000      -9.954033      -270.8630
  11   2.0000      -9.950042      -270.7544
  12   2.0000      -9.949209      -270.7317
  13   2.0000      -9.948959      -270.7249
  14   2.0000      -9.945786      -270.6386
  15   2.0000      -9.887194      -269.0442
  16   2.0000      -9.885688      -269.0033
  17   2.0000      -9.882095      -268.9055
  18   2.0000      -9.869515      -268.5632
  19   2.0000      -7.680908      -209.0081
  20   2.0000      -7.679886      -208.9803
  21   2.0000      -7.623888      -207.4565
  22   2.0000      -7.620782      -207.3720
  23   2.0000      -6.418397      -174.6535
  24   2.0000      -6.416554      -174.6033
  25   2.0000      -5.708849      -155.3457
  26   2.0000      -5.707727      -155.3151
  27   2.0000      -5.705391      -155.2516
  28   2.0000      -5.704522      -155.2279
  29   2.0000      -5.697962      -155.0494
  30   2.0000      -5.696642      -155.0135
  31   2.0000      -5.652757      -153.8193
  32   2.0000      -5.649553      -153.7322
  33   2.0000      -5.644564      -153.5964
  34   2.0000      -5.643925      -153.5790
  35   2.0000      -5.641443      -153.5115
  36   2.0000      -5.641096      -153.5020
  37   2.0000      -4.641296      -126.2961
  38   2.0000      -4.640000      -126.2608
  39   2.0000      -4.639603      -126.2500
  40   2.0000      -4.638766      -126.2272
  41   2.0000      -4.638204      -126.2119
  42   2.0000      -4.636711      -126.1713
  43   2.0000      -0.984036       -26.7770
  44   2.0000      -0.981322       -26.7031
  45   2.0000      -0.938861       -25.5477
  46   2.0000      -0.937593       -25.5132
  47   2.0000      -0.755504       -20.5583
  48   2.0000      -0.717199       -19.5160
  49   2.0000      -0.705283       -19.1917
  50   2.0000      -0.689956       -18.7747
  51   2.0000      -0.683156       -18.5896
  52   2.0000      -0.668518       -18.1913
  53   2.0000      -0.647106       -17.6086
  54   2.0000      -0.628304       -17.0970
  55   2.0000      -0.592178       -16.1140
  56   2.0000      -0.586611       -15.9625
  57   2.0000      -0.570353       -15.5201
  58   2.0000      -0.569492       -15.4967
  59   2.0000      -0.556495       -15.1430
  60   2.0000      -0.502319       -13.6688
  61   2.0000      -0.490030       -13.3344
  62   2.0000      -0.470583       -12.8052
  63   2.0000      -0.464144       -12.6300
  64   2.0000      -0.449157       -12.2222
  65   2.0000      -0.445088       -12.1115
  66   2.0000      -0.441153       -12.0044
  67   2.0000      -0.428543       -11.6612
  68   2.0000      -0.425164       -11.5693
  69   2.0000      -0.414411       -11.2767
  70   2.0000      -0.408299       -11.1104
  71   2.0000      -0.401027       -10.9125
  72   2.0000      -0.394483       -10.7344
  73   2.0000      -0.380053       -10.3418
  74   2.0000      -0.374548       -10.1920
  75   2.0000      -0.365471        -9.9450
  76   2.0000      -0.361157        -9.8276
  77   2.0000      -0.353655        -9.6234
  78   2.0000      -0.350852        -9.5472
  79   2.0000      -0.348677        -9.4880
  80   2.0000      -0.339893        -9.2490
  81   2.0000      -0.338329        -9.2064
  82   2.0000      -0.335747        -9.1361
  83   2.0000      -0.332141        -9.0380
  84   2.0000      -0.326403        -8.8819
  85   2.0000      -0.313619        -8.5340
  86   2.0000      -0.308542        -8.3959
  87   2.0000      -0.299370        -8.1463
  88   2.0000      -0.291561        -7.9338
  89   2.0000      -0.289061        -7.8657
  90   2.0000      -0.280559        -7.6344
  91   2.0000      -0.270710        -7.3664
  92   2.0000      -0.268804        -7.3145
  93   2.0000      -0.254911        -6.9365
  94   2.0000      -0.251278        -6.8376
  95   2.0000      -0.232898        -6.3375
  96   2.0000      -0.218805        -5.9540
  97   2.0000      -0.198592        -5.4040
  98   2.0000      -0.195018        -5.3067
  99   2.0000      -0.186448        -5.0735
 100   2.0000      -0.182474        -4.9654
 101   0.0000      -0.033012        -0.8983
 102   0.0000      -0.029869        -0.8128
 103   0.0000      -0.009052        -0.2463
 104   0.0000       0.004025         0.1095
 105   0.0000       0.018375         0.5000

MULLIKEN ATOMIC CHARGES
-----------------------
   0 C :   -0.323430
   1 C :    0.007621
   2 O :   -0.368185
   3 P :    0.623500
   4 S :   -0.316375
   5 O :   -0.379219
   6 C :   -0.003142
   7 C :   -0.322076
   8 S :   -0.094973
   9 C :   -0.344589
  10 S :   -0.111621
  11 P :    0.618385
  12 S :   -0.306507
  13 O :   -0.347108
  14 C :    0.003967
  15 C :   -0.332394
  16 O :   -0.389015
  17 C :   -0.004056
  18 C :   -0.280144
  19 H :    0.120703
  20 H :    0.103213
  21 H :    0.141592
  22 H :    0.103400
  23 H :    0.104927
  24 H :    0.102678
  25 H :    0.110193
  26 H :    0.118482
  27 H :    0.113447
  28 H :    0.131118
  29 H :    0.177829
  30 H :    0.201183
  31 H :    0.112082
  32 H :    0.110662
  33 H :    0.140026
  34 H :    0.114463
  35 H :    0.126317
  36 H :    0.100491
  37 H :    0.093012
  38 H :    0.112625
  39 H :    0.120220
  40 H :    0.110695
Sum of atomic charges:   -0.0000000

LOEWDIN ATOMIC CHARGES
----------------------
   0 C :   -0.371687
   1 C :   -0.106574
   2 O :   -0.240339
   3 P :    0.569881
   4 S :   -0.310065
   5 O :   -0.245299
   6 C :   -0.121976
   7 C :   -0.370818
   8 S :    0.078691
   9 C :   -0.483711
  10 S :    0.071185
  11 P :    0.573441
  12 S :   -0.297125
  13 O :   -0.221864
  14 C :   -0.106548
  15 C :   -0.370151
  16 O :   -0.256906
  17 C :   -0.124552
  18 C :   -0.350540
  19 H :    0.119122
  20 H :    0.125953
  21 H :    0.130721
  22 H :    0.110480
  23 H :    0.120446
  24 H :    0.117258
  25 H :    0.109164
  26 H :    0.124757
  27 H :    0.131534
  28 H :    0.123011
  29 H :    0.136182
  30 H :    0.124450
  31 H :    0.124105
  32 H :    0.113991
  33 H :    0.133419
  34 H :    0.132070
  35 H :    0.115788
  36 H :    0.107005
  37 H :    0.102067
  38 H :    0.124774
  39 H :    0.128482
  40 H :    0.130179

  Mayer bond orders larger than 0.100000
B(  0-C ,  1-C ) :   1.1683 B(  0-C , 19-H ) :   0.9351 B(  0-C , 20-H ) :   0.9352
B(  0-C , 21-H ) :   0.9352 B(  1-C ,  2-O ) :   0.9043 B(  1-C , 22-H ) :   0.9322
B(  1-C , 23-H ) :   0.9346 B(  2-O ,  3-P ) :   1.1213 B(  3-P ,  4-S ) :   1.6281
B(  3-P ,  5-O ) :   1.0840 B(  3-P ,  8-S ) :   0.9589 B(  4-S ,  8-S ) :   0.1187
B(  5-O ,  6-C ) :   0.9086 B(  6-C ,  7-C ) :   1.1656 B(  6-C , 24-H ) :   0.9325
B(  6-C , 25-H ) :   0.9105 B(  7-C , 26-H ) :   0.9450 B(  7-C , 27-H ) :   0.9385
B(  7-C , 28-H ) :   0.9327 B(  8-S ,  9-C ) :   0.9976 B(  9-C , 10-S ) :   0.9981
B(  9-C , 29-H ) :   0.9124 B(  9-C , 30-H ) :   0.8456 B( 10-S , 11-P ) :   0.9366
B( 10-S , 12-S ) :   0.1187 B( 11-P , 12-S ) :   1.6278 B( 11-P , 13-O ) :   1.1536
B( 11-P , 16-O ) :   1.0541 B( 12-S , 30-H ) :   0.1148 B( 13-O , 14-C ) :   0.8967
B( 14-C , 15-C ) :   1.1694 B( 14-C , 31-H ) :   0.9328 B( 14-C , 32-H ) :   0.9265
B( 15-C , 33-H ) :   0.9395 B( 15-C , 34-H ) :   0.9356 B( 15-C , 35-H ) :   0.9328
B( 16-O , 17-C ) :   0.9136 B( 17-C , 18-C ) :   1.1601 B( 17-C , 36-H ) :   0.9121
B( 17-C , 37-H ) :   0.9195 B( 18-C , 38-H ) :   0.9515 B( 18-C , 39-H ) :   0.9514
B( 18-C , 40-H ) :   0.9425

Dispersion correction           -0.067079493
FINAL SINGLE POINT ENERGY     -2929.512433028711

DIPOLE MOMENT
-------------

Method             : SCF
Type of density    : Electron Density
Multiplicity       :   1
Irrep              :   0
Energy             : -2929.6302132464334136 Eh
Relativity type    :
Basis              : AO
                                X                 Y                 Z
Electronic contribution:      4.956424323      -4.792190437      -2.453710501
Nuclear contribution   :     -5.291798151       4.499398798       2.904606536
                        -----------------------------------------
Total Dipole Moment    :     -0.335373828      -0.292791639       0.450896035
                        -----------------------------------------
Magnitude (a.u.)       :      0.633647996
Magnitude (Debye)      :      1.610605208

Rotational constants in cm-1:             0.012616             0.005220             0.004935
Rotational constants in MHz :           378.213875           156.484030           147.950980

                             ****ORCA TERMINATED NORMALLY****
TOTAL RUN TIME: 0 days 0 hours 0 minutes 21 seconds 95 msec
