                         Program Version 6.0.0  -   RELEASE  -
|  1> ! pbe def2-sv(p) def2/J RI DEFGRID1 loosescf d4 GCP(DFT/SV(P)) printgap
|  2> %output
|  3>     printlevel normal
|  4> end
|  5> * xyz 0 1
|  6> C 2.537783967 0.2825605286 -2.5168125181
|  7> C 1.6818785765 1.2827521573 -1.771561079
|  8> O 1.0792304858 0.6910823536 -0.6012456674
|  9> P 1.9584561472 0.3664362893 0.684317488
| 10> S 3.4610578865 1.5830980387 0.9982718199
| 11> O 2.3620477721 -1.1532933398 0.4362843269
| 12> C 3.22681775 -1.8417615856 1.3629031542
| 13> C 3.2839117706 -3.2951625436 0.9402077528
| 14> S 0.5825925054 0.3397013655 2.2667838156
| 15> C -0.5194543039 -1.0931801977 1.8935691734
| 16> S -0.6484276264 -1.5566783663 0.1568495533
| 17> P -1.8133301618 0.0233244342 -0.6350570933
| 18> S -1.653724677 0.2681174291 -2.5737118976
| 19> O -1.4355882465 1.214149156 0.3416587016
| 20> C -2.3114886529 2.3207402559 0.6446218629
| 21> C -2.5142428729 3.2269964974 -0.5514050164
| 22> O -3.3139326477 -0.2655114055 -0.1572054068
| 23> C -4.22575643 -1.0440459168 -0.9450660215
| 24> C -3.864569516 -2.5157437597 -0.939017921
| 25> H 2.906657744 0.7382996538 -3.4301865321
| 26> H 3.3829261424 -0.0142201537 -1.897265664
| 27> H 1.9497056283 -0.5980861412 -2.7640863561
| 28> H 0.8300997762 1.6084812934 -2.3717596507
| 29> H 2.2724120793 2.1489708291 -1.4559713117
| 30> H 4.2116597239 -1.3658037964 1.3304604921
| 31> H 2.8218845255 -1.7313894596 2.3742825225
| 32> H 3.7035956045 -3.3762624753 -0.0579631597
| 33> H 3.9065362021 -3.8451019665 1.638023662
| 34> H 2.2834782494 -3.7188609754 0.9323137636
| 35> H -1.494546033 -0.8146811506 2.2858057631
| 36> H -0.128590883 -1.9700244663 2.4041664323
| 37> H -3.264075761 1.9245627805 1.0022095417
| 38> H -1.7940825446 2.8359013769 1.456739434
| 39> H -3.1309161402 4.072383125 -0.2627406194
| 40> H -1.5563298462 3.5896895349 -0.9173343304
| 41> H -3.0072003515 2.683123895 -1.3562559044
| 42> H -5.1976219531 -0.8643104917 -0.4832316553
| 43> H -4.2210757676 -0.6527546599 -1.9677526518
| 44> H -2.9039278292 -2.6634283755 -1.4318392378
| 45> H -3.7966823764 -2.887457179 0.0798202211
| 46> H -4.6250184718 -3.0730332554 -1.4764005421
| 47> *
| 48>
| 49>                          ****END OF INPUT****

CARTESIAN COORDINATES (ANGSTROEM)
---------------------------------
  C      2.537784    0.282561   -2.516813
  C      1.681879    1.282752   -1.771561
  O      1.079230    0.691082   -0.601246
  P      1.958456    0.366436    0.684317
  S      3.461058    1.583098    0.998272
  O      2.362048   -1.153293    0.436284
  C      3.226818   -1.841762    1.362903
  C      3.283912   -3.295163    0.940208
  S      0.582593    0.339701    2.266784
  C     -0.519454   -1.093180    1.893569
  S     -0.648428   -1.556678    0.156850
  P     -1.813330    0.023324   -0.635057
  S     -1.653725    0.268117   -2.573712
  O     -1.435588    1.214149    0.341659
  C     -2.311489    2.320740    0.644622
  C     -2.514243    3.226996   -0.551405
  O     -3.313933   -0.265511   -0.157205
  C     -4.225756   -1.044046   -0.945066
  C     -3.864570   -2.515744   -0.939018
  H      2.906658    0.738300   -3.430187
  H      3.382926   -0.014220   -1.897266
  H      1.949706   -0.598086   -2.764086
  H      0.830100    1.608481   -2.371760
  H      2.272412    2.148971   -1.455971
  H      4.211660   -1.365804    1.330460
  H      2.821885   -1.731389    2.374283
  H      3.703596   -3.376262   -0.057963
  H      3.906536   -3.845102    1.638024
  H      2.283478   -3.718861    0.932314
  H     -1.494546   -0.814681    2.285806
  H     -0.128591   -1.970024    2.404166
  H     -3.264076    1.924563    1.002210
  H     -1.794083    2.835901    1.456739
  H     -3.130916    4.072383   -0.262741
  H     -1.556330    3.589690   -0.917334
  H     -3.007200    2.683124   -1.356256
  H     -5.197622   -0.864310   -0.483232
  H     -4.221076   -0.652755   -1.967753
  H     -2.903928   -2.663428   -1.431839
  H     -3.796682   -2.887457    0.079820
  H     -4.625018   -3.073033   -1.476401

 Total Charge           Charge          ....    0
 Multiplicity           Mult            ....    1
 Number of Electrons    NEL             ....  202
 Basis Dimension        Dim             ....  334

ORBITAL ENERGIES
----------------

  NO   OCC          E(Eh)            E(eV)
   0   2.0000     -88.046698     -2395.8724
   1   2.0000     -88.039885     -2395.6871
   2   2.0000     -87.991489     -2394.3701
   3   2.0000     -87.978647     -2394.0207
   4   2.0000     -76.431970     -2079.8197
   5   2.0000     -76.421127     -2079.5246
   6   2.0000     -18.796396      -511.4760
   7   2.0000     -18.792270      -511.3637
   8   2.0000     -18.789172      -511.2794
   9   2.0000     -18.781159      -511.0613
  10   2.0000      -9.965460      -271.1739
  11   2.0000      -9.956136      -270.9202
  12   2.0000      -9.954472      -270.8750
  13   2.0000      -9.952174      -270.8124
  14   2.0000      -9.934909      -270.3426
  15   2.0000      -9.889100      -269.0961
  16   2.0000      -9.887246      -269.0456
  17   2.0000      -9.884405      -268.9683
  18   2.0000      -9.870260      -268.5834
  19   2.0000      -7.691630      -209.2999
  20   2.0000      -7.684924      -209.1174
  21   2.0000      -7.636428      -207.7978
  22   2.0000      -7.623899      -207.4568
  23   2.0000      -6.428646      -174.9323
  24   2.0000      -6.418641      -174.6601
  25   2.0000      -5.720092      -155.6516
  26   2.0000      -5.715996      -155.5402
  27   2.0000      -5.713481      -155.4717
  28   2.0000      -5.709032      -155.3507
  29   2.0000      -5.708043      -155.3238
  30   2.0000      -5.701607      -155.1486
  31   2.0000      -5.665368      -154.1625
  32   2.0000      -5.657175      -153.9396
  33   2.0000      -5.656441      -153.9196
  34   2.0000      -5.652840      -153.8216
  35   2.0000      -5.644472      -153.5939
  36   2.0000      -5.644077      -153.5832
  37   2.0000      -4.651556      -126.5753
  38   2.0000      -4.650522      -126.5471
  39   2.0000      -4.648883      -126.5025
  40   2.0000      -4.640960      -126.2869
  41   2.0000      -4.640748      -126.2812
  42   2.0000      -4.639025      -126.2343
  43   2.0000      -0.990915       -26.9642
  44   2.0000      -0.979887       -26.6641
  45   2.0000      -0.946217       -25.7479
  46   2.0000      -0.938802       -25.5461
  47   2.0000      -0.764114       -20.7926
  48   2.0000      -0.721104       -19.6222
  49   2.0000      -0.707442       -19.2505
  50   2.0000      -0.690255       -18.7828
  51   2.0000      -0.683174       -18.5901
  52   2.0000      -0.673117       -18.3165
  53   2.0000      -0.655437       -17.8353
  54   2.0000      -0.634535       -17.2666
  55   2.0000      -0.596778       -16.2392
  56   2.0000      -0.590087       -16.0571
  57   2.0000      -0.580178       -15.7874
  58   2.0000      -0.570353       -15.5201
  59   2.0000      -0.556427       -15.1411
  60   2.0000      -0.503117       -13.6905
  61   2.0000      -0.499447       -13.5906
  62   2.0000      -0.474421       -12.9097
  63   2.0000      -0.468188       -12.7400
  64   2.0000      -0.462769       -12.5926
  65   2.0000      -0.445513       -12.1230
  66   2.0000      -0.436030       -11.8650
  67   2.0000      -0.429587       -11.6897
  68   2.0000      -0.423934       -11.5358
  69   2.0000      -0.420130       -11.4323
  70   2.0000      -0.418178       -11.3792
  71   2.0000      -0.404946       -11.0192
  72   2.0000      -0.392252       -10.6737
  73   2.0000      -0.388234       -10.5644
  74   2.0000      -0.375977       -10.2309
  75   2.0000      -0.369731       -10.0609
  76   2.0000      -0.360947        -9.8219
  77   2.0000      -0.358324        -9.7505
  78   2.0000      -0.355686        -9.6787
  79   2.0000      -0.352927        -9.6036
  80   2.0000      -0.346818        -9.4374
  81   2.0000      -0.342723        -9.3260
  82   2.0000      -0.338793        -9.2190
  83   2.0000      -0.335121        -9.1191
  84   2.0000      -0.331760        -9.0277
  85   2.0000      -0.322386        -8.7726
  86   2.0000      -0.308549        -8.3961
  87   2.0000      -0.301043        -8.1918
  88   2.0000      -0.297370        -8.0919
  89   2.0000      -0.295820        -8.0497
  90   2.0000      -0.278036        -7.5657
  91   2.0000      -0.277287        -7.5453
  92   2.0000      -0.265228        -7.2172
  93   2.0000      -0.262830        -7.1520
  94   2.0000      -0.255577        -6.9546
  95   2.0000      -0.228023        -6.2048
  96   2.0000      -0.213798        -5.8178
  97   2.0000      -0.210606        -5.7309
  98   2.0000      -0.205052        -5.5797
  99   2.0000      -0.198764        -5.4086
 100   2.0000      -0.194252        -5.2859
 101   0.0000      -0.044474        -1.2102
 102   0.0000      -0.033008        -0.8982
 103   0.0000      -0.017052        -0.4640
 104   0.0000       0.001897         0.0516
 105   0.0000       0.009760         0.2656

MULLIKEN ATOMIC CHARGES
-----------------------
   0 C :   -0.299633
   1 C :   -0.013223
   2 O :   -0.373080
   3 P :    0.626990
   4 S :   -0.332885
   5 O :   -0.376133
   6 C :   -0.018774
   7 C :   -0.275203
   8 S :   -0.091788
   9 C :   -0.324590
  10 S :   -0.079465
  11 P :    0.650361
  12 S :   -0.317596
  13 O :   -0.370654
  14 C :   -0.005662
  15 C :   -0.312574
  16 O :   -0.386013
  17 C :   -0.008214
  18 C :   -0.305979
  19 H :    0.106738
  20 H :    0.114098
  21 H :    0.116621
  22 H :    0.112860
  23 H :    0.108873
  24 H :    0.110333
  25 H :    0.095892
  26 H :    0.121738
  27 H :    0.111653
  28 H :    0.110981
  29 H :    0.179229
  30 H :    0.183477
  31 H :    0.107058
  32 H :    0.110273
  33 H :    0.110467
  34 H :    0.126407
  35 H :    0.125637
  36 H :    0.101830
  37 H :    0.111529
  38 H :    0.123329
  39 H :    0.111832
  40 H :    0.113262
Sum of atomic charges:    0.0000000

LOEWDIN ATOMIC CHARGES
----------------------
   0 C :   -0.362935
   1 C :   -0.126557
   2 O :   -0.240251
   3 P :    0.562963
   4 S :   -0.329900
   5 O :   -0.247781
   6 C :   -0.121972
   7 C :   -0.350022
   8 S :    0.079580
   9 C :   -0.470709
  10 S :    0.114804
  11 P :    0.581719
  12 S :   -0.301759
  13 O :   -0.235498
  14 C :   -0.112181
  15 C :   -0.364745
  16 O :   -0.254188
  17 C :   -0.124071
  18 C :   -0.366453
  19 H :    0.128501
  20 H :    0.118341
  21 H :    0.126290
  22 H :    0.110270
  23 H :    0.106750
  24 H :    0.113398
  25 H :    0.103349
  26 H :    0.129869
  27 H :    0.130262
  28 H :    0.123523
  29 H :    0.133259
  30 H :    0.134629
  31 H :    0.110694
  32 H :    0.120637
  33 H :    0.129666
  34 H :    0.130842
  35 H :    0.121498
  36 H :    0.116446
  37 H :    0.108513
  38 H :    0.119502
  39 H :    0.122758
  40 H :    0.130959

  Mayer bond orders larger than 0.100000
B(  0-C ,  1-C ) :   1.1688 B(  0-C , 19-H ) :   0.9394 B(  0-C , 20-H ) :   0.9368
B(  0-C , 21-H ) :   0.9446 B(  1-C ,  2-O ) :   0.8957 B(  1-C , 22-H ) :   0.9103
B(  1-C , 23-H ) :   0.9138 B(  2-O ,  3-P ) :   1.1060 B(  3-P ,  4-S ) :   1.6379
B(  3-P ,  5-O ) :   1.0672 B(  3-P ,  8-S ) :   1.0039 B(  5-O ,  6-C ) :   0.9091
B(  6-C ,  7-C ) :   1.1556 B(  6-C , 24-H ) :   0.9210 B(  6-C , 25-H ) :   0.9186
B(  7-C , 26-H ) :   0.9505 B(  7-C , 27-H ) :   0.9421 B(  7-C , 28-H ) :   0.9505
B(  8-S ,  9-C ) :   0.9468 B(  9-C , 10-S ) :   1.0218 B(  9-C , 29-H ) :   0.9080
B(  9-C , 30-H ) :   0.9082 B( 10-S , 11-P ) :   0.9579 B( 11-P , 12-S ) :   1.6320
B( 11-P , 13-O ) :   1.1114 B( 11-P , 16-O ) :   1.0514 B( 13-O , 14-C ) :   0.9044
B( 14-C , 15-C ) :   1.1689 B( 14-C , 31-H ) :   0.9255 B( 14-C , 32-H ) :   0.9294
B( 15-C , 33-H ) :   0.9372 B( 15-C , 34-H ) :   0.9463 B( 15-C , 35-H ) :   0.9359
B( 16-O , 17-C ) :   0.9175 B( 17-C , 18-C ) :   1.1649 B( 17-C , 36-H ) :   0.9327
B( 17-C , 37-H ) :   0.9112 B( 18-C , 38-H ) :   0.9369 B( 18-C , 39-H ) :   0.9458
B( 18-C , 40-H ) :   0.9387

Dispersion correction           -0.068262377
FINAL SINGLE POINT ENERGY     -2929.511745215672

DIPOLE MOMENT
-------------

Method             : SCF
Type of density    : Electron Density
Multiplicity       :   1
Irrep              :   0
Energy             : -2929.6301639925814015 Eh
Relativity type    :
Basis              : AO
                                X                 Y                 Z
Electronic contribution:      5.230740876       6.874154304       6.601708945
Nuclear contribution   :     -6.626978014      -7.840392389      -6.043462712
                        -----------------------------------------
Total Dipole Moment    :     -1.396237138      -0.966238085       0.558246233
                        -----------------------------------------
Magnitude (a.u.)       :      1.787381615
Magnitude (Debye)      :      4.543163015

Rotational constants in cm-1:             0.011624             0.005865             0.005379
Rotational constants in MHz :           348.474849           175.842206           161.251661

                             ****ORCA TERMINATED NORMALLY****
TOTAL RUN TIME: 0 days 0 hours 0 minutes 21 seconds 927 msec
