                         Program Version 6.0.1  -  RELEASE   -
|  1> ! pbe def2-sv(p) def2/J RI DEFGRID1 loosescf d4 GCP(DFT/SV(P)) printgap
|  2> %output
|  3>     printlevel normal
|  4> end
|  5> * xyz 0 1
|  6> C 3.9536918062 -3.0858897481 -2.7650450047
|  7> C 2.8688559929 -3.2892783305 -1.7263889124
|  8> O 2.7756488609 -2.0866773162 -0.9361007003
|  9> C 1.8457975463 -2.0339263557 -0.0087054201
| 10> O 1.0739317106 -2.9358178037 0.2361608598
| 11> C 1.8214495679 -0.6879295601 0.6884564952
| 12> C 1.2543891683 0.3628162853 -0.2680872987
| 13> H 1.9580694094 0.5244444647 -1.0917547999
| 14> C 1.0461466743 1.6975513454 0.431050394
| 15> O 1.8323371076 2.1301782961 1.2379361448
| 16> O -0.0448254248 2.3149530615 0.0211185967
| 17> C -0.3354843595 3.6168168463 0.5689667786
| 18> C 0.341515515 4.7046216455 -0.2467954053
| 19> S -0.2618506018 -0.2112942439 -1.1041181397
| 20> P -1.7175034195 0.0922433615 0.4169587618
| 21> S -1.1596804608 0.3618964536 2.276535959
| 22> O -2.6736023102 1.2426423422 -0.0879715743
| 23> C -3.2736227332 1.2294062709 -1.3995568952
| 24> O -2.6599826668 -1.1865405302 0.2036722971
| 25> C -2.2793747852 -2.4780714898 0.6893815519
| 26> H 4.9006887838 -2.8744751969 -2.2777096836
| 27> H 4.0512576743 -3.9868216555 -3.3613126151
| 28> H 3.6986092478 -2.2534743855 -3.4136143886
| 29> H 3.0974643874 -4.1231080456 -1.0556418234
| 30> H 1.8923786327 -3.4728448442 -2.185073359
| 31> H 2.8300016638 -0.3904608231 0.9752892014
| 32> H 1.1987550043 -0.7648898051 1.5818257186
| 33> H -1.4226111688 3.6917811906 0.5263198594
| 34> H -0.000420526 3.6320986564 1.6100185301
| 35> H 1.4222598821 4.608691929 -0.1731561602
| 36> H 0.045760575 4.6305046267 -1.2895790457
| 37> H 0.0466943308 5.6734686637 0.1420637452
| 38> H -3.8087263121 2.1722562401 -1.4756430471
| 39> H -3.9575283255 0.3874753676 -1.4854311098
| 40> H -2.4970817861 1.1610404865 -2.1612938767
| 41> H -3.0782742252 -3.1499889646 0.3880240889
| 42> H -2.1873519105 -2.4533572968 1.7758819838
| 43> H -1.3283117193 -2.7934223947 0.2571719044
| 44> *
| 45>
| 46>                          ****END OF INPUT****

CARTESIAN COORDINATES (ANGSTROEM)
---------------------------------
  C      3.953692   -3.085890   -2.765045
  C      2.868856   -3.289278   -1.726389
  O      2.775649   -2.086677   -0.936101
  C      1.845798   -2.033926   -0.008705
  O      1.073932   -2.935818    0.236161
  C      1.821450   -0.687930    0.688456
  C      1.254389    0.362816   -0.268087
  H      1.958069    0.524444   -1.091755
  C      1.046147    1.697551    0.431050
  O      1.832337    2.130178    1.237936
  O     -0.044825    2.314953    0.021119
  C     -0.335484    3.616817    0.568967
  C      0.341516    4.704622   -0.246795
  S     -0.261851   -0.211294   -1.104118
  P     -1.717503    0.092243    0.416959
  S     -1.159680    0.361896    2.276536
  O     -2.673602    1.242642   -0.087972
  C     -3.273623    1.229406   -1.399557
  O     -2.659983   -1.186541    0.203672
  C     -2.279375   -2.478071    0.689382
  H      4.900689   -2.874475   -2.277710
  H      4.051258   -3.986822   -3.361313
  H      3.698609   -2.253474   -3.413614
  H      3.097464   -4.123108   -1.055642
  H      1.892379   -3.472845   -2.185073
  H      2.830002   -0.390461    0.975289
  H      1.198755   -0.764890    1.581826
  H     -1.422611    3.691781    0.526320
  H     -0.000421    3.632099    1.610019
  H      1.422260    4.608692   -0.173156
  H      0.045761    4.630505   -1.289579
  H      0.046694    5.673469    0.142064
  H     -3.808726    2.172256   -1.475643
  H     -3.957528    0.387475   -1.485431
  H     -2.497082    1.161040   -2.161294
  H     -3.078274   -3.149989    0.388024
  H     -2.187352   -2.453357    1.775882
  H     -1.328312   -2.793422    0.257172

 Total Charge           Charge          ....    0
 Multiplicity           Mult            ....    1
 Number of Electrons    NEL             ....  174
 Basis Dimension        Dim             ....  316

ORBITAL ENERGIES
----------------

  NO   OCC          E(Eh)            E(eV)
   0   2.0000     -88.040954     -2395.7162
   1   2.0000     -87.984316     -2394.1750
   2   2.0000     -76.426574     -2079.6728
   3   2.0000     -18.808889      -511.8159
   4   2.0000     -18.807136      -511.7682
   5   2.0000     -18.795404      -511.4490
   6   2.0000     -18.787677      -511.2387
   7   2.0000     -18.739314      -509.9226
   8   2.0000     -18.739110      -509.9171
   9   2.0000     -10.018368      -272.6136
  10   2.0000     -10.010313      -272.3945
  11   2.0000      -9.954148      -270.8661
  12   2.0000      -9.952646      -270.8253
  13   2.0000      -9.951849      -270.8036
  14   2.0000      -9.944731      -270.6099
  15   2.0000      -9.931834      -270.2589
  16   2.0000      -9.901540      -269.4346
  17   2.0000      -9.893755      -269.2228
  18   2.0000      -9.887483      -269.0521
  19   2.0000      -7.685573      -209.1351
  20   2.0000      -7.629312      -207.6041
  21   2.0000      -6.423442      -174.7908
  22   2.0000      -5.713533      -155.4731
  23   2.0000      -5.710107      -155.3799
  24   2.0000      -5.702439      -155.1713
  25   2.0000      -5.658512      -153.9759
  26   2.0000      -5.649818      -153.7394
  27   2.0000      -5.649264      -153.7243
  28   2.0000      -4.646187      -126.4292
  29   2.0000      -4.645324      -126.4057
  30   2.0000      -4.643813      -126.3646
  31   2.0000      -1.015915       -27.6444
  32   2.0000      -1.014808       -27.6143
  33   2.0000      -0.985769       -26.8242
  34   2.0000      -0.940344       -25.5881
  35   2.0000      -0.921042       -25.0628
  36   2.0000      -0.915858       -24.9218
  37   2.0000      -0.768171       -20.9030
  38   2.0000      -0.717652       -19.5283
  39   2.0000      -0.701047       -19.0765
  40   2.0000      -0.694808       -18.9067
  41   2.0000      -0.657956       -17.9039
  42   2.0000      -0.632234       -17.2040
  43   2.0000      -0.623247       -16.9594
  44   2.0000      -0.617221       -16.7954
  45   2.0000      -0.593509       -16.1502
  46   2.0000      -0.565357       -15.3841
  47   2.0000      -0.517334       -14.0774
  48   2.0000      -0.511999       -13.9322
  49   2.0000      -0.500455       -13.6181
  50   2.0000      -0.482637       -13.1332
  51   2.0000      -0.473278       -12.8786
  52   2.0000      -0.454876       -12.3778
  53   2.0000      -0.442158       -12.0317
  54   2.0000      -0.439988       -11.9727
  55   2.0000      -0.432276       -11.7628
  56   2.0000      -0.424256       -11.5446
  57   2.0000      -0.420919       -11.4538
  58   2.0000      -0.414114       -11.2686
  59   2.0000      -0.404073       -10.9954
  60   2.0000      -0.401142       -10.9156
  61   2.0000      -0.397959       -10.8290
  62   2.0000      -0.395898       -10.7729
  63   2.0000      -0.387717       -10.5503
  64   2.0000      -0.373406       -10.1609
  65   2.0000      -0.365776        -9.9533
  66   2.0000      -0.360556        -9.8112
  67   2.0000      -0.355390        -9.6706
  68   2.0000      -0.345656        -9.4058
  69   2.0000      -0.341059        -9.2807
  70   2.0000      -0.336353        -9.1526
  71   2.0000      -0.329846        -8.9756
  72   2.0000      -0.321377        -8.7451
  73   2.0000      -0.315046        -8.5728
  74   2.0000      -0.305717        -8.3190
  75   2.0000      -0.304243        -8.2789
  76   2.0000      -0.297748        -8.1021
  77   2.0000      -0.293564        -7.9883
  78   2.0000      -0.272059        -7.4031
  79   2.0000      -0.265893        -7.2353
  80   2.0000      -0.262745        -7.1496
  81   2.0000      -0.257928        -7.0186
  82   2.0000      -0.238203        -6.4818
  83   2.0000      -0.222202        -6.0464
  84   2.0000      -0.212672        -5.7871
  85   2.0000      -0.201761        -5.4902
  86   2.0000      -0.200925        -5.4675
  87   0.0000      -0.042533        -1.1574
  88   0.0000      -0.033204        -0.9035
  89   0.0000      -0.018021        -0.4904
  90   0.0000       0.003071         0.0836
  91   0.0000       0.015449         0.4204

MULLIKEN ATOMIC CHARGES
-----------------------
   0 C :   -0.272159
   1 C :   -0.029868
   2 O :   -0.234310
   3 C :    0.121562
   4 O :   -0.198089
   5 C :   -0.042735
   6 C :   -0.334889
   7 H :    0.155104
   8 C :    0.208252
   9 O :   -0.184966
  10 O :   -0.229641
  11 C :   -0.008849
  12 C :   -0.302794
  13 S :   -0.105377
  14 P :    0.618720
  15 S :   -0.304951
  16 O :   -0.364878
  17 C :   -0.109219
  18 O :   -0.390655
  19 C :   -0.125258
  20 H :    0.117587
  21 H :    0.113075
  22 H :    0.114133
  23 H :    0.108753
  24 H :    0.107310
  25 H :    0.118661
  26 H :    0.121560
  27 H :    0.107642
  28 H :    0.116894
  29 H :    0.123794
  30 H :    0.110505
  31 H :    0.115055
  32 H :    0.129398
  33 H :    0.128026
  34 H :    0.122577
  35 H :    0.116056
  36 H :    0.119376
  37 H :    0.144595
Sum of atomic charges:   -0.0000000

LOEWDIN ATOMIC CHARGES
----------------------
   0 C :   -0.350676
   1 C :   -0.106485
   2 O :   -0.063298
   3 C :    0.021480
   4 O :   -0.160915
   5 C :   -0.250110
   6 C :   -0.259529
   7 H :    0.151534
   8 C :    0.009501
   9 O :   -0.148405
  10 O :   -0.060496
  11 C :   -0.110345
  12 C :   -0.355546
  13 S :    0.097131
  14 P :    0.579125
  15 S :   -0.290230
  16 O :   -0.238087
  17 C :   -0.211055
  18 O :   -0.261878
  19 C :   -0.222929
  20 H :    0.127923
  21 H :    0.131640
  22 H :    0.126197
  23 H :    0.118395
  24 H :    0.117798
  25 H :    0.145960
  26 H :    0.135093
  27 H :    0.118652
  28 H :    0.123755
  29 H :    0.129077
  30 H :    0.123120
  31 H :    0.131731
  32 H :    0.124831
  33 H :    0.118161
  34 H :    0.109729
  35 H :    0.118657
  36 H :    0.113830
  37 H :    0.116660

  Mayer bond orders larger than 0.100000
B(  0-C ,  1-C ) :   1.1507 B(  0-C , 20-H ) :   0.9494 B(  0-C , 21-H ) :   0.9438
B(  0-C , 22-H ) :   0.9501 B(  1-C ,  2-O ) :   0.9040 B(  1-C , 23-H ) :   0.9333
B(  1-C , 24-H ) :   0.9297 B(  2-O ,  3-C ) :   1.2201 B(  3-C ,  4-O ) :   2.0040
B(  3-C ,  5-C ) :   1.0311 B(  5-C ,  6-C ) :   1.0618 B(  5-C , 25-H ) :   0.8723
B(  5-C , 26-H ) :   0.8772 B(  6-C ,  7-H ) :   0.8566 B(  6-C ,  8-C ) :   0.9213
B(  6-C , 13-S ) :   1.0129 B(  8-C ,  9-O ) :   2.0643 B(  8-C , 10-O ) :   1.2430
B( 10-O , 11-C ) :   0.8981 B( 11-C , 12-C ) :   1.1723 B( 11-C , 27-H ) :   0.9310
B( 11-C , 28-H ) :   0.9139 B( 12-C , 29-H ) :   0.9460 B( 12-C , 30-H ) :   0.9484
B( 12-C , 31-H ) :   0.9454 B( 13-S , 14-P ) :   0.9479 B( 13-S , 15-S ) :   0.1154
B( 14-P , 15-S ) :   1.6224 B( 14-P , 16-O ) :   1.1187 B( 14-P , 18-O ) :   1.0824
B( 16-O , 17-C ) :   0.9177 B( 17-C , 32-H ) :   0.9595 B( 17-C , 33-H ) :   0.9475
B( 17-C , 34-H ) :   0.9368 B( 18-O , 19-C ) :   0.9185 B( 19-C , 35-H ) :   0.9563
B( 19-C , 36-H ) :   0.9442 B( 19-C , 37-H ) :   0.9236

Dispersion correction           -0.053187789
FINAL SINGLE POINT ENERGY     -1979.022488034151

DIPOLE MOMENT
-------------

Method             : SCF
Type of density    : Electron Density
Multiplicity       :   1
Irrep              :   0
Energy             : -1979.1515104691170563 Eh
Relativity type    :
Basis              : AO
                                X                 Y                 Z
Electronic contribution:     -8.037558541      -0.097364960      10.409681920
Nuclear contribution   :      8.017634696       0.110883140     -12.324050317
                        -----------------------------------------
Total Dipole Moment    :     -0.019923844       0.013518179      -1.914368397
                        -----------------------------------------
Magnitude (a.u.)       :      1.914519799
Magnitude (Debye)      :      4.866322596

Rotational constants in cm-1:             0.012742             0.007391             0.005900
Rotational constants in MHz :           381.982418           221.577993           176.862713

                             ****ORCA TERMINATED NORMALLY****
TOTAL RUN TIME: 0 days 0 hours 0 minutes 44 seconds 709 msec
