                         Program Version 6.0.0  -   RELEASE  -
|  1> ! pbe def2-sv(p) def2/J RI DEFGRID1 loosescf d4 GCP(DFT/SV(P)) printgap
|  2> %output
|  3>     printlevel normal
|  4> end
|  5> * xyz 0 1
|  6> C 4.8422860082 -1.9437590713 -0.6967010752
|  7> C 4.4147692317 -1.2815928584 0.5957502459
|  8> O 3.7001428746 -0.0478552957 0.3841529191
|  9> P 2.4159081437 0.1213701188 -0.5364996079
| 10> S 2.6596477144 0.2115071217 -2.4742363968
| 11> O 1.8277469533 1.4911238676 -0.0143642676
| 12> C 1.5462528862 1.7720559192 1.3754284287
| 13> C 2.6512263835 2.6088941613 1.9856157718
| 14> S 1.1347810544 -1.4220072857 0.180510406
| 15> C -0.0624598911 -1.3546642013 -1.1721816323
| 16> S -0.8138460801 0.2863775942 -1.4131916226
| 17> P -2.2381924554 0.2400451384 0.1535090368
| 18> S -3.2362316752 1.9074066029 0.3917248798
| 19> O -1.3420701209 -0.2193354914 1.3714636455
| 20> C -1.7576821227 -0.0140023285 2.740322547
| 21> C -2.9728893422 -0.8465857992 3.0862815423
| 22> O -3.0829711262 -1.0847047504 -0.1334931378
| 23> C -4.1162373336 -1.1142224376 -1.1364743953
| 24> C -5.4743970266 -0.8490213378 -0.5162830107
| 25> H 5.4466866229 -2.8164896181 -0.4714493919
| 26> H 3.9686236492 -2.2531153862 -1.2682578088
| 27> H 5.4197304616 -1.2517076097 -1.3050647514
| 28> H 5.2773057636 -0.9785586987 1.1919636977
| 29> H 3.7741987815 -1.9490178825 1.1787575167
| 30> H 0.596055367 2.313090916 1.3624300014
| 31> H 1.4205681502 0.8266681091 1.9119129444
| 32> H 3.5883057429 2.0587089717 1.9716430579
| 33> H 2.7760890446 3.5269948916 1.4181193817
| 34> H 2.3889362081 2.8526032604 3.0103376474
| 35> H -0.8333386476 -2.0871130501 -0.9461828105
| 36> H 0.4463762095 -1.5767974504 -2.1095956916
| 37> H -0.8837753997 -0.3088024235 3.3226263534
| 38> H -1.9648756084 1.0511230999 2.8827671187
| 39> H -3.8299746517 -0.501686384 2.5095751582
| 40> H -2.7896205099 -1.8927651035 2.8564552556
| 41> H -3.1929305126 -0.7400613714 4.1438731774
| 42> H -3.8893354891 -0.3753626101 -1.9119218767
| 43> H -4.0655184344 -2.1177382881 -1.5634830158
| 44> H -5.6712962414 -1.5689011257 0.2730919342
| 45> H -5.5063652708 0.1543940919 -0.0971425091
| 46> H -6.2396484233 -0.9357788279 -1.2808098187
| 47> *
| 48>
| 49>                          ****END OF INPUT****

CARTESIAN COORDINATES (ANGSTROEM)
---------------------------------
  C      4.842286   -1.943759   -0.696701
  C      4.414769   -1.281593    0.595750
  O      3.700143   -0.047855    0.384153
  P      2.415908    0.121370   -0.536500
  S      2.659648    0.211507   -2.474236
  O      1.827747    1.491124   -0.014364
  C      1.546253    1.772056    1.375428
  C      2.651226    2.608894    1.985616
  S      1.134781   -1.422007    0.180510
  C     -0.062460   -1.354664   -1.172182
  S     -0.813846    0.286378   -1.413192
  P     -2.238192    0.240045    0.153509
  S     -3.236232    1.907407    0.391725
  O     -1.342070   -0.219335    1.371464
  C     -1.757682   -0.014002    2.740323
  C     -2.972889   -0.846586    3.086282
  O     -3.082971   -1.084705   -0.133493
  C     -4.116237   -1.114222   -1.136474
  C     -5.474397   -0.849021   -0.516283
  H      5.446687   -2.816490   -0.471449
  H      3.968624   -2.253115   -1.268258
  H      5.419730   -1.251708   -1.305065
  H      5.277306   -0.978559    1.191964
  H      3.774199   -1.949018    1.178758
  H      0.596055    2.313091    1.362430
  H      1.420568    0.826668    1.911913
  H      3.588306    2.058709    1.971643
  H      2.776089    3.526995    1.418119
  H      2.388936    2.852603    3.010338
  H     -0.833339   -2.087113   -0.946183
  H      0.446376   -1.576797   -2.109596
  H     -0.883775   -0.308802    3.322626
  H     -1.964876    1.051123    2.882767
  H     -3.829975   -0.501686    2.509575
  H     -2.789621   -1.892765    2.856455
  H     -3.192931   -0.740061    4.143873
  H     -3.889335   -0.375363   -1.911922
  H     -4.065518   -2.117738   -1.563483
  H     -5.671296   -1.568901    0.273092
  H     -5.506365    0.154394   -0.097143
  H     -6.239648   -0.935779   -1.280810

 Total Charge           Charge          ....    0
 Multiplicity           Mult            ....    1
 Number of Electrons    NEL             ....  202
 Basis Dimension        Dim             ....  334

ORBITAL ENERGIES
----------------

  NO   OCC          E(Eh)            E(eV)
   0   2.0000     -88.042322     -2395.7534
   1   2.0000     -88.041647     -2395.7350
   2   2.0000     -87.990567     -2394.3450
   3   2.0000     -87.980842     -2394.0804
   4   2.0000     -76.428241     -2079.7182
   5   2.0000     -76.425408     -2079.6411
   6   2.0000     -18.796699      -511.4842
   7   2.0000     -18.796456      -511.4776
   8   2.0000     -18.795519      -511.4521
   9   2.0000     -18.785808      -511.1878
  10   2.0000      -9.960733      -271.0453
  11   2.0000      -9.958610      -270.9876
  12   2.0000      -9.958245      -270.9776
  13   2.0000      -9.958188      -270.9761
  14   2.0000      -9.949528      -270.7404
  15   2.0000      -9.889457      -269.1058
  16   2.0000      -9.884612      -268.9740
  17   2.0000      -9.884309      -268.9657
  18   2.0000      -9.882653      -268.9207
  19   2.0000      -7.687287      -209.1817
  20   2.0000      -7.686498      -209.1602
  21   2.0000      -7.635678      -207.7774
  22   2.0000      -7.626202      -207.5195
  23   2.0000      -6.426071      -174.8623
  24   2.0000      -6.422340      -174.7608
  25   2.0000      -5.714982      -155.5126
  26   2.0000      -5.714756      -155.5064
  27   2.0000      -5.711810      -155.4262
  28   2.0000      -5.710815      -155.3992
  29   2.0000      -5.704433      -155.2255
  30   2.0000      -5.703308      -155.1949
  31   2.0000      -5.664608      -154.1418
  32   2.0000      -5.656332      -153.9166
  33   2.0000      -5.655822      -153.9027
  34   2.0000      -5.655308      -153.8887
  35   2.0000      -5.646737      -153.6555
  36   2.0000      -5.646227      -153.6416
  37   2.0000      -4.648526      -126.4928
  38   2.0000      -4.648082      -126.4807
  39   2.0000      -4.646384      -126.4345
  40   2.0000      -4.645214      -126.4027
  41   2.0000      -4.644414      -126.3809
  42   2.0000      -4.642342      -126.3246
  43   2.0000      -0.991540       -26.9812
  44   2.0000      -0.987291       -26.8655
  45   2.0000      -0.950429       -25.8625
  46   2.0000      -0.942916       -25.6581
  47   2.0000      -0.764148       -20.7935
  48   2.0000      -0.722628       -19.6637
  49   2.0000      -0.710641       -19.3375
  50   2.0000      -0.691317       -18.8117
  51   2.0000      -0.690351       -18.7854
  52   2.0000      -0.675943       -18.3933
  53   2.0000      -0.654631       -17.8134
  54   2.0000      -0.638957       -17.3869
  55   2.0000      -0.600441       -16.3388
  56   2.0000      -0.589684       -16.0461
  57   2.0000      -0.574447       -15.6315
  58   2.0000      -0.571487       -15.5510
  59   2.0000      -0.568431       -15.4678
  60   2.0000      -0.507311       -13.8046
  61   2.0000      -0.499257       -13.5855
  62   2.0000      -0.480143       -13.0654
  63   2.0000      -0.473322       -12.8798
  64   2.0000      -0.462744       -12.5919
  65   2.0000      -0.447415       -12.1748
  66   2.0000      -0.442595       -12.0436
  67   2.0000      -0.435085       -11.8393
  68   2.0000      -0.432590       -11.7714
  69   2.0000      -0.413400       -11.2492
  70   2.0000      -0.410071       -11.1586
  71   2.0000      -0.407560       -11.0903
  72   2.0000      -0.399063       -10.8591
  73   2.0000      -0.391845       -10.6627
  74   2.0000      -0.382388       -10.4053
  75   2.0000      -0.369431       -10.0527
  76   2.0000      -0.363635        -9.8950
  77   2.0000      -0.360094        -9.7987
  78   2.0000      -0.354634        -9.6501
  79   2.0000      -0.353297        -9.6137
  80   2.0000      -0.348988        -9.4964
  81   2.0000      -0.347189        -9.4475
  82   2.0000      -0.342399        -9.3172
  83   2.0000      -0.339010        -9.2249
  84   2.0000      -0.333976        -9.0879
  85   2.0000      -0.325244        -8.8503
  86   2.0000      -0.316736        -8.6188
  87   2.0000      -0.299948        -8.1620
  88   2.0000      -0.297876        -8.1056
  89   2.0000      -0.296078        -8.0567
  90   2.0000      -0.285333        -7.7643
  91   2.0000      -0.279555        -7.6071
  92   2.0000      -0.275663        -7.5012
  93   2.0000      -0.266879        -7.2621
  94   2.0000      -0.257233        -6.9997
  95   2.0000      -0.231490        -6.2992
  96   2.0000      -0.220171        -5.9912
  97   2.0000      -0.210524        -5.7287
  98   2.0000      -0.204066        -5.5529
  99   2.0000      -0.198657        -5.4057
 100   2.0000      -0.195380        -5.3166
 101   0.0000      -0.041219        -1.1216
 102   0.0000      -0.022534        -0.6132
 103   0.0000      -0.009181        -0.2498
 104   0.0000       0.000229         0.0062
 105   0.0000       0.008184         0.2227

MULLIKEN ATOMIC CHARGES
-----------------------
   0 C :   -0.308105
   1 C :   -0.010936
   2 O :   -0.379955
   3 P :    0.593522
   4 S :   -0.308933
   5 O :   -0.343904
   6 C :   -0.024212
   7 C :   -0.282142
   8 S :   -0.102701
   9 C :   -0.353685
  10 S :   -0.042219
  11 P :    0.596178
  12 S :   -0.321734
  13 O :   -0.369919
  14 C :   -0.011134
  15 C :   -0.308228
  16 O :   -0.381405
  17 C :   -0.011900
  18 C :   -0.294125
  19 H :    0.110716
  20 H :    0.124674
  21 H :    0.128451
  22 H :    0.109077
  23 H :    0.111330
  24 H :    0.116978
  25 H :    0.100746
  26 H :    0.116144
  27 H :    0.121407
  28 H :    0.105391
  29 H :    0.180817
  30 H :    0.194865
  31 H :    0.105516
  32 H :    0.114332
  33 H :    0.129512
  34 H :    0.117162
  35 H :    0.112925
  36 H :    0.105477
  37 H :    0.104980
  38 H :    0.113539
  39 H :    0.131064
  40 H :    0.110435
Sum of atomic charges:    0.0000000

LOEWDIN ATOMIC CHARGES
----------------------
   0 C :   -0.369231
   1 C :   -0.115054
   2 O :   -0.246219
   3 P :    0.565312
   4 S :   -0.309770
   5 O :   -0.228825
   6 C :   -0.118326
   7 C :   -0.358014
   8 S :    0.069037
   9 C :   -0.478624
  10 S :    0.108489
  11 P :    0.562070
  12 S :   -0.320690
  13 O :   -0.241035
  14 C :   -0.115647
  15 C :   -0.365413
  16 O :   -0.252426
  17 C :   -0.117401
  18 C :   -0.363665
  19 H :    0.129845
  20 H :    0.120908
  21 H :    0.131286
  22 H :    0.120863
  23 H :    0.107222
  24 H :    0.120376
  25 H :    0.100588
  26 H :    0.124414
  27 H :    0.129665
  28 H :    0.127329
  29 H :    0.131779
  30 H :    0.134125
  31 H :    0.116872
  32 H :    0.111804
  33 H :    0.124186
  34 H :    0.126723
  35 H :    0.131306
  36 H :    0.109811
  37 H :    0.116977
  38 H :    0.124364
  39 H :    0.124961
  40 H :    0.130029

  Mayer bond orders larger than 0.100000
B(  0-C ,  1-C ) :   1.1674 B(  0-C , 19-H ) :   0.9346 B(  0-C , 20-H ) :   0.9320
B(  0-C , 21-H ) :   0.9428 B(  1-C ,  2-O ) :   0.9129 B(  1-C , 22-H ) :   0.9331
B(  1-C , 23-H ) :   0.9262 B(  2-O ,  3-P ) :   1.0799 B(  3-P ,  4-S ) :   1.6434
B(  3-P ,  5-O ) :   1.1350 B(  3-P ,  8-S ) :   0.9519 B(  4-S ,  8-S ) :   0.1109
B(  5-O ,  6-C ) :   0.8954 B(  6-C ,  7-C ) :   1.1597 B(  6-C , 24-H ) :   0.9293
B(  6-C , 25-H ) :   0.9117 B(  7-C , 26-H ) :   0.9435 B(  7-C , 27-H ) :   0.9467
B(  7-C , 28-H ) :   0.9410 B(  8-S ,  9-C ) :   0.9993 B(  9-C , 10-S ) :   0.9904
B(  9-C , 29-H ) :   0.8962 B(  9-C , 30-H ) :   0.8863 B( 10-S , 11-P ) :   0.9822
B( 11-P , 12-S ) :   1.6350 B( 11-P , 13-O ) :   1.1139 B( 11-P , 16-O ) :   1.0639
B( 13-O , 14-C ) :   0.9017 B( 14-C , 15-C ) :   1.1673 B( 14-C , 31-H ) :   0.9308
B( 14-C , 32-H ) :   0.9176 B( 15-C , 33-H ) :   0.9329 B( 15-C , 34-H ) :   0.9457
B( 15-C , 35-H ) :   0.9369 B( 16-O , 17-C ) :   0.9045 B( 17-C , 18-C ) :   1.1707
B( 17-C , 36-H ) :   0.9129 B( 17-C , 37-H ) :   0.9348 B( 18-C , 38-H ) :   0.9451
B( 18-C , 39-H ) :   0.9310 B( 18-C , 40-H ) :   0.9396

Dispersion correction           -0.065425769
FINAL SINGLE POINT ENERGY     -2929.518305292727

DIPOLE MOMENT
-------------

Method             : SCF
Type of density    : Electron Density
Multiplicity       :   1
Irrep              :   0
Energy             : -2929.6383201826420191 Eh
Relativity type    :
Basis              : AO
                                X                 Y                 Z
Electronic contribution:      3.544484595       6.841932431     -14.899098570
Nuclear contribution   :     -3.666150173      -8.389753248      16.485622847
                        -----------------------------------------
Total Dipole Moment    :     -0.121665578      -1.547820817       1.586524277
                        -----------------------------------------
Magnitude (a.u.)       :      2.219822307
Magnitude (Debye)      :      5.642339901

Rotational constants in cm-1:             0.013556             0.004694             0.004378
Rotational constants in MHz :           406.391114           140.735698           131.243402

                             ****ORCA TERMINATED NORMALLY****
TOTAL RUN TIME: 0 days 0 hours 0 minutes 21 seconds 299 msec
