                         Program Version 6.0.1  -  RELEASE   -
|  1> ! pbe def2-sv(p) def2/J RI DEFGRID1 loosescf d4 GCP(DFT/SV(P)) printgap
|  2> %output
|  3>     printlevel normal
|  4> end
|  5> * xyz 0 1
|  6> C 4.4764479947 -3.2030104414 -1.8122526768
|  7> C 2.9809432239 -2.9961952025 -1.9942385546
|  8> O 2.5686495157 -1.7247816872 -1.4589753183
|  9> C 2.2576522359 -1.6531695171 -0.1806588238
| 10> O 2.2918163064 -2.5844797627 0.5915077636
| 11> C 1.8502852208 -0.2474382868 0.2246002686
| 12> C 0.9854047243 0.4201356421 -0.844248382
| 13> H 1.5545374058 0.5374072845 -1.768874635
| 14> C 0.4838821498 1.7654765946 -0.3633976701
| 15> O -0.7036693916 1.9936008855 -0.2155911251
| 16> O 1.445605985 2.6055835905 -0.1299339924
| 17> C 1.1136634854 3.8933043902 0.4414001698
| 18> C 1.0159214199 3.7917272438 1.9543993824
| 19> S -0.4702428534 -0.5899372827 -1.2932808502
| 20> P -1.7929450465 -0.1400611002 0.2927244235
| 21> S -1.2538976368 0.3238388894 2.132357158
| 22> O -3.0913497639 0.6206684523 -0.2455988298
| 23> C -3.4462708676 1.9782700397 0.0163771032
| 24> O -2.3695137743 -1.6413922311 0.2272264411
| 25> C -3.4126090023 -2.0785161504 1.100564575
| 26> H 4.7691384938 -4.1352181976 -2.283800831
| 27> H 5.0258072567 -2.3831780544 -2.2663606198
| 28> H 4.7202151032 -3.2521133745 -0.7534456734
| 29> H 2.4153559737 -3.7858793714 -1.4919106368
| 30> H 2.7088451631 -2.9472515121 -3.0485358944
| 31> H 2.755264848 0.3465302741 0.3709588029
| 32> H 1.319794618 -0.3155957437 1.1774799822
| 33> H 1.9339304519 4.5415047431 0.1348222439
| 34> H 0.1693711487 4.2347630469 0.0110201342
| 35> H 1.9607656962 3.4581940937 2.3735218691
| 36> H 0.766769378 4.7646188405 2.3643172627
| 37> H 0.2407678323 3.0816209285 2.2385109549
| 38> H -3.0565686947 2.6148955466 -0.7748347769
| 39> H -3.0399534004 2.2936828705 0.9782562762
| 40> H -4.5337430785 2.0021152019 0.0338927065
| 41> H -3.4332601564 -3.1621269196 1.015975107
| 42> H -4.3650930551 -1.6501025767 0.7898732386
| 43> H -3.1903942148 -1.7827908065 2.1284498872
| 44> *
| 45>
| 46>                          ****END OF INPUT****

CARTESIAN COORDINATES (ANGSTROEM)
---------------------------------
  C      4.476448   -3.203010   -1.812253
  C      2.980943   -2.996195   -1.994239
  O      2.568650   -1.724782   -1.458975
  C      2.257652   -1.653170   -0.180659
  O      2.291816   -2.584480    0.591508
  C      1.850285   -0.247438    0.224600
  C      0.985405    0.420136   -0.844248
  H      1.554537    0.537407   -1.768875
  C      0.483882    1.765477   -0.363398
  O     -0.703669    1.993601   -0.215591
  O      1.445606    2.605584   -0.129934
  C      1.113663    3.893304    0.441400
  C      1.015921    3.791727    1.954399
  S     -0.470243   -0.589937   -1.293281
  P     -1.792945   -0.140061    0.292724
  S     -1.253898    0.323839    2.132357
  O     -3.091350    0.620668   -0.245599
  C     -3.446271    1.978270    0.016377
  O     -2.369514   -1.641392    0.227226
  C     -3.412609   -2.078516    1.100565
  H      4.769138   -4.135218   -2.283801
  H      5.025807   -2.383178   -2.266361
  H      4.720215   -3.252113   -0.753446
  H      2.415356   -3.785879   -1.491911
  H      2.708845   -2.947252   -3.048536
  H      2.755265    0.346530    0.370959
  H      1.319795   -0.315596    1.177480
  H      1.933930    4.541505    0.134822
  H      0.169371    4.234763    0.011020
  H      1.960766    3.458194    2.373522
  H      0.766769    4.764619    2.364317
  H      0.240768    3.081621    2.238511
  H     -3.056569    2.614896   -0.774835
  H     -3.039953    2.293683    0.978256
  H     -4.533743    2.002115    0.033893
  H     -3.433260   -3.162127    1.015975
  H     -4.365093   -1.650103    0.789873
  H     -3.190394   -1.782791    2.128450

 Total Charge           Charge          ....    0
 Multiplicity           Mult            ....    1
 Number of Electrons    NEL             ....  174
 Basis Dimension        Dim             ....  316

ORBITAL ENERGIES
----------------

  NO   OCC          E(Eh)            E(eV)
   0   2.0000     -88.033628     -2395.5168
   1   2.0000     -87.971919     -2393.8376
   2   2.0000     -76.418125     -2079.4429
   3   2.0000     -18.830978      -512.4170
   4   2.0000     -18.803109      -511.6586
   5   2.0000     -18.780456      -511.0422
   6   2.0000     -18.768234      -510.7096
   7   2.0000     -18.767392      -510.6867
   8   2.0000     -18.734313      -509.7866
   9   2.0000     -10.035593      -273.0824
  10   2.0000     -10.007985      -272.3311
  11   2.0000      -9.963983      -271.1338
  12   2.0000      -9.952151      -270.8118
  13   2.0000      -9.947828      -270.6942
  14   2.0000      -9.932565      -270.2788
  15   2.0000      -9.927428      -270.1391
  16   2.0000      -9.907556      -269.5983
  17   2.0000      -9.892070      -269.1769
  18   2.0000      -9.887578      -269.0547
  19   2.0000      -7.678681      -208.9475
  20   2.0000      -7.616895      -207.2662
  21   2.0000      -6.413721      -174.5262
  22   2.0000      -5.706964      -155.2944
  23   2.0000      -5.703373      -155.1967
  24   2.0000      -5.695020      -154.9694
  25   2.0000      -5.645972      -153.6347
  26   2.0000      -5.637798      -153.4123
  27   2.0000      -5.636564      -153.3787
  28   2.0000      -4.636392      -126.1626
  29   2.0000      -4.635732      -126.1447
  30   2.0000      -4.634348      -126.1070
  31   2.0000      -1.041208       -28.3327
  32   2.0000      -1.010242       -27.4901
  33   2.0000      -0.968439       -26.3526
  34   2.0000      -0.945924       -25.7399
  35   2.0000      -0.922735       -25.1089
  36   2.0000      -0.912064       -24.8185
  37   2.0000      -0.768623       -20.9153
  38   2.0000      -0.719364       -19.5749
  39   2.0000      -0.708202       -19.2711
  40   2.0000      -0.686288       -18.6748
  41   2.0000      -0.649704       -17.6793
  42   2.0000      -0.629490       -17.1293
  43   2.0000      -0.619775       -16.8649
  44   2.0000      -0.615071       -16.7369
  45   2.0000      -0.595127       -16.1942
  46   2.0000      -0.569830       -15.5059
  47   2.0000      -0.514208       -13.9923
  48   2.0000      -0.507353       -13.8058
  49   2.0000      -0.498594       -13.5674
  50   2.0000      -0.486680       -13.2432
  51   2.0000      -0.466967       -12.7068
  52   2.0000      -0.462878       -12.5955
  53   2.0000      -0.451544       -12.2871
  54   2.0000      -0.442009       -12.0277
  55   2.0000      -0.432873       -11.7791
  56   2.0000      -0.423371       -11.5205
  57   2.0000      -0.416979       -11.3466
  58   2.0000      -0.408567       -11.1177
  59   2.0000      -0.404501       -11.0070
  60   2.0000      -0.398397       -10.8409
  61   2.0000      -0.397322       -10.8117
  62   2.0000      -0.387295       -10.5388
  63   2.0000      -0.386208       -10.5093
  64   2.0000      -0.374154       -10.1813
  65   2.0000      -0.370661       -10.0862
  66   2.0000      -0.361011        -9.8236
  67   2.0000      -0.357549        -9.7294
  68   2.0000      -0.348344        -9.4789
  69   2.0000      -0.342756        -9.3269
  70   2.0000      -0.338797        -9.2191
  71   2.0000      -0.328753        -8.9458
  72   2.0000      -0.325672        -8.8620
  73   2.0000      -0.311650        -8.4804
  74   2.0000      -0.303497        -8.2586
  75   2.0000      -0.294897        -8.0245
  76   2.0000      -0.292890        -7.9699
  77   2.0000      -0.287426        -7.8213
  78   2.0000      -0.275336        -7.4923
  79   2.0000      -0.261511        -7.1161
  80   2.0000      -0.258744        -7.0408
  81   2.0000      -0.257124        -6.9967
  82   2.0000      -0.246851        -6.7172
  83   2.0000      -0.217367        -5.9149
  84   2.0000      -0.211904        -5.7662
  85   2.0000      -0.191867        -5.2210
  86   2.0000      -0.184804        -5.0288
  87   0.0000      -0.050669        -1.3788
  88   0.0000      -0.039109        -1.0642
  89   0.0000      -0.016058        -0.4370
  90   0.0000       0.007693         0.2093
  91   0.0000       0.033343         0.9073

MULLIKEN ATOMIC CHARGES
-----------------------
   0 C :   -0.305509
   1 C :   -0.008428
   2 O :   -0.242778
   3 C :    0.139138
   4 O :   -0.186142
   5 C :   -0.104801
   6 C :   -0.314754
   7 H :    0.149614
   8 C :    0.237825
   9 O :   -0.200842
  10 O :   -0.213989
  11 C :   -0.013287
  12 C :   -0.318097
  13 S :   -0.058249
  14 P :    0.647817
  15 S :   -0.348707
  16 O :   -0.390013
  17 C :   -0.084074
  18 O :   -0.391800
  19 C :   -0.095799
  20 H :    0.114173
  21 H :    0.110827
  22 H :    0.128233
  23 H :    0.114882
  24 H :    0.102672
  25 H :    0.121940
  26 H :    0.126523
  27 H :    0.110253
  28 H :    0.113383
  29 H :    0.117757
  30 H :    0.115645
  31 H :    0.147782
  32 H :    0.112672
  33 H :    0.111987
  34 H :    0.114675
  35 H :    0.120933
  36 H :    0.105472
  37 H :    0.113067
Sum of atomic charges:    0.0000000

LOEWDIN ATOMIC CHARGES
----------------------
   0 C :   -0.356350
   1 C :   -0.109318
   2 O :   -0.064277
   3 C :    0.027358
   4 O :   -0.154617
   5 C :   -0.255837
   6 C :   -0.266278
   7 H :    0.150073
   8 C :    0.031998
   9 O :   -0.154608
  10 O :   -0.030417
  11 C :   -0.104661
  12 C :   -0.359687
  13 S :    0.127795
  14 P :    0.591569
  15 S :   -0.340188
  16 O :   -0.251951
  17 C :   -0.211887
  18 O :   -0.269586
  19 C :   -0.216100
  20 H :    0.131294
  21 H :    0.123286
  22 H :    0.131188
  23 H :    0.123650
  24 H :    0.117730
  25 H :    0.144930
  26 H :    0.138670
  27 H :    0.121581
  28 H :    0.122077
  29 H :    0.127331
  30 H :    0.132976
  31 H :    0.132994
  32 H :    0.111334
  33 H :    0.107255
  34 H :    0.115066
  35 H :    0.120173
  36 H :    0.107894
  37 H :    0.107542

  Mayer bond orders larger than 0.100000
B(  0-C ,  1-C ) :   1.1745 B(  0-C , 20-H ) :   0.9444 B(  0-C , 21-H ) :   0.9489
B(  0-C , 22-H ) :   0.9458 B(  1-C ,  2-O ) :   0.9125 B(  1-C , 23-H ) :   0.9139
B(  1-C , 24-H ) :   0.9375 B(  2-O ,  3-C ) :   1.2038 B(  3-C ,  4-O ) :   2.0789
B(  3-C ,  5-C ) :   1.0205 B(  5-C ,  6-C ) :   1.0376 B(  5-C , 25-H ) :   0.8720
B(  5-C , 26-H ) :   0.8801 B(  6-C ,  7-H ) :   0.8552 B(  6-C ,  8-C ) :   0.9215
B(  6-C , 13-S ) :   1.0407 B(  8-C ,  9-O ) :   1.8970 B(  8-C , 10-O ) :   1.2954
B(  9-O , 14-P ) :   0.1367 B( 10-O , 11-C ) :   0.8912 B( 11-C , 12-C ) :   1.1774
B( 11-C , 27-H ) :   0.9361 B( 11-C , 28-H ) :   0.9159 B( 12-C , 29-H ) :   0.9477
B( 12-C , 30-H ) :   0.9407 B( 12-C , 31-H ) :   0.9284 B( 13-S , 14-P ) :   0.9318
B( 13-S , 15-S ) :   0.1088 B( 14-P , 15-S ) :   1.5429 B( 14-P , 16-O ) :   1.0932
B( 14-P , 18-O ) :   1.0748 B( 16-O , 17-C ) :   0.9327 B( 17-C , 32-H ) :   0.9534
B( 17-C , 33-H ) :   0.9351 B( 17-C , 34-H ) :   0.9544 B( 18-O , 19-C ) :   0.9421
B( 19-C , 35-H ) :   0.9608 B( 19-C , 36-H ) :   0.9508 B( 19-C , 37-H ) :   0.9331

Dispersion correction           -0.051727534
FINAL SINGLE POINT ENERGY     -1979.013307969326

DIPOLE MOMENT
-------------

Method             : SCF
Type of density    : Electron Density
Multiplicity       :   1
Irrep              :   0
Energy             : -1979.1441252457884730 Eh
Relativity type    :
Basis              : AO
                                X                 Y                 Z
Electronic contribution:     -9.250980635      -2.960316292      -1.819994548
Nuclear contribution   :      9.836324708       4.307279416       0.849230364
                        -----------------------------------------
Total Dipole Moment    :      0.585344073       1.346963125      -0.970764184
                        -----------------------------------------
Magnitude (a.u.)       :      1.760488695
Magnitude (Debye)      :      4.474806644

Rotational constants in cm-1:             0.012092             0.007382             0.005509
Rotational constants in MHz :           362.522624           221.294601           165.159994

                             ****ORCA TERMINATED NORMALLY****
TOTAL RUN TIME: 0 days 0 hours 0 minutes 37 seconds 765 msec
