                         Program Version 6.0.0  -   RELEASE  -
|  1> ! wb97x-v def2-tzvp def2/J RIJCOSX DEFGRID2 scfconv7 GCP(DFT/TZ) printgap
|  2> %output
|  3>     printlevel normal
|  4> end
|  5> * xyz 0 1
|  6> C -0.7307664639283242 -1.1956048958922332 0.21691598359425748
|  7> C 0.716579891855969 -1.1793694211919368 -0.22992307804848428
|  8> O 1.392403988209788 0.0014247251890628968 0.24048409631804693
|  9> C 0.714164989496658 1.1808312285243991 -0.22991905354632092
| 10> C -0.7332123661697828 1.1941035127852329 0.21692515221585115
| 11> N -1.4190758555339216 -0.0014529812926170897 -0.3053523321483853
| 12> H -0.7602144304142286 -1.242233399992272 1.319819932946283
| 13> H -1.2131606617541317 -2.0991033079815846 -0.17098251994777253
| 14> H 1.2584556178416666 -2.032403667773508 0.1880183580077086
| 15> H 0.7793857268777852 -1.2213868551319915 -1.3286841472347168
| 16> H 1.2542891685783522 2.034975986762532 0.1880217937826987
| 17> H 0.7768802433757549 1.2229843082552947 -1.3286802331525436
| 18> H -0.7627542592488367 1.2406584352546226 1.3198297168399178
| 19> H -1.2174632197157411 2.0966109531789017 -0.1709663587281341
| 20> H -2.362742851604938 -0.0024241399707273245 0.06955801719050393
| 21> *
| 22>
| 23>                          ****END OF INPUT****

CARTESIAN COORDINATES (ANGSTROEM)
---------------------------------
  C     -0.730766   -1.195605    0.216916
  C      0.716580   -1.179369   -0.229923
  O      1.392404    0.001425    0.240484
  C      0.714165    1.180831   -0.229919
  C     -0.733212    1.194104    0.216925
  N     -1.419076   -0.001453   -0.305352
  H     -0.760214   -1.242233    1.319820
  H     -1.213161   -2.099103   -0.170983
  H      1.258456   -2.032404    0.188018
  H      0.779386   -1.221387   -1.328684
  H      1.254289    2.034976    0.188022
  H      0.776880    1.222984   -1.328680
  H     -0.762754    1.240658    1.319830
  H     -1.217463    2.096611   -0.170966
  H     -2.362743   -0.002424    0.069558

 Total Charge           Charge          ....    0
 Multiplicity           Mult            ....    1
 Number of Electrons    NEL             ....   48
 Basis Dimension        Dim             ....  240

ORBITAL ENERGIES
----------------

  NO   OCC          E(Eh)            E(eV)
   0   2.0000     -21.668884      -589.6403
   1   2.0000     -16.517696      -449.4693
   2   2.0000     -12.088094      -328.9338
   3   2.0000     -12.087930      -328.9293
   4   2.0000     -12.069508      -328.4280
   5   2.0000     -12.069342      -328.4235
   6   2.0000      -1.671227       -45.4764
   7   2.0000      -1.472341       -40.0644
   8   2.0000      -1.292559       -35.1723
   9   2.0000      -1.212795       -33.0018
  10   2.0000      -1.166770       -31.7494
  11   2.0000      -1.055465       -28.7207
  12   2.0000      -0.993043       -27.0221
  13   2.0000      -0.977277       -26.5931
  14   2.0000      -0.947983       -25.7959
  15   2.0000      -0.937556       -25.5122
  16   2.0000      -0.916953       -24.9516
  17   2.0000      -0.887958       -24.1626
  18   2.0000      -0.841331       -22.8938
  19   2.0000      -0.811790       -22.0899
  20   2.0000      -0.802513       -21.8375
  21   2.0000      -0.793638       -21.5960
  22   2.0000      -0.786271       -21.3955
  23   2.0000      -0.707984       -19.2652
  24   0.0000      -0.171358        -4.6629
  25   0.0000      -0.111441        -3.0325
  26   0.0000      -0.074441        -2.0256
  27   0.0000      -0.046963        -1.2779
  28   0.0000      -0.030641        -0.8338

MULLIKEN ATOMIC CHARGES
-----------------------
   0 C :   -0.109860
   1 C :   -0.039981
   2 O :   -0.308373
   3 C :   -0.039979
   4 C :   -0.109833
   5 N :   -0.319769
   6 H :    0.083264
   7 H :    0.101225
   8 H :    0.104425
   9 H :    0.081216
  10 H :    0.104426
  11 H :    0.081213
  12 H :    0.083258
  13 H :    0.101222
  14 H :    0.187546
Sum of atomic charges:   -0.0000000

LOEWDIN ATOMIC CHARGES
----------------------
   0 C :   -0.311930
   1 C :   -0.308009
   2 O :    0.124352
   3 C :   -0.308012
   4 C :   -0.311928
   5 N :   -0.029005
   6 H :    0.117669
   7 H :    0.128807
   8 H :    0.125847
   9 H :    0.119359
  10 H :    0.125847
  11 H :    0.119359
  12 H :    0.117669
  13 H :    0.128806
  14 H :    0.161169

  Mayer bond orders larger than 0.100000
B(  0-C ,  1-C ) :   1.0112 B(  0-C ,  5-N ) :   1.0036 B(  0-C ,  6-H ) :   0.9716
B(  0-C ,  7-H ) :   0.9578 B(  1-C ,  2-O ) :   1.0110 B(  1-C ,  8-H ) :   0.9661
B(  1-C ,  9-H ) :   0.9754 B(  2-O ,  3-C ) :   1.0110 B(  3-C ,  4-C ) :   1.0112
B(  3-C , 10-H ) :   0.9661 B(  3-C , 11-H ) :   0.9754 B(  4-C ,  5-N ) :   1.0037
B(  4-C , 12-H ) :   0.9716 B(  4-C , 13-H ) :   0.9578 B(  5-N , 14-H ) :   0.9397

FINAL SINGLE POINT ENERGY      -287.813447281025

DIPOLE MOMENT
-------------

Method             : SCF
Type of density    : Electron Density
Multiplicity       :   1
Irrep              :   0
Energy             :  -287.8241080108251708 Eh
Relativity type    :
Basis              : AO
                                X                 Y                 Z
Electronic contribution:      1.484832186       0.001524934       0.021047852
Nuclear contribution   :     -2.069922248      -0.002128813       0.146153420
                        -----------------------------------------
Total Dipole Moment    :     -0.585090062      -0.000603879       0.167201272
                        -----------------------------------------
Magnitude (a.u.)       :      0.608512129
Magnitude (Debye)      :      1.546714912

Rotational constants in cm-1:             0.163810             0.152698             0.088890
Rotational constants in MHz :          4910.887230          4577.766268          2664.862476

                             ****ORCA TERMINATED NORMALLY****
TOTAL RUN TIME: 0 days 0 hours 1 minutes 39 seconds 630 msec
