                         Program Version 6.0.0  -   RELEASE  -
|  1> ! wb97x-v def2-tzvp def2/J RIJCOSX DEFGRID2 scfconv7 GCP(DFT/TZ) printgap
|  2> %output
|  3>     printlevel normal
|  4> end
|  5> %cpcm
|  6>     smd true
|  7>     smdsolvent "water"
|  8> end
|  9> * xyz 0 1
| 10> C -0.7307664639283242 -1.1956048958922332 0.21691598359425748
| 11> C 0.716579891855969 -1.1793694211919368 -0.22992307804848428
| 12> O 1.392403988209788 0.0014247251890628968 0.24048409631804693
| 13> C 0.714164989496658 1.1808312285243991 -0.22991905354632092
| 14> C -0.7332123661697828 1.1941035127852329 0.21692515221585115
| 15> N -1.4190758555339216 -0.0014529812926170897 -0.3053523321483853
| 16> H -0.7602144304142286 -1.242233399992272 1.319819932946283
| 17> H -1.2131606617541317 -2.0991033079815846 -0.17098251994777253
| 18> H 1.2584556178416666 -2.032403667773508 0.1880183580077086
| 19> H 0.7793857268777852 -1.2213868551319915 -1.3286841472347168
| 20> H 1.2542891685783522 2.034975986762532 0.1880217937826987
| 21> H 0.7768802433757549 1.2229843082552947 -1.3286802331525436
| 22> H -0.7627542592488367 1.2406584352546226 1.3198297168399178
| 23> H -1.2174632197157411 2.0966109531789017 -0.1709663587281341
| 24> H -2.362742851604938 -0.0024241399707273245 0.06955801719050393
| 25> *
| 26>
| 27>                          ****END OF INPUT****

CARTESIAN COORDINATES (ANGSTROEM)
---------------------------------
  C     -0.730766   -1.195605    0.216916
  C      0.716580   -1.179369   -0.229923
  O      1.392404    0.001425    0.240484
  C      0.714165    1.180831   -0.229919
  C     -0.733212    1.194104    0.216925
  N     -1.419076   -0.001453   -0.305352
  H     -0.760214   -1.242233    1.319820
  H     -1.213161   -2.099103   -0.170983
  H      1.258456   -2.032404    0.188018
  H      0.779386   -1.221387   -1.328684
  H      1.254289    2.034976    0.188022
  H      0.776880    1.222984   -1.328680
  H     -0.762754    1.240658    1.319830
  H     -1.217463    2.096611   -0.170966
  H     -2.362743   -0.002424    0.069558

 Total Charge           Charge          ....    0
 Multiplicity           Mult            ....    1
 Number of Electrons    NEL             ....   48
 Basis Dimension        Dim             ....  240

ORBITAL ENERGIES
----------------

  NO   OCC          E(Eh)            E(eV)
   0   2.0000     -21.676362      -589.8438
   1   2.0000     -16.510467      -449.2727
   2   2.0000     -12.083636      -328.8125
   3   2.0000     -12.083483      -328.8083
   4   2.0000     -12.059939      -328.1676
   5   2.0000     -12.059774      -328.1631
   6   2.0000      -1.678706       -45.6799
   7   2.0000      -1.464636       -39.8548
   8   2.0000      -1.288540       -35.0630
   9   2.0000      -1.207552       -32.8592
  10   2.0000      -1.163425       -31.6584
  11   2.0000      -1.052019       -28.6269
  12   2.0000      -0.990780       -26.9605
  13   2.0000      -0.975772       -26.5521
  14   2.0000      -0.951034       -25.8790
  15   2.0000      -0.937273       -25.5045
  16   2.0000      -0.909854       -24.7584
  17   2.0000      -0.880491       -23.9594
  18   2.0000      -0.834616       -22.7111
  19   2.0000      -0.804363       -21.8878
  20   2.0000      -0.799295       -21.7499
  21   2.0000      -0.785830       -21.3835
  22   2.0000      -0.785650       -21.3786
  23   2.0000      -0.702025       -19.1031
  24   0.0000      -0.168879        -4.5954
  25   0.0000      -0.110042        -2.9944
  26   0.0000      -0.065139        -1.7725
  27   0.0000      -0.040302        -1.0967
  28   0.0000      -0.016993        -0.4624

MULLIKEN ATOMIC CHARGES
-----------------------
   0 C :   -0.131464
   1 C :   -0.051666
   2 O :   -0.391763
   3 C :   -0.051662
   4 C :   -0.131443
   5 N :   -0.391571
   6 H :    0.099345
   7 H :    0.127661
   8 H :    0.131543
   9 H :    0.099834
  10 H :    0.131543
  11 H :    0.099830
  12 H :    0.099341
  13 H :    0.127659
  14 H :    0.232813
Sum of atomic charges:   -0.0000000

LOEWDIN ATOMIC CHARGES
----------------------
   0 C :   -0.309438
   1 C :   -0.310039
   2 O :    0.085789
   3 C :   -0.310041
   4 C :   -0.309437
   5 N :   -0.047882
   6 H :    0.122697
   7 H :    0.135754
   8 H :    0.131804
   9 H :    0.123220
  10 H :    0.131803
  11 H :    0.123220
  12 H :    0.122697
  13 H :    0.135754
  14 H :    0.174099

  Mayer bond orders larger than 0.100000
B(  0-C ,  1-C ) :   1.0063 B(  0-C ,  5-N ) :   0.9937 B(  0-C ,  6-H ) :   0.9728
B(  0-C ,  7-H ) :   0.9593 B(  1-C ,  2-O ) :   0.9728 B(  1-C ,  8-H ) :   0.9646
B(  1-C ,  9-H ) :   0.9753 B(  2-O ,  3-C ) :   0.9728 B(  3-C ,  4-C ) :   1.0064
B(  3-C , 10-H ) :   0.9646 B(  3-C , 11-H ) :   0.9753 B(  4-C ,  5-N ) :   0.9937
B(  4-C , 12-H ) :   0.9728 B(  4-C , 13-H ) :   0.9593 B(  5-N , 14-H ) :   0.9262

FINAL SINGLE POINT ENERGY      -287.826578338117

DIPOLE MOMENT
-------------

Method             : SCF
Type of density    : Electron Density
Multiplicity       :   1
Irrep              :   0
Energy             :  -287.8372390679166983 Eh
Relativity type    :
Basis              : AO
                                X                 Y                 Z
Electronic contribution:      1.237383188       0.001271801       0.085101918
Nuclear contribution   :     -2.069922248      -0.002128813       0.146153420
                        -----------------------------------------
Total Dipole Moment    :     -0.832539060      -0.000857012       0.231255339
                        -----------------------------------------
Magnitude (a.u.)       :      0.864060792
Magnitude (Debye)      :      2.196267993

Rotational constants in cm-1:             0.163810             0.152698             0.088890
Rotational constants in MHz :          4910.887230          4577.766268          2664.862476

                             ****ORCA TERMINATED NORMALLY****
TOTAL RUN TIME: 0 days 0 hours 1 minutes 43 seconds 637 msec
