                         Program Version 6.0.0  -   RELEASE  -
|  1> ! pbe def2-sv(p) def2/J RI DEFGRID1 loosescf d4 GCP(DFT/SV(P)) printgap
|  2> %output
|  3>     printlevel normal
|  4> end
|  5> * xyz 0 1
|  6> C 4.2260525724 -2.3527294889 -1.591840386
|  7> C 4.707265414 -0.9163575226 -1.5965033063
|  8> O 4.0644020411 -0.1161163664 -0.5872613492
|  9> P 2.5069209754 0.2090683456 -0.5928877724
| 10> S 1.7197443486 0.6156992142 -2.3344215451
| 11> O 2.430862601 1.4356930932 0.3914277403
| 12> C 2.9783457879 1.4056361586 1.7356265223
| 13> C 2.0363298347 2.1587420074 2.6512882003
| 14> S 1.6390696785 -1.432962851 0.4587734243
| 15> C -0.0490777198 -1.1253438699 -0.0733076584
| 16> S -0.7234952177 0.3509305762 0.7747933819
| 17> P -2.7562093583 -0.015775826 0.2881233526
| 18> S -4.066269428 1.2847903154 0.9382411887
| 19> O -2.9963952472 -1.527108635 0.7178961053
| 20> C -3.5096339392 -1.8650903716 2.020548865
| 21> C -2.5092357906 -1.5783273224 3.123148155
| 22> O -2.7370136879 -0.2871945326 -1.2787025215
| 23> C -3.0426693733 0.7527578079 -2.2234515438
| 24> C -1.986006663 1.8394884205 -2.2464429214
| 25> H 3.1897353841 -2.4012878439 -1.9222488709
| 26> H 4.8381786166 -2.935538715 -2.2726702577
| 27> H 4.296645132 -2.7732333839 -0.5918825936
| 28> H 4.5257851234 -0.4522503764 -2.5707453368
| 29> H 5.7662181842 -0.8453747676 -1.3440476556
| 30> H 3.0921495692 0.3639072467 2.0490363408
| 31> H 3.9603953224 1.8791522018 1.6874808368
| 32> H 1.061144052 1.6776737599 2.6636721895
| 33> H 2.447124294 2.1688704714 3.6555586652
| 34> H 1.9127536956 3.1792169155 2.3007099147
| 35> H -0.6437160054 -1.9962302182 0.1909547532
| 36> H -0.0561687737 -0.9493815271 -1.1503617001
| 37> H -4.4332345807 -1.3015906708 2.1855213396
| 38> H -3.7341836129 -2.9299363055 1.9438590267
| 39> H -2.3306728187 -0.5055017242 3.1912355905
| 40> H -2.911500665 -1.9274705252 4.0687851005
| 41> H -1.5654774582 -2.0821200895 2.9282435992
| 42> H -3.1030521854 0.2309527602 -3.1794170092
| 43> H -4.0185462348 1.1775622389 -1.967392917
| 44> H -1.9482436512 2.3429356031 -1.2799621603
| 45> H -1.0036075718 1.4253727869 -2.4661549856
| 46> H -2.2372168082 2.5683252943 -3.010246308
| 47> *
| 48>
| 49>                          ****END OF INPUT****

CARTESIAN COORDINATES (ANGSTROEM)
---------------------------------
  C      4.226053   -2.352729   -1.591840
  C      4.707265   -0.916358   -1.596503
  O      4.064402   -0.116116   -0.587261
  P      2.506921    0.209068   -0.592888
  S      1.719744    0.615699   -2.334422
  O      2.430863    1.435693    0.391428
  C      2.978346    1.405636    1.735627
  C      2.036330    2.158742    2.651288
  S      1.639070   -1.432963    0.458773
  C     -0.049078   -1.125344   -0.073308
  S     -0.723495    0.350931    0.774793
  P     -2.756209   -0.015776    0.288123
  S     -4.066269    1.284790    0.938241
  O     -2.996395   -1.527109    0.717896
  C     -3.509634   -1.865090    2.020549
  C     -2.509236   -1.578327    3.123148
  O     -2.737014   -0.287195   -1.278703
  C     -3.042669    0.752758   -2.223452
  C     -1.986007    1.839488   -2.246443
  H      3.189735   -2.401288   -1.922249
  H      4.838179   -2.935539   -2.272670
  H      4.296645   -2.773233   -0.591883
  H      4.525785   -0.452250   -2.570745
  H      5.766218   -0.845375   -1.344048
  H      3.092150    0.363907    2.049036
  H      3.960395    1.879152    1.687481
  H      1.061144    1.677674    2.663672
  H      2.447124    2.168870    3.655559
  H      1.912754    3.179217    2.300710
  H     -0.643716   -1.996230    0.190955
  H     -0.056169   -0.949382   -1.150362
  H     -4.433235   -1.301591    2.185521
  H     -3.734184   -2.929936    1.943859
  H     -2.330673   -0.505502    3.191236
  H     -2.911501   -1.927471    4.068785
  H     -1.565477   -2.082120    2.928244
  H     -3.103052    0.230953   -3.179417
  H     -4.018546    1.177562   -1.967393
  H     -1.948244    2.342936   -1.279962
  H     -1.003608    1.425373   -2.466155
  H     -2.237217    2.568325   -3.010246

 Total Charge           Charge          ....    0
 Multiplicity           Mult            ....    1
 Number of Electrons    NEL             ....  202
 Basis Dimension        Dim             ....  334

ORBITAL ENERGIES
----------------

  NO   OCC          E(Eh)            E(eV)
   0   2.0000     -88.053808     -2396.0659
   1   2.0000     -88.040917     -2395.7152
   2   2.0000     -87.993368     -2394.4213
   3   2.0000     -87.988390     -2394.2858
   4   2.0000     -76.432168     -2079.8250
   5   2.0000     -76.424960     -2079.6289
   6   2.0000     -18.800467      -511.5867
   7   2.0000     -18.796140      -511.4690
   8   2.0000     -18.789970      -511.3011
   9   2.0000     -18.785720      -511.1854
  10   2.0000      -9.959871      -271.0219
  11   2.0000      -9.958665      -270.9891
  12   2.0000      -9.955233      -270.8957
  13   2.0000      -9.953422      -270.8464
  14   2.0000      -9.945047      -270.6185
  15   2.0000      -9.890378      -269.1309
  16   2.0000      -9.886643      -269.0292
  17   2.0000      -9.885646      -269.0021
  18   2.0000      -9.870092      -268.5789
  19   2.0000      -7.698541      -209.4880
  20   2.0000      -7.685469      -209.1322
  21   2.0000      -7.638271      -207.8479
  22   2.0000      -7.633505      -207.7182
  23   2.0000      -6.429848      -174.9651
  24   2.0000      -6.422370      -174.7616
  25   2.0000      -5.726172      -155.8171
  26   2.0000      -5.723149      -155.7348
  27   2.0000      -5.715726      -155.5328
  28   2.0000      -5.713634      -155.4759
  29   2.0000      -5.710008      -155.3772
  30   2.0000      -5.702245      -155.1660
  31   2.0000      -5.667156      -154.2111
  32   2.0000      -5.662497      -154.0844
  33   2.0000      -5.658805      -153.9839
  34   2.0000      -5.658531      -153.9765
  35   2.0000      -5.654013      -153.8535
  36   2.0000      -5.653740      -153.8461
  37   2.0000      -4.652667      -126.6055
  38   2.0000      -4.651513      -126.5741
  39   2.0000      -4.650159      -126.5373
  40   2.0000      -4.644641      -126.3871
  41   2.0000      -4.644566      -126.3851
  42   2.0000      -4.642738      -126.3353
  43   2.0000      -0.994169       -27.0527
  44   2.0000      -0.985836       -26.8260
  45   2.0000      -0.950511       -25.8647
  46   2.0000      -0.942421       -25.6446
  47   2.0000      -0.767115       -20.8743
  48   2.0000      -0.723452       -19.6861
  49   2.0000      -0.711405       -19.3583
  50   2.0000      -0.694235       -18.8911
  51   2.0000      -0.682349       -18.5677
  52   2.0000      -0.675337       -18.3768
  53   2.0000      -0.656333       -17.8597
  54   2.0000      -0.641425       -17.4541
  55   2.0000      -0.600526       -16.3411
  56   2.0000      -0.593994       -16.1634
  57   2.0000      -0.575937       -15.6720
  58   2.0000      -0.565649       -15.3921
  59   2.0000      -0.562545       -15.3076
  60   2.0000      -0.509715       -13.8700
  61   2.0000      -0.492067       -13.3898
  62   2.0000      -0.479246       -13.0409
  63   2.0000      -0.462988       -12.5985
  64   2.0000      -0.458054       -12.4643
  65   2.0000      -0.447885       -12.1876
  66   2.0000      -0.444148       -12.0859
  67   2.0000      -0.439775       -11.9669
  68   2.0000      -0.437426       -11.9030
  69   2.0000      -0.418423       -11.3859
  70   2.0000      -0.415518       -11.3068
  71   2.0000      -0.397973       -10.8294
  72   2.0000      -0.393315       -10.7027
  73   2.0000      -0.387787       -10.5522
  74   2.0000      -0.385546       -10.4912
  75   2.0000      -0.374579       -10.1928
  76   2.0000      -0.370549       -10.0831
  77   2.0000      -0.358610        -9.7583
  78   2.0000      -0.357220        -9.7205
  79   2.0000      -0.350907        -9.5487
  80   2.0000      -0.345356        -9.3976
  81   2.0000      -0.344397        -9.3715
  82   2.0000      -0.343355        -9.3432
  83   2.0000      -0.332694        -9.0531
  84   2.0000      -0.328580        -8.9411
  85   2.0000      -0.320527        -8.7220
  86   2.0000      -0.317585        -8.6419
  87   2.0000      -0.304685        -8.2909
  88   2.0000      -0.301175        -8.1954
  89   2.0000      -0.298468        -8.1217
  90   2.0000      -0.284404        -7.7390
  91   2.0000      -0.277045        -7.5388
  92   2.0000      -0.269719        -7.3394
  93   2.0000      -0.263621        -7.1735
  94   2.0000      -0.256628        -6.9832
  95   2.0000      -0.236353        -6.4315
  96   2.0000      -0.220715        -6.0060
  97   2.0000      -0.212321        -5.7775
  98   2.0000      -0.210643        -5.7319
  99   2.0000      -0.206169        -5.6101
 100   2.0000      -0.203428        -5.5355
 101   0.0000      -0.044242        -1.2039
 102   0.0000      -0.031000        -0.8436
 103   0.0000      -0.019848        -0.5401
 104   0.0000       0.000442         0.0120
 105   0.0000       0.009981         0.2716

MULLIKEN ATOMIC CHARGES
-----------------------
   0 C :   -0.320738
   1 C :    0.000195
   2 O :   -0.382594
   3 P :    0.596275
   4 S :   -0.297499
   5 O :   -0.350454
   6 C :   -0.012648
   7 C :   -0.288435
   8 S :   -0.095010
   9 C :   -0.360807
  10 S :   -0.076353
  11 P :    0.584477
  12 S :   -0.312484
  13 O :   -0.370960
  14 C :   -0.002492
  15 C :   -0.314092
  16 O :   -0.371978
  17 C :   -0.001835
  18 C :   -0.331531
  19 H :    0.129771
  20 H :    0.116897
  21 H :    0.118178
  22 H :    0.114834
  23 H :    0.107339
  24 H :    0.102065
  25 H :    0.111099
  26 H :    0.130994
  27 H :    0.109320
  28 H :    0.123303
  29 H :    0.187828
  30 H :    0.196546
  31 H :    0.114199
  32 H :    0.106449
  33 H :    0.128682
  34 H :    0.113146
  35 H :    0.112113
  36 H :    0.104805
  37 H :    0.109603
  38 H :    0.123417
  39 H :    0.141128
  40 H :    0.107246
Sum of atomic charges:    0.0000000

LOEWDIN ATOMIC CHARGES
----------------------
   0 C :   -0.371279
   1 C :   -0.114682
   2 O :   -0.249269
   3 P :    0.570456
   4 S :   -0.289979
   5 O :   -0.233810
   6 C :   -0.114043
   7 C :   -0.354609
   8 S :    0.087202
   9 C :   -0.482277
  10 S :    0.082394
  11 P :    0.570516
  12 S :   -0.316238
  13 O :   -0.241794
  14 C :   -0.117938
  15 C :   -0.368654
  16 O :   -0.241340
  17 C :   -0.117753
  18 C :   -0.374177
  19 H :    0.122127
  20 H :    0.133049
  21 H :    0.123344
  22 H :    0.114544
  23 H :    0.120052
  24 H :    0.102593
  25 H :    0.118379
  26 H :    0.123342
  27 H :    0.129766
  28 H :    0.131232
  29 H :    0.131287
  30 H :    0.122154
  31 H :    0.112142
  32 H :    0.118861
  33 H :    0.122042
  34 H :    0.130930
  35 H :    0.122220
  36 H :    0.118835
  37 H :    0.109374
  38 H :    0.120464
  39 H :    0.121162
  40 H :    0.129374

  Mayer bond orders larger than 0.100000
B(  0-C ,  1-C ) :   1.1662 B(  0-C , 19-H ) :   0.9353 B(  0-C , 20-H ) :   0.9368
B(  0-C , 21-H ) :   0.9434 B(  1-C ,  2-O ) :   0.9050 B(  1-C , 22-H ) :   0.9200
B(  1-C , 23-H ) :   0.9344 B(  2-O ,  3-P ) :   1.0935 B(  3-P ,  4-S ) :   1.6357
B(  3-P ,  5-O ) :   1.1487 B(  3-P ,  8-S ) :   0.9335 B(  4-S ,  8-S ) :   0.1105
B(  5-O ,  6-C ) :   0.8837 B(  6-C ,  7-C ) :   1.1660 B(  6-C , 24-H ) :   0.9112
B(  6-C , 25-H ) :   0.9321 B(  7-C , 26-H ) :   0.9390 B(  7-C , 27-H ) :   0.9397
B(  7-C , 28-H ) :   0.9481 B(  8-S ,  9-C ) :   1.0150 B(  9-C , 10-S ) :   0.9582
B(  9-C , 29-H ) :   0.8890 B(  9-C , 30-H ) :   0.8646 B( 10-S , 11-P ) :   0.9774
B( 11-P , 12-S ) :   1.6365 B( 11-P , 13-O ) :   1.0877 B( 11-P , 16-O ) :   1.0958
B( 13-O , 14-C ) :   0.9091 B( 14-C , 15-C ) :   1.1623 B( 14-C , 31-H ) :   0.9162
B( 14-C , 32-H ) :   0.9352 B( 15-C , 33-H ) :   0.9354 B( 15-C , 34-H ) :   0.9379
B( 15-C , 35-H ) :   0.9463 B( 16-O , 17-C ) :   0.9055 B( 17-C , 18-C ) :   1.1623
B( 17-C , 36-H ) :   0.9337 B( 17-C , 37-H ) :   0.9187 B( 18-C , 38-H ) :   0.9357
B( 18-C , 39-H ) :   0.9271 B( 18-C , 40-H ) :   0.9368

Dispersion correction           -0.064090554
FINAL SINGLE POINT ENERGY     -2929.520737889028

DIPOLE MOMENT
-------------

Method             : SCF
Type of density    : Electron Density
Multiplicity       :   1
Irrep              :   0
Energy             : -2929.6419328308620607 Eh
Relativity type    :
Basis              : AO
                                X                 Y                 Z
Electronic contribution:     -5.635849225       2.935482985      -4.508196325
Nuclear contribution   :      6.940695807      -4.037047028       5.059799829
                        -----------------------------------------
Total Dipole Moment    :      1.304846582      -1.101564042       0.551603504
                        -----------------------------------------
Magnitude (a.u.)       :      1.794529010
Magnitude (Debye)      :      4.561330248

Rotational constants in cm-1:             0.012227             0.004581             0.004295
Rotational constants in MHz :           366.563291           137.330626           128.774900

                             ****ORCA TERMINATED NORMALLY****
TOTAL RUN TIME: 0 days 0 hours 0 minutes 20 seconds 889 msec
