                         Program Version 6.0.0  -   RELEASE  -
|  1> ! pbe def2-sv(p) def2/J RI DEFGRID1 loosescf d4 GCP(DFT/SV(P)) printgap
|  2> %output
|  3>     printlevel normal
|  4> end
|  5> * xyz 0 1
|  6> C 0.4448112877 -1.3674510035 2.3032044562
|  7> C 1.9498447495 -1.3260735111 2.469972803
|  8> O 2.5497278371 -0.2459359426 1.7352360219
|  9> P 2.5552405605 -0.1779542873 0.1461042296
| 10> S 2.7758817612 -1.901424247 -0.7696123264
| 11> O 3.6838400661 0.8989746445 -0.1269413292
| 12> C 5.0737037116 0.5399246474 -0.2714083472
| 13> C 5.668451531 0.0206886328 1.0210632497
| 14> S 0.8969172975 1.0339797031 -0.3798052809
| 15> C 0.1931691225 0.0146839856 -1.7078325343
| 16> S -1.0946190301 -1.1241501238 -1.139062406
| 17> P -2.5164730069 0.3723500807 -0.6731690349
| 18> S -2.6583327076 1.8740308397 -1.9164085901
| 19> O -2.0688140092 0.7716598405 0.8094144446
| 20> C -2.1677313424 2.1139327343 1.3096202664
| 21> C -3.5923263537 2.4338543629 1.7149127141
| 22> O -3.8844100613 -0.4151903198 -0.5657924241
| 23> C -4.04766165 -1.7589965036 -0.0527388926
| 24> C -3.7149861037 -1.8589532349 1.4209380913
| 25> H 0.0097599518 -0.3963245615 2.5279188108
| 26> H 0.1935458378 -1.6376571943 1.2777000141
| 27> H 0.0283300032 -2.1135323604 2.9726833314
| 28> H 2.3957045904 -2.2662809219 2.1300786006
| 29> H 2.2367355213 -1.1292359216 3.5039333758
| 30> H 5.1550373502 -0.2115757336 -1.0633328413
| 31> H 5.5485917942 1.4683805919 -0.5912588606
| 32> H 5.2165508331 -0.9354166196 1.2811985552
| 33> H 6.7375348717 -0.1182247285 0.8935657059
| 34> H 5.4878624859 0.7268375583 1.8272320874
| 35> H 0.9745670142 -0.6031754982 -2.1499400607
| 36> H -0.2396233168 0.6990650011 -2.4369351357
| 37> H -1.4844779512 2.1416695811 2.1594833322
| 38> H -1.8180350294 2.8065732831 0.5374031304
| 39> H -3.9350406348 1.7373920879 2.4752427334
| 40> H -3.6405542032 3.4458744853 2.1039359964
| 41> H -4.2433236 2.3561469033 0.8443277585
| 42> H -5.099597748 -1.974918316 -0.2465044471
| 43> H -3.4168828766 -2.4301501353 -0.6418110269
| 44> H -2.6646051384 -1.6288638822 1.5842008816
| 45> H -4.3236431177 -1.1633130054 1.9924521392
| 46> H -3.9137482664 -2.8707477546 1.7600514995
| 47> *
| 48>
| 49>                          ****END OF INPUT****

CARTESIAN COORDINATES (ANGSTROEM)
---------------------------------
  C      0.444811   -1.367451    2.303204
  C      1.949845   -1.326074    2.469973
  O      2.549728   -0.245936    1.735236
  P      2.555241   -0.177954    0.146104
  S      2.775882   -1.901424   -0.769612
  O      3.683840    0.898975   -0.126941
  C      5.073704    0.539925   -0.271408
  C      5.668452    0.020689    1.021063
  S      0.896917    1.033980   -0.379805
  C      0.193169    0.014684   -1.707833
  S     -1.094619   -1.124150   -1.139062
  P     -2.516473    0.372350   -0.673169
  S     -2.658333    1.874031   -1.916409
  O     -2.068814    0.771660    0.809414
  C     -2.167731    2.113933    1.309620
  C     -3.592326    2.433854    1.714913
  O     -3.884410   -0.415190   -0.565792
  C     -4.047662   -1.758997   -0.052739
  C     -3.714986   -1.858953    1.420938
  H      0.009760   -0.396325    2.527919
  H      0.193546   -1.637657    1.277700
  H      0.028330   -2.113532    2.972683
  H      2.395705   -2.266281    2.130079
  H      2.236736   -1.129236    3.503933
  H      5.155037   -0.211576   -1.063333
  H      5.548592    1.468381   -0.591259
  H      5.216551   -0.935417    1.281199
  H      6.737535   -0.118225    0.893566
  H      5.487862    0.726838    1.827232
  H      0.974567   -0.603175   -2.149940
  H     -0.239623    0.699065   -2.436935
  H     -1.484478    2.141670    2.159483
  H     -1.818035    2.806573    0.537403
  H     -3.935041    1.737392    2.475243
  H     -3.640554    3.445874    2.103936
  H     -4.243324    2.356147    0.844328
  H     -5.099598   -1.974918   -0.246504
  H     -3.416883   -2.430150   -0.641811
  H     -2.664605   -1.628864    1.584201
  H     -4.323643   -1.163313    1.992452
  H     -3.913748   -2.870748    1.760051

 Total Charge           Charge          ....    0
 Multiplicity           Mult            ....    1
 Number of Electrons    NEL             ....  202
 Basis Dimension        Dim             ....  334

ORBITAL ENERGIES
----------------

  NO   OCC          E(Eh)            E(eV)
   0   2.0000     -88.043819     -2395.7941
   1   2.0000     -88.041275     -2395.7249
   2   2.0000     -87.995565     -2394.4810
   3   2.0000     -87.986156     -2394.2250
   4   2.0000     -76.428772     -2079.7326
   5   2.0000     -76.426687     -2079.6759
   6   2.0000     -18.796437      -511.4771
   7   2.0000     -18.793983      -511.4103
   8   2.0000     -18.790589      -511.3179
   9   2.0000     -18.790171      -511.3065
  10   2.0000      -9.963359      -271.1168
  11   2.0000      -9.953943      -270.8606
  12   2.0000      -9.953733      -270.8548
  13   2.0000      -9.953448      -270.8471
  14   2.0000      -9.948709      -270.7181
  15   2.0000      -9.893132      -269.2058
  16   2.0000      -9.886002      -269.0118
  17   2.0000      -9.883772      -268.9511
  18   2.0000      -9.881230      -268.8819
  19   2.0000      -7.688627      -209.2182
  20   2.0000      -7.686447      -209.1589
  21   2.0000      -7.640356      -207.9047
  22   2.0000      -7.631372      -207.6602
  23   2.0000      -6.426538      -174.8750
  24   2.0000      -6.424484      -174.8191
  25   2.0000      -5.716321      -155.5490
  26   2.0000      -5.714352      -155.4954
  27   2.0000      -5.713253      -155.4655
  28   2.0000      -5.711108      -155.4071
  29   2.0000      -5.705671      -155.2592
  30   2.0000      -5.703176      -155.1913
  31   2.0000      -5.669105      -154.2642
  32   2.0000      -5.661108      -154.0466
  33   2.0000      -5.660597      -154.0327
  34   2.0000      -5.660389      -154.0270
  35   2.0000      -5.652163      -153.8032
  36   2.0000      -5.651203      -153.7770
  37   2.0000      -4.648810      -126.5005
  38   2.0000      -4.648193      -126.4838
  39   2.0000      -4.647347      -126.4607
  40   2.0000      -4.647279      -126.4589
  41   2.0000      -4.646029      -126.4249
  42   2.0000      -4.644940      -126.3952
  43   2.0000      -0.988016       -26.8853
  44   2.0000      -0.985906       -26.8279
  45   2.0000      -0.947531       -25.7836
  46   2.0000      -0.946784       -25.7633
  47   2.0000      -0.764049       -20.7908
  48   2.0000      -0.724084       -19.7033
  49   2.0000      -0.711539       -19.3620
  50   2.0000      -0.692974       -18.8568
  51   2.0000      -0.687934       -18.7196
  52   2.0000      -0.674963       -18.3667
  53   2.0000      -0.654043       -17.7974
  54   2.0000      -0.641292       -17.4504
  55   2.0000      -0.605187       -16.4680
  56   2.0000      -0.596197       -16.2233
  57   2.0000      -0.577934       -15.7264
  58   2.0000      -0.573881       -15.6161
  59   2.0000      -0.560841       -15.2613
  60   2.0000      -0.499260       -13.5856
  61   2.0000      -0.492942       -13.4136
  62   2.0000      -0.480139       -13.0652
  63   2.0000      -0.473671       -12.8893
  64   2.0000      -0.459696       -12.5090
  65   2.0000      -0.449634       -12.2351
  66   2.0000      -0.441279       -12.0078
  67   2.0000      -0.436927       -11.8894
  68   2.0000      -0.431454       -11.7405
  69   2.0000      -0.413731       -11.2582
  70   2.0000      -0.412565       -11.2265
  71   2.0000      -0.397633       -10.8201
  72   2.0000      -0.395394       -10.7592
  73   2.0000      -0.388303       -10.5663
  74   2.0000      -0.386469       -10.5164
  75   2.0000      -0.378667       -10.3040
  76   2.0000      -0.371293       -10.1034
  77   2.0000      -0.357796        -9.7361
  78   2.0000      -0.353574        -9.6212
  79   2.0000      -0.350724        -9.5437
  80   2.0000      -0.350094        -9.5265
  81   2.0000      -0.348736        -9.4896
  82   2.0000      -0.345183        -9.3929
  83   2.0000      -0.341265        -9.2863
  84   2.0000      -0.338064        -9.1992
  85   2.0000      -0.319559        -8.6956
  86   2.0000      -0.312465        -8.5026
  87   2.0000      -0.307880        -8.3778
  88   2.0000      -0.297697        -8.1007
  89   2.0000      -0.286993        -7.8095
  90   2.0000      -0.281622        -7.6633
  91   2.0000      -0.276863        -7.5338
  92   2.0000      -0.274746        -7.4762
  93   2.0000      -0.270254        -7.3540
  94   2.0000      -0.259050        -7.0491
  95   2.0000      -0.228170        -6.2088
  96   2.0000      -0.220473        -5.9994
  97   2.0000      -0.215962        -5.8766
  98   2.0000      -0.209315        -5.6958
  99   2.0000      -0.205724        -5.5980
 100   2.0000      -0.200153        -5.4464
 101   0.0000      -0.045946        -1.2503
 102   0.0000      -0.028173        -0.7666
 103   0.0000      -0.009930        -0.2702
 104   0.0000       0.005823         0.1585
 105   0.0000       0.012446         0.3387

MULLIKEN ATOMIC CHARGES
-----------------------
   0 C :   -0.365121
   1 C :    0.016294
   2 O :   -0.372456
   3 P :    0.614153
   4 S :   -0.335383
   5 O :   -0.365995
   6 C :   -0.002964
   7 C :   -0.309175
   8 S :   -0.070625
   9 C :   -0.352612
  10 S :   -0.102520
  11 P :    0.614999
  12 S :   -0.311915
  13 O :   -0.376670
  14 C :   -0.012462
  15 C :   -0.305285
  16 O :   -0.368087
  17 C :   -0.024577
  18 C :   -0.330912
  19 H :    0.127922
  20 H :    0.150359
  21 H :    0.109104
  22 H :    0.108036
  23 H :    0.102254
  24 H :    0.111927
  25 H :    0.108197
  26 H :    0.122545
  27 H :    0.112721
  28 H :    0.119013
  29 H :    0.192486
  30 H :    0.197349
  31 H :    0.104435
  32 H :    0.114965
  33 H :    0.112313
  34 H :    0.112200
  35 H :    0.126055
  36 H :    0.116706
  37 H :    0.124978
  38 H :    0.150659
  39 H :    0.122467
  40 H :    0.114624
Sum of atomic charges:    0.0000000

LOEWDIN ATOMIC CHARGES
----------------------
   0 C :   -0.377714
   1 C :   -0.116802
   2 O :   -0.243802
   3 P :    0.573442
   4 S :   -0.317107
   5 O :   -0.243986
   6 C :   -0.115163
   7 C :   -0.365053
   8 S :    0.098035
   9 C :   -0.480808
  10 S :    0.091790
  11 P :    0.570318
  12 S :   -0.306154
  13 O :   -0.246653
  14 C :   -0.125200
  15 C :   -0.363037
  16 O :   -0.241661
  17 C :   -0.114211
  18 C :   -0.367929
  19 H :    0.125448
  20 H :    0.113489
  21 H :    0.128457
  22 H :    0.109709
  23 H :    0.117767
  24 H :    0.111500
  25 H :    0.120589
  26 H :    0.122555
  27 H :    0.130650
  28 H :    0.127419
  29 H :    0.128906
  30 H :    0.131349
  31 H :    0.115246
  32 H :    0.107880
  33 H :    0.121530
  34 H :    0.130712
  35 H :    0.125303
  36 H :    0.125175
  37 H :    0.110377
  38 H :    0.127841
  39 H :    0.127652
  40 H :    0.132139

  Mayer bond orders larger than 0.100000
B(  0-C ,  1-C ) :   1.1606 B(  0-C , 19-H ) :   0.9403 B(  0-C , 20-H ) :   0.9188
B(  0-C , 21-H ) :   0.9359 B(  1-C ,  2-O ) :   0.9098 B(  1-C , 22-H ) :   0.9173
B(  1-C , 23-H ) :   0.9326 B(  2-O ,  3-P ) :   1.1060 B(  3-P ,  4-S ) :   1.5847
B(  3-P ,  5-O ) :   1.1368 B(  3-P ,  8-S ) :   0.9606 B(  4-S ,  8-S ) :   0.1138
B(  5-O ,  6-C ) :   0.9112 B(  6-C ,  7-C ) :   1.1629 B(  6-C , 24-H ) :   0.9194
B(  6-C , 25-H ) :   0.9352 B(  7-C , 26-H ) :   0.9381 B(  7-C , 27-H ) :   0.9382
B(  7-C , 28-H ) :   0.9458 B(  8-S ,  9-C ) :   1.0138 B(  9-C , 10-S ) :   1.0086
B(  9-C , 29-H ) :   0.8695 B(  9-C , 30-H ) :   0.8748 B( 10-S , 11-P ) :   0.9576
B( 11-P , 12-S ) :   1.6275 B( 11-P , 13-O ) :   1.0746 B( 11-P , 16-O ) :   1.1308
B( 13-O , 14-C ) :   0.9045 B( 14-C , 15-C ) :   1.1634 B( 14-C , 31-H ) :   0.9299
B( 14-C , 32-H ) :   0.9081 B( 15-C , 33-H ) :   0.9457 B( 15-C , 34-H ) :   0.9405
B( 15-C , 35-H ) :   0.9375 B( 16-O , 17-C ) :   0.9057 B( 17-C , 18-C ) :   1.1630
B( 17-C , 36-H ) :   0.9344 B( 17-C , 37-H ) :   0.9179 B( 18-C , 38-H ) :   0.9313
B( 18-C , 39-H ) :   0.9427 B( 18-C , 40-H ) :   0.9356

Dispersion correction           -0.065553821
FINAL SINGLE POINT ENERGY     -2929.521140542899

DIPOLE MOMENT
-------------

Method             : SCF
Type of density    : Electron Density
Multiplicity       :   1
Irrep              :   0
Energy             : -2929.6413502567002070 Eh
Relativity type    :
Basis              : AO
                                X                 Y                 Z
Electronic contribution:      0.982130514       3.486309029     -20.291542179
Nuclear contribution   :     -0.774305819      -3.999477070      21.955634148
                        -----------------------------------------
Total Dipole Moment    :      0.207824695      -0.513168041       1.664091969
                        -----------------------------------------
Magnitude (a.u.)       :      1.753777245
Magnitude (Debye)      :      4.457747494

Rotational constants in cm-1:             0.013779             0.004457             0.004318
Rotational constants in MHz :           413.074989           133.613539           129.452466

                             ****ORCA TERMINATED NORMALLY****
TOTAL RUN TIME: 0 days 0 hours 0 minutes 21 seconds 245 msec
