                         Program Version 6.0.0  -   RELEASE  -
|  1> ! pbe def2-sv(p) def2/J RI DEFGRID1 loosescf d4 GCP(DFT/SV(P)) printgap
|  2> %output
|  3>     printlevel normal
|  4> end
|  5> * xyz 0 1
|  6> C 2.3949118436 2.2333362484 -1.1860259091
|  7> C 2.1689177001 0.8610248035 -1.7896711477
|  8> O 2.8784937767 -0.1697056873 -1.0886200832
|  9> P 2.5267722838 -0.717991316 0.356319375
| 10> S 2.9593909853 0.4028534191 1.9118442872
| 11> O 3.4049863632 -2.025269436 0.2216969418
| 12> C 3.8548813025 -2.7575463867 1.3756617448
| 13> C 2.7174997399 -3.4804049012 2.0697810288
| 14> S 0.5108410201 -1.3957322107 0.245016628
| 15> C -0.2501440681 -0.2533133972 1.4301366484
| 16> S -0.6761309167 1.3683416029 0.7293699699
| 17> P -2.0998819585 0.7825270752 -0.7298276033
| 18> S -1.5206014602 0.0199294218 -2.4335809859
| 19> O -2.8627807987 2.1432258382 -0.9919891895
| 20> C -3.5195029652 2.8989607064 0.0590821339
| 21> C -4.7074360879 3.6123769455 -0.5531030304
| 22> O -3.0960044937 -0.1200045119 0.1346611118
| 23> C -3.6245954402 -1.3900118651 -0.3002081395
| 24> C -2.9873899359 -2.5312252929 0.4664509631
| 25> H 1.9759002291 2.2867514835 -0.1823564367
| 26> H 3.459464583 2.4462173651 -1.1306769071
| 27> H 1.9088555723 2.9785259819 -1.8079448203
| 28> H 2.5667977044 0.8053296579 -2.8047608902
| 29> H 1.1021021963 0.6121407201 -1.8191325827
| 30> H 4.5889769461 -3.4556020449 0.9711180171
| 31> H 4.3456253008 -2.0601426081 2.0625629898
| 32> H 3.1220669265 -4.123837608 2.8444380814
| 33> H 2.0417956065 -2.759035851 2.5268138043
| 34> H 2.1615201571 -4.0811685321 1.354450362
| 35> H 0.4590979713 -0.0414722613 2.2327368493
| 36> H -1.1503195179 -0.7315472176 1.8049578866
| 37> H -3.8292348243 2.2114359888 0.8492720773
| 38> H -2.7887733862 3.6064482492 0.4569380645
| 39> H -5.4184376414 2.8912105263 -0.9466825585
| 40> H -5.1910020788 4.2164453447 0.2078518155
| 41> H -4.376266498 4.2531493964 -1.3652666154
| 42> H -4.6971482714 -1.331675248 -0.1066459285
| 43> H -3.4494923907 -1.4975657998 -1.375291612
| 44> H -3.1250474052 -2.3939445158 1.5355264201
| 45> H -3.4589221118 -3.4611594127 0.1655727608
| 46> H -1.9232639434 -2.5896919297 0.2427993636
| 47> *
| 48>
| 49>                          ****END OF INPUT****

CARTESIAN COORDINATES (ANGSTROEM)
---------------------------------
  C      2.394912    2.233336   -1.186026
  C      2.168918    0.861025   -1.789671
  O      2.878494   -0.169706   -1.088620
  P      2.526772   -0.717991    0.356319
  S      2.959391    0.402853    1.911844
  O      3.404986   -2.025269    0.221697
  C      3.854881   -2.757546    1.375662
  C      2.717500   -3.480405    2.069781
  S      0.510841   -1.395732    0.245017
  C     -0.250144   -0.253313    1.430137
  S     -0.676131    1.368342    0.729370
  P     -2.099882    0.782527   -0.729828
  S     -1.520601    0.019929   -2.433581
  O     -2.862781    2.143226   -0.991989
  C     -3.519503    2.898961    0.059082
  C     -4.707436    3.612377   -0.553103
  O     -3.096004   -0.120005    0.134661
  C     -3.624595   -1.390012   -0.300208
  C     -2.987390   -2.531225    0.466451
  H      1.975900    2.286751   -0.182356
  H      3.459465    2.446217   -1.130677
  H      1.908856    2.978526   -1.807945
  H      2.566798    0.805330   -2.804761
  H      1.102102    0.612141   -1.819133
  H      4.588977   -3.455602    0.971118
  H      4.345625   -2.060143    2.062563
  H      3.122067   -4.123838    2.844438
  H      2.041796   -2.759036    2.526814
  H      2.161520   -4.081169    1.354450
  H      0.459098   -0.041472    2.232737
  H     -1.150320   -0.731547    1.804958
  H     -3.829235    2.211436    0.849272
  H     -2.788773    3.606448    0.456938
  H     -5.418438    2.891211   -0.946683
  H     -5.191002    4.216445    0.207852
  H     -4.376266    4.253149   -1.365267
  H     -4.697148   -1.331675   -0.106646
  H     -3.449492   -1.497566   -1.375292
  H     -3.125047   -2.393945    1.535526
  H     -3.458922   -3.461159    0.165573
  H     -1.923264   -2.589692    0.242799

 Total Charge           Charge          ....    0
 Multiplicity           Mult            ....    1
 Number of Electrons    NEL             ....  202
 Basis Dimension        Dim             ....  334

ORBITAL ENERGIES
----------------

  NO   OCC          E(Eh)            E(eV)
   0   2.0000     -88.046511     -2395.8674
   1   2.0000     -88.046170     -2395.8581
   2   2.0000     -87.990135     -2394.3333
   3   2.0000     -87.987739     -2394.2681
   4   2.0000     -76.429888     -2079.7630
   5   2.0000     -76.426156     -2079.6614
   6   2.0000     -18.800982      -511.6007
   7   2.0000     -18.795893      -511.4622
   8   2.0000     -18.788021      -511.2480
   9   2.0000     -18.783042      -511.1125
  10   2.0000      -9.960139      -271.0292
  11   2.0000      -9.959953      -271.0241
  12   2.0000      -9.958337      -270.9801
  13   2.0000      -9.950250      -270.7601
  14   2.0000      -9.937713      -270.4189
  15   2.0000      -9.893487      -269.2155
  16   2.0000      -9.893387      -269.2127
  17   2.0000      -9.883707      -268.9493
  18   2.0000      -9.868041      -268.5231
  19   2.0000      -7.691412      -209.2940
  20   2.0000      -7.690453      -209.2679
  21   2.0000      -7.634986      -207.7585
  22   2.0000      -7.632712      -207.6967
  23   2.0000      -6.427453      -174.8999
  24   2.0000      -6.423386      -174.7892
  25   2.0000      -5.719359      -155.6317
  26   2.0000      -5.718312      -155.6032
  27   2.0000      -5.715813      -155.5352
  28   2.0000      -5.714950      -155.5117
  29   2.0000      -5.708431      -155.3343
  30   2.0000      -5.707571      -155.3109
  31   2.0000      -5.663788      -154.1195
  32   2.0000      -5.661736      -154.0637
  33   2.0000      -5.655567      -153.8958
  34   2.0000      -5.655329      -153.8893
  35   2.0000      -5.653179      -153.8308
  36   2.0000      -5.652896      -153.8231
  37   2.0000      -4.650531      -126.5474
  38   2.0000      -4.648982      -126.5052
  39   2.0000      -4.647692      -126.4701
  40   2.0000      -4.645611      -126.4135
  41   2.0000      -4.645422      -126.4084
  42   2.0000      -4.643920      -126.3675
  43   2.0000      -0.990261       -26.9464
  44   2.0000      -0.985026       -26.8039
  45   2.0000      -0.950129       -25.8543
  46   2.0000      -0.939345       -25.5609
  47   2.0000      -0.765366       -20.8267
  48   2.0000      -0.725643       -19.7457
  49   2.0000      -0.710360       -19.3299
  50   2.0000      -0.698419       -19.0050
  51   2.0000      -0.680000       -18.5037
  52   2.0000      -0.671627       -18.2759
  53   2.0000      -0.653050       -17.7704
  54   2.0000      -0.642055       -17.4712
  55   2.0000      -0.598940       -16.2980
  56   2.0000      -0.592486       -16.1224
  57   2.0000      -0.576693       -15.6926
  58   2.0000      -0.568414       -15.4673
  59   2.0000      -0.561653       -15.2833
  60   2.0000      -0.512953       -13.9582
  61   2.0000      -0.490828       -13.3561
  62   2.0000      -0.487491       -13.2653
  63   2.0000      -0.467932       -12.7331
  64   2.0000      -0.457425       -12.4472
  65   2.0000      -0.448743       -12.2109
  66   2.0000      -0.440665       -11.9911
  67   2.0000      -0.435724       -11.8567
  68   2.0000      -0.422508       -11.4970
  69   2.0000      -0.413476       -11.2513
  70   2.0000      -0.407141       -11.0789
  71   2.0000      -0.402625       -10.9560
  72   2.0000      -0.398968       -10.8565
  73   2.0000      -0.391996       -10.6668
  74   2.0000      -0.382159       -10.3991
  75   2.0000      -0.373420       -10.1613
  76   2.0000      -0.369743       -10.0612
  77   2.0000      -0.364018        -9.9054
  78   2.0000      -0.359821        -9.7912
  79   2.0000      -0.352573        -9.5940
  80   2.0000      -0.345991        -9.4149
  81   2.0000      -0.344105        -9.3636
  82   2.0000      -0.340200        -9.2573
  83   2.0000      -0.335368        -9.1258
  84   2.0000      -0.329383        -8.9630
  85   2.0000      -0.321012        -8.7352
  86   2.0000      -0.312856        -8.5132
  87   2.0000      -0.309540        -8.4230
  88   2.0000      -0.294829        -8.0227
  89   2.0000      -0.291651        -7.9362
  90   2.0000      -0.282881        -7.6976
  91   2.0000      -0.273429        -7.4404
  92   2.0000      -0.271136        -7.3780
  93   2.0000      -0.266626        -7.2553
  94   2.0000      -0.256598        -6.9824
  95   2.0000      -0.245111        -6.6698
  96   2.0000      -0.220084        -5.9888
  97   2.0000      -0.210529        -5.7288
  98   2.0000      -0.207178        -5.6376
  99   2.0000      -0.202745        -5.5170
 100   2.0000      -0.196497        -5.3470
 101   0.0000      -0.051230        -1.3940
 102   0.0000      -0.030675        -0.8347
 103   0.0000      -0.013445        -0.3658
 104   0.0000      -0.001920        -0.0522
 105   0.0000       0.009667         0.2630

MULLIKEN ATOMIC CHARGES
-----------------------
   0 C :   -0.308193
   1 C :   -0.033377
   2 O :   -0.350475
   3 P :    0.616919
   4 S :   -0.332431
   5 O :   -0.355748
   6 C :   -0.003975
   7 C :   -0.309468
   8 S :   -0.100894
   9 C :   -0.363935
  10 S :   -0.091887
  11 P :    0.606982
  12 S :   -0.288573
  13 O :   -0.365069
  14 C :   -0.026033
  15 C :   -0.277589
  16 O :   -0.395046
  17 C :   -0.010186
  18 C :   -0.319329
  19 H :    0.131028
  20 H :    0.111407
  21 H :    0.106456
  22 H :    0.103318
  23 H :    0.131742
  24 H :    0.107654
  25 H :    0.114023
  26 H :    0.111646
  27 H :    0.116842
  28 H :    0.117557
  29 H :    0.194013
  30 H :    0.189898
  31 H :    0.109147
  32 H :    0.114483
  33 H :    0.116297
  34 H :    0.112528
  35 H :    0.124329
  36 H :    0.103542
  37 H :    0.117476
  38 H :    0.120457
  39 H :    0.117245
  40 H :    0.137217
Sum of atomic charges:    0.0000000

LOEWDIN ATOMIC CHARGES
----------------------
   0 C :   -0.368773
   1 C :   -0.125071
   2 O :   -0.227924
   3 P :    0.573543
   4 S :   -0.310344
   5 O :   -0.232930
   6 C :   -0.119025
   7 C :   -0.368285
   8 S :    0.092823
   9 C :   -0.483072
  10 S :    0.089416
  11 P :    0.559904
  12 S :   -0.290318
  13 O :   -0.245066
  14 C :   -0.119655
  15 C :   -0.349985
  16 O :   -0.258228
  17 C :   -0.119088
  18 C :   -0.362980
  19 H :    0.112987
  20 H :    0.123788
  21 H :    0.128718
  22 H :    0.119611
  23 H :    0.098747
  24 H :    0.120119
  25 H :    0.110438
  26 H :    0.129977
  27 H :    0.117634
  28 H :    0.124729
  29 H :    0.127756
  30 H :    0.130911
  31 H :    0.110343
  32 H :    0.115096
  33 H :    0.127736
  34 H :    0.130910
  35 H :    0.131141
  36 H :    0.116893
  37 H :    0.110037
  38 H :    0.123966
  39 H :    0.134847
  40 H :    0.118676

  Mayer bond orders larger than 0.100000
B(  0-C ,  1-C ) :   1.1620 B(  0-C , 19-H ) :   0.9298 B(  0-C , 20-H ) :   0.9451
B(  0-C , 21-H ) :   0.9391 B(  1-C ,  2-O ) :   0.9076 B(  1-C , 22-H ) :   0.9349
B(  1-C , 23-H ) :   0.8948 B(  2-O ,  3-P ) :   1.1492 B(  3-P ,  4-S ) :   1.5915
B(  3-P ,  5-O ) :   1.1327 B(  3-P ,  8-S ) :   0.9289 B(  4-S ,  8-S ) :   0.1173
B(  4-S , 29-H ) :   0.1005 B(  5-O ,  6-C ) :   0.9136 B(  6-C ,  7-C ) :   1.1636
B(  6-C , 24-H ) :   0.9340 B(  6-C , 25-H ) :   0.9144 B(  7-C , 26-H ) :   0.9385
B(  7-C , 27-H ) :   0.9386 B(  7-C , 28-H ) :   0.9447 B(  8-S ,  9-C ) :   1.0194
B(  9-C , 10-S ) :   0.9974 B(  9-C , 29-H ) :   0.8632 B(  9-C , 30-H ) :   0.8908
B( 10-S , 11-P ) :   0.9680 B( 10-S , 12-S ) :   0.1018 B( 11-P , 12-S ) :   1.6603
B( 11-P , 13-O ) :   1.1359 B( 11-P , 16-O ) :   1.0576 B( 13-O , 14-C ) :   0.8929
B( 14-C , 15-C ) :   1.1636 B( 14-C , 31-H ) :   0.9182 B( 14-C , 32-H ) :   0.9307
B( 15-C , 33-H ) :   0.9501 B( 15-C , 34-H ) :   0.9408 B( 15-C , 35-H ) :   0.9496
B( 16-O , 17-C ) :   0.9043 B( 17-C , 18-C ) :   1.1704 B( 17-C , 36-H ) :   0.9322
B( 17-C , 37-H ) :   0.9008 B( 18-C , 38-H ) :   0.9407 B( 18-C , 39-H ) :   0.9361
B( 18-C , 40-H ) :   0.9297

Dispersion correction           -0.065053006
FINAL SINGLE POINT ENERGY     -2929.521903547839

DIPOLE MOMENT
-------------

Method             : SCF
Type of density    : Electron Density
Multiplicity       :   1
Irrep              :   0
Energy             : -2929.6411840180012405 Eh
Relativity type    :
Basis              : AO
                                X                 Y                 Z
Electronic contribution:      9.922196226       1.746356201      -4.800295350
Nuclear contribution   :    -11.367301286      -2.153632144       5.657944895
                        -----------------------------------------
Total Dipole Moment    :     -1.445105060      -0.407275943       0.857649544
                        -----------------------------------------
Magnitude (a.u.)       :      1.729093713
Magnitude (Debye)      :      4.395006942

Rotational constants in cm-1:             0.012742             0.004807             0.004311
Rotational constants in MHz :           381.985241           144.123196           129.228387

                             ****ORCA TERMINATED NORMALLY****
TOTAL RUN TIME: 0 days 0 hours 0 minutes 20 seconds 622 msec
