                         Program Version 6.0.0  -   RELEASE  -
|  1> ! pbe def2-sv(p) def2/J RI DEFGRID1 loosescf d4 GCP(DFT/SV(P)) printgap
|  2> %output
|  3>     printlevel normal
|  4> end
|  5> * xyz 0 1
|  6> C 4.5133905981 0.9641723319 -1.9898323216
|  7> C 4.0532768138 0.0790723207 -0.8502837936
|  8> O 2.9426354842 0.7468948154 -0.191339319
|  9> P 1.9532484476 -0.0022366738 0.7792989088
| 10> S 0.8763529337 1.2227186897 1.8532073555
| 11> O 2.9404125675 -0.9130397442 1.6356859724
| 12> C 2.5434522748 -1.5125500262 2.8800022815
| 13> C 1.5569660114 -2.6424077952 2.6674840166
| 14> S 0.9838091938 -1.4515259223 -0.4796553182
| 15> C 0.6268320806 -0.400769694 -1.9160432273
| 16> S -0.2757809614 1.1184995841 -1.5198076437
| 17> P -2.068152522 0.1631837582 -0.9410923531
| 18> S -2.6400919219 -1.3594893425 -2.0211954974
| 19> O -3.1444881708 1.324400938 -0.9726349454
| 20> C -2.9244730633 2.7018115095 -0.5913887098
| 21> C -2.6830760834 2.8642037491 0.8947376682
| 22> O -1.7512647312 -0.1868267163 0.5844413468
| 23> C -2.3450767582 -1.3092685763 1.2569574401
| 24> C -3.8156707997 -1.0731435941 1.5308144067
| 25> H 3.7115841819 1.116814485 -2.7077430617
| 26> H 4.8192759096 1.932992901 -1.605876827
| 27> H 5.354328731 0.4926536501 -2.4882350775
| 28> H 4.8414128492 -0.0595630139 -0.1083635916
| 29> H 3.7203222572 -0.9018728637 -1.2010698683
| 30> H 3.4796410572 -1.8688038763 3.3117751442
| 31> H 2.111028409 -0.7339432114 3.5171085342
| 32> H 1.3339641659 -3.1127597726 3.6195816921
| 33> H 0.6341605151 -2.2504653016 2.2404811877
| 34> H 1.9670150934 -3.3815687551 1.9843035124
| 35> H 0.0237923362 -1.0149192692 -2.5869407529
| 36> H 1.5514633979 -0.0889009122 -2.3946409883
| 37> H -2.0802857067 3.0902759037 -1.1680899477
| 38> H -3.8445628993 3.1976379764 -0.9058161734
| 39> H -3.5050666594 2.4322280327 1.4594446081
| 40> H -1.7556987663 2.3770583072 1.1922232545
| 41> H -2.6086313677 3.9220687775 1.1267947329
| 42> H -2.2024061112 -2.2024593803 0.6394535753
| 43> H -1.7711419699 -1.3969068489 2.1812339105
| 44> H -4.3441034643 -0.9315655403 0.5877364888
| 45> H -4.2304168905 -1.9346567505 2.0443573284
| 46> H -3.94668775 -0.18702118 2.1462375324
| 47> *
| 48>
| 49>                          ****END OF INPUT****

CARTESIAN COORDINATES (ANGSTROEM)
---------------------------------
  C      4.513391    0.964172   -1.989832
  C      4.053277    0.079072   -0.850284
  O      2.942635    0.746895   -0.191339
  P      1.953248   -0.002237    0.779299
  S      0.876353    1.222719    1.853207
  O      2.940413   -0.913040    1.635686
  C      2.543452   -1.512550    2.880002
  C      1.556966   -2.642408    2.667484
  S      0.983809   -1.451526   -0.479655
  C      0.626832   -0.400770   -1.916043
  S     -0.275781    1.118500   -1.519808
  P     -2.068153    0.163184   -0.941092
  S     -2.640092   -1.359489   -2.021195
  O     -3.144488    1.324401   -0.972635
  C     -2.924473    2.701812   -0.591389
  C     -2.683076    2.864204    0.894738
  O     -1.751265   -0.186827    0.584441
  C     -2.345077   -1.309269    1.256957
  C     -3.815671   -1.073144    1.530814
  H      3.711584    1.116814   -2.707743
  H      4.819276    1.932993   -1.605877
  H      5.354329    0.492654   -2.488235
  H      4.841413   -0.059563   -0.108364
  H      3.720322   -0.901873   -1.201070
  H      3.479641   -1.868804    3.311775
  H      2.111028   -0.733943    3.517109
  H      1.333964   -3.112760    3.619582
  H      0.634161   -2.250465    2.240481
  H      1.967015   -3.381569    1.984304
  H      0.023792   -1.014919   -2.586941
  H      1.551463   -0.088901   -2.394641
  H     -2.080286    3.090276   -1.168090
  H     -3.844563    3.197638   -0.905816
  H     -3.505067    2.432228    1.459445
  H     -1.755699    2.377058    1.192223
  H     -2.608631    3.922069    1.126795
  H     -2.202406   -2.202459    0.639454
  H     -1.771142   -1.396907    2.181234
  H     -4.344103   -0.931566    0.587736
  H     -4.230417   -1.934657    2.044357
  H     -3.946688   -0.187021    2.146238

 Total Charge           Charge          ....    0
 Multiplicity           Mult            ....    1
 Number of Electrons    NEL             ....  202
 Basis Dimension        Dim             ....  334

ORBITAL ENERGIES
----------------

  NO   OCC          E(Eh)            E(eV)
   0   2.0000     -88.041299     -2395.7255
   1   2.0000     -88.040345     -2395.6996
   2   2.0000     -87.982515     -2394.1260
   3   2.0000     -87.979876     -2394.0541
   4   2.0000     -76.426494     -2079.6706
   5   2.0000     -76.421397     -2079.5319
   6   2.0000     -18.796487      -511.4784
   7   2.0000     -18.793593      -511.3997
   8   2.0000     -18.789710      -511.2940
   9   2.0000     -18.781160      -511.0614
  10   2.0000      -9.961610      -271.0692
  11   2.0000      -9.959343      -271.0075
  12   2.0000      -9.955852      -270.9125
  13   2.0000      -9.955252      -270.8962
  14   2.0000      -9.942941      -270.5612
  15   2.0000      -9.896521      -269.2980
  16   2.0000      -9.890169      -269.1252
  17   2.0000      -9.880709      -268.8678
  18   2.0000      -9.878385      -268.8045
  19   2.0000      -7.685704      -209.1386
  20   2.0000      -7.685530      -209.1339
  21   2.0000      -7.627565      -207.5566
  22   2.0000      -7.625221      -207.4928
  23   2.0000      -6.423793      -174.8003
  24   2.0000      -6.419031      -174.6707
  25   2.0000      -5.713640      -155.4761
  26   2.0000      -5.713377      -155.4689
  27   2.0000      -5.710263      -155.3842
  28   2.0000      -5.710195      -155.3823
  29   2.0000      -5.702679      -155.1778
  30   2.0000      -5.702309      -155.1677
  31   2.0000      -5.656607      -153.9241
  32   2.0000      -5.654182      -153.8581
  33   2.0000      -5.648283      -153.6976
  34   2.0000      -5.647478      -153.6757
  35   2.0000      -5.646128      -153.6390
  36   2.0000      -5.644963      -153.6072
  37   2.0000      -4.647033      -126.4522
  38   2.0000      -4.645494      -126.4103
  39   2.0000      -4.643730      -126.3623
  40   2.0000      -4.641900      -126.3125
  41   2.0000      -4.640537      -126.2754
  42   2.0000      -4.639497      -126.2471
  43   2.0000      -0.991364       -26.9764
  44   2.0000      -0.978384       -26.6232
  45   2.0000      -0.948254       -25.8033
  46   2.0000      -0.939705       -25.5707
  47   2.0000      -0.763577       -20.7780
  48   2.0000      -0.722736       -19.6667
  49   2.0000      -0.709854       -19.3161
  50   2.0000      -0.694528       -18.8991
  51   2.0000      -0.686237       -18.6735
  52   2.0000      -0.672077       -18.2882
  53   2.0000      -0.649815       -17.6824
  54   2.0000      -0.637260       -17.3407
  55   2.0000      -0.594992       -16.1906
  56   2.0000      -0.589155       -16.0317
  57   2.0000      -0.578462       -15.7408
  58   2.0000      -0.572371       -15.5750
  59   2.0000      -0.561562       -15.2809
  60   2.0000      -0.511330       -13.9140
  61   2.0000      -0.492181       -13.3929
  62   2.0000      -0.479002       -13.0343
  63   2.0000      -0.472501       -12.8574
  64   2.0000      -0.463500       -12.6125
  65   2.0000      -0.446437       -12.1482
  66   2.0000      -0.441463       -12.0128
  67   2.0000      -0.433293       -11.7905
  68   2.0000      -0.425956       -11.5909
  69   2.0000      -0.418483       -11.3875
  70   2.0000      -0.406129       -11.0513
  71   2.0000      -0.397480       -10.8160
  72   2.0000      -0.390709       -10.6317
  73   2.0000      -0.383257       -10.4290
  74   2.0000      -0.380656       -10.3582
  75   2.0000      -0.374159       -10.1814
  76   2.0000      -0.367483        -9.9997
  77   2.0000      -0.364603        -9.9214
  78   2.0000      -0.361222        -9.8294
  79   2.0000      -0.349584        -9.5127
  80   2.0000      -0.347627        -9.4594
  81   2.0000      -0.345449        -9.4002
  82   2.0000      -0.342187        -9.3114
  83   2.0000      -0.340731        -9.2718
  84   2.0000      -0.330305        -8.9881
  85   2.0000      -0.320579        -8.7234
  86   2.0000      -0.311523        -8.4770
  87   2.0000      -0.307583        -8.3698
  88   2.0000      -0.301797        -8.2123
  89   2.0000      -0.294580        -8.0159
  90   2.0000      -0.276424        -7.5219
  91   2.0000      -0.270908        -7.3718
  92   2.0000      -0.269425        -7.3314
  93   2.0000      -0.263460        -7.1691
  94   2.0000      -0.260249        -7.0817
  95   2.0000      -0.231074        -6.2879
  96   2.0000      -0.219893        -5.9836
  97   2.0000      -0.206029        -5.6063
  98   2.0000      -0.198497        -5.4014
  99   2.0000      -0.193341        -5.2611
 100   2.0000      -0.189297        -5.1510
 101   0.0000      -0.050120        -1.3638
 102   0.0000      -0.019836        -0.5398
 103   0.0000      -0.013817        -0.3760
 104   0.0000       0.003658         0.0995
 105   0.0000       0.014213         0.3868

MULLIKEN ATOMIC CHARGES
-----------------------
   0 C :   -0.287911
   1 C :   -0.021194
   2 O :   -0.368572
   3 P :    0.604083
   4 S :   -0.290706
   5 O :   -0.383865
   6 C :   -0.000014
   7 C :   -0.347866
   8 S :   -0.107318
   9 C :   -0.351271
  10 S :   -0.100868
  11 P :    0.632486
  12 S :   -0.327939
  13 O :   -0.370276
  14 C :   -0.025621
  15 C :   -0.332611
  16 O :   -0.364503
  17 C :   -0.024845
  18 C :   -0.305538
  19 H :    0.123801
  20 H :    0.125758
  21 H :    0.114820
  22 H :    0.113465
  23 H :    0.106370
  24 H :    0.105277
  25 H :    0.110607
  26 H :    0.116843
  27 H :    0.151334
  28 H :    0.121696
  29 H :    0.192993
  30 H :    0.189165
  31 H :    0.121900
  32 H :    0.112634
  33 H :    0.119734
  34 H :    0.159498
  35 H :    0.111008
  36 H :    0.110755
  37 H :    0.114765
  38 H :    0.126885
  39 H :    0.108432
  40 H :    0.116610
Sum of atomic charges:    0.0000000

LOEWDIN ATOMIC CHARGES
----------------------
   0 C :   -0.350251
   1 C :   -0.116385
   2 O :   -0.242032
   3 P :    0.567111
   4 S :   -0.294616
   5 O :   -0.249784
   6 C :   -0.119540
   7 C :   -0.372066
   8 S :    0.069354
   9 C :   -0.478002
  10 S :    0.087038
  11 P :    0.575121
  12 S :   -0.318502
  13 O :   -0.242024
  14 C :   -0.114073
  15 C :   -0.370268
  16 O :   -0.239387
  17 C :   -0.124287
  18 C :   -0.365120
  19 H :    0.124321
  20 H :    0.132486
  21 H :    0.132441
  22 H :    0.118925
  23 H :    0.105520
  24 H :    0.118809
  25 H :    0.110116
  26 H :    0.133087
  27 H :    0.122036
  28 H :    0.126654
  29 H :    0.131866
  30 H :    0.127208
  31 H :    0.108709
  32 H :    0.122907
  33 H :    0.125171
  34 H :    0.127302
  35 H :    0.131159
  36 H :    0.107465
  37 H :    0.115096
  38 H :    0.124333
  39 H :    0.129336
  40 H :    0.122767

  Mayer bond orders larger than 0.100000
B(  0-C ,  1-C ) :   1.1585 B(  0-C , 19-H ) :   0.9474 B(  0-C , 20-H ) :   0.9460
B(  0-C , 21-H ) :   0.9400 B(  1-C ,  2-O ) :   0.8866 B(  1-C , 22-H ) :   0.9294
B(  1-C , 23-H ) :   0.9121 B(  2-O ,  3-P ) :   1.1171 B(  3-P ,  4-S ) :   1.6789
B(  3-P ,  5-O ) :   1.0698 B(  3-P ,  8-S ) :   0.9380 B(  4-S ,  8-S ) :   0.1094
B(  5-O ,  6-C ) :   0.9129 B(  6-C ,  7-C ) :   1.1625 B(  6-C , 24-H ) :   0.9327
B(  6-C , 25-H ) :   0.9120 B(  7-C , 26-H ) :   0.9383 B(  7-C , 27-H ) :   0.9240
B(  7-C , 28-H ) :   0.9425 B(  8-S ,  9-C ) :   0.9963 B(  9-C , 10-S ) :   1.0231
B(  9-C , 29-H ) :   0.8753 B(  9-C , 30-H ) :   0.8942 B( 10-S , 11-P ) :   0.9516
B( 11-P , 12-S ) :   1.6175 B( 11-P , 13-O ) :   1.1277 B( 11-P , 16-O ) :   1.0958
B( 13-O , 14-C ) :   0.9058 B( 14-C , 15-C ) :   1.1641 B( 14-C , 31-H ) :   0.9178
B( 14-C , 32-H ) :   0.9348 B( 15-C , 33-H ) :   0.9413 B( 15-C , 34-H ) :   0.9248
B( 15-C , 35-H ) :   0.9352 B( 16-O , 17-C ) :   0.9078 B( 17-C , 18-C ) :   1.1615
B( 17-C , 36-H ) :   0.9129 B( 17-C , 37-H ) :   0.9196 B( 18-C , 38-H ) :   0.9334
B( 18-C , 39-H ) :   0.9396 B( 18-C , 40-H ) :   0.9425

Dispersion correction           -0.067770248
FINAL SINGLE POINT ENERGY     -2929.514259262591

DIPOLE MOMENT
-------------

Method             : SCF
Type of density    : Electron Density
Multiplicity       :   1
Irrep              :   0
Energy             : -2929.6322388135381516 Eh
Relativity type    :
Basis              : AO
                                X                 Y                 Z
Electronic contribution:     -2.029922634       1.434185801      -9.888843651
Nuclear contribution   :      3.205339302      -1.526527700      10.433966763
                        -----------------------------------------
Total Dipole Moment    :      1.175416667      -0.092341899       0.545123111
                        -----------------------------------------
Magnitude (a.u.)       :      1.298957496
Magnitude (Debye)      :      3.301687564

Rotational constants in cm-1:             0.011098             0.005770             0.005282
Rotational constants in MHz :           332.719925           172.990274           158.354549

                             ****ORCA TERMINATED NORMALLY****
TOTAL RUN TIME: 0 days 0 hours 0 minutes 21 seconds 737 msec
