                         Program Version 6.0.0  -   RELEASE  -
|  1> ! pbe def2-sv(p) def2/J RI DEFGRID1 loosescf d4 GCP(DFT/SV(P)) printgap
|  2> %output
|  3>     printlevel normal
|  4> end
|  5> * xyz 0 1
|  6> C 2.5519378218 -1.2857179296 3.1779139253
|  7> C 1.3619327918 -1.3037945408 2.241163488
|  8> O 1.3334514771 -0.1120502065 1.4394319026
|  9> P 2.1687202563 0.0636364724 0.1047423134
| 10> S 2.9993412519 -1.5832804075 -0.5712152745
| 11> O 3.1189359762 1.2461365717 0.5670924506
| 12> C 3.7990772588 2.1663411831 -0.306666215
| 13> C 4.6373599442 1.469452218 -1.3584426945
| 14> S 0.8130174923 1.033043822 -1.2072103077
| 15> C 0.098036881 -0.4638251055 -1.9262279348
| 16> S -0.7085289456 -1.5313135955 -0.6977333321
| 17> P -2.2007298663 -0.1712056392 -0.0794340532
| 18> S -2.8833710589 1.0721705384 -1.4359818317
| 19> O -1.5584914701 0.4677638339 1.2147919758
| 20> C -1.9401541852 1.7616162756 1.737827843
| 21> C -0.8653991208 2.7885973773 1.4418033114
| 22> O -3.2778928354 -1.1319121641 0.5915432317
| 23> C -4.1662315933 -1.960780213 -0.1867629465
| 24> C -5.5016809634 -1.2731418496 -0.395104334
| 25> H 3.4724387944 -1.2859056852 2.5954063286
| 26> H 2.5294558826 -0.393628514 3.797573373
| 27> H 2.5298234705 -2.1685178214 3.8088054766
| 28> H 0.4126563876 -1.2926671017 2.7795138227
| 29> H 1.3986878282 -2.1784781335 1.5823866757
| 30> H 3.0494046063 2.8111912369 -0.7739315531
| 31> H 4.4191046714 2.7529052461 0.3737157462
| 32> H 5.1970655028 2.2095425844 -1.921270808
| 33> H 5.3296272538 0.7726045605 -0.8917808159
| 34> H 3.9975497264 0.9135174855 -2.0423635052
| 35> H 0.882742021 -1.0677045495 -2.3810797635
| 36> H -0.633100321 -0.1327351097 -2.6628608934
| 37> H -2.8965908227 2.0599559298 1.2991922667
| 38> H -2.0597068489 1.604858223 2.8110010176
| 39> H -0.8146981696 2.983443655 0.3724866573
| 40> H -1.1004779467 3.7118811157 1.9613908474
| 41> H 0.101956487 2.4205568254 1.7761524244
| 42> H -3.6930055422 -2.198859112 -1.1436727821
| 43> H -4.2756112253 -2.8742050958 0.4007756135
| 44> H -5.3715167909 -0.3659770445 -0.9810213212
| 45> H -6.1697155215 -1.9441035888 -0.9253706375
| 46> H -5.9399813568 -1.0117984367 0.563941043
| 47> *
| 48>
| 49>                          ****END OF INPUT****

CARTESIAN COORDINATES (ANGSTROEM)
---------------------------------
  C      2.551938   -1.285718    3.177914
  C      1.361933   -1.303795    2.241163
  O      1.333451   -0.112050    1.439432
  P      2.168720    0.063636    0.104742
  S      2.999341   -1.583280   -0.571215
  O      3.118936    1.246137    0.567092
  C      3.799077    2.166341   -0.306666
  C      4.637360    1.469452   -1.358443
  S      0.813017    1.033044   -1.207210
  C      0.098037   -0.463825   -1.926228
  S     -0.708529   -1.531314   -0.697733
  P     -2.200730   -0.171206   -0.079434
  S     -2.883371    1.072171   -1.435982
  O     -1.558491    0.467764    1.214792
  C     -1.940154    1.761616    1.737828
  C     -0.865399    2.788597    1.441803
  O     -3.277893   -1.131912    0.591543
  C     -4.166232   -1.960780   -0.186763
  C     -5.501681   -1.273142   -0.395104
  H      3.472439   -1.285906    2.595406
  H      2.529456   -0.393629    3.797573
  H      2.529823   -2.168518    3.808805
  H      0.412656   -1.292667    2.779514
  H      1.398688   -2.178478    1.582387
  H      3.049405    2.811191   -0.773932
  H      4.419105    2.752905    0.373716
  H      5.197066    2.209543   -1.921271
  H      5.329627    0.772605   -0.891781
  H      3.997550    0.913517   -2.042364
  H      0.882742   -1.067705   -2.381080
  H     -0.633100   -0.132735   -2.662861
  H     -2.896591    2.059956    1.299192
  H     -2.059707    1.604858    2.811001
  H     -0.814698    2.983444    0.372487
  H     -1.100478    3.711881    1.961391
  H      0.101956    2.420557    1.776152
  H     -3.693006   -2.198859   -1.143673
  H     -4.275611   -2.874205    0.400776
  H     -5.371517   -0.365977   -0.981021
  H     -6.169716   -1.944104   -0.925371
  H     -5.939981   -1.011798    0.563941

 Total Charge           Charge          ....    0
 Multiplicity           Mult            ....    1
 Number of Electrons    NEL             ....  202
 Basis Dimension        Dim             ....  334

ORBITAL ENERGIES
----------------

  NO   OCC          E(Eh)            E(eV)
   0   2.0000     -88.045010     -2395.8265
   1   2.0000     -88.044361     -2395.8089
   2   2.0000     -87.989529     -2394.3168
   3   2.0000     -87.987642     -2394.2655
   4   2.0000     -76.427307     -2079.6927
   5   2.0000     -76.427018     -2079.6849
   6   2.0000     -18.794975      -511.4373
   7   2.0000     -18.791975      -511.3556
   8   2.0000     -18.787644      -511.2378
   9   2.0000     -18.785168      -511.1704
  10   2.0000      -9.959017      -270.9986
  11   2.0000      -9.956542      -270.9313
  12   2.0000      -9.954282      -270.8698
  13   2.0000      -9.950414      -270.7645
  14   2.0000      -9.943413      -270.5740
  15   2.0000      -9.884102      -268.9601
  16   2.0000      -9.881112      -268.8787
  17   2.0000      -9.878357      -268.8038
  18   2.0000      -9.876145      -268.7436
  19   2.0000      -7.689885      -209.2524
  20   2.0000      -7.689022      -209.2289
  21   2.0000      -7.634494      -207.7451
  22   2.0000      -7.632536      -207.6919
  23   2.0000      -6.424542      -174.8207
  24   2.0000      -6.424346      -174.8153
  25   2.0000      -5.717738      -155.5876
  26   2.0000      -5.716822      -155.5626
  27   2.0000      -5.714392      -155.4965
  28   2.0000      -5.713541      -155.4734
  29   2.0000      -5.706878      -155.2920
  30   2.0000      -5.706080      -155.2703
  31   2.0000      -5.663296      -154.1061
  32   2.0000      -5.661403      -154.0546
  33   2.0000      -5.655225      -153.8865
  34   2.0000      -5.654675      -153.8715
  35   2.0000      -5.653158      -153.8302
  36   2.0000      -5.652773      -153.8198
  37   2.0000      -4.646938      -126.4496
  38   2.0000      -4.646736      -126.4441
  39   2.0000      -4.646330      -126.4331
  40   2.0000      -4.646299      -126.4322
  41   2.0000      -4.645160      -126.4012
  42   2.0000      -4.644864      -126.3932
  43   2.0000      -0.986682       -26.8490
  44   2.0000      -0.984869       -26.7996
  45   2.0000      -0.944045       -25.6888
  46   2.0000      -0.942393       -25.6438
  47   2.0000      -0.766924       -20.8691
  48   2.0000      -0.721050       -19.6208
  49   2.0000      -0.708635       -19.2829
  50   2.0000      -0.684971       -18.6390
  51   2.0000      -0.682909       -18.5829
  52   2.0000      -0.673000       -18.3133
  53   2.0000      -0.651919       -17.7396
  54   2.0000      -0.641411       -17.4537
  55   2.0000      -0.598389       -16.2830
  56   2.0000      -0.591812       -16.1040
  57   2.0000      -0.574046       -15.6206
  58   2.0000      -0.568687       -15.4748
  59   2.0000      -0.560105       -15.2412
  60   2.0000      -0.505031       -13.7426
  61   2.0000      -0.493548       -13.4301
  62   2.0000      -0.475377       -12.9357
  63   2.0000      -0.469084       -12.7644
  64   2.0000      -0.458435       -12.4746
  65   2.0000      -0.439776       -11.9669
  66   2.0000      -0.438780       -11.9398
  67   2.0000      -0.433121       -11.7858
  68   2.0000      -0.427356       -11.6290
  69   2.0000      -0.417199       -11.3525
  70   2.0000      -0.405743       -11.0408
  71   2.0000      -0.398667       -10.8483
  72   2.0000      -0.390139       -10.6162
  73   2.0000      -0.385859       -10.4997
  74   2.0000      -0.380867       -10.3639
  75   2.0000      -0.375779       -10.2255
  76   2.0000      -0.369495       -10.0545
  77   2.0000      -0.352866        -9.6020
  78   2.0000      -0.348493        -9.4830
  79   2.0000      -0.347322        -9.4511
  80   2.0000      -0.345867        -9.4115
  81   2.0000      -0.345190        -9.3931
  82   2.0000      -0.340877        -9.2757
  83   2.0000      -0.336777        -9.1642
  84   2.0000      -0.331798        -9.0287
  85   2.0000      -0.319725        -8.7002
  86   2.0000      -0.305883        -8.3235
  87   2.0000      -0.298385        -8.1195
  88   2.0000      -0.296807        -8.0765
  89   2.0000      -0.288455        -7.8493
  90   2.0000      -0.282172        -7.6783
  91   2.0000      -0.278164        -7.5692
  92   2.0000      -0.272277        -7.4090
  93   2.0000      -0.264511        -7.1977
  94   2.0000      -0.254820        -6.9340
  95   2.0000      -0.233575        -6.3559
  96   2.0000      -0.220671        -6.0048
  97   2.0000      -0.213996        -5.8231
  98   2.0000      -0.207627        -5.6498
  99   2.0000      -0.200232        -5.4486
 100   2.0000      -0.198781        -5.4091
 101   0.0000      -0.047113        -1.2820
 102   0.0000      -0.025593        -0.6964
 103   0.0000      -0.003740        -0.1018
 104   0.0000      -0.000464        -0.0126
 105   0.0000       0.007455         0.2029

MULLIKEN ATOMIC CHARGES
-----------------------
   0 C :   -0.291831
   1 C :   -0.009361
   2 O :   -0.354213
   3 P :    0.621345
   4 S :   -0.332334
   5 O :   -0.371308
   6 C :   -0.012637
   7 C :   -0.309483
   8 S :   -0.093791
   9 C :   -0.349328
  10 S :   -0.080958
  11 P :    0.611973
  12 S :   -0.339377
  13 O :   -0.357035
  14 C :   -0.000880
  15 C :   -0.299269
  16 O :   -0.372424
  17 C :   -0.007723
  18 C :   -0.289917
  19 H :    0.118313
  20 H :    0.111089
  21 H :    0.108415
  22 H :    0.102263
  23 H :    0.113830
  24 H :    0.115427
  25 H :    0.109936
  26 H :    0.111764
  27 H :    0.126114
  28 H :    0.125064
  29 H :    0.190777
  30 H :    0.190992
  31 H :    0.104015
  32 H :    0.103228
  33 H :    0.127579
  34 H :    0.103034
  35 H :    0.122473
  36 H :    0.100375
  37 H :    0.107007
  38 H :    0.128054
  39 H :    0.107234
  40 H :    0.111567
Sum of atomic charges:    0.0000000

LOEWDIN ATOMIC CHARGES
----------------------
   0 C :   -0.361110
   1 C :   -0.123686
   2 O :   -0.227814
   3 P :    0.571684
   4 S :   -0.318650
   5 O :   -0.241847
   6 C :   -0.114512
   7 C :   -0.369084
   8 S :    0.093120
   9 C :   -0.478901
  10 S :    0.095523
  11 P :    0.567166
  12 S :   -0.325102
  13 O :   -0.234042
  14 C :   -0.109773
  15 C :   -0.364206
  16 O :   -0.250447
  17 C :   -0.116303
  18 C :   -0.362655
  19 H :    0.122792
  20 H :    0.123673
  21 H :    0.128645
  22 H :    0.115915
  23 H :    0.105281
  24 H :    0.109361
  25 H :    0.121865
  26 H :    0.130131
  27 H :    0.129843
  28 H :    0.121077
  29 H :    0.131026
  30 H :    0.131354
  31 H :    0.108017
  32 H :    0.116980
  33 H :    0.121721
  34 H :    0.125741
  35 H :    0.124119
  36 H :    0.106564
  37 H :    0.118602
  38 H :    0.124362
  39 H :    0.128568
  40 H :    0.125002

  Mayer bond orders larger than 0.100000
B(  0-C ,  1-C ) :   1.1626 B(  0-C , 19-H ) :   0.9396 B(  0-C , 20-H ) :   0.9479
B(  0-C , 21-H ) :   0.9415 B(  1-C ,  2-O ) :   0.8999 B(  1-C , 22-H ) :   0.9310
B(  1-C , 23-H ) :   0.9068 B(  2-O ,  3-P ) :   1.1197 B(  3-P ,  4-S ) :   1.5882
B(  3-P ,  5-O ) :   1.1181 B(  3-P ,  8-S ) :   0.9423 B(  4-S ,  8-S ) :   0.1071
B(  5-O ,  6-C ) :   0.9146 B(  6-C ,  7-C ) :   1.1641 B(  6-C , 24-H ) :   0.9266
B(  6-C , 25-H ) :   0.9340 B(  7-C , 26-H ) :   0.9353 B(  7-C , 27-H ) :   0.9431
B(  7-C , 28-H ) :   0.9338 B(  8-S ,  9-C ) :   1.0102 B(  9-C , 10-S ) :   1.0018
B(  9-C , 29-H ) :   0.8840 B(  9-C , 30-H ) :   0.8856 B( 10-S , 11-P ) :   0.9584
B( 10-S , 12-S ) :   0.1100 B( 11-P , 12-S ) :   1.5884 B( 11-P , 13-O ) :   1.1457
B( 11-P , 16-O ) :   1.1156 B( 13-O , 14-C ) :   0.8924 B( 14-C , 15-C ) :   1.1728
B( 14-C , 31-H ) :   0.9121 B( 14-C , 32-H ) :   0.9340 B( 15-C , 33-H ) :   0.9386
B( 15-C , 34-H ) :   0.9386 B( 15-C , 35-H ) :   0.9410 B( 16-O , 17-C ) :   0.9034
B( 17-C , 18-C ) :   1.1668 B( 17-C , 36-H ) :   0.9144 B( 17-C , 37-H ) :   0.9361
B( 18-C , 38-H ) :   0.9327 B( 18-C , 39-H ) :   0.9398 B( 18-C , 40-H ) :   0.9476

Dispersion correction           -0.067419600
FINAL SINGLE POINT ENERGY     -2929.526067968016

DIPOLE MOMENT
-------------

Method             : SCF
Type of density    : Electron Density
Multiplicity       :   1
Irrep              :   0
Energy             : -2929.6431148804140321 Eh
Relativity type    :
Basis              : AO
                                X                 Y                 Z
Electronic contribution:     -0.505342344      -4.815650123      -9.271363821
Nuclear contribution   :      0.360004276       5.128879542       9.903140195
                        -----------------------------------------
Total Dipole Moment    :     -0.145338068       0.313229420       0.631776374
                        -----------------------------------------
Magnitude (a.u.)       :      0.719984174
Magnitude (Debye)      :      1.830054333

Rotational constants in cm-1:             0.013271             0.005060             0.004910
Rotational constants in MHz :           397.844054           151.691928           147.187525

                             ****ORCA TERMINATED NORMALLY****
TOTAL RUN TIME: 0 days 0 hours 0 minutes 21 seconds 561 msec
