                         Program Version 6.0.0  -   RELEASE  -
|  1> ! pbe def2-sv(p) def2/J RI DEFGRID1 loosescf d4 GCP(DFT/SV(P)) printgap
|  2> %output
|  3>     printlevel normal
|  4> end
|  5> * xyz 0 1
|  6> C 3.1299847026 -2.8778955723 -1.2836146328
|  7> C 4.1643681736 -2.0313351617 -0.5730468665
|  8> O 3.8870979764 -0.6130884828 -0.6763602724
|  9> P 2.635237603 0.1336242282 -0.0848683392
| 10> S 2.9994910402 2.0560795097 0.002016415
| 11> O 2.422384716 -0.6630668833 1.2780463457
| 12> C 1.293744311 -0.5413679188 2.159592558
| 13> C 1.3000451133 0.7633917181 2.9304163943
| 14> S 0.9605732972 -0.3965521846 -1.3160798918
| 15> C 0.156460885 1.2164342581 -1.4016883251
| 16> S -0.8329144037 1.6099085216 0.0636924224
| 17> P -2.3705556522 0.208547365 -0.3168197219
| 18> S -2.9708605115 0.0489276674 -2.1688693319
| 19> O -3.5563386811 0.6128751751 0.6506599394
| 20> C -3.4353200647 0.6549140575 2.0951629041
| 21> C -3.1568278479 2.0641407165 2.5772616421
| 22> O -1.6986911079 -1.1046294425 0.3115904885
| 23> C -2.0068443415 -2.4233241076 -0.1783614752
| 24> C -3.3975007722 -2.8550364362 0.2398125139
| 25> H 2.1599375597 -2.778786559 -0.7994674736
| 26> H 3.0321915344 -2.5676781851 -2.3208708787
| 27> H 3.4377376978 -3.918363527 -1.2489533622
| 28> H 5.147219151 -2.1250824678 -1.0373441176
| 29> H 4.2263444596 -2.2905476793 0.4852198658
| 30> H 0.3745867174 -0.646349821 1.5752939243
| 31> H 1.399752069 -1.3963601162 2.8305207218
| 32> H 2.2471630983 0.8874102756 3.4489737839
| 33> H 1.1616034748 1.6064837093 2.2563527507
| 34> H 0.4917873097 0.7557982691 3.6546225073
| 35> H -0.49411196 1.199639955 -2.2761227232
| 36> H 0.9168662904 1.9947835397 -1.478264983
| 37> H -4.4033838713 0.3005787261 2.4535100912
| 38> H -2.6469871288 -0.034334043 2.4063105577
| 39> H -3.167282496 2.0761031565 3.6626317479
| 40> H -2.1852905613 2.4059529442 2.2262058784
| 41> H -3.9195088959 2.7422844466 2.204716925
| 42> H -1.9120470879 -2.4201239995 -1.2684175339
| 43> H -1.2342831489 -3.0581425911 0.2572650754
| 44> H -3.5860928771 -3.861147076 -0.120974767
| 45> H -3.4937464803 -2.8362193578 1.3222511969
| 46> H -4.1357458587 -2.180665403 -0.1940174803
| 47> *
| 48>
| 49>                          ****END OF INPUT****

CARTESIAN COORDINATES (ANGSTROEM)
---------------------------------
  C      3.129985   -2.877896   -1.283615
  C      4.164368   -2.031335   -0.573047
  O      3.887098   -0.613088   -0.676360
  P      2.635238    0.133624   -0.084868
  S      2.999491    2.056080    0.002016
  O      2.422385   -0.663067    1.278046
  C      1.293744   -0.541368    2.159593
  C      1.300045    0.763392    2.930416
  S      0.960573   -0.396552   -1.316080
  C      0.156461    1.216434   -1.401688
  S     -0.832914    1.609909    0.063692
  P     -2.370556    0.208547   -0.316820
  S     -2.970861    0.048928   -2.168869
  O     -3.556339    0.612875    0.650660
  C     -3.435320    0.654914    2.095163
  C     -3.156828    2.064141    2.577262
  O     -1.698691   -1.104629    0.311590
  C     -2.006844   -2.423324   -0.178361
  C     -3.397501   -2.855036    0.239813
  H      2.159938   -2.778787   -0.799467
  H      3.032192   -2.567678   -2.320871
  H      3.437738   -3.918364   -1.248953
  H      5.147219   -2.125082   -1.037344
  H      4.226344   -2.290548    0.485220
  H      0.374587   -0.646350    1.575294
  H      1.399752   -1.396360    2.830521
  H      2.247163    0.887410    3.448974
  H      1.161603    1.606484    2.256353
  H      0.491787    0.755798    3.654623
  H     -0.494112    1.199640   -2.276123
  H      0.916866    1.994784   -1.478265
  H     -4.403384    0.300579    2.453510
  H     -2.646987   -0.034334    2.406311
  H     -3.167282    2.076103    3.662632
  H     -2.185291    2.405953    2.226206
  H     -3.919509    2.742284    2.204717
  H     -1.912047   -2.420124   -1.268418
  H     -1.234283   -3.058143    0.257265
  H     -3.586093   -3.861147   -0.120975
  H     -3.493746   -2.836219    1.322251
  H     -4.135746   -2.180665   -0.194017

 Total Charge           Charge          ....    0
 Multiplicity           Mult            ....    1
 Number of Electrons    NEL             ....  202
 Basis Dimension        Dim             ....  334

ORBITAL ENERGIES
----------------

  NO   OCC          E(Eh)            E(eV)
   0   2.0000     -88.045466     -2395.8389
   1   2.0000     -88.042238     -2395.7511
   2   2.0000     -87.990873     -2394.3534
   3   2.0000     -87.984764     -2394.1871
   4   2.0000     -76.430416     -2079.7774
   5   2.0000     -76.427706     -2079.7036
   6   2.0000     -18.800719      -511.5936
   7   2.0000     -18.797789      -511.5138
   8   2.0000     -18.794119      -511.4140
   9   2.0000     -18.792412      -511.3675
  10   2.0000      -9.966321      -271.1974
  11   2.0000      -9.959857      -271.0215
  12   2.0000      -9.956271      -270.9239
  13   2.0000      -9.952880      -270.8316
  14   2.0000      -9.951139      -270.7843
  15   2.0000      -9.895540      -269.2713
  16   2.0000      -9.894574      -269.2451
  17   2.0000      -9.890832      -269.1432
  18   2.0000      -9.879878      -268.8451
  19   2.0000      -7.690257      -209.2625
  20   2.0000      -7.686711      -209.1660
  21   2.0000      -7.636087      -207.7885
  22   2.0000      -7.629936      -207.6211
  23   2.0000      -6.428337      -174.9239
  24   2.0000      -6.424850      -174.8291
  25   2.0000      -5.718024      -155.5954
  26   2.0000      -5.714910      -155.5106
  27   2.0000      -5.714644      -155.5034
  28   2.0000      -5.711168      -155.4088
  29   2.0000      -5.707229      -155.3016
  30   2.0000      -5.703805      -155.2084
  31   2.0000      -5.665156      -154.1567
  32   2.0000      -5.658985      -153.9888
  33   2.0000      -5.656651      -153.9253
  34   2.0000      -5.656104      -153.9104
  35   2.0000      -5.650317      -153.7530
  36   2.0000      -5.650159      -153.7487
  37   2.0000      -4.651320      -126.5689
  38   2.0000      -4.649691      -126.5245
  39   2.0000      -4.648787      -126.4999
  40   2.0000      -4.647746      -126.4716
  41   2.0000      -4.646629      -126.4412
  42   2.0000      -4.645072      -126.3988
  43   2.0000      -0.992126       -26.9971
  44   2.0000      -0.989398       -26.9229
  45   2.0000      -0.951201       -25.8835
  46   2.0000      -0.944476       -25.7005
  47   2.0000      -0.765184       -20.8217
  48   2.0000      -0.726126       -19.7589
  49   2.0000      -0.715932       -19.4815
  50   2.0000      -0.698500       -19.0071
  51   2.0000      -0.691967       -18.8294
  52   2.0000      -0.678445       -18.4614
  53   2.0000      -0.654162       -17.8007
  54   2.0000      -0.639788       -17.4095
  55   2.0000      -0.599312       -16.3081
  56   2.0000      -0.591865       -16.1055
  57   2.0000      -0.586116       -15.9490
  58   2.0000      -0.581767       -15.8307
  59   2.0000      -0.561942       -15.2912
  60   2.0000      -0.507643       -13.8137
  61   2.0000      -0.498520       -13.5654
  62   2.0000      -0.485239       -13.2040
  63   2.0000      -0.473845       -12.8940
  64   2.0000      -0.461552       -12.5595
  65   2.0000      -0.452216       -12.3054
  66   2.0000      -0.448002       -12.1908
  67   2.0000      -0.438281       -11.9262
  68   2.0000      -0.428102       -11.6493
  69   2.0000      -0.425421       -11.5763
  70   2.0000      -0.411766       -11.2047
  71   2.0000      -0.406497       -11.0614
  72   2.0000      -0.401807       -10.9337
  73   2.0000      -0.388568       -10.5735
  74   2.0000      -0.379618       -10.3299
  75   2.0000      -0.379259       -10.3202
  76   2.0000      -0.368611       -10.0304
  77   2.0000      -0.363532        -9.8922
  78   2.0000      -0.360301        -9.8043
  79   2.0000      -0.357444        -9.7265
  80   2.0000      -0.354350        -9.6423
  81   2.0000      -0.352471        -9.5912
  82   2.0000      -0.345595        -9.4041
  83   2.0000      -0.343324        -9.3423
  84   2.0000      -0.336015        -9.1434
  85   2.0000      -0.325235        -8.8501
  86   2.0000      -0.318195        -8.6585
  87   2.0000      -0.307478        -8.3669
  88   2.0000      -0.298145        -8.1129
  89   2.0000      -0.292825        -7.9682
  90   2.0000      -0.286958        -7.8085
  91   2.0000      -0.278405        -7.5758
  92   2.0000      -0.276947        -7.5361
  93   2.0000      -0.273345        -7.4381
  94   2.0000      -0.260149        -7.0790
  95   2.0000      -0.235732        -6.4146
  96   2.0000      -0.218282        -5.9397
  97   2.0000      -0.213934        -5.8214
  98   2.0000      -0.205013        -5.5787
  99   2.0000      -0.201518        -5.4836
 100   2.0000      -0.199338        -5.4243
 101   0.0000      -0.046134        -1.2554
 102   0.0000      -0.027564        -0.7501
 103   0.0000      -0.007022        -0.1911
 104   0.0000       0.000082         0.0022
 105   0.0000       0.003005         0.0818

MULLIKEN ATOMIC CHARGES
-----------------------
   0 C :   -0.334500
   1 C :    0.005937
   2 O :   -0.359808
   3 P :    0.618737
   4 S :   -0.311138
   5 O :   -0.383398
   6 C :   -0.043523
   7 C :   -0.307619
   8 S :   -0.118806
   9 C :   -0.337071
  10 S :   -0.108169
  11 P :    0.622733
  12 S :   -0.307362
  13 O :   -0.365305
  14 C :   -0.033091
  15 C :   -0.302694
  16 O :   -0.381097
  17 C :   -0.004249
  18 C :   -0.312368
  19 H :    0.128348
  20 H :    0.132212
  21 H :    0.117757
  22 H :    0.113045
  23 H :    0.111088
  24 H :    0.140539
  25 H :    0.097045
  26 H :    0.115389
  27 H :    0.138856
  28 H :    0.099991
  29 H :    0.192339
  30 H :    0.197429
  31 H :    0.113802
  32 H :    0.110477
  33 H :    0.113823
  34 H :    0.140285
  35 H :    0.127581
  36 H :    0.115146
  37 H :    0.101635
  38 H :    0.115422
  39 H :    0.109487
  40 H :    0.131095
Sum of atomic charges:   -0.0000000

LOEWDIN ATOMIC CHARGES
----------------------
   0 C :   -0.371179
   1 C :   -0.108526
   2 O :   -0.235095
   3 P :    0.569850
   4 S :   -0.299568
   5 O :   -0.246374
   6 C :   -0.125677
   7 C :   -0.368894
   8 S :    0.075947
   9 C :   -0.487689
  10 S :    0.095752
  11 P :    0.571148
  12 S :   -0.303144
  13 O :   -0.240762
  14 C :   -0.117030
  15 C :   -0.361343
  16 O :   -0.251320
  17 C :   -0.122137
  18 C :   -0.365354
  19 H :    0.115673
  20 H :    0.130861
  21 H :    0.133642
  22 H :    0.124027
  23 H :    0.115018
  24 H :    0.104520
  25 H :    0.115176
  26 H :    0.126780
  27 H :    0.117373
  28 H :    0.124478
  29 H :    0.130903
  30 H :    0.129965
  31 H :    0.122795
  32 H :    0.108547
  33 H :    0.132177
  34 H :    0.120510
  35 H :    0.132990
  36 H :    0.110580
  37 H :    0.115268
  38 H :    0.132380
  39 H :    0.121529
  40 H :    0.126204

  Mayer bond orders larger than 0.100000
B(  0-C ,  1-C ) :   1.1690 B(  0-C , 19-H ) :   0.9316 B(  0-C , 20-H ) :   0.9425
B(  0-C , 21-H ) :   0.9356 B(  1-C ,  2-O ) :   0.9009 B(  1-C , 22-H ) :   0.9336
B(  1-C , 23-H ) :   0.9268 B(  2-O ,  3-P ) :   1.1441 B(  3-P ,  4-S ) :   1.6513
B(  3-P ,  5-O ) :   1.0727 B(  3-P ,  8-S ) :   0.9321 B(  4-S ,  8-S ) :   0.1141
B(  5-O ,  6-C ) :   0.9098 B(  6-C ,  7-C ) :   1.1665 B(  6-C , 24-H ) :   0.8953
B(  6-C , 25-H ) :   0.9345 B(  7-C , 26-H ) :   0.9440 B(  7-C , 27-H ) :   0.9270
B(  7-C , 28-H ) :   0.9376 B(  8-S ,  9-C ) :   1.0151 B(  9-C , 10-S ) :   0.9991
B(  9-C , 29-H ) :   0.8719 B(  9-C , 30-H ) :   0.8623 B( 10-S , 11-P ) :   0.9638
B( 10-S , 12-S ) :   0.1009 B( 11-P , 12-S ) :   1.6378 B( 11-P , 13-O ) :   1.1272
B( 11-P , 16-O ) :   1.0553 B( 13-O , 14-C ) :   0.8984 B( 14-C , 15-C ) :   1.1690
B( 14-C , 31-H ) :   0.9333 B( 14-C , 32-H ) :   0.9148 B( 15-C , 33-H ) :   0.9378
B( 15-C , 34-H ) :   0.9321 B( 15-C , 35-H ) :   0.9450 B( 16-O , 17-C ) :   0.9010
B( 17-C , 18-C ) :   1.1615 B( 17-C , 36-H ) :   0.9126 B( 17-C , 37-H ) :   0.9328
B( 18-C , 38-H ) :   0.9400 B( 18-C , 39-H ) :   0.9471 B( 18-C , 40-H ) :   0.9345

Dispersion correction           -0.066373560
FINAL SINGLE POINT ENERGY     -2929.518210174142

DIPOLE MOMENT
-------------

Method             : SCF
Type of density    : Electron Density
Multiplicity       :   1
Irrep              :   0
Energy             : -2929.6385440579388160 Eh
Relativity type    :
Basis              : AO
                                X                 Y                 Z
Electronic contribution:      6.034277953      13.733748534     -15.859603059
Nuclear contribution   :     -6.401660203     -15.574536721      17.405145705
                        -----------------------------------------
Total Dipole Moment    :     -0.367382250      -1.840788186       1.545542647
                        -----------------------------------------
Magnitude (a.u.)       :      2.431496029
Magnitude (Debye)      :      6.180371743

Rotational constants in cm-1:             0.011573             0.005325             0.004809
Rotational constants in MHz :           346.945683           159.626257           144.181445

                             ****ORCA TERMINATED NORMALLY****
TOTAL RUN TIME: 0 days 0 hours 0 minutes 21 seconds 950 msec
