                         Program Version 6.0.0  -   RELEASE  -
|  1> ! r2scan-3c def2/J RI DEFGRID2 scfconv6 printgap
|  2> %output
|  3>     printlevel normal
|  4> end
|  5> * xyz 0 1
|  6> C -0.6082539049 -0.0085986702 -0.4690780096
|  7> C 0.608193367 0.0086129036 0.468978903
|  8> O 1.8277222404 -0.018776722 -0.2351930145
|  9> O -1.827671798 0.0187640952 0.2352625586
| 10> H -0.6239611844 -0.9393043833 -1.0425387771
| 11> H -0.5376965714 0.8319049266 -1.1716523868
| 12> H 0.5376347845 -0.8318375238 1.1716208054
| 13> H 0.6237531182 0.9393863814 1.0423606686
| 14> H 1.9027342509 -0.8530308035 -0.7189406033
| 15> H -1.902543712 0.8529122247 0.7192273593
| 16> *
| 17>
| 18>                          ****END OF INPUT****

CARTESIAN COORDINATES (ANGSTROEM)
---------------------------------
  C     -0.608254   -0.008599   -0.469078
  C      0.608193    0.008613    0.468979
  O      1.827722   -0.018777   -0.235193
  O     -1.827672    0.018764    0.235263
  H     -0.623961   -0.939304   -1.042539
  H     -0.537697    0.831905   -1.171652
  H      0.537635   -0.831838    1.171621
  H      0.623753    0.939386    1.042361
  H      1.902734   -0.853031   -0.718941
  H     -1.902544    0.852912    0.719227

 Total Charge           Charge          ....    0
 Multiplicity           Mult            ....    1
 Number of Electrons    NEL             ....   34
 Basis Dimension        Dim             ....  116

ORBITAL ENERGIES
----------------

  NO   OCC          E(Eh)            E(eV)
   0   2.0000     -18.956892      -515.8433
   1   2.0000     -18.956891      -515.8432
   2   2.0000     -10.080160      -274.2951
   3   2.0000     -10.080041      -274.2918
   4   2.0000      -0.998963       -27.1832
   5   2.0000      -0.988283       -26.8925
   6   2.0000      -0.700034       -19.0489
   7   2.0000      -0.602581       -16.3971
   8   2.0000      -0.486587       -13.2407
   9   2.0000      -0.481403       -13.0997
  10   2.0000      -0.435968       -11.8633
  11   2.0000      -0.390640       -10.6299
  12   2.0000      -0.370399       -10.0791
  13   2.0000      -0.335361        -9.1256
  14   2.0000      -0.291913        -7.9434
  15   2.0000      -0.264963        -7.2100
  16   2.0000      -0.230802        -6.2804
  17   0.0000       0.036937         1.0051
  18   0.0000       0.071634         1.9493
  19   0.0000       0.116847         3.1796
  20   0.0000       0.141068         3.8386
  21   0.0000       0.145738         3.9657

MULLIKEN ATOMIC CHARGES
-----------------------
   0 C :   -0.146210
   1 C :   -0.146283
   2 O :   -0.417883
   3 O :   -0.417889
   4 H :    0.127607
   5 H :    0.139087
   6 H :    0.139096
   7 H :    0.127601
   8 H :    0.297438
   9 H :    0.297435
Sum of atomic charges:   -0.0000000

LOEWDIN ATOMIC CHARGES
----------------------
   0 C :    0.011812
   1 C :    0.011812
   2 O :   -0.611694
   3 O :   -0.611709
   4 H :    0.172990
   5 H :    0.160289
   6 H :    0.160295
   7 H :    0.172988
   8 H :    0.266607
   9 H :    0.266611

  Mayer bond orders larger than 0.100000
B(  0-C ,  1-C ) :   0.9166 B(  0-C ,  3-O ) :   0.9452 B(  0-C ,  4-H ) :   0.9675
B(  0-C ,  5-H ) :   0.9721 B(  1-C ,  2-O ) :   0.9452 B(  1-C ,  6-H ) :   0.9722
B(  1-C ,  7-H ) :   0.9675 B(  2-O ,  8-H ) :   0.8959 B(  3-O ,  9-H ) :   0.8959

Dispersion correction           -0.001548482
FINAL SINGLE POINT ENERGY      -230.206754022579

DIPOLE MOMENT
-------------

Method             : SCF
Type of density    : Electron Density
Multiplicity       :   1
Irrep              :   0
Energy             :  -230.2125297804584250 Eh
Relativity type    :
Basis              : AO
                                X                 Y                 Z
Electronic contribution:      0.000108491      -0.000095487      -0.000023131
Nuclear contribution   :     -0.000073661       0.000028729       0.000073335
                        -----------------------------------------
Total Dipole Moment    :      0.000034831      -0.000066758       0.000050203
                        -----------------------------------------
Magnitude (a.u.)       :      0.000090499
Magnitude (Debye)      :      0.000230031

Rotational constants in cm-1:             0.984397             0.130316             0.122320
Rotational constants in MHz :         29511.467422          3906.771434          3667.076101

                             ****ORCA TERMINATED NORMALLY****
TOTAL RUN TIME: 0 days 0 hours 0 minutes 10 seconds 291 msec
