                         Program Version 6.0.0  -   RELEASE  -
|  1> ! r2scan-3c def2/J RI DEFGRID2 scfconv6 printgap
|  2> %output
|  3>     printlevel normal
|  4> end
|  5> %cpcm
|  6>     smd true
|  7>     smdsolvent "water"
|  8> end
|  9> * xyz 0 1
| 10> C -0.6082539049 -0.0085986702 -0.4690780096
| 11> C 0.608193367 0.0086129036 0.468978903
| 12> O 1.8277222404 -0.018776722 -0.2351930145
| 13> O -1.827671798 0.0187640952 0.2352625586
| 14> H -0.6239611844 -0.9393043833 -1.0425387771
| 15> H -0.5376965714 0.8319049266 -1.1716523868
| 16> H 0.5376347845 -0.8318375238 1.1716208054
| 17> H 0.6237531182 0.9393863814 1.0423606686
| 18> H 1.9027342509 -0.8530308035 -0.7189406033
| 19> H -1.902543712 0.8529122247 0.7192273593
| 20> *
| 21>
| 22>                          ****END OF INPUT****

CARTESIAN COORDINATES (ANGSTROEM)
---------------------------------
  C     -0.608254   -0.008599   -0.469078
  C      0.608193    0.008613    0.468979
  O      1.827722   -0.018777   -0.235193
  O     -1.827672    0.018764    0.235263
  H     -0.623961   -0.939304   -1.042539
  H     -0.537697    0.831905   -1.171652
  H      0.537635   -0.831838    1.171621
  H      0.623753    0.939386    1.042361
  H      1.902734   -0.853031   -0.718941
  H     -1.902544    0.852912    0.719227

 Total Charge           Charge          ....    0
 Multiplicity           Mult            ....    1
 Number of Electrons    NEL             ....   34
 Basis Dimension        Dim             ....  116

ORBITAL ENERGIES
----------------

  NO   OCC          E(Eh)            E(eV)
   0   2.0000     -18.955225      -515.7979
   1   2.0000     -18.955224      -515.7979
   2   2.0000     -10.070202      -274.0241
   3   2.0000     -10.070082      -274.0209
   4   2.0000      -0.995640       -27.0927
   5   2.0000      -0.985500       -26.8168
   6   2.0000      -0.691285       -18.8108
   7   2.0000      -0.594058       -16.1651
   8   2.0000      -0.478726       -13.0268
   9   2.0000      -0.475439       -12.9373
  10   2.0000      -0.428114       -11.6496
  11   2.0000      -0.384651       -10.4669
  12   2.0000      -0.366779        -9.9806
  13   2.0000      -0.335798        -9.1375
  14   2.0000      -0.286181        -7.7874
  15   2.0000      -0.266808        -7.2602
  16   2.0000      -0.230534        -6.2731
  17   0.0000       0.053826         1.4647
  18   0.0000       0.094029         2.5587
  19   0.0000       0.132931         3.6172
  20   0.0000       0.151700         4.1280
  21   0.0000       0.161213         4.3868

MULLIKEN ATOMIC CHARGES
-----------------------
   0 C :   -0.146125
   1 C :   -0.146193
   2 O :   -0.502974
   3 O :   -0.502983
   4 H :    0.152637
   5 H :    0.143635
   6 H :    0.143643
   7 H :    0.152639
   8 H :    0.352860
   9 H :    0.352861
Sum of atomic charges:   -0.0000000

LOEWDIN ATOMIC CHARGES
----------------------
   0 C :    0.013291
   1 C :    0.013292
   2 O :   -0.644772
   3 O :   -0.644786
   4 H :    0.180717
   5 H :    0.164851
   6 H :    0.164856
   7 H :    0.180718
   8 H :    0.285914
   9 H :    0.285919

  Mayer bond orders larger than 0.100000
B(  0-C ,  1-C ) :   0.9259 B(  0-C ,  3-O ) :   0.9396 B(  0-C ,  4-H ) :   0.9646
B(  0-C ,  5-H ) :   0.9638 B(  1-C ,  2-O ) :   0.9396 B(  1-C ,  6-H ) :   0.9638
B(  1-C ,  7-H ) :   0.9646 B(  2-O ,  8-H ) :   0.8675 B(  3-O ,  9-H ) :   0.8675

Dispersion correction           -0.001548482
FINAL SINGLE POINT ENERGY      -230.222761140351

DIPOLE MOMENT
-------------

Method             : SCF
Type of density    : Electron Density
Multiplicity       :   1
Irrep              :   0
Energy             :  -230.2285368982295779 Eh
Relativity type    :
Basis              : AO
                                X                 Y                 Z
Electronic contribution:      0.000117172      -0.000098959       0.000008474
Nuclear contribution   :     -0.000073661       0.000028729       0.000073335
                        -----------------------------------------
Total Dipole Moment    :      0.000043511      -0.000070230       0.000081809
                        -----------------------------------------
Magnitude (a.u.)       :      0.000116268
Magnitude (Debye)      :      0.000295530

Rotational constants in cm-1:             0.984397             0.130316             0.122320
Rotational constants in MHz :         29511.467422          3906.771434          3667.076101

                             ****ORCA TERMINATED NORMALLY****
TOTAL RUN TIME: 0 days 0 hours 0 minutes 11 seconds 467 msec
