                         Program Version 6.0.0  -   RELEASE  -
|  1> ! pbe def2-sv(p) def2/J RI DEFGRID1 loosescf d4 GCP(DFT/SV(P)) printgap
|  2> %output
|  3>     printlevel normal
|  4> end
|  5> * xyz 0 1
|  6> C 3.1855928876 2.1920727544 -1.6345980287
|  7> C 3.7652355391 1.8387698993 -0.2800250926
|  8> O 3.5679100459 0.4490781429 0.0269781298
|  9> P 2.177930779 -0.1002010521 0.5667428473
| 10> S 1.3165910579 1.0905398219 1.8697857033
| 11> O 2.5496709597 -1.5659585859 1.0383599942
| 12> C 3.7334249824 -1.897008399 1.8008948955
| 13> C 3.7557460925 -1.2166320785 3.1532149628
| 14> S 1.0722290817 -0.5826128469 -1.1891294318
| 15> C -0.057731877 -1.8054709576 -0.4701697162
| 16> S -1.2658130858 -1.1000191049 0.6752606893
| 17> P -2.3587821421 0.0010670594 -0.7940384925
| 18> S -2.4351019911 -0.8138443459 -2.5694891588
| 19> O -1.7179192064 1.4362679613 -0.8981016696
| 20> C -1.6669547731 2.3776775116 0.2049944944
| 21> C -0.7337280397 3.5001996781 -0.1937848478
| 22> O -3.7240418372 0.3257089451 -0.0478525641
| 23> C -4.5572803299 -0.6345305622 0.6289902812
| 24> C -4.9230791652 -1.8157571771 -0.2447594849
| 25> H 3.3851099927 3.2361404995 -1.8532690593
| 26> H 3.6262601495 1.5691578531 -2.4083206851
| 27> H 2.107970323 2.0276448083 -1.6370740751
| 28> H 3.3048770436 2.4388543409 0.5130141627
| 29> H 4.8481678261 1.9685816872 -0.2615365684
| 30> H 3.6740317696 -2.982208819 1.8997234645
| 31> H 4.6090173996 -1.6237212174 1.2087762479
| 32> H 2.8489218478 -1.4463799677 3.7079531034
| 33> H 4.6182826007 -1.5611693095 3.7150305193
| 34> H 3.819330498 -0.1363109282 3.0307247624
| 35> H 0.507178634 -2.552687759 0.0800527057
| 36> H -0.5872543834 -2.2430671373 -1.3180465931
| 37> H -2.6809191902 2.7384827006 0.3846370763
| 38> H -1.3012942858 1.8602619867 1.0973946527
| 39> H -1.0574020546 3.9397030423 -1.1326740878
| 40> H -0.7359338767 4.2546754099 0.5858848009
| 41> H 0.277505951 3.1193232185 -0.3100325719
| 42> H -4.0311681284 -0.9653914448 1.5288844982
| 43> H -5.4393286742 -0.0550350344 0.9073195246
| 44> H -5.6195349514 -2.4553706165 0.2876624383
| 45> H -5.3799994991 -1.4753713068 -1.1709282607
| 46> H -4.0315617152 -2.389578621 -0.4936789631
| 47> *
| 48>
| 49>                          ****END OF INPUT****

CARTESIAN COORDINATES (ANGSTROEM)
---------------------------------
  C      3.185593    2.192073   -1.634598
  C      3.765236    1.838770   -0.280025
  O      3.567910    0.449078    0.026978
  P      2.177931   -0.100201    0.566743
  S      1.316591    1.090540    1.869786
  O      2.549671   -1.565959    1.038360
  C      3.733425   -1.897008    1.800895
  C      3.755746   -1.216632    3.153215
  S      1.072229   -0.582613   -1.189129
  C     -0.057732   -1.805471   -0.470170
  S     -1.265813   -1.100019    0.675261
  P     -2.358782    0.001067   -0.794038
  S     -2.435102   -0.813844   -2.569489
  O     -1.717919    1.436268   -0.898102
  C     -1.666955    2.377678    0.204994
  C     -0.733728    3.500200   -0.193785
  O     -3.724042    0.325709   -0.047853
  C     -4.557280   -0.634531    0.628990
  C     -4.923079   -1.815757   -0.244759
  H      3.385110    3.236140   -1.853269
  H      3.626260    1.569158   -2.408321
  H      2.107970    2.027645   -1.637074
  H      3.304877    2.438854    0.513014
  H      4.848168    1.968582   -0.261537
  H      3.674032   -2.982209    1.899723
  H      4.609017   -1.623721    1.208776
  H      2.848922   -1.446380    3.707953
  H      4.618283   -1.561169    3.715031
  H      3.819330   -0.136311    3.030725
  H      0.507179   -2.552688    0.080053
  H     -0.587254   -2.243067   -1.318047
  H     -2.680919    2.738483    0.384637
  H     -1.301294    1.860262    1.097395
  H     -1.057402    3.939703   -1.132674
  H     -0.735934    4.254675    0.585885
  H      0.277506    3.119323   -0.310033
  H     -4.031168   -0.965391    1.528884
  H     -5.439329   -0.055035    0.907320
  H     -5.619535   -2.455371    0.287662
  H     -5.379999   -1.475371   -1.170928
  H     -4.031562   -2.389579   -0.493679

 Total Charge           Charge          ....    0
 Multiplicity           Mult            ....    1
 Number of Electrons    NEL             ....  202
 Basis Dimension        Dim             ....  334

ORBITAL ENERGIES
----------------

  NO   OCC          E(Eh)            E(eV)
   0   2.0000     -88.037937     -2395.6341
   1   2.0000     -88.037361     -2395.6184
   2   2.0000     -87.987915     -2394.2729
   3   2.0000     -87.977633     -2393.9931
   4   2.0000     -76.430136     -2079.7697
   5   2.0000     -76.420356     -2079.5036
   6   2.0000     -18.800341      -511.5833
   7   2.0000     -18.796334      -511.4742
   8   2.0000     -18.790851      -511.3251
   9   2.0000     -18.780739      -511.0499
  10   2.0000      -9.961429      -271.0643
  11   2.0000      -9.956727      -270.9363
  12   2.0000      -9.955874      -270.9131
  13   2.0000      -9.952185      -270.8127
  14   2.0000      -9.940606      -270.4976
  15   2.0000      -9.888971      -269.0926
  16   2.0000      -9.887541      -269.0537
  17   2.0000      -9.880556      -268.8636
  18   2.0000      -9.876108      -268.7426
  19   2.0000      -7.682949      -209.0637
  20   2.0000      -7.682283      -209.0456
  21   2.0000      -7.632751      -207.6977
  22   2.0000      -7.623016      -207.4328
  23   2.0000      -6.427627      -174.9046
  24   2.0000      -6.417492      -174.6288
  25   2.0000      -5.710936      -155.4025
  26   2.0000      -5.709957      -155.3758
  27   2.0000      -5.707750      -155.3158
  28   2.0000      -5.706782      -155.2894
  29   2.0000      -5.699542      -155.0924
  30   2.0000      -5.699488      -155.0910
  31   2.0000      -5.661451      -154.0559
  32   2.0000      -5.653454      -153.8383
  33   2.0000      -5.653052      -153.8274
  34   2.0000      -5.652047      -153.8000
  35   2.0000      -5.643549      -153.5688
  36   2.0000      -5.643094      -153.5564
  37   2.0000      -4.650834      -126.5556
  38   2.0000      -4.649287      -126.5135
  39   2.0000      -4.647611      -126.4679
  40   2.0000      -4.640373      -126.2710
  41   2.0000      -4.639438      -126.2455
  42   2.0000      -4.637575      -126.1948
  43   2.0000      -0.994176       -27.0529
  44   2.0000      -0.982166       -26.7261
  45   2.0000      -0.951540       -25.8927
  46   2.0000      -0.936742       -25.4900
  47   2.0000      -0.760929       -20.7059
  48   2.0000      -0.721018       -19.6199
  49   2.0000      -0.707770       -19.2594
  50   2.0000      -0.693929       -18.8828
  51   2.0000      -0.684755       -18.6331
  52   2.0000      -0.671531       -18.2733
  53   2.0000      -0.651723       -17.7343
  54   2.0000      -0.634901       -17.2765
  55   2.0000      -0.597567       -16.2606
  56   2.0000      -0.585302       -15.9269
  57   2.0000      -0.583351       -15.8738
  58   2.0000      -0.564001       -15.3472
  59   2.0000      -0.558653       -15.2017
  60   2.0000      -0.504287       -13.7224
  61   2.0000      -0.498294       -13.5593
  62   2.0000      -0.478430       -13.0187
  63   2.0000      -0.468444       -12.7470
  64   2.0000      -0.465324       -12.6621
  65   2.0000      -0.447285       -12.1712
  66   2.0000      -0.435777       -11.8581
  67   2.0000      -0.428174       -11.6512
  68   2.0000      -0.424349       -11.5471
  69   2.0000      -0.415598       -11.3090
  70   2.0000      -0.413952       -11.2642
  71   2.0000      -0.412284       -11.2188
  72   2.0000      -0.390962       -10.6386
  73   2.0000      -0.383248       -10.4287
  74   2.0000      -0.377664       -10.2768
  75   2.0000      -0.373030       -10.1507
  76   2.0000      -0.362028        -9.8513
  77   2.0000      -0.356805        -9.7092
  78   2.0000      -0.351818        -9.5734
  79   2.0000      -0.346130        -9.4187
  80   2.0000      -0.345528        -9.4023
  81   2.0000      -0.342584        -9.3222
  82   2.0000      -0.340501        -9.2655
  83   2.0000      -0.337199        -9.1756
  84   2.0000      -0.331017        -9.0074
  85   2.0000      -0.322018        -8.7626
  86   2.0000      -0.309679        -8.4268
  87   2.0000      -0.299806        -8.1581
  88   2.0000      -0.298096        -8.1116
  89   2.0000      -0.293015        -7.9733
  90   2.0000      -0.288073        -7.8389
  91   2.0000      -0.280711        -7.6385
  92   2.0000      -0.268247        -7.2994
  93   2.0000      -0.264169        -7.1884
  94   2.0000      -0.254088        -6.9141
  95   2.0000      -0.237550        -6.4641
  96   2.0000      -0.217341        -5.9142
  97   2.0000      -0.204765        -5.5719
  98   2.0000      -0.196747        -5.3537
  99   2.0000      -0.195112        -5.3093
 100   2.0000      -0.189621        -5.1598
 101   0.0000      -0.045384        -1.2350
 102   0.0000      -0.022072        -0.6006
 103   0.0000      -0.013549        -0.3687
 104   0.0000       0.001206         0.0328
 105   0.0000       0.014664         0.3990

MULLIKEN ATOMIC CHARGES
-----------------------
   0 C :   -0.338267
   1 C :   -0.012923
   2 O :   -0.378874
   3 P :    0.626772
   4 S :   -0.315884
   5 O :   -0.384232
   6 C :   -0.001416
   7 C :   -0.312508
   8 S :   -0.076141
   9 C :   -0.358033
  10 S :   -0.104189
  11 P :    0.610099
  12 S :   -0.317531
  13 O :   -0.353307
  14 C :   -0.019734
  15 C :   -0.289073
  16 O :   -0.385156
  17 C :   -0.008816
  18 C :   -0.307402
  19 H :    0.117139
  20 H :    0.122140
  21 H :    0.159291
  22 H :    0.112475
  23 H :    0.105273
  24 H :    0.107944
  25 H :    0.112971
  26 H :    0.124600
  27 H :    0.111356
  28 H :    0.127535
  29 H :    0.187992
  30 H :    0.195175
  31 H :    0.100593
  32 H :    0.119487
  33 H :    0.114458
  34 H :    0.103582
  35 H :    0.124595
  36 H :    0.112652
  37 H :    0.107765
  38 H :    0.109665
  39 H :    0.127009
  40 H :    0.122918
Sum of atomic charges:    0.0000000

LOEWDIN ATOMIC CHARGES
----------------------
   0 C :   -0.367728
   1 C :   -0.123381
   2 O :   -0.242721
   3 P :    0.572169
   4 S :   -0.303773
   5 O :   -0.249089
   6 C :   -0.107922
   7 C :   -0.366962
   8 S :    0.090997
   9 C :   -0.483184
  10 S :    0.065791
  11 P :    0.569860
  12 S :   -0.311522
  13 O :   -0.233331
  14 C :   -0.118283
  15 C :   -0.353097
  16 O :   -0.246173
  17 C :   -0.114225
  18 C :   -0.369157
  19 H :    0.133630
  20 H :    0.128764
  21 H :    0.124346
  22 H :    0.107414
  23 H :    0.118566
  24 H :    0.120669
  25 H :    0.115054
  26 H :    0.130327
  27 H :    0.129910
  28 H :    0.122177
  29 H :    0.132916
  30 H :    0.129534
  31 H :    0.110066
  32 H :    0.104254
  33 H :    0.126118
  34 H :    0.128811
  35 H :    0.120237
  36 H :    0.108405
  37 H :    0.120560
  38 H :    0.129215
  39 H :    0.130467
  40 H :    0.120293

  Mayer bond orders larger than 0.100000
B(  0-C ,  1-C ) :   1.1664 B(  0-C , 19-H ) :   0.9396 B(  0-C , 20-H ) :   0.9439
B(  0-C , 21-H ) :   0.9209 B(  1-C ,  2-O ) :   0.9077 B(  1-C , 22-H ) :   0.9070
B(  1-C , 23-H ) :   0.9312 B(  2-O ,  3-P ) :   1.0821 B(  3-P ,  4-S ) :   1.6383
B(  3-P ,  5-O ) :   1.0968 B(  3-P ,  8-S ) :   0.9619 B(  4-S ,  8-S ) :   0.1166
B(  5-O ,  6-C ) :   0.9038 B(  6-C ,  7-C ) :   1.1679 B(  6-C , 24-H ) :   0.9354
B(  6-C , 25-H ) :   0.9288 B(  7-C , 26-H ) :   0.9451 B(  7-C , 27-H ) :   0.9354
B(  7-C , 28-H ) :   0.9345 B(  8-S ,  9-C ) :   1.0031 B(  9-C , 10-S ) :   1.0089
B(  9-C , 29-H ) :   0.8941 B(  9-C , 30-H ) :   0.8719 B( 10-S , 11-P ) :   0.9399
B( 10-S , 12-S ) :   0.1109 B( 11-P , 12-S ) :   1.6361 B( 11-P , 13-O ) :   1.1467
B( 11-P , 16-O ) :   1.0835 B( 13-O , 14-C ) :   0.8863 B( 14-C , 15-C ) :   1.1709
B( 14-C , 31-H ) :   0.9295 B( 14-C , 32-H ) :   0.9054 B( 15-C , 33-H ) :   0.9489
B( 15-C , 34-H ) :   0.9393 B( 15-C , 35-H ) :   0.9319 B( 16-O , 17-C ) :   0.9148
B( 17-C , 18-C ) :   1.1662 B( 17-C , 36-H ) :   0.9267 B( 17-C , 37-H ) :   0.9336
B( 18-C , 38-H ) :   0.9350 B( 18-C , 39-H ) :   0.9429 B( 18-C , 40-H ) :   0.9325

Dispersion correction           -0.065714892
FINAL SINGLE POINT ENERGY     -2929.516525315314

DIPOLE MOMENT
-------------

Method             : SCF
Type of density    : Electron Density
Multiplicity       :   1
Irrep              :   0
Energy             : -2929.6356401104467295 Eh
Relativity type    :
Basis              : AO
                                X                 Y                 Z
Electronic contribution:     -5.632694320      -7.032838755      -6.927000558
Nuclear contribution   :      6.553738281       6.956085467       8.084508388
                        -----------------------------------------
Total Dipole Moment    :      0.921043961      -0.076753289       1.157507830
                        -----------------------------------------
Magnitude (a.u.)       :      1.481228349
Magnitude (Debye)      :      3.764983254

Rotational constants in cm-1:             0.012612             0.004981             0.004595
Rotational constants in MHz :           378.097533           149.327528           137.748855

                             ****ORCA TERMINATED NORMALLY****
TOTAL RUN TIME: 0 days 0 hours 0 minutes 21 seconds 120 msec
