                         Program Version 6.0.0  -   RELEASE  -
|  1> ! r2scan-3c def2/J RI DEFGRID2 scfconv6 printgap
|  2> %output
|  3>     printlevel normal
|  4> end
|  5> * xyz 0 1
|  6> C 4.7650259015 -2.0182444931 0.0039564066
|  7> C 4.2537325719 -1.6800623724 -1.3814331096
|  8> O 2.8292597304 -1.4550531045 -1.3955797672
|  9> P 2.157444355 -0.2507706936 -0.6152304791
| 10> S 3.1632910836 1.4309193729 -0.5158063115
| 11> O 1.7875187598 -0.8941215938 0.7934973147
| 12> C 1.8813658052 -0.2296247364 2.0700580034
| 13> C 0.78669493 -0.7577222196 2.9741788317
| 14> S 0.3836674867 -0.2430354883 -1.7671506364
| 15> C -0.1379161863 1.4371804135 -1.3237760932
| 16> S -0.5861758576 1.5715776921 0.4205166884
| 17> P -2.3056575106 0.3154843782 0.3202406424
| 18> S -3.3342279482 0.4259206682 -1.3508710721
| 19> O -3.0420619666 0.6343106117 1.6840462173
| 20> C -3.3311243403 1.9517116182 2.1890324725
| 21> C -4.1123074522 2.7980363613 1.2050686
| 22> O -1.8242469323 -1.1454769355 0.6945144165
| 23> C -1.962596399 -2.3058147757 -0.1503443665
| 24> C -0.7775783357 -3.220448184 0.0833057859
| 25> H 4.2012055069 -2.8486421232 0.421203011
| 26> H 5.8149676815 -2.2876603709 -0.0560769911
| 27> H 4.6610719674 -1.1519262147 0.6570622589
| 28> H 4.3924190263 -2.5075329243 -2.078509624
| 29> H 4.747947762 -0.7825699071 -1.7662645246
| 30> H 2.8689581924 -0.4553387041 2.4805496275
| 31> H 1.7975020856 0.8512285573 1.923100922
| 32> H 0.8697567952 -0.2797074146 3.9446588797
| 33> H -0.1934804395 -0.543975368 2.5546229774
| 34> H 0.8887429299 -1.8326676281 3.0907855095
| 35> H -1.0041371353 1.6690564135 -1.9437388052
| 36> H 0.6791561516 2.1371377769 -1.4970322253
| 37> H -3.9091823784 1.7559880591 3.0938529187
| 38> H -2.3852659197 2.4345142804 2.450171
| 39> H -4.384282446 3.7382228485 1.6739452832
| 40> H -3.5083795508 3.0039606865 0.3223853388
| 41> H -5.014210742 2.2782084927 0.8904557257
| 42> H -2.8984649248 -2.7957826083 0.1287590236
| 43> H -2.025949205 -1.9882796528 -1.1963346821
| 44> H -0.7199562882 -3.4894595257 1.1339119281
| 45> H -0.9022378146 -4.1176075707 -0.5141249482
| 46> H 0.1483683873 -2.7285355153 -0.2057014873
| 47> *
| 48>
| 49>                          ****END OF INPUT****

CARTESIAN COORDINATES (ANGSTROEM)
---------------------------------
  C      4.765026   -2.018244    0.003956
  C      4.253733   -1.680062   -1.381433
  O      2.829260   -1.455053   -1.395580
  P      2.157444   -0.250771   -0.615230
  S      3.163291    1.430919   -0.515806
  O      1.787519   -0.894122    0.793497
  C      1.881366   -0.229625    2.070058
  C      0.786695   -0.757722    2.974179
  S      0.383667   -0.243035   -1.767151
  C     -0.137916    1.437180   -1.323776
  S     -0.586176    1.571578    0.420517
  P     -2.305658    0.315484    0.320241
  S     -3.334228    0.425921   -1.350871
  O     -3.042062    0.634311    1.684046
  C     -3.331124    1.951712    2.189032
  C     -4.112307    2.798036    1.205069
  O     -1.824247   -1.145477    0.694514
  C     -1.962596   -2.305815   -0.150344
  C     -0.777578   -3.220448    0.083306
  H      4.201206   -2.848642    0.421203
  H      5.814968   -2.287660   -0.056077
  H      4.661072   -1.151926    0.657062
  H      4.392419   -2.507533   -2.078510
  H      4.747948   -0.782570   -1.766265
  H      2.868958   -0.455339    2.480550
  H      1.797502    0.851229    1.923101
  H      0.869757   -0.279707    3.944659
  H     -0.193480   -0.543975    2.554623
  H      0.888743   -1.832668    3.090786
  H     -1.004137    1.669056   -1.943739
  H      0.679156    2.137138   -1.497032
  H     -3.909182    1.755988    3.093853
  H     -2.385266    2.434514    2.450171
  H     -4.384282    3.738223    1.673945
  H     -3.508380    3.003961    0.322385
  H     -5.014211    2.278208    0.890456
  H     -2.898465   -2.795783    0.128759
  H     -2.025949   -1.988280   -1.196335
  H     -0.719956   -3.489460    1.133912
  H     -0.902238   -4.117608   -0.514125
  H      0.148368   -2.728536   -0.205701

 Total Charge           Charge          ....    0
 Multiplicity           Mult            ....    1
 Number of Electrons    NEL             ....  202
 Basis Dimension        Dim             ....  539

ORBITAL ENERGIES
----------------

  NO   OCC          E(Eh)            E(eV)
   0   2.0000     -88.578942     -2410.3555
   1   2.0000     -88.575629     -2410.2654
   2   2.0000     -88.525054     -2408.8892
   3   2.0000     -88.521024     -2408.7795
   4   2.0000     -76.916604     -2093.0072
   5   2.0000     -76.916556     -2093.0059
   6   2.0000     -18.995060      -516.8819
   7   2.0000     -18.993464      -516.8384
   8   2.0000     -18.990599      -516.7605
   9   2.0000     -18.987675      -516.6809
  10   2.0000     -10.106031      -274.9991
  11   2.0000     -10.105960      -274.9971
  12   2.0000     -10.103091      -274.9191
  13   2.0000     -10.096707      -274.7454
  14   2.0000     -10.092321      -274.6260
  15   2.0000     -10.034436      -273.0509
  16   2.0000     -10.029216      -272.9088
  17   2.0000     -10.026642      -272.8388
  18   2.0000     -10.023498      -272.7532
  19   2.0000      -7.873394      -214.2459
  20   2.0000      -7.869898      -214.1508
  21   2.0000      -7.819780      -212.7870
  22   2.0000      -7.815784      -212.6783
  23   2.0000      -6.594951      -179.4577
  24   2.0000      -6.594767      -179.4527
  25   2.0000      -5.820126      -158.3737
  26   2.0000      -5.817160      -158.2930
  27   2.0000      -5.816792      -158.2830
  28   2.0000      -5.813885      -158.2039
  29   2.0000      -5.810741      -158.1183
  30   2.0000      -5.806876      -158.0131
  31   2.0000      -5.767405      -156.9391
  32   2.0000      -5.763468      -156.8319
  33   2.0000      -5.760336      -156.7467
  34   2.0000      -5.759539      -156.7250
  35   2.0000      -5.756098      -156.6314
  36   2.0000      -5.755733      -156.6215
  37   2.0000      -4.740234      -128.9883
  38   2.0000      -4.740197      -128.9873
  39   2.0000      -4.739879      -128.9787
  40   2.0000      -4.739702      -128.9738
  41   2.0000      -4.739054      -128.9562
  42   2.0000      -4.738410      -128.9387
  43   2.0000      -1.051857       -28.6225
  44   2.0000      -1.049684       -28.5633
  45   2.0000      -1.011018       -27.5112
  46   2.0000      -1.009395       -27.4670
  47   2.0000      -0.805086       -21.9075
  48   2.0000      -0.762205       -20.7406
  49   2.0000      -0.752264       -20.4702
  50   2.0000      -0.734206       -19.9788
  51   2.0000      -0.729410       -19.8482
  52   2.0000      -0.709875       -19.3167
  53   2.0000      -0.686328       -18.6759
  54   2.0000      -0.671610       -18.2754
  55   2.0000      -0.635894       -17.3035
  56   2.0000      -0.626956       -17.0603
  57   2.0000      -0.604674       -16.4540
  58   2.0000      -0.601238       -16.3605
  59   2.0000      -0.591135       -16.0856
  60   2.0000      -0.529918       -14.4198
  61   2.0000      -0.523188       -14.2367
  62   2.0000      -0.499114       -13.5816
  63   2.0000      -0.491671       -13.3791
  64   2.0000      -0.481689       -13.1074
  65   2.0000      -0.464616       -12.6428
  66   2.0000      -0.455760       -12.4019
  67   2.0000      -0.450012       -12.2454
  68   2.0000      -0.444506       -12.0956
  69   2.0000      -0.438455       -11.9310
  70   2.0000      -0.420277       -11.4363
  71   2.0000      -0.419949       -11.4274
  72   2.0000      -0.412673       -11.2294
  73   2.0000      -0.406128       -11.0513
  74   2.0000      -0.400371       -10.8946
  75   2.0000      -0.393686       -10.7127
  76   2.0000      -0.381441       -10.3796
  77   2.0000      -0.374056       -10.1786
  78   2.0000      -0.367348        -9.9960
  79   2.0000      -0.364460        -9.9175
  80   2.0000      -0.363348        -9.8872
  81   2.0000      -0.360474        -9.8090
  82   2.0000      -0.353999        -9.6328
  83   2.0000      -0.350474        -9.5369
  84   2.0000      -0.346761        -9.4358
  85   2.0000      -0.340113        -9.2549
  86   2.0000      -0.326168        -8.8755
  87   2.0000      -0.313904        -8.5418
  88   2.0000      -0.312104        -8.4928
  89   2.0000      -0.303274        -8.2525
  90   2.0000      -0.301287        -8.1984
  91   2.0000      -0.293775        -7.9940
  92   2.0000      -0.291160        -7.9229
  93   2.0000      -0.282789        -7.6951
  94   2.0000      -0.270028        -7.3478
  95   2.0000      -0.247486        -6.7344
  96   2.0000      -0.231867        -6.3094
  97   2.0000      -0.229766        -6.2523
  98   2.0000      -0.221142        -6.0176
  99   2.0000      -0.215300        -5.8586
 100   2.0000      -0.213754        -5.8165
 101   0.0000      -0.053334        -1.4513
 102   0.0000      -0.029752        -0.8096
 103   0.0000      -0.006834        -0.1860
 104   0.0000       0.002053         0.0559
 105   0.0000       0.005082         0.1383

MULLIKEN ATOMIC CHARGES
-----------------------
   0 C :   -0.442985
   1 C :   -0.156150
   2 O :   -0.313032
   3 P :    0.668323
   4 S :   -0.475503
   5 O :   -0.256492
   6 C :   -0.096383
   7 C :   -0.472278
   8 S :   -0.135137
   9 C :   -0.226017
  10 S :   -0.171327
  11 P :    0.668777
  12 S :   -0.459664
  13 O :   -0.305177
  14 C :   -0.150100
  15 C :   -0.425199
  16 O :   -0.265017
  17 C :   -0.115409
  18 C :   -0.456400
  19 H :    0.159447
  20 H :    0.150517
  21 H :    0.166290
  22 H :    0.151196
  23 H :    0.173021
  24 H :    0.144424
  25 H :    0.170012
  26 H :    0.145226
  27 H :    0.179717
  28 H :    0.147725
  29 H :    0.214467
  30 H :    0.216058
  31 H :    0.151377
  32 H :    0.151659
  33 H :    0.147407
  34 H :    0.168486
  35 H :    0.164723
  36 H :    0.148266
  37 H :    0.171964
  38 H :    0.146621
  39 H :    0.144884
  40 H :    0.171686
Sum of atomic charges:    0.0000000

LOEWDIN ATOMIC CHARGES
----------------------
   0 C :   -0.400240
   1 C :    0.026094
   2 O :   -0.673168
   3 P :    0.381217
   4 S :   -0.124054
   5 O :   -0.672266
   6 C :    0.009671
   7 C :   -0.393178
   8 S :    0.182732
   9 C :   -0.421436
  10 S :    0.143118
  11 P :    0.386047
  12 S :   -0.122449
  13 O :   -0.651877
  14 C :    0.023450
  15 C :   -0.405592
  16 O :   -0.665656
  17 C :    0.014512
  18 C :   -0.393080
  19 H :    0.161799
  20 H :    0.160602
  21 H :    0.163538
  22 H :    0.181382
  23 H :    0.179858
  24 H :    0.169870
  25 H :    0.180795
  26 H :    0.158445
  27 H :    0.172574
  28 H :    0.158989
  29 H :    0.192607
  30 H :    0.190712
  31 H :    0.182181
  32 H :    0.171783
  33 H :    0.158482
  34 H :    0.165983
  35 H :    0.165695
  36 H :    0.172757
  37 H :    0.182265
  38 H :    0.158327
  39 H :    0.158654
  40 H :    0.168858

  Mayer bond orders larger than 0.100000
B(  0-C ,  1-C ) :   0.9167 B(  0-C , 19-H ) :   0.9693 B(  0-C , 20-H ) :   0.9593
B(  0-C , 21-H ) :   0.9627 B(  1-C ,  2-O ) :   0.8118 B(  1-C , 22-H ) :   0.9598
B(  1-C , 23-H ) :   0.9688 B(  2-O ,  3-P ) :   1.1552 B(  3-P ,  4-S ) :   1.7697
B(  3-P ,  5-O ) :   1.0610 B(  3-P ,  8-S ) :   1.0670 B(  5-O ,  6-C ) :   0.7512
B(  6-C ,  7-C ) :   0.9320 B(  6-C , 24-H ) :   0.9458 B(  6-C , 25-H ) :   0.9619
B(  7-C , 26-H ) :   0.9688 B(  7-C , 27-H ) :   0.9657 B(  7-C , 28-H ) :   0.9671
B(  8-S ,  9-C ) :   0.8969 B(  9-C , 10-S ) :   0.8907 B(  9-C , 29-H ) :   0.9054
B(  9-C , 30-H ) :   0.9089 B( 10-S , 11-P ) :   1.0028 B( 11-P , 12-S ) :   1.8000
B( 11-P , 13-O ) :   1.1125 B( 11-P , 16-O ) :   1.1348 B( 13-O , 14-C ) :   0.8061
B( 14-C , 15-C ) :   0.9409 B( 14-C , 31-H ) :   0.9579 B( 14-C , 32-H ) :   0.9614
B( 15-C , 33-H ) :   0.9627 B( 15-C , 34-H ) :   0.9546 B( 15-C , 35-H ) :   0.9658
B( 16-O , 17-C ) :   0.7654 B( 17-C , 18-C ) :   0.9390 B( 17-C , 36-H ) :   0.9467
B( 17-C , 37-H ) :   0.9643 B( 18-C , 38-H ) :   0.9670 B( 18-C , 39-H ) :   0.9674
B( 18-C , 40-H ) :   0.9642

Dispersion correction           -0.022536049
FINAL SINGLE POINT ENERGY     -2932.462258237888

DIPOLE MOMENT
-------------

Method             : SCF
Type of density    : Electron Density
Multiplicity       :   1
Irrep              :   0
Energy             : -2932.4863982102078808 Eh
Relativity type    :
Basis              : AO
                                X                 Y                 Z
Electronic contribution:     -3.565419233       8.944003413     -13.756831440
Nuclear contribution   :      4.009080025      -9.519103670      14.931770550
                        -----------------------------------------
Total Dipole Moment    :      0.443660792      -0.575100257       1.174939110
                        -----------------------------------------
Magnitude (a.u.)       :      1.381324407
Magnitude (Debye)      :      3.511047614

Rotational constants in cm-1:             0.013444             0.005115             0.004978
Rotational constants in MHz :           403.029585           153.347001           149.243418

                             ****ORCA TERMINATED NORMALLY****
TOTAL RUN TIME: 0 days 0 hours 1 minutes 23 seconds 780 msec
