                         Program Version 6.0.0  -   RELEASE  -
|  1> ! r2scan-3c def2/J RI DEFGRID2 scfconv6 printgap
|  2> %output
|  3>     printlevel normal
|  4> end
|  5> %cpcm
|  6>     smd true
|  7>     smdsolvent "water"
|  8> end
|  9> * xyz 0 1
| 10> C 4.7650259015 -2.0182444931 0.0039564066
| 11> C 4.2537325719 -1.6800623724 -1.3814331096
| 12> O 2.8292597304 -1.4550531045 -1.3955797672
| 13> P 2.157444355 -0.2507706936 -0.6152304791
| 14> S 3.1632910836 1.4309193729 -0.5158063115
| 15> O 1.7875187598 -0.8941215938 0.7934973147
| 16> C 1.8813658052 -0.2296247364 2.0700580034
| 17> C 0.78669493 -0.7577222196 2.9741788317
| 18> S 0.3836674867 -0.2430354883 -1.7671506364
| 19> C -0.1379161863 1.4371804135 -1.3237760932
| 20> S -0.5861758576 1.5715776921 0.4205166884
| 21> P -2.3056575106 0.3154843782 0.3202406424
| 22> S -3.3342279482 0.4259206682 -1.3508710721
| 23> O -3.0420619666 0.6343106117 1.6840462173
| 24> C -3.3311243403 1.9517116182 2.1890324725
| 25> C -4.1123074522 2.7980363613 1.2050686
| 26> O -1.8242469323 -1.1454769355 0.6945144165
| 27> C -1.962596399 -2.3058147757 -0.1503443665
| 28> C -0.7775783357 -3.220448184 0.0833057859
| 29> H 4.2012055069 -2.8486421232 0.421203011
| 30> H 5.8149676815 -2.2876603709 -0.0560769911
| 31> H 4.6610719674 -1.1519262147 0.6570622589
| 32> H 4.3924190263 -2.5075329243 -2.078509624
| 33> H 4.747947762 -0.7825699071 -1.7662645246
| 34> H 2.8689581924 -0.4553387041 2.4805496275
| 35> H 1.7975020856 0.8512285573 1.923100922
| 36> H 0.8697567952 -0.2797074146 3.9446588797
| 37> H -0.1934804395 -0.543975368 2.5546229774
| 38> H 0.8887429299 -1.8326676281 3.0907855095
| 39> H -1.0041371353 1.6690564135 -1.9437388052
| 40> H 0.6791561516 2.1371377769 -1.4970322253
| 41> H -3.9091823784 1.7559880591 3.0938529187
| 42> H -2.3852659197 2.4345142804 2.450171
| 43> H -4.384282446 3.7382228485 1.6739452832
| 44> H -3.5083795508 3.0039606865 0.3223853388
| 45> H -5.014210742 2.2782084927 0.8904557257
| 46> H -2.8984649248 -2.7957826083 0.1287590236
| 47> H -2.025949205 -1.9882796528 -1.1963346821
| 48> H -0.7199562882 -3.4894595257 1.1339119281
| 49> H -0.9022378146 -4.1176075707 -0.5141249482
| 50> H 0.1483683873 -2.7285355153 -0.2057014873
| 51> *
| 52>
| 53>                          ****END OF INPUT****

CARTESIAN COORDINATES (ANGSTROEM)
---------------------------------
  C      4.765026   -2.018244    0.003956
  C      4.253733   -1.680062   -1.381433
  O      2.829260   -1.455053   -1.395580
  P      2.157444   -0.250771   -0.615230
  S      3.163291    1.430919   -0.515806
  O      1.787519   -0.894122    0.793497
  C      1.881366   -0.229625    2.070058
  C      0.786695   -0.757722    2.974179
  S      0.383667   -0.243035   -1.767151
  C     -0.137916    1.437180   -1.323776
  S     -0.586176    1.571578    0.420517
  P     -2.305658    0.315484    0.320241
  S     -3.334228    0.425921   -1.350871
  O     -3.042062    0.634311    1.684046
  C     -3.331124    1.951712    2.189032
  C     -4.112307    2.798036    1.205069
  O     -1.824247   -1.145477    0.694514
  C     -1.962596   -2.305815   -0.150344
  C     -0.777578   -3.220448    0.083306
  H      4.201206   -2.848642    0.421203
  H      5.814968   -2.287660   -0.056077
  H      4.661072   -1.151926    0.657062
  H      4.392419   -2.507533   -2.078510
  H      4.747948   -0.782570   -1.766265
  H      2.868958   -0.455339    2.480550
  H      1.797502    0.851229    1.923101
  H      0.869757   -0.279707    3.944659
  H     -0.193480   -0.543975    2.554623
  H      0.888743   -1.832668    3.090786
  H     -1.004137    1.669056   -1.943739
  H      0.679156    2.137138   -1.497032
  H     -3.909182    1.755988    3.093853
  H     -2.385266    2.434514    2.450171
  H     -4.384282    3.738223    1.673945
  H     -3.508380    3.003961    0.322385
  H     -5.014211    2.278208    0.890456
  H     -2.898465   -2.795783    0.128759
  H     -2.025949   -1.988280   -1.196335
  H     -0.719956   -3.489460    1.133912
  H     -0.902238   -4.117608   -0.514125
  H      0.148368   -2.728536   -0.205701

 Total Charge           Charge          ....    0
 Multiplicity           Mult            ....    1
 Number of Electrons    NEL             ....  202
 Basis Dimension        Dim             ....  539

ORBITAL ENERGIES
----------------

  NO   OCC          E(Eh)            E(eV)
   0   2.0000     -88.581266     -2410.4188
   1   2.0000     -88.580092     -2410.3868
   2   2.0000     -88.531143     -2409.0549
   3   2.0000     -88.528610     -2408.9859
   4   2.0000     -76.921755     -2093.1474
   5   2.0000     -76.920918     -2093.1246
   6   2.0000     -18.997075      -516.9367
   7   2.0000     -18.994847      -516.8761
   8   2.0000     -18.992941      -516.8242
   9   2.0000     -18.992737      -516.8186
  10   2.0000     -10.105485      -274.9842
  11   2.0000     -10.093827      -274.6670
  12   2.0000     -10.091376      -274.6003
  13   2.0000     -10.088933      -274.5338
  14   2.0000     -10.088574      -274.5241
  15   2.0000     -10.019622      -272.6478
  16   2.0000     -10.019055      -272.6324
  17   2.0000     -10.017506      -272.5902
  18   2.0000     -10.017417      -272.5878
  19   2.0000      -7.875654      -214.3074
  20   2.0000      -7.874439      -214.2744
  21   2.0000      -7.826139      -212.9601
  22   2.0000      -7.823670      -212.8929
  23   2.0000      -6.599989      -179.5948
  24   2.0000      -6.599330      -179.5769
  25   2.0000      -5.822418      -158.4360
  26   2.0000      -5.821268      -158.4047
  27   2.0000      -5.819435      -158.3549
  28   2.0000      -5.818375      -158.3260
  29   2.0000      -5.812963      -158.1788
  30   2.0000      -5.811535      -158.1399
  31   2.0000      -5.773713      -157.1107
  32   2.0000      -5.771278      -157.0445
  33   2.0000      -5.766614      -156.9176
  34   2.0000      -5.765977      -156.9002
  35   2.0000      -5.764022      -156.8470
  36   2.0000      -5.763602      -156.8356
  37   2.0000      -4.745392      -129.1287
  38   2.0000      -4.745111      -129.1210
  39   2.0000      -4.744576      -129.1065
  40   2.0000      -4.744082      -129.0930
  41   2.0000      -4.743677      -129.0820
  42   2.0000      -4.743500      -129.0772
  43   2.0000      -1.054889       -28.7050
  44   2.0000      -1.051065       -28.6009
  45   2.0000      -1.012359       -27.5477
  46   2.0000      -1.011868       -27.5343
  47   2.0000      -0.807010       -21.9599
  48   2.0000      -0.759386       -20.6639
  49   2.0000      -0.746882       -20.3237
  50   2.0000      -0.724851       -19.7242
  51   2.0000      -0.722510       -19.6605
  52   2.0000      -0.709361       -19.3027
  53   2.0000      -0.689619       -18.7655
  54   2.0000      -0.676843       -18.4178
  55   2.0000      -0.633801       -17.2466
  56   2.0000      -0.623179       -16.9576
  57   2.0000      -0.598878       -16.2963
  58   2.0000      -0.595522       -16.2050
  59   2.0000      -0.589215       -16.0334
  60   2.0000      -0.527020       -14.3409
  61   2.0000      -0.520219       -14.1559
  62   2.0000      -0.494805       -13.4643
  63   2.0000      -0.489336       -13.3155
  64   2.0000      -0.480546       -13.0763
  65   2.0000      -0.459970       -12.5164
  66   2.0000      -0.450623       -12.2621
  67   2.0000      -0.446155       -12.1405
  68   2.0000      -0.441437       -12.0121
  69   2.0000      -0.436509       -11.8780
  70   2.0000      -0.419499       -11.4152
  71   2.0000      -0.413399       -11.2492
  72   2.0000      -0.410499       -11.1702
  73   2.0000      -0.404256       -11.0004
  74   2.0000      -0.398833       -10.8528
  75   2.0000      -0.393028       -10.6948
  76   2.0000      -0.378276       -10.2934
  77   2.0000      -0.367325        -9.9954
  78   2.0000      -0.360903        -9.8207
  79   2.0000      -0.357097        -9.7171
  80   2.0000      -0.355367        -9.6700
  81   2.0000      -0.353918        -9.6306
  82   2.0000      -0.349356        -9.5065
  83   2.0000      -0.344951        -9.3866
  84   2.0000      -0.342485        -9.3195
  85   2.0000      -0.336256        -9.1500
  86   2.0000      -0.323807        -8.8112
  87   2.0000      -0.310486        -8.4487
  88   2.0000      -0.305971        -8.3259
  89   2.0000      -0.304289        -8.2801
  90   2.0000      -0.301191        -8.1958
  91   2.0000      -0.291511        -7.9324
  92   2.0000      -0.289797        -7.8858
  93   2.0000      -0.282469        -7.6864
  94   2.0000      -0.271119        -7.3775
  95   2.0000      -0.250233        -6.8092
  96   2.0000      -0.238393        -6.4870
  97   2.0000      -0.235746        -6.4150
  98   2.0000      -0.228623        -6.2212
  99   2.0000      -0.222607        -6.0574
 100   2.0000      -0.220121        -5.9898
 101   0.0000      -0.057866        -1.5746
 102   0.0000      -0.035011        -0.9527
 103   0.0000      -0.010960        -0.2982
 104   0.0000      -0.000186        -0.0051
 105   0.0000       0.005560         0.1513

MULLIKEN ATOMIC CHARGES
-----------------------
   0 C :   -0.477151
   1 C :   -0.154646
   2 O :   -0.342775
   3 P :    0.692873
   4 S :   -0.513817
   5 O :   -0.280044
   6 C :   -0.088553
   7 C :   -0.515253
   8 S :   -0.158442
   9 C :   -0.236096
  10 S :   -0.166151
  11 P :    0.702155
  12 S :   -0.507071
  13 O :   -0.336221
  14 C :   -0.151690
  15 C :   -0.465950
  16 O :   -0.293010
  17 C :   -0.105670
  18 C :   -0.506504
  19 H :    0.170670
  20 H :    0.174519
  21 H :    0.170159
  22 H :    0.176579
  23 H :    0.178644
  24 H :    0.173442
  25 H :    0.169201
  26 H :    0.170832
  27 H :    0.171516
  28 H :    0.168448
  29 H :    0.232777
  30 H :    0.236980
  31 H :    0.178006
  32 H :    0.172680
  33 H :    0.173902
  34 H :    0.165892
  35 H :    0.170490
  36 H :    0.171547
  37 H :    0.171730
  38 H :    0.167571
  39 H :    0.170223
  40 H :    0.168206
Sum of atomic charges:   -0.0000000

LOEWDIN ATOMIC CHARGES
----------------------
   0 C :   -0.402214
   1 C :    0.030339
   2 O :   -0.687477
   3 P :    0.383726
   4 S :   -0.148995
   5 O :   -0.682744
   6 C :    0.014040
   7 C :   -0.396780
   8 S :    0.168344
   9 C :   -0.415950
  10 S :    0.151066
  11 P :    0.390060
  12 S :   -0.154429
  13 O :   -0.666389
  14 C :    0.030165
  15 C :   -0.409283
  16 O :   -0.680265
  17 C :    0.016587
  18 C :   -0.397102
  19 H :    0.164989
  20 H :    0.169605
  21 H :    0.163135
  22 H :    0.191916
  23 H :    0.181697
  24 H :    0.181152
  25 H :    0.180823
  26 H :    0.168672
  27 H :    0.167321
  28 H :    0.163837
  29 H :    0.198208
  30 H :    0.196893
  31 H :    0.193558
  32 H :    0.179899
  33 H :    0.168549
  34 H :    0.161901
  35 H :    0.164581
  36 H :    0.181539
  37 H :    0.182094
  38 H :    0.163605
  39 H :    0.168425
  40 H :    0.164899

  Mayer bond orders larger than 0.100000
B(  0-C ,  1-C ) :   0.9065 B(  0-C , 19-H ) :   0.9675 B(  0-C , 20-H ) :   0.9535
B(  0-C , 21-H ) :   0.9604 B(  1-C ,  2-O ) :   0.7996 B(  1-C , 22-H ) :   0.9499
B(  1-C , 23-H ) :   0.9647 B(  2-O ,  3-P ) :   1.1587 B(  3-P ,  4-S ) :   1.7488
B(  3-P ,  5-O ) :   1.0649 B(  3-P ,  8-S ) :   1.0750 B(  5-O ,  6-C ) :   0.7409
B(  6-C ,  7-C ) :   0.9225 B(  6-C , 24-H ) :   0.9376 B(  6-C , 25-H ) :   0.9583
B(  7-C , 26-H ) :   0.9615 B(  7-C , 27-H ) :   0.9674 B(  7-C , 28-H ) :   0.9654
B(  8-S ,  9-C ) :   0.8857 B(  9-C , 10-S ) :   0.8826 B(  9-C , 29-H ) :   0.9002
B(  9-C , 30-H ) :   0.9036 B( 10-S , 11-P ) :   1.0181 B( 11-P , 12-S ) :   1.7632
B( 11-P , 13-O ) :   1.1202 B( 11-P , 16-O ) :   1.1356 B( 13-O , 14-C ) :   0.7961
B( 14-C , 15-C ) :   0.9214 B( 14-C , 31-H ) :   0.9481 B( 14-C , 32-H ) :   0.9562
B( 15-C , 33-H ) :   0.9565 B( 15-C , 34-H ) :   0.9571 B( 15-C , 35-H ) :   0.9667
B( 16-O , 17-C ) :   0.7552 B( 17-C , 18-C ) :   0.9273 B( 17-C , 36-H ) :   0.9376
B( 17-C , 37-H ) :   0.9613 B( 18-C , 38-H ) :   0.9644 B( 18-C , 39-H ) :   0.9609
B( 18-C , 40-H ) :   0.9671

Dispersion correction           -0.022536049
FINAL SINGLE POINT ENERGY     -2932.470410036632

DIPOLE MOMENT
-------------

Method             : SCF
Type of density    : Electron Density
Multiplicity       :   1
Irrep              :   0
Energy             : -2932.4945500089515917 Eh
Relativity type    :
Basis              : AO
                                X                 Y                 Z
Electronic contribution:     -3.334608276       8.907316127     -13.293461043
Nuclear contribution   :      4.009080025      -9.519103670      14.931770550
                        -----------------------------------------
Total Dipole Moment    :      0.674471750      -0.611787543       1.638309507
                        -----------------------------------------
Magnitude (a.u.)       :      1.874367674
Magnitude (Debye)      :      4.764264006

Rotational constants in cm-1:             0.013444             0.005115             0.004978
Rotational constants in MHz :           403.029585           153.347001           149.243418

                             ****ORCA TERMINATED NORMALLY****
TOTAL RUN TIME: 0 days 0 hours 1 minutes 54 seconds 337 msec
