                         Program Version 6.0.0  -   RELEASE  -
|  1> ! pbe def2-sv(p) def2/J RI DEFGRID1 loosescf d4 GCP(DFT/SV(P)) printgap
|  2> %output
|  3>     printlevel normal
|  4> end
|  5> * xyz 0 1
|  6> C 3.791262472 1.2514797739 -2.1944892572
|  7> C 4.305738262 1.1876603999 -0.770412551
|  8> O 3.770828866 0.0600645375 -0.0631890977
|  9> P 2.2394985239 -0.0270631948 0.3665038512
| 10> S 1.5319900855 1.6796762894 1.0270139541
| 11> O 2.2426813081 -1.2384392485 1.3816670564
| 12> C 2.3414995168 -1.0355987492 2.8087483542
| 13> C 3.7221981249 -0.5618838098 3.2093919543
| 14> S 1.316009683 -0.9599280939 -1.2998808644
| 15> C 0.0561394281 -1.9632590565 -0.453295442
| 16> S -0.9936425106 -1.0368486872 0.6873775679
| 17> P -2.1612991029 0.0671049765 -0.7283675444
| 18> S -2.007649659 -0.5760991914 -2.5710167126
| 19> O -1.7907933659 1.5882727381 -0.5803845143
| 20> C -2.3258132566 2.4925706645 0.4202583728
| 21> C -2.0523913175 2.0352402149 1.8363891771
| 22> O -3.6293044666 0.0100937637 -0.123048677
| 23> C -4.4108287283 -1.1999724282 -0.1928112253
| 24> C -5.8551837689 -0.8364106518 0.085335618
| 25> H 3.998961908 0.3199344816 -2.7149340804
| 26> H 2.7120493421 1.4120963703 -2.1924664293
| 27> H 4.2680996512 2.0737597039 -2.7182139395
| 28> H 4.0402167325 2.099632269 -0.2242784938
| 29> H 5.3853184437 1.0356017149 -0.7375169196
| 30> H 1.5784180736 -0.310803917 3.1092943925
| 31> H 2.1083274939 -2.0149468006 3.2279054806
| 32> H 3.7871993941 -0.5156522877 4.2918523472
| 33> H 4.4787070112 -1.2425238231 2.8279849569
| 34> H 3.9047131446 0.4312289096 2.8007271031
| 35> H 0.542176184 -2.7393613114 0.131543525
| 36> H -0.552931455 -2.3828673425 -1.2545100255
| 37> H -1.8158084015 3.4316829453 0.2008330647
| 38> H -3.3974908564 2.5928171985 0.2390333064
| 39> H -2.5228956647 1.0716628624 2.0232750917
| 40> H -0.9816476985 1.9449797481 2.0026427958
| 41> H -2.4560743798 2.7685943712 2.5271743815
| 42> H -4.2904629908 -1.6343098619 -1.1907733677
| 43> H -4.023086101 -1.8991896162 0.5531013094
| 44> H -5.9431339277 -0.3817277245 1.0677012711
| 45> H -6.2140132949 -0.1344713939 -0.6621150859
| 46> H -6.460561401 -1.7361015081 0.0501040143
| 47> *
| 48>
| 49>                          ****END OF INPUT****

CARTESIAN COORDINATES (ANGSTROEM)
---------------------------------
  C      3.791262    1.251480   -2.194489
  C      4.305738    1.187660   -0.770413
  O      3.770829    0.060065   -0.063189
  P      2.239499   -0.027063    0.366504
  S      1.531990    1.679676    1.027014
  O      2.242681   -1.238439    1.381667
  C      2.341500   -1.035599    2.808748
  C      3.722198   -0.561884    3.209392
  S      1.316010   -0.959928   -1.299881
  C      0.056139   -1.963259   -0.453295
  S     -0.993643   -1.036849    0.687378
  P     -2.161299    0.067105   -0.728368
  S     -2.007650   -0.576099   -2.571017
  O     -1.790793    1.588273   -0.580385
  C     -2.325813    2.492571    0.420258
  C     -2.052391    2.035240    1.836389
  O     -3.629304    0.010094   -0.123049
  C     -4.410829   -1.199972   -0.192811
  C     -5.855184   -0.836411    0.085336
  H      3.998962    0.319934   -2.714934
  H      2.712049    1.412096   -2.192466
  H      4.268100    2.073760   -2.718214
  H      4.040217    2.099632   -0.224278
  H      5.385318    1.035602   -0.737517
  H      1.578418   -0.310804    3.109294
  H      2.108327   -2.014947    3.227905
  H      3.787199   -0.515652    4.291852
  H      4.478707   -1.242524    2.827985
  H      3.904713    0.431229    2.800727
  H      0.542176   -2.739361    0.131544
  H     -0.552931   -2.382867   -1.254510
  H     -1.815808    3.431683    0.200833
  H     -3.397491    2.592817    0.239033
  H     -2.522896    1.071663    2.023275
  H     -0.981648    1.944980    2.002643
  H     -2.456074    2.768594    2.527174
  H     -4.290463   -1.634310   -1.190773
  H     -4.023086   -1.899190    0.553101
  H     -5.943134   -0.381728    1.067701
  H     -6.214013   -0.134471   -0.662115
  H     -6.460561   -1.736102    0.050104

 Total Charge           Charge          ....    0
 Multiplicity           Mult            ....    1
 Number of Electrons    NEL             ....  202
 Basis Dimension        Dim             ....  334

ORBITAL ENERGIES
----------------

  NO   OCC          E(Eh)            E(eV)
   0   2.0000     -88.039839     -2395.6858
   1   2.0000     -88.034120     -2395.5302
   2   2.0000     -87.984002     -2394.1664
   3   2.0000     -87.981447     -2394.0969
   4   2.0000     -76.424212     -2079.6085
   5   2.0000     -76.423673     -2079.5939
   6   2.0000     -18.794471      -511.4235
   7   2.0000     -18.794188      -511.4159
   8   2.0000     -18.788602      -511.2639
   9   2.0000     -18.786563      -511.2084
  10   2.0000      -9.953572      -270.8505
  11   2.0000      -9.953435      -270.8467
  12   2.0000      -9.951839      -270.8033
  13   2.0000      -9.950895      -270.7776
  14   2.0000      -9.949422      -270.7375
  15   2.0000      -9.889906      -269.1180
  16   2.0000      -9.884639      -268.9747
  17   2.0000      -9.882335      -268.9120
  18   2.0000      -9.878768      -268.8149
  19   2.0000      -7.684316      -209.1009
  20   2.0000      -7.679285      -208.9640
  21   2.0000      -7.628929      -207.5937
  22   2.0000      -7.626687      -207.5327
  23   2.0000      -6.421798      -174.7460
  24   2.0000      -6.421146      -174.7283
  25   2.0000      -5.712188      -155.4365
  26   2.0000      -5.708796      -155.3442
  27   2.0000      -5.707500      -155.3090
  28   2.0000      -5.703828      -155.2090
  29   2.0000      -5.701438      -155.1440
  30   2.0000      -5.695877      -154.9927
  31   2.0000      -5.657567      -153.9502
  32   2.0000      -5.655735      -153.9004
  33   2.0000      -5.649744      -153.7374
  34   2.0000      -5.649156      -153.7213
  35   2.0000      -5.647018      -153.6632
  36   2.0000      -5.646962      -153.6617
  37   2.0000      -4.644481      -126.3827
  38   2.0000      -4.644154      -126.3738
  39   2.0000      -4.643619      -126.3593
  40   2.0000      -4.642701      -126.3343
  41   2.0000      -4.642093      -126.3178
  42   2.0000      -4.641412      -126.2992
  43   2.0000      -0.987091       -26.8601
  44   2.0000      -0.986791       -26.8520
  45   2.0000      -0.946781       -25.7632
  46   2.0000      -0.941942       -25.6315
  47   2.0000      -0.758423       -20.6377
  48   2.0000      -0.718703       -19.5569
  49   2.0000      -0.707595       -19.2546
  50   2.0000      -0.690821       -18.7982
  51   2.0000      -0.686297       -18.6751
  52   2.0000      -0.670118       -18.2348
  53   2.0000      -0.649951       -17.6861
  54   2.0000      -0.633846       -17.2478
  55   2.0000      -0.598288       -16.2802
  56   2.0000      -0.589889       -16.0517
  57   2.0000      -0.572375       -15.5751
  58   2.0000      -0.571206       -15.5433
  59   2.0000      -0.558807       -15.2059
  60   2.0000      -0.505506       -13.7555
  61   2.0000      -0.492979       -13.4146
  62   2.0000      -0.473479       -12.8840
  63   2.0000      -0.469816       -12.7843
  64   2.0000      -0.458777       -12.4840
  65   2.0000      -0.443598       -12.0709
  66   2.0000      -0.440920       -11.9980
  67   2.0000      -0.436482       -11.8773
  68   2.0000      -0.426030       -11.5929
  69   2.0000      -0.412737       -11.2311
  70   2.0000      -0.407157       -11.0793
  71   2.0000      -0.396172       -10.7804
  72   2.0000      -0.393555       -10.7092
  73   2.0000      -0.388653       -10.5758
  74   2.0000      -0.375026       -10.2050
  75   2.0000      -0.370510       -10.0821
  76   2.0000      -0.369105       -10.0439
  77   2.0000      -0.357061        -9.7161
  78   2.0000      -0.354339        -9.6420
  79   2.0000      -0.351011        -9.5515
  80   2.0000      -0.347782        -9.4636
  81   2.0000      -0.344016        -9.3612
  82   2.0000      -0.341481        -9.2922
  83   2.0000      -0.336226        -9.1492
  84   2.0000      -0.330039        -8.9808
  85   2.0000      -0.322189        -8.7672
  86   2.0000      -0.305291        -8.3074
  87   2.0000      -0.301810        -8.2127
  88   2.0000      -0.293907        -7.9976
  89   2.0000      -0.289389        -7.8747
  90   2.0000      -0.283924        -7.7260
  91   2.0000      -0.274184        -7.4609
  92   2.0000      -0.272609        -7.4181
  93   2.0000      -0.259539        -7.0624
  94   2.0000      -0.255892        -6.9632
  95   2.0000      -0.236458        -6.4343
  96   2.0000      -0.216123        -5.8810
  97   2.0000      -0.202920        -5.5217
  98   2.0000      -0.201330        -5.4785
  99   2.0000      -0.195785        -5.3276
 100   2.0000      -0.189975        -5.1695
 101   0.0000      -0.045188        -1.2296
 102   0.0000      -0.021792        -0.5930
 103   0.0000      -0.015649        -0.4258
 104   0.0000       0.003746         0.1019
 105   0.0000       0.017583         0.4785

MULLIKEN ATOMIC CHARGES
-----------------------
   0 C :   -0.327253
   1 C :   -0.006276
   2 O :   -0.368172
   3 P :    0.617117
   4 S :   -0.328122
   5 O :   -0.375323
   6 C :   -0.005393
   7 C :   -0.304353
   8 S :   -0.079488
   9 C :   -0.324081
  10 S :   -0.123409
  11 P :    0.623427
  12 S :   -0.313972
  13 O :   -0.355112
  14 C :    0.019484
  15 C :   -0.349280
  16 O :   -0.389094
  17 C :   -0.006149
  18 C :   -0.280675
  19 H :    0.123169
  20 H :    0.137296
  21 H :    0.115564
  22 H :    0.109333
  23 H :    0.104661
  24 H :    0.113878
  25 H :    0.102996
  26 H :    0.111834
  27 H :    0.117929
  28 H :    0.123657
  29 H :    0.183298
  30 H :    0.184585
  31 H :    0.111719
  32 H :    0.105564
  33 H :    0.116427
  34 H :    0.153047
  35 H :    0.109123
  36 H :    0.104893
  37 H :    0.098998
  38 H :    0.114504
  39 H :    0.121011
  40 H :    0.112640
Sum of atomic charges:   -0.0000000

LOEWDIN ATOMIC CHARGES
----------------------
   0 C :   -0.369914
   1 C :   -0.122900
   2 O :   -0.243768
   3 P :    0.571355
   4 S :   -0.313027
   5 O :   -0.240953
   6 C :   -0.117391
   7 C :   -0.364352
   8 S :    0.089131
   9 C :   -0.478828
  10 S :    0.066118
  11 P :    0.575900
  12 S :   -0.306679
  13 O :   -0.229289
  14 C :   -0.103439
  15 C :   -0.377781
  16 O :   -0.249487
  17 C :   -0.122077
  18 C :   -0.350320
  19 H :    0.126739
  20 H :    0.124203
  21 H :    0.132552
  22 H :    0.107997
  23 H :    0.118527
  24 H :    0.111220
  25 H :    0.117475
  26 H :    0.130498
  27 H :    0.127282
  28 H :    0.123491
  29 H :    0.133283
  30 H :    0.127814
  31 H :    0.124932
  32 H :    0.112770
  33 H :    0.113968
  34 H :    0.122719
  35 H :    0.130650
  36 H :    0.108413
  37 H :    0.107220
  38 H :    0.125528
  39 H :    0.129085
  40 H :    0.131334

  Mayer bond orders larger than 0.100000
B(  0-C ,  1-C ) :   1.1630 B(  0-C , 19-H ) :   0.9443 B(  0-C , 20-H ) :   0.9319
B(  0-C , 21-H ) :   0.9387 B(  1-C ,  2-O ) :   0.9137 B(  1-C , 22-H ) :   0.9123
B(  1-C , 23-H ) :   0.9323 B(  2-O ,  3-P ) :   1.0988 B(  3-P ,  4-S ) :   1.6025
B(  3-P ,  5-O ) :   1.1127 B(  3-P ,  8-S ) :   0.9714 B(  4-S ,  8-S ) :   0.1029
B(  5-O ,  6-C ) :   0.8994 B(  6-C ,  7-C ) :   1.1656 B(  6-C , 24-H ) :   0.9154
B(  6-C , 25-H ) :   0.9344 B(  7-C , 26-H ) :   0.9389 B(  7-C , 27-H ) :   0.9458
B(  7-C , 28-H ) :   0.9354 B(  8-S ,  9-C ) :   0.9995 B(  9-C , 10-S ) :   1.0131
B(  9-C , 29-H ) :   0.9001 B(  9-C , 30-H ) :   0.8787 B( 10-S , 11-P ) :   0.9269
B( 10-S , 12-S ) :   0.1157 B( 11-P , 12-S ) :   1.6477 B( 11-P , 13-O ) :   1.1632
B( 11-P , 16-O ) :   1.0658 B( 13-O , 14-C ) :   0.8896 B( 14-C , 15-C ) :   1.1704
B( 14-C , 31-H ) :   0.9318 B( 14-C , 32-H ) :   0.9312 B( 15-C , 33-H ) :   0.9356
B( 15-C , 34-H ) :   0.9218 B( 15-C , 35-H ) :   0.9349 B( 16-O , 17-C ) :   0.9018
B( 17-C , 18-C ) :   1.1603 B( 17-C , 36-H ) :   0.9084 B( 17-C , 37-H ) :   0.9257
B( 18-C , 38-H ) :   0.9517 B( 18-C , 39-H ) :   0.9507 B( 18-C , 40-H ) :   0.9419

Dispersion correction           -0.065507970
FINAL SINGLE POINT ENERGY     -2929.518678639369

DIPOLE MOMENT
-------------

Method             : SCF
Type of density    : Electron Density
Multiplicity       :   1
Irrep              :   0
Energy             : -2929.6378441886158726 Eh
Relativity type    :
Basis              : AO
                                X                 Y                 Z
Electronic contribution:      1.688229030      -4.247136293     -11.622670818
Nuclear contribution   :     -1.795939986       3.927271039      12.927302016
                        -----------------------------------------
Total Dipole Moment    :     -0.107710956      -0.319865255       1.304631197
                        -----------------------------------------
Magnitude (a.u.)       :      1.347582277
Magnitude (Debye)      :      3.425281936

Rotational constants in cm-1:             0.013021             0.004856             0.004582
Rotational constants in MHz :           390.353338           145.587215           137.368589

                             ****ORCA TERMINATED NORMALLY****
TOTAL RUN TIME: 0 days 0 hours 0 minutes 20 seconds 902 msec
