                         Program Version 6.0.0  -   RELEASE  -
|  1> ! pbe def2-sv(p) def2/J RI DEFGRID1 loosescf d4 GCP(DFT/SV(P)) printgap
|  2> %output
|  3>     printlevel normal
|  4> end
|  5> * xyz 0 1
|  6> C 1.4702939145 2.8884809175 1.5044908512
|  7> C 2.2291516429 1.5811529532 1.5973714044
|  8> O 1.4915682405 0.6012528642 0.8346791664
|  9> P 1.8894351103 -0.9286261524 0.8402767534
| 10> S 2.1827152453 -1.7447081306 2.5967316289
| 11> O 3.1794537241 -0.9188956031 -0.1052943561
| 12> C 4.1169809179 -2.0074872627 -0.1128862544
| 13> C 3.5356067902 -3.247768389 -0.7613644705
| 14> S 0.3014219304 -1.69246412 -0.3169261688
| 15> C 0.5033669227 -0.7114039837 -1.8310704981
| 16> S -0.0020050406 1.0312891109 -1.6858290232
| 17> P -1.8727749359 0.7236128299 -0.7919943825
| 18> S -2.9457341191 -0.7959711425 -1.4282932649
| 19> O -2.590571313 2.1341456079 -0.9498556314
| 20> C -3.2455398126 2.5268966198 -2.1737914139
| 21> C -4.2614696211 3.6001557221 -1.8383014048
| 22> O -1.5108684328 0.7468755355 0.7491997187
| 23> C -2.3944304496 0.2158064004 1.7603195688
| 24> C -1.5624921474 -0.1719041047 2.9651115927
| 25> H 0.4570922417 2.7563984711 1.8748925759
| 26> H 1.97778712 3.641849163 2.0979660309
| 27> H 1.4188689325 3.2137064051 0.4688981093
| 28> H 2.3077657301 1.2252173358 2.630067925
| 29> H 3.2314979306 1.6675186085 1.1705885996
| 30> H 4.9708221934 -1.6197990828 -0.6701118125
| 31> H 4.4092734856 -2.218343598 0.9206726257
| 32> H 4.2912171135 -4.0262651289 -0.7884936995
| 33> H 2.6844636013 -3.6035495841 -0.1807482264
| 34> H 3.205075053 -3.0341693782 -1.7745650891
| 35> H -0.1235653069 -1.2050265917 -2.5719880773
| 36> H 1.5476258502 -0.7012555567 -2.1335706492
| 37> H -2.4816246858 2.9002920224 -2.8603601901
| 38> H -3.7236923837 1.6440421858 -2.6113712364
| 39> H -3.7671459067 4.4418169121 -1.361899935
| 40> H -4.7409957908 3.9338454777 -2.7526049981
| 41> H -5.0148532373 3.2050967939 -1.1625351802
| 42> H -3.1200657886 0.9930835076 2.0115854522
| 43> H -2.9223855367 -0.6496167546 1.3443163015
| 44> H -2.2141650282 -0.5678222706 3.737090945
| 45> H -0.832793272 -0.9335964634 2.6960807652
| 46> H -1.0322198082 0.6940987119 3.3515542271
| 47> *
| 48>
| 49>                          ****END OF INPUT****

CARTESIAN COORDINATES (ANGSTROEM)
---------------------------------
  C      1.470294    2.888481    1.504491
  C      2.229152    1.581153    1.597371
  O      1.491568    0.601253    0.834679
  P      1.889435   -0.928626    0.840277
  S      2.182715   -1.744708    2.596732
  O      3.179454   -0.918896   -0.105294
  C      4.116981   -2.007487   -0.112886
  C      3.535607   -3.247768   -0.761364
  S      0.301422   -1.692464   -0.316926
  C      0.503367   -0.711404   -1.831070
  S     -0.002005    1.031289   -1.685829
  P     -1.872775    0.723613   -0.791994
  S     -2.945734   -0.795971   -1.428293
  O     -2.590571    2.134146   -0.949856
  C     -3.245540    2.526897   -2.173791
  C     -4.261470    3.600156   -1.838301
  O     -1.510868    0.746876    0.749200
  C     -2.394430    0.215806    1.760320
  C     -1.562492   -0.171904    2.965112
  H      0.457092    2.756398    1.874893
  H      1.977787    3.641849    2.097966
  H      1.418869    3.213706    0.468898
  H      2.307766    1.225217    2.630068
  H      3.231498    1.667519    1.170589
  H      4.970822   -1.619799   -0.670112
  H      4.409273   -2.218344    0.920673
  H      4.291217   -4.026265   -0.788494
  H      2.684464   -3.603550   -0.180748
  H      3.205075   -3.034169   -1.774565
  H     -0.123565   -1.205027   -2.571988
  H      1.547626   -0.701256   -2.133571
  H     -2.481625    2.900292   -2.860360
  H     -3.723692    1.644042   -2.611371
  H     -3.767146    4.441817   -1.361900
  H     -4.740996    3.933845   -2.752605
  H     -5.014853    3.205097   -1.162535
  H     -3.120066    0.993084    2.011585
  H     -2.922386   -0.649617    1.344316
  H     -2.214165   -0.567822    3.737091
  H     -0.832793   -0.933596    2.696081
  H     -1.032220    0.694099    3.351554

 Total Charge           Charge          ....    0
 Multiplicity           Mult            ....    1
 Number of Electrons    NEL             ....  202
 Basis Dimension        Dim             ....  334

ORBITAL ENERGIES
----------------

  NO   OCC          E(Eh)            E(eV)
   0   2.0000     -88.046102     -2395.8562
   1   2.0000     -88.041680     -2395.7359
   2   2.0000     -87.988941     -2394.3008
   3   2.0000     -87.984587     -2394.1823
   4   2.0000     -76.425575     -2079.6456
   5   2.0000     -76.424651     -2079.6205
   6   2.0000     -18.795861      -511.4614
   7   2.0000     -18.791925      -511.3543
   8   2.0000     -18.786951      -511.2189
   9   2.0000     -18.785501      -511.1795
  10   2.0000      -9.961663      -271.0706
  11   2.0000      -9.953830      -270.8575
  12   2.0000      -9.951489      -270.7938
  13   2.0000      -9.950706      -270.7725
  14   2.0000      -9.944231      -270.5963
  15   2.0000      -9.887953      -269.0649
  16   2.0000      -9.886813      -269.0339
  17   2.0000      -9.882678      -268.9213
  18   2.0000      -9.874752      -268.7057
  19   2.0000      -7.690736      -209.2756
  20   2.0000      -7.687273      -209.1813
  21   2.0000      -7.634016      -207.7321
  22   2.0000      -7.629619      -207.6125
  23   2.0000      -6.423408      -174.7898
  24   2.0000      -6.422146      -174.7555
  25   2.0000      -5.719041      -155.6230
  26   2.0000      -5.715268      -155.5204
  27   2.0000      -5.715040      -155.5142
  28   2.0000      -5.711813      -155.4263
  29   2.0000      -5.707508      -155.3092
  30   2.0000      -5.703953      -155.2124
  31   2.0000      -5.662851      -154.0940
  32   2.0000      -5.658400      -153.9729
  33   2.0000      -5.654638      -153.8705
  34   2.0000      -5.654268      -153.8605
  35   2.0000      -5.650227      -153.7505
  36   2.0000      -5.649955      -153.7431
  37   2.0000      -4.645870      -126.4206
  38   2.0000      -4.645321      -126.4056
  39   2.0000      -4.644543      -126.3844
  40   2.0000      -4.643962      -126.3686
  41   2.0000      -4.643810      -126.3645
  42   2.0000      -4.642715      -126.3347
  43   2.0000      -0.987290       -26.8655
  44   2.0000      -0.983327       -26.7577
  45   2.0000      -0.945176       -25.7195
  46   2.0000      -0.941338       -25.6151
  47   2.0000      -0.766484       -20.8571
  48   2.0000      -0.723338       -19.6830
  49   2.0000      -0.709153       -19.2970
  50   2.0000      -0.688006       -18.7216
  51   2.0000      -0.684535       -18.6272
  52   2.0000      -0.673252       -18.3201
  53   2.0000      -0.650982       -17.7141
  54   2.0000      -0.637291       -17.3416
  55   2.0000      -0.597099       -16.2479
  56   2.0000      -0.588417       -16.0116
  57   2.0000      -0.574653       -15.6371
  58   2.0000      -0.564737       -15.3673
  59   2.0000      -0.555139       -15.1061
  60   2.0000      -0.506546       -13.7838
  61   2.0000      -0.504482       -13.7277
  62   2.0000      -0.477997       -13.0070
  63   2.0000      -0.475159       -12.9297
  64   2.0000      -0.458554       -12.4779
  65   2.0000      -0.445300       -12.1172
  66   2.0000      -0.439331       -11.9548
  67   2.0000      -0.429348       -11.6831
  68   2.0000      -0.428707       -11.6657
  69   2.0000      -0.416385       -11.3304
  70   2.0000      -0.408972       -11.1287
  71   2.0000      -0.397332       -10.8119
  72   2.0000      -0.391816       -10.6619
  73   2.0000      -0.389393       -10.5959
  74   2.0000      -0.376850       -10.2546
  75   2.0000      -0.374992       -10.2040
  76   2.0000      -0.363276        -9.8852
  77   2.0000      -0.356170        -9.6919
  78   2.0000      -0.354418        -9.6442
  79   2.0000      -0.351752        -9.5717
  80   2.0000      -0.344765        -9.3815
  81   2.0000      -0.343240        -9.3400
  82   2.0000      -0.336266        -9.1503
  83   2.0000      -0.332704        -9.0533
  84   2.0000      -0.328819        -8.9476
  85   2.0000      -0.322946        -8.7878
  86   2.0000      -0.312498        -8.5035
  87   2.0000      -0.300597        -8.1797
  88   2.0000      -0.297836        -8.1045
  89   2.0000      -0.294199        -8.0056
  90   2.0000      -0.282948        -7.6994
  91   2.0000      -0.272031        -7.4023
  92   2.0000      -0.266565        -7.2536
  93   2.0000      -0.265128        -7.2145
  94   2.0000      -0.261501        -7.1158
  95   2.0000      -0.231085        -6.2881
  96   2.0000      -0.219477        -5.9723
  97   2.0000      -0.210391        -5.7250
  98   2.0000      -0.206752        -5.6260
  99   2.0000      -0.200001        -5.4423
 100   2.0000      -0.198372        -5.3980
 101   0.0000      -0.044447        -1.2095
 102   0.0000      -0.024381        -0.6634
 103   0.0000      -0.008177        -0.2225
 104   0.0000       0.000987         0.0269
 105   0.0000       0.007822         0.2128

MULLIKEN ATOMIC CHARGES
-----------------------
   0 C :   -0.283672
   1 C :   -0.006929
   2 O :   -0.361394
   3 P :    0.614002
   4 S :   -0.321664
   5 O :   -0.387898
   6 C :   -0.008260
   7 C :   -0.314052
   8 S :   -0.056662
   9 C :   -0.350564
  10 S :   -0.080343
  11 P :    0.617477
  12 S :   -0.340301
  13 O :   -0.379368
  14 C :   -0.009668
  15 C :   -0.280728
  16 O :   -0.358169
  17 C :   -0.010133
  18 C :   -0.290783
  19 H :    0.126673
  20 H :    0.106291
  21 H :    0.116226
  22 H :    0.105383
  23 H :    0.098256
  24 H :    0.103638
  25 H :    0.113164
  26 H :    0.114556
  27 H :    0.129930
  28 H :    0.112896
  29 H :    0.194678
  30 H :    0.182061
  31 H :    0.099524
  32 H :    0.105808
  33 H :    0.115966
  34 H :    0.111823
  35 H :    0.118236
  36 H :    0.097584
  37 H :    0.110267
  38 H :    0.106153
  39 H :    0.127116
  40 H :    0.112881
Sum of atomic charges:   -0.0000000

LOEWDIN ATOMIC CHARGES
----------------------
   0 C :   -0.351685
   1 C :   -0.113958
   2 O :   -0.237911
   3 P :    0.563710
   4 S :   -0.317268
   5 O :   -0.253355
   6 C :   -0.123122
   7 C :   -0.366660
   8 S :    0.115509
   9 C :   -0.473695
  10 S :    0.089086
  11 P :    0.565085
  12 S :   -0.330629
  13 O :   -0.252225
  14 C :   -0.120995
  15 C :   -0.350547
  16 O :   -0.236014
  17 C :   -0.117314
  18 C :   -0.354955
  19 H :    0.128214
  20 H :    0.127521
  21 H :    0.124910
  22 H :    0.109328
  23 H :    0.109817
  24 H :    0.117342
  25 H :    0.110188
  26 H :    0.131895
  27 H :    0.123009
  28 H :    0.122155
  29 H :    0.137478
  30 H :    0.131580
  31 H :    0.109525
  32 H :    0.107356
  33 H :    0.126484
  34 H :    0.130686
  35 H :    0.128012
  36 H :    0.110178
  37 H :    0.108469
  38 H :    0.128976
  39 H :    0.121084
  40 H :    0.122735

  Mayer bond orders larger than 0.100000
B(  0-C ,  1-C ) :   1.1610 B(  0-C , 19-H ) :   0.9459 B(  0-C , 20-H ) :   0.9406
B(  0-C , 21-H ) :   0.9486 B(  1-C ,  2-O ) :   0.8996 B(  1-C , 22-H ) :   0.9184
B(  1-C , 23-H ) :   0.9284 B(  2-O ,  3-P ) :   1.1296 B(  3-P ,  4-S ) :   1.6324
B(  3-P ,  5-O ) :   1.0606 B(  3-P ,  8-S ) :   0.9678 B(  5-O ,  6-C ) :   0.9114
B(  6-C ,  7-C ) :   1.1619 B(  6-C , 24-H ) :   0.9337 B(  6-C , 25-H ) :   0.9126
B(  7-C , 26-H ) :   0.9388 B(  7-C , 27-H ) :   0.9345 B(  7-C , 28-H ) :   0.9470
B(  8-S ,  9-C ) :   0.9968 B(  9-C , 10-S ) :   0.9925 B(  9-C , 29-H ) :   0.8956
B(  9-C , 30-H ) :   0.8958 B( 10-S , 11-P ) :   0.9849 B( 10-S , 12-S ) :   0.1110
B( 11-P , 12-S ) :   1.6041 B( 11-P , 13-O ) :   1.1098 B( 11-P , 16-O ) :   1.1330
B( 13-O , 14-C ) :   0.9064 B( 14-C , 15-C ) :   1.1611 B( 14-C , 31-H ) :   0.9305
B( 14-C , 32-H ) :   0.9067 B( 15-C , 33-H ) :   0.9508 B( 15-C , 34-H ) :   0.9421
B( 15-C , 35-H ) :   0.9511 B( 16-O , 17-C ) :   0.8935 B( 17-C , 18-C ) :   1.1603
B( 17-C , 36-H ) :   0.9320 B( 17-C , 37-H ) :   0.9083 B( 18-C , 38-H ) :   0.9397
B( 18-C , 39-H ) :   0.9333 B( 18-C , 40-H ) :   0.9500

Dispersion correction           -0.065730585
FINAL SINGLE POINT ENERGY     -2929.524008144670

DIPOLE MOMENT
-------------

Method             : SCF
Type of density    : Electron Density
Multiplicity       :   1
Irrep              :   0
Energy             : -2929.6427497968415992 Eh
Relativity type    :
Basis              : AO
                                X                 Y                 Z
Electronic contribution:      0.122940382     -10.260987173      -3.819301826
Nuclear contribution   :      0.502307992      11.344404179       3.211897102
                        -----------------------------------------
Total Dipole Moment    :      0.625248374       1.083417006      -0.607404724
                        -----------------------------------------
Magnitude (a.u.)       :      1.390564072
Magnitude (Debye)      :      3.534532976

Rotational constants in cm-1:             0.012835             0.005081             0.004821
Rotational constants in MHz :           384.768900           152.326622           144.527255

                             ****ORCA TERMINATED NORMALLY****
TOTAL RUN TIME: 0 days 0 hours 0 minutes 21 seconds 456 msec
