                         Program Version 6.0.1  -  RELEASE   -
|  1> ! pbe def2-sv(p) def2/J RI DEFGRID1 loosescf d4 GCP(DFT/SV(P)) printgap
|  2> %output
|  3>     printlevel normal
|  4> end
|  5> * xyz 0 1
|  6> C 3.2487931491 -3.1580350449 0.4912687871
|  7> C 2.8560867799 -1.7539260018 0.9202582119
|  8> O 2.6798048169 -0.8934561795 -0.223225609
|  9> C 1.5414977906 -0.9248954756 -0.8747988967
| 10> O 0.5892728329 -1.6220952564 -0.5724172156
| 11> C 1.5229235128 0.034261664 -2.0440719293
| 12> C 0.3391457995 0.9966524279 -1.9083201651
| 13> H 0.2877489555 1.6416057285 -2.7894209804
| 14> C 0.4468134962 1.8671117957 -0.6684520434
| 15> O -0.4801622488 2.024184971 0.1016263481
| 16> O 1.6304133017 2.4032660554 -0.5492696759
| 17> C 1.927005893 3.1843217694 0.6297149474
| 18> C 2.4911768431 2.2901771695 1.7212623615
| 19> S -1.2760152722 0.141312154 -1.8690439258
| 20> P -1.6209614122 -0.2790756329 0.1763043839
| 21> S -0.5093010465 -0.2849020101 1.8093563264
| 22> O -2.9014675623 0.6707483641 0.2892554802
| 23> C -3.6498823474 0.7892917223 1.5012149017
| 24> O -2.3981096319 -1.6826778695 0.0498002545
| 25> C -1.8359353471 -2.9683559059 0.2991364794
| 26> H 2.4435054937 -3.6159831863 -0.0784316752
| 27> H 4.1451306804 -3.1247804265 -0.1218913935
| 28> H 3.4391285952 -3.7588563954 1.3742072134
| 29> H 3.6492969621 -1.2767008654 1.4951962389
| 30> H 1.9285623373 -1.7608293498 1.500169408
| 31> H 1.3950128393 -0.5420799227 -2.9609923991
| 32> H 2.457877105 0.5925637298 -2.0701148283
| 33> H 2.6611619876 3.9149001655 0.290452522
| 34> H 1.0121913754 3.680530098 0.9633580118
| 35> H 1.7470756839 1.557904852 2.0328765975
| 36> H 3.3695842395 1.7649716297 1.3567815598
| 37> H 2.7628464678 2.8967470237 2.5784264196
| 38> H -2.9748240155 0.9230696964 2.3493275115
| 39> H -4.2587380532 -0.102580425 1.6510596228
| 40> H -4.276536443 1.6681652056 1.3733105431
| 41> H -1.148659333 -2.9168966016 1.1454145665
| 42> H -1.3006906356 -3.3145110802 -0.5829306534
| 43> H -2.6768228454 -3.6192837395 0.5265658538
| 44> *
| 45>
| 46>                          ****END OF INPUT****

CARTESIAN COORDINATES (ANGSTROEM)
---------------------------------
  C      3.248793   -3.158035    0.491269
  C      2.856087   -1.753926    0.920258
  O      2.679805   -0.893456   -0.223226
  C      1.541498   -0.924895   -0.874799
  O      0.589273   -1.622095   -0.572417
  C      1.522924    0.034262   -2.044072
  C      0.339146    0.996652   -1.908320
  H      0.287749    1.641606   -2.789421
  C      0.446813    1.867112   -0.668452
  O     -0.480162    2.024185    0.101626
  O      1.630413    2.403266   -0.549270
  C      1.927006    3.184322    0.629715
  C      2.491177    2.290177    1.721262
  S     -1.276015    0.141312   -1.869044
  P     -1.620961   -0.279076    0.176304
  S     -0.509301   -0.284902    1.809356
  O     -2.901468    0.670748    0.289255
  C     -3.649882    0.789292    1.501215
  O     -2.398110   -1.682678    0.049800
  C     -1.835935   -2.968356    0.299136
  H      2.443505   -3.615983   -0.078432
  H      4.145131   -3.124780   -0.121891
  H      3.439129   -3.758856    1.374207
  H      3.649297   -1.276701    1.495196
  H      1.928562   -1.760829    1.500169
  H      1.395013   -0.542080   -2.960992
  H      2.457877    0.592564   -2.070115
  H      2.661162    3.914900    0.290453
  H      1.012191    3.680530    0.963358
  H      1.747076    1.557905    2.032877
  H      3.369584    1.764972    1.356782
  H      2.762846    2.896747    2.578426
  H     -2.974824    0.923070    2.349328
  H     -4.258738   -0.102580    1.651060
  H     -4.276536    1.668165    1.373311
  H     -1.148659   -2.916897    1.145415
  H     -1.300691   -3.314511   -0.582931
  H     -2.676823   -3.619284    0.526566

 Total Charge           Charge          ....    0
 Multiplicity           Mult            ....    1
 Number of Electrons    NEL             ....  174
 Basis Dimension        Dim             ....  316

ORBITAL ENERGIES
----------------

  NO   OCC          E(Eh)            E(eV)
   0   2.0000     -88.025292     -2395.2900
   1   2.0000     -87.965949     -2393.6752
   2   2.0000     -76.412030     -2079.2770
   3   2.0000     -18.816809      -512.0314
   4   2.0000     -18.810542      -511.8609
   5   2.0000     -18.765455      -510.6340
   6   2.0000     -18.760892      -510.5098
   7   2.0000     -18.751896      -510.2650
   8   2.0000     -18.744581      -510.0660
   9   2.0000     -10.022253      -272.7194
  10   2.0000     -10.017254      -272.5833
  11   2.0000      -9.954127      -270.8656
  12   2.0000      -9.953774      -270.8560
  13   2.0000      -9.946351      -270.6540
  14   2.0000      -9.921918      -269.9891
  15   2.0000      -9.919917      -269.9347
  16   2.0000      -9.916178      -269.8329
  17   2.0000      -9.888359      -269.0759
  18   2.0000      -9.884640      -268.9747
  19   2.0000      -7.670704      -208.7305
  20   2.0000      -7.610719      -207.0982
  21   2.0000      -6.406978      -174.3427
  22   2.0000      -5.699194      -155.0830
  23   2.0000      -5.695670      -154.9871
  24   2.0000      -5.686453      -154.7362
  25   2.0000      -5.639941      -153.4706
  26   2.0000      -5.631436      -153.2392
  27   2.0000      -5.630407      -153.2112
  28   2.0000      -4.629568      -125.9770
  29   2.0000      -4.629242      -125.9681
  30   2.0000      -4.627546      -125.9219
  31   2.0000      -1.026750       -27.9393
  32   2.0000      -1.017274       -27.6814
  33   2.0000      -0.957790       -26.0628
  34   2.0000      -0.930875       -25.3304
  35   2.0000      -0.922539       -25.1036
  36   2.0000      -0.913172       -24.8487
  37   2.0000      -0.765605       -20.8332
  38   2.0000      -0.712575       -19.3901
  39   2.0000      -0.708023       -19.2663
  40   2.0000      -0.682575       -18.5738
  41   2.0000      -0.649062       -17.6619
  42   2.0000      -0.620254       -16.8780
  43   2.0000      -0.611316       -16.6348
  44   2.0000      -0.607444       -16.5294
  45   2.0000      -0.597740       -16.2653
  46   2.0000      -0.566898       -15.4261
  47   2.0000      -0.508402       -13.8343
  48   2.0000      -0.502390       -13.6707
  49   2.0000      -0.494511       -13.4563
  50   2.0000      -0.482921       -13.1409
  51   2.0000      -0.456173       -12.4131
  52   2.0000      -0.454433       -12.3658
  53   2.0000      -0.451845       -12.2953
  54   2.0000      -0.439817       -11.9680
  55   2.0000      -0.428144       -11.6504
  56   2.0000      -0.415934       -11.3181
  57   2.0000      -0.412654       -11.2289
  58   2.0000      -0.407213       -11.0808
  59   2.0000      -0.397949       -10.8287
  60   2.0000      -0.393923       -10.7192
  61   2.0000      -0.387769       -10.5517
  62   2.0000      -0.387252       -10.5377
  63   2.0000      -0.380689       -10.3591
  64   2.0000      -0.377441       -10.2707
  65   2.0000      -0.368670       -10.0320
  66   2.0000      -0.359103        -9.7717
  67   2.0000      -0.358119        -9.7449
  68   2.0000      -0.348933        -9.4950
  69   2.0000      -0.341340        -9.2883
  70   2.0000      -0.335740        -9.1360
  71   2.0000      -0.330375        -8.9900
  72   2.0000      -0.324920        -8.8415
  73   2.0000      -0.304204        -8.2778
  74   2.0000      -0.297804        -8.1037
  75   2.0000      -0.293113        -7.9760
  76   2.0000      -0.282950        -7.6995
  77   2.0000      -0.270993        -7.3741
  78   2.0000      -0.269107        -7.3228
  79   2.0000      -0.264259        -7.1908
  80   2.0000      -0.250352        -6.8124
  81   2.0000      -0.243659        -6.6303
  82   2.0000      -0.239785        -6.5249
  83   2.0000      -0.229822        -6.2538
  84   2.0000      -0.191969        -5.2238
  85   2.0000      -0.182883        -4.9765
  86   2.0000      -0.174851        -4.7579
  87   0.0000      -0.045748        -1.2449
  88   0.0000      -0.043264        -1.1773
  89   0.0000      -0.032851        -0.8939
  90   0.0000       0.008593         0.2338
  91   0.0000       0.035523         0.9666

MULLIKEN ATOMIC CHARGES
-----------------------
   0 C :   -0.306141
   1 C :   -0.033317
   2 O :   -0.219244
   3 C :    0.101639
   4 O :   -0.205814
   5 C :   -0.018198
   6 C :   -0.335725
   7 H :    0.155214
   8 C :    0.209249
   9 O :   -0.171105
  10 O :   -0.224718
  11 C :   -0.010393
  12 C :   -0.325439
  13 S :   -0.054612
  14 P :    0.653698
  15 S :   -0.353646
  16 O :   -0.374694
  17 C :   -0.090680
  18 O :   -0.397890
  19 C :   -0.086961
  20 H :    0.126261
  21 H :    0.110754
  22 H :    0.115253
  23 H :    0.101939
  24 H :    0.136399
  25 H :    0.123768
  26 H :    0.114412
  27 H :    0.104468
  28 H :    0.117640
  29 H :    0.149906
  30 H :    0.114192
  31 H :    0.110958
  32 H :    0.113184
  33 H :    0.104917
  34 H :    0.115952
  35 H :    0.109063
  36 H :    0.111510
  37 H :    0.108199
Sum of atomic charges:   -0.0000000

LOEWDIN ATOMIC CHARGES
----------------------
   0 C :   -0.356553
   1 C :   -0.115388
   2 O :   -0.042768
   3 C :    0.031695
   4 O :   -0.170990
   5 C :   -0.249607
   6 C :   -0.262631
   7 H :    0.152915
   8 C :    0.011295
   9 O :   -0.143801
  10 O :   -0.042322
  11 C :   -0.104529
  12 C :   -0.362841
  13 S :    0.127367
  14 P :    0.604064
  15 S :   -0.319181
  16 O :   -0.254135
  17 C :   -0.214086
  18 O :   -0.264195
  19 C :   -0.215280
  20 H :    0.129337
  21 H :    0.123077
  22 H :    0.132282
  23 H :    0.117184
  24 H :    0.121381
  25 H :    0.146696
  26 H :    0.138056
  27 H :    0.118581
  28 H :    0.124389
  29 H :    0.128867
  30 H :    0.123039
  31 H :    0.130580
  32 H :    0.106951
  33 H :    0.108113
  34 H :    0.117704
  35 H :    0.103059
  36 H :    0.109437
  37 H :    0.112235

  Mayer bond orders larger than 0.100000
B(  0-C ,  1-C ) :   1.1686 B(  0-C , 20-H ) :   0.9456 B(  0-C , 21-H ) :   0.9477
B(  0-C , 22-H ) :   0.9443 B(  1-C ,  2-O ) :   0.9033 B(  1-C , 23-H ) :   0.9360
B(  1-C , 24-H ) :   0.9035 B(  2-O ,  3-C ) :   1.2601 B(  3-C ,  4-O ) :   1.9301
B(  3-C ,  5-C ) :   1.0076 B(  5-C ,  6-C ) :   1.0120 B(  5-C , 25-H ) :   0.8878
B(  5-C , 26-H ) :   0.8847 B(  6-C ,  7-H ) :   0.8720 B(  6-C ,  8-C ) :   0.8895
B(  6-C , 13-S ) :   1.0592 B(  8-C ,  9-O ) :   1.9964 B(  8-C , 10-O ) :   1.2614
B( 10-O , 11-C ) :   0.8965 B( 11-C , 12-C ) :   1.1796 B( 11-C , 27-H ) :   0.9368
B( 11-C , 28-H ) :   0.9124 B( 12-C , 29-H ) :   0.9246 B( 12-C , 30-H ) :   0.9448
B( 12-C , 31-H ) :   0.9398 B( 13-S , 14-P ) :   0.9243 B( 13-S , 15-S ) :   0.1211
B( 14-P , 15-S ) :   1.4969 B( 14-P , 16-O ) :   1.1012 B( 14-P , 18-O ) :   1.0774
B( 16-O , 17-C ) :   0.9415 B( 17-C , 32-H ) :   0.9320 B( 17-C , 33-H ) :   0.9513
B( 17-C , 34-H ) :   0.9600 B( 18-O , 19-C ) :   0.9405 B( 19-C , 35-H ) :   0.9320
B( 19-C , 36-H ) :   0.9504 B( 19-C , 37-H ) :   0.9564

Dispersion correction           -0.056476508
FINAL SINGLE POINT ENERGY     -1978.996799327676

DIPOLE MOMENT
-------------

Method             : SCF
Type of density    : Electron Density
Multiplicity       :   1
Irrep              :   0
Energy             : -1979.1252099444868691 Eh
Relativity type    :
Basis              : AO
                                X                 Y                 Z
Electronic contribution:    -13.758766790       4.951103877      -9.445557771
Nuclear contribution   :     15.243252383      -4.791819668       9.243821443
                        -----------------------------------------
Total Dipole Moment    :      1.484485593       0.159284209      -0.201736328
                        -----------------------------------------
Magnitude (a.u.)       :      1.506574419
Magnitude (Debye)      :      3.829407845

Rotational constants in cm-1:             0.012163             0.009569             0.007652
Rotational constants in MHz :           364.645394           286.857449           229.402416

                             ****ORCA TERMINATED NORMALLY****
TOTAL RUN TIME: 0 days 0 hours 1 minutes 35 seconds 437 msec
