                         Program Version 6.0.0  -   RELEASE  -
|  1> ! r2scan-3c def2/J RI DEFGRID2 scfconv6 printgap
|  2> %output
|  3>     printlevel normal
|  4> end
|  5> * xyz 0 1
|  6> C 4.5669670301 -1.7155236265 -0.7119546046
|  7> C 4.6533896423 -0.2790365829 -0.2378743422
|  8> O 3.4923727361 0.1198536648 0.5104536687
|  9> P 2.0587722365 0.2937876142 -0.1578241073
| 10> S 2.0955525359 1.0439644905 -1.9725254005
| 11> O 1.3004121678 1.1127597932 0.9662544339
| 12> C 1.3061401609 2.5515561089 1.0189496381
| 13> C 2.6846849906 3.1089140206 1.3013369775
| 14> S 1.1896150143 -1.6035258117 0.1000109253
| 15> C 0.0193221412 -1.6340126724 -1.3027208357
| 16> S -1.6940814117 -1.8647403218 -0.784416341
| 17> P -1.9948963666 0.0425413227 0.1024680077
| 18> S -1.3883289458 1.5666199675 -0.9645652495
| 19> O -1.3031026583 -0.0108635184 1.5154797658
| 20> C -1.5266841054 -1.0542378574 2.4981923452
| 21> C -2.614260379 -0.6567505971 3.4738360622
| 22> O -3.5403491729 0.0543368675 0.4696703245
| 23> C -4.5695565856 0.3424619764 -0.4953968481
| 24> C -5.0558403829 -0.916702167 -1.1851780338
| 25> H 3.7853719284 -1.8118976725 -1.4642511288
| 26> H 5.515889427 -2.004221951 -1.152369918
| 27> H 4.3373713897 -2.3757918534 0.1204939891
| 28> H 4.7632580159 0.3989989775 -1.0904485011
| 29> H 5.4770884561 -0.1341650322 0.462428965
| 30> H 0.9146006357 2.93351659 0.0697341505
| 31> H 0.5987104196 2.7817099347 1.8174150996
| 32> H 2.6122078384 4.1821473384 1.4474470867
| 33> H 3.1006991994 2.6460843287 2.1924990905
| 34> H 3.3447896466 2.9108353038 0.4576336754
| 35> H 0.2613851196 -2.4919451459 -1.9244886442
| 36> H 0.1176817705 -0.6999055851 -1.8629508112
| 37> H -1.7797729769 -1.9827040129 1.9784293568
| 38> H -0.5600191415 -1.1638404276 2.9941805998
| 39> H -3.5640498881 -0.550173118 2.9570531892
| 40> H -2.7033056745 -1.4263481653 4.2343505204
| 41> H -2.3644980015 0.2887475001 3.947564093
| 42> H -5.3654789539 0.8051290005 0.091020076
| 43> H -4.1805201201 1.0686329903 -1.2167524458
| 44> H -4.266439473 -1.3508091907 -1.7942111893
| 45> H -5.3699372828 -1.6491696946 -0.447024608
| 46> H -5.8976605318 -0.6664831573 -1.8228513262
| 47> *
| 48>
| 49>                          ****END OF INPUT****

CARTESIAN COORDINATES (ANGSTROEM)
---------------------------------
  C      4.566967   -1.715524   -0.711955
  C      4.653390   -0.279037   -0.237874
  O      3.492373    0.119854    0.510454
  P      2.058772    0.293788   -0.157824
  S      2.095553    1.043964   -1.972525
  O      1.300412    1.112760    0.966254
  C      1.306140    2.551556    1.018950
  C      2.684685    3.108914    1.301337
  S      1.189615   -1.603526    0.100011
  C      0.019322   -1.634013   -1.302721
  S     -1.694081   -1.864740   -0.784416
  P     -1.994896    0.042541    0.102468
  S     -1.388329    1.566620   -0.964565
  O     -1.303103   -0.010864    1.515480
  C     -1.526684   -1.054238    2.498192
  C     -2.614260   -0.656751    3.473836
  O     -3.540349    0.054337    0.469670
  C     -4.569557    0.342462   -0.495397
  C     -5.055840   -0.916702   -1.185178
  H      3.785372   -1.811898   -1.464251
  H      5.515889   -2.004222   -1.152370
  H      4.337371   -2.375792    0.120494
  H      4.763258    0.398999   -1.090449
  H      5.477088   -0.134165    0.462429
  H      0.914601    2.933517    0.069734
  H      0.598710    2.781710    1.817415
  H      2.612208    4.182147    1.447447
  H      3.100699    2.646084    2.192499
  H      3.344790    2.910835    0.457634
  H      0.261385   -2.491945   -1.924489
  H      0.117682   -0.699906   -1.862951
  H     -1.779773   -1.982704    1.978429
  H     -0.560019   -1.163840    2.994181
  H     -3.564050   -0.550173    2.957053
  H     -2.703306   -1.426348    4.234351
  H     -2.364498    0.288748    3.947564
  H     -5.365479    0.805129    0.091020
  H     -4.180520    1.068633   -1.216752
  H     -4.266439   -1.350809   -1.794211
  H     -5.369937   -1.649170   -0.447025
  H     -5.897661   -0.666483   -1.822851

 Total Charge           Charge          ....    0
 Multiplicity           Mult            ....    1
 Number of Electrons    NEL             ....  202
 Basis Dimension        Dim             ....  539

ORBITAL ENERGIES
----------------

  NO   OCC          E(Eh)            E(eV)
   0   2.0000     -88.576261     -2410.2826
   1   2.0000     -88.571729     -2410.1593
   2   2.0000     -88.514347     -2408.5978
   3   2.0000     -88.512904     -2408.5586
   4   2.0000     -76.911417     -2092.8661
   5   2.0000     -76.907508     -2092.7597
   6   2.0000     -18.993788      -516.8472
   7   2.0000     -18.988065      -516.6915
   8   2.0000     -18.985951      -516.6340
   9   2.0000     -18.977687      -516.4091
  10   2.0000     -10.105574      -274.9866
  11   2.0000     -10.099290      -274.8156
  12   2.0000     -10.098315      -274.7891
  13   2.0000     -10.093815      -274.6667
  14   2.0000     -10.083914      -274.3973
  15   2.0000     -10.031273      -272.9648
  16   2.0000     -10.029623      -272.9199
  17   2.0000     -10.024986      -272.7937
  18   2.0000     -10.019786      -272.6522
  19   2.0000      -7.870854      -214.1768
  20   2.0000      -7.866447      -214.0569
  21   2.0000      -7.809023      -212.4943
  22   2.0000      -7.807740      -212.4594
  23   2.0000      -6.589818      -179.3181
  24   2.0000      -6.585959      -179.2131
  25   2.0000      -5.817669      -158.3068
  26   2.0000      -5.814466      -158.2197
  27   2.0000      -5.813277      -158.1873
  28   2.0000      -5.810381      -158.1085
  29   2.0000      -5.808208      -158.0494
  30   2.0000      -5.803445      -157.9198
  31   2.0000      -5.756651      -156.6464
  32   2.0000      -5.755528      -156.6159
  33   2.0000      -5.749542      -156.4530
  34   2.0000      -5.748827      -156.4335
  35   2.0000      -5.747852      -156.4070
  36   2.0000      -5.747761      -156.4045
  37   2.0000      -4.735655      -128.8637
  38   2.0000      -4.734890      -128.8429
  39   2.0000      -4.733104      -128.7943
  40   2.0000      -4.731243      -128.7437
  41   2.0000      -4.730754      -128.7304
  42   2.0000      -4.730026      -128.7105
  43   2.0000      -1.049866       -28.5683
  44   2.0000      -1.041717       -28.3466
  45   2.0000      -1.009479       -27.4693
  46   2.0000      -1.001396       -27.2494
  47   2.0000      -0.798833       -21.7373
  48   2.0000      -0.756107       -20.5747
  49   2.0000      -0.745459       -20.2850
  50   2.0000      -0.734798       -19.9949
  51   2.0000      -0.724916       -19.7260
  52   2.0000      -0.709199       -19.2983
  53   2.0000      -0.683152       -18.5895
  54   2.0000      -0.662040       -18.0150
  55   2.0000      -0.630186       -17.1482
  56   2.0000      -0.621273       -16.9057
  57   2.0000      -0.606269       -16.4974
  58   2.0000      -0.598194       -16.2777
  59   2.0000      -0.589887       -16.0516
  60   2.0000      -0.525392       -14.2966
  61   2.0000      -0.510145       -13.8818
  62   2.0000      -0.497145       -13.5280
  63   2.0000      -0.483660       -13.1611
  64   2.0000      -0.468723       -12.7546
  65   2.0000      -0.461013       -12.5448
  66   2.0000      -0.458083       -12.4651
  67   2.0000      -0.451748       -12.2927
  68   2.0000      -0.445142       -12.1129
  69   2.0000      -0.430742       -11.7211
  70   2.0000      -0.423750       -11.5308
  71   2.0000      -0.408317       -11.1109
  72   2.0000      -0.404396       -11.0042
  73   2.0000      -0.399707       -10.8766
  74   2.0000      -0.396953       -10.8016
  75   2.0000      -0.392819       -10.6892
  76   2.0000      -0.381678       -10.3860
  77   2.0000      -0.371698       -10.1144
  78   2.0000      -0.369134       -10.0446
  79   2.0000      -0.364998        -9.9321
  80   2.0000      -0.362163        -9.8549
  81   2.0000      -0.356714        -9.7067
  82   2.0000      -0.350036        -9.5250
  83   2.0000      -0.349130        -9.5003
  84   2.0000      -0.345264        -9.3951
  85   2.0000      -0.330703        -8.9989
  86   2.0000      -0.319787        -8.7018
  87   2.0000      -0.308022        -8.3817
  88   2.0000      -0.304545        -8.2871
  89   2.0000      -0.304370        -8.2823
  90   2.0000      -0.290155        -7.8955
  91   2.0000      -0.285229        -7.7615
  92   2.0000      -0.278994        -7.5918
  93   2.0000      -0.276396        -7.5211
  94   2.0000      -0.270991        -7.3740
  95   2.0000      -0.248597        -6.7647
  96   2.0000      -0.230392        -6.2693
  97   2.0000      -0.226711        -6.1691
  98   2.0000      -0.215638        -5.8678
  99   2.0000      -0.204943        -5.5768
 100   2.0000      -0.198133        -5.3915
 101   0.0000      -0.040624        -1.1054
 102   0.0000      -0.029771        -0.8101
 103   0.0000      -0.008479        -0.2307
 104   0.0000       0.015723         0.4278
 105   0.0000       0.020444         0.5563

MULLIKEN ATOMIC CHARGES
-----------------------
   0 C :   -0.445131
   1 C :   -0.158131
   2 O :   -0.299002
   3 P :    0.653866
   4 S :   -0.463368
   5 O :   -0.267476
   6 C :   -0.156259
   7 C :   -0.448780
   8 S :   -0.128114
   9 C :   -0.220421
  10 S :   -0.175236
  11 P :    0.672239
  12 S :   -0.421485
  13 O :   -0.253776
  14 C :   -0.116212
  15 C :   -0.458863
  16 O :   -0.299530
  17 C :   -0.174057
  18 C :   -0.441466
  19 H :    0.173250
  20 H :    0.146277
  21 H :    0.153835
  22 H :    0.172864
  23 H :    0.146821
  24 H :    0.182177
  25 H :    0.154980
  26 H :    0.145817
  27 H :    0.154448
  28 H :    0.165105
  29 H :    0.195981
  30 H :    0.219115
  31 H :    0.164487
  32 H :    0.164443
  33 H :    0.164130
  34 H :    0.145923
  35 H :    0.155943
  36 H :    0.148903
  37 H :    0.177425
  38 H :    0.165411
  39 H :    0.155006
  40 H :    0.148862
Sum of atomic charges:    0.0000000

LOEWDIN ATOMIC CHARGES
----------------------
   0 C :   -0.408280
   1 C :    0.017544
   2 O :   -0.667983
   3 P :    0.373912
   4 S :   -0.125893
   5 O :   -0.667207
   6 C :    0.013071
   7 C :   -0.401122
   8 S :    0.175819
   9 C :   -0.413191
  10 S :    0.119618
  11 P :    0.378591
  12 S :   -0.075828
  13 O :   -0.653199
  14 C :    0.016718
  15 C :   -0.394390
  16 O :   -0.669503
  17 C :    0.021062
  18 C :   -0.403338
  19 H :    0.164065
  20 H :    0.157990
  21 H :    0.160001
  22 H :    0.179704
  23 H :    0.178576
  24 H :    0.184512
  25 H :    0.182857
  26 H :    0.158494
  27 H :    0.160205
  28 H :    0.163710
  29 H :    0.180129
  30 H :    0.202805
  31 H :    0.177078
  32 H :    0.183523
  33 H :    0.165997
  34 H :    0.158296
  35 H :    0.160914
  36 H :    0.178944
  37 H :    0.183111
  38 H :    0.163688
  39 H :    0.158759
  40 H :    0.160240

  Mayer bond orders larger than 0.100000
B(  0-C ,  1-C ) :   0.9215 B(  0-C , 19-H ) :   0.9659 B(  0-C , 20-H ) :   0.9596
B(  0-C , 21-H ) :   0.9678 B(  1-C ,  2-O ) :   0.8222 B(  1-C , 22-H ) :   0.9671
B(  1-C , 23-H ) :   0.9592 B(  2-O ,  3-P ) :   1.0532 B(  3-P ,  4-S ) :   1.7534
B(  3-P ,  5-O ) :   1.1710 B(  3-P ,  8-S ) :   1.1225 B(  5-O ,  6-C ) :   0.8076
B(  6-C ,  7-C ) :   0.9084 B(  6-C , 24-H ) :   0.9633 B(  6-C , 25-H ) :   0.9631
B(  7-C , 26-H ) :   0.9612 B(  7-C , 27-H ) :   0.9731 B(  7-C , 28-H ) :   0.9631
B(  8-S ,  9-C ) :   0.8920 B(  9-C , 10-S ) :   0.9134 B(  9-C , 29-H ) :   0.9144
B(  9-C , 30-H ) :   0.9055 B( 10-S , 11-P ) :   1.0045 B( 11-P , 12-S ) :   1.8505
B( 11-P , 13-O ) :   1.1343 B( 11-P , 16-O ) :   1.0494 B( 13-O , 14-C ) :   0.7394
B( 14-C , 15-C ) :   0.9352 B( 14-C , 31-H ) :   0.9627 B( 14-C , 32-H ) :   0.9625
B( 15-C , 33-H ) :   0.9658 B( 15-C , 34-H ) :   0.9664 B( 15-C , 35-H ) :   0.9743
B( 16-O , 17-C ) :   0.7906 B( 17-C , 18-C ) :   0.9399 B( 17-C , 36-H ) :   0.9629
B( 17-C , 37-H ) :   0.9604 B( 18-C , 38-H ) :   0.9570 B( 18-C , 39-H ) :   0.9740
B( 18-C , 40-H ) :   0.9631

Dispersion correction           -0.022182038
FINAL SINGLE POINT ENERGY     -2932.458276202319

DIPOLE MOMENT
-------------

Method             : SCF
Type of density    : Electron Density
Multiplicity       :   1
Irrep              :   0
Energy             : -2932.4828192061113441 Eh
Relativity type    :
Basis              : AO
                                X                 Y                 Z
Electronic contribution:      0.843116442      -0.338494400      -8.555291331
Nuclear contribution   :     -1.210728401      -0.530405730       9.582498618
                        -----------------------------------------
Total Dipole Moment    :     -0.367611959      -0.868900130       1.027207287
                        -----------------------------------------
Magnitude (a.u.)       :      1.394733236
Magnitude (Debye)      :      3.545130149

Rotational constants in cm-1:             0.012998             0.005180             0.004994
Rotational constants in MHz :           389.684489           155.297161           149.718922

                             ****ORCA TERMINATED NORMALLY****
TOTAL RUN TIME: 0 days 0 hours 1 minutes 22 seconds 139 msec
