                         Program Version 6.0.0  -   RELEASE  -
|  1> ! r2scan-3c def2/J RI DEFGRID2 scfconv6 printgap
|  2> %output
|  3>     printlevel normal
|  4> end
|  5> %cpcm
|  6>     smd true
|  7>     smdsolvent "water"
|  8> end
|  9> * xyz 0 1
| 10> C 4.5669670301 -1.7155236265 -0.7119546046
| 11> C 4.6533896423 -0.2790365829 -0.2378743422
| 12> O 3.4923727361 0.1198536648 0.5104536687
| 13> P 2.0587722365 0.2937876142 -0.1578241073
| 14> S 2.0955525359 1.0439644905 -1.9725254005
| 15> O 1.3004121678 1.1127597932 0.9662544339
| 16> C 1.3061401609 2.5515561089 1.0189496381
| 17> C 2.6846849906 3.1089140206 1.3013369775
| 18> S 1.1896150143 -1.6035258117 0.1000109253
| 19> C 0.0193221412 -1.6340126724 -1.3027208357
| 20> S -1.6940814117 -1.8647403218 -0.784416341
| 21> P -1.9948963666 0.0425413227 0.1024680077
| 22> S -1.3883289458 1.5666199675 -0.9645652495
| 23> O -1.3031026583 -0.0108635184 1.5154797658
| 24> C -1.5266841054 -1.0542378574 2.4981923452
| 25> C -2.614260379 -0.6567505971 3.4738360622
| 26> O -3.5403491729 0.0543368675 0.4696703245
| 27> C -4.5695565856 0.3424619764 -0.4953968481
| 28> C -5.0558403829 -0.916702167 -1.1851780338
| 29> H 3.7853719284 -1.8118976725 -1.4642511288
| 30> H 5.515889427 -2.004221951 -1.152369918
| 31> H 4.3373713897 -2.3757918534 0.1204939891
| 32> H 4.7632580159 0.3989989775 -1.0904485011
| 33> H 5.4770884561 -0.1341650322 0.462428965
| 34> H 0.9146006357 2.93351659 0.0697341505
| 35> H 0.5987104196 2.7817099347 1.8174150996
| 36> H 2.6122078384 4.1821473384 1.4474470867
| 37> H 3.1006991994 2.6460843287 2.1924990905
| 38> H 3.3447896466 2.9108353038 0.4576336754
| 39> H 0.2613851196 -2.4919451459 -1.9244886442
| 40> H 0.1176817705 -0.6999055851 -1.8629508112
| 41> H -1.7797729769 -1.9827040129 1.9784293568
| 42> H -0.5600191415 -1.1638404276 2.9941805998
| 43> H -3.5640498881 -0.550173118 2.9570531892
| 44> H -2.7033056745 -1.4263481653 4.2343505204
| 45> H -2.3644980015 0.2887475001 3.947564093
| 46> H -5.3654789539 0.8051290005 0.091020076
| 47> H -4.1805201201 1.0686329903 -1.2167524458
| 48> H -4.266439473 -1.3508091907 -1.7942111893
| 49> H -5.3699372828 -1.6491696946 -0.447024608
| 50> H -5.8976605318 -0.6664831573 -1.8228513262
| 51> *
| 52>
| 53>                          ****END OF INPUT****

CARTESIAN COORDINATES (ANGSTROEM)
---------------------------------
  C      4.566967   -1.715524   -0.711955
  C      4.653390   -0.279037   -0.237874
  O      3.492373    0.119854    0.510454
  P      2.058772    0.293788   -0.157824
  S      2.095553    1.043964   -1.972525
  O      1.300412    1.112760    0.966254
  C      1.306140    2.551556    1.018950
  C      2.684685    3.108914    1.301337
  S      1.189615   -1.603526    0.100011
  C      0.019322   -1.634013   -1.302721
  S     -1.694081   -1.864740   -0.784416
  P     -1.994896    0.042541    0.102468
  S     -1.388329    1.566620   -0.964565
  O     -1.303103   -0.010864    1.515480
  C     -1.526684   -1.054238    2.498192
  C     -2.614260   -0.656751    3.473836
  O     -3.540349    0.054337    0.469670
  C     -4.569557    0.342462   -0.495397
  C     -5.055840   -0.916702   -1.185178
  H      3.785372   -1.811898   -1.464251
  H      5.515889   -2.004222   -1.152370
  H      4.337371   -2.375792    0.120494
  H      4.763258    0.398999   -1.090449
  H      5.477088   -0.134165    0.462429
  H      0.914601    2.933517    0.069734
  H      0.598710    2.781710    1.817415
  H      2.612208    4.182147    1.447447
  H      3.100699    2.646084    2.192499
  H      3.344790    2.910835    0.457634
  H      0.261385   -2.491945   -1.924489
  H      0.117682   -0.699906   -1.862951
  H     -1.779773   -1.982704    1.978429
  H     -0.560019   -1.163840    2.994181
  H     -3.564050   -0.550173    2.957053
  H     -2.703306   -1.426348    4.234351
  H     -2.364498    0.288748    3.947564
  H     -5.365479    0.805129    0.091020
  H     -4.180520    1.068633   -1.216752
  H     -4.266439   -1.350809   -1.794211
  H     -5.369937   -1.649170   -0.447025
  H     -5.897661   -0.666483   -1.822851

 Total Charge           Charge          ....    0
 Multiplicity           Mult            ....    1
 Number of Electrons    NEL             ....  202
 Basis Dimension        Dim             ....  539

ORBITAL ENERGIES
----------------

  NO   OCC          E(Eh)            E(eV)
   0   2.0000     -88.579048     -2410.3584
   1   2.0000     -88.576334     -2410.2846
   2   2.0000     -88.525264     -2408.8949
   3   2.0000     -88.523228     -2408.8395
   4   2.0000     -76.917685     -2093.0366
   5   2.0000     -76.916456     -2093.0032
   6   2.0000     -18.995036      -516.8812
   7   2.0000     -18.992926      -516.8238
   8   2.0000     -18.991936      -516.7969
   9   2.0000     -18.987722      -516.6822
  10   2.0000     -10.104790      -274.9653
  11   2.0000     -10.090655      -274.5807
  12   2.0000     -10.089666      -274.5538
  13   2.0000     -10.087863      -274.5047
  14   2.0000     -10.085654      -274.4446
  15   2.0000     -10.018354      -272.6133
  16   2.0000     -10.017840      -272.5993
  17   2.0000     -10.017203      -272.5819
  18   2.0000     -10.017180      -272.5813
  19   2.0000      -7.873557      -214.2504
  20   2.0000      -7.871004      -214.1809
  21   2.0000      -7.820266      -212.8003
  22   2.0000      -7.818424      -212.7501
  23   2.0000      -6.596126      -179.4897
  24   2.0000      -6.594962      -179.4580
  25   2.0000      -5.820395      -158.3810
  26   2.0000      -5.817852      -158.3118
  27   2.0000      -5.817189      -158.2937
  28   2.0000      -5.814950      -158.2328
  29   2.0000      -5.810881      -158.1221
  30   2.0000      -5.807985      -158.0433
  31   2.0000      -5.767827      -156.9505
  32   2.0000      -5.766096      -156.9035
  33   2.0000      -5.760773      -156.7586
  34   2.0000      -5.760087      -156.7399
  35   2.0000      -5.758598      -156.6994
  36   2.0000      -5.758428      -156.6948
  37   2.0000      -4.741915      -129.0341
  38   2.0000      -4.741157      -129.0134
  39   2.0000      -4.740228      -128.9882
  40   2.0000      -4.739757      -128.9753
  41   2.0000      -4.739540      -128.9694
  42   2.0000      -4.739072      -128.9567
  43   2.0000      -1.052695       -28.6453
  44   2.0000      -1.049118       -28.5479
  45   2.0000      -1.011980       -27.5374
  46   2.0000      -1.008757       -27.4497
  47   2.0000      -0.800870       -21.7928
  48   2.0000      -0.755007       -20.5448
  49   2.0000      -0.743520       -20.2322
  50   2.0000      -0.725553       -19.7433
  51   2.0000      -0.721961       -19.6456
  52   2.0000      -0.710332       -19.3291
  53   2.0000      -0.688298       -18.7295
  54   2.0000      -0.669489       -18.2177
  55   2.0000      -0.632237       -17.2040
  56   2.0000      -0.618883       -16.8407
  57   2.0000      -0.601208       -16.3597
  58   2.0000      -0.597526       -16.2595
  59   2.0000      -0.588891       -16.0246
  60   2.0000      -0.522688       -14.2231
  61   2.0000      -0.511444       -13.9171
  62   2.0000      -0.494114       -13.4455
  63   2.0000      -0.486156       -13.2290
  64   2.0000      -0.469878       -12.7860
  65   2.0000      -0.461667       -12.5626
  66   2.0000      -0.456929       -12.4337
  67   2.0000      -0.451634       -12.2896
  68   2.0000      -0.439733       -11.9657
  69   2.0000      -0.431850       -11.7512
  70   2.0000      -0.418766       -11.3952
  71   2.0000      -0.406461       -11.0604
  72   2.0000      -0.404488       -11.0067
  73   2.0000      -0.400800       -10.9063
  74   2.0000      -0.396065       -10.7775
  75   2.0000      -0.393254       -10.7010
  76   2.0000      -0.377580       -10.2745
  77   2.0000      -0.366614        -9.9761
  78   2.0000      -0.364282        -9.9126
  79   2.0000      -0.361243        -9.8299
  80   2.0000      -0.354351        -9.6424
  81   2.0000      -0.353293        -9.6136
  82   2.0000      -0.349890        -9.5210
  83   2.0000      -0.346013        -9.4155
  84   2.0000      -0.342477        -9.3193
  85   2.0000      -0.327797        -8.9198
  86   2.0000      -0.321966        -8.7611
  87   2.0000      -0.304162        -8.2767
  88   2.0000      -0.303437        -8.2569
  89   2.0000      -0.300128        -8.1669
  90   2.0000      -0.294754        -8.0207
  91   2.0000      -0.287867        -7.8333
  92   2.0000      -0.282126        -7.6770
  93   2.0000      -0.279099        -7.5947
  94   2.0000      -0.274730        -7.4758
  95   2.0000      -0.252437        -6.8692
  96   2.0000      -0.238585        -6.4922
  97   2.0000      -0.237045        -6.4503
  98   2.0000      -0.226357        -6.1595
  99   2.0000      -0.213821        -5.8184
 100   2.0000      -0.209656        -5.7050
 101   0.0000      -0.045353        -1.2341
 102   0.0000      -0.036089        -0.9820
 103   0.0000      -0.012361        -0.3364
 104   0.0000       0.010076         0.2742
 105   0.0000       0.015320         0.4169

MULLIKEN ATOMIC CHARGES
-----------------------
   0 C :   -0.479278
   1 C :   -0.158609
   2 O :   -0.326671
   3 P :    0.693545
   4 S :   -0.519331
   5 O :   -0.296595
   6 C :   -0.155775
   7 C :   -0.492043
   8 S :   -0.126653
   9 C :   -0.220498
  10 S :   -0.172886
  11 P :    0.686398
  12 S :   -0.477867
  13 O :   -0.286439
  14 C :   -0.099890
  15 C :   -0.502408
  16 O :   -0.320395
  17 C :   -0.162312
  18 C :   -0.474723
  19 H :    0.171686
  20 H :    0.171092
  21 H :    0.166054
  22 H :    0.177108
  23 H :    0.173697
  24 H :    0.181262
  25 H :    0.176656
  26 H :    0.170759
  27 H :    0.168915
  28 H :    0.168650
  29 H :    0.237697
  30 H :    0.211560
  31 H :    0.176522
  32 H :    0.180245
  33 H :    0.168935
  34 H :    0.170499
  35 H :    0.167808
  36 H :    0.174619
  37 H :    0.174059
  38 H :    0.161202
  39 H :    0.172001
  40 H :    0.171406
Sum of atomic charges:   -0.0000000

LOEWDIN ATOMIC CHARGES
----------------------
   0 C :   -0.410767
   1 C :    0.023020
   2 O :   -0.680379
   3 P :    0.379050
   4 S :   -0.160014
   5 O :   -0.686202
   6 C :    0.013368
   7 C :   -0.403417
   8 S :    0.179738
   9 C :   -0.407339
  10 S :    0.129610
  11 P :    0.380724
  12 S :   -0.117115
  13 O :   -0.674592
  14 C :    0.023265
  15 C :   -0.396770
  16 O :   -0.675842
  17 C :    0.025987
  18 C :   -0.405080
  19 H :    0.161069
  20 H :    0.167112
  21 H :    0.163156
  22 H :    0.181086
  23 H :    0.189935
  24 H :    0.183188
  25 H :    0.190233
  26 H :    0.167960
  27 H :    0.164045
  28 H :    0.162876
  29 H :    0.196792
  30 H :    0.199549
  31 H :    0.182702
  32 H :    0.189965
  33 H :    0.165937
  34 H :    0.168395
  35 H :    0.163465
  36 H :    0.189783
  37 H :    0.182025
  38 H :    0.160825
  39 H :    0.163958
  40 H :    0.168698

  Mayer bond orders larger than 0.100000
B(  0-C ,  1-C ) :   0.9102 B(  0-C , 19-H ) :   0.9660 B(  0-C , 20-H ) :   0.9544
B(  0-C , 21-H ) :   0.9653 B(  1-C ,  2-O ) :   0.8092 B(  1-C , 22-H ) :   0.9652
B(  1-C , 23-H ) :   0.9494 B(  2-O ,  3-P ) :   1.0622 B(  3-P ,  4-S ) :   1.6984
B(  3-P ,  5-O ) :   1.1691 B(  3-P ,  8-S ) :   1.1482 B(  5-O ,  6-C ) :   0.7922
B(  6-C ,  7-C ) :   0.9059 B(  6-C , 24-H ) :   0.9601 B(  6-C , 25-H ) :   0.9516
B(  7-C , 26-H ) :   0.9545 B(  7-C , 27-H ) :   0.9713 B(  7-C , 28-H ) :   0.9621
B(  8-S ,  9-C ) :   0.8855 B(  9-C , 10-S ) :   0.9080 B(  9-C , 29-H ) :   0.8983
B(  9-C , 30-H ) :   0.9104 B( 10-S , 11-P ) :   1.0252 B( 11-P , 12-S ) :   1.8194
B( 11-P , 13-O ) :   1.1360 B( 11-P , 16-O ) :   1.0596 B( 13-O , 14-C ) :   0.7292
B( 14-C , 15-C ) :   0.9282 B( 14-C , 31-H ) :   0.9534 B( 14-C , 32-H ) :   0.9537
B( 15-C , 33-H ) :   0.9652 B( 15-C , 34-H ) :   0.9594 B( 15-C , 35-H ) :   0.9726
B( 16-O , 17-C ) :   0.7811 B( 17-C , 18-C ) :   0.9358 B( 17-C , 36-H ) :   0.9530
B( 17-C , 37-H ) :   0.9577 B( 18-C , 38-H ) :   0.9567 B( 18-C , 39-H ) :   0.9713
B( 18-C , 40-H ) :   0.9578

Dispersion correction           -0.022182038
FINAL SINGLE POINT ENERGY     -2932.467145405743

DIPOLE MOMENT
-------------

Method             : SCF
Type of density    : Electron Density
Multiplicity       :   1
Irrep              :   0
Energy             : -2932.4916884095355272 Eh
Relativity type    :
Basis              : AO
                                X                 Y                 Z
Electronic contribution:      0.763590764      -0.905269161      -8.278433904
Nuclear contribution   :     -1.210728401      -0.530405730       9.582498618
                        -----------------------------------------
Total Dipole Moment    :     -0.447137636      -1.435674890       1.304064715
                        -----------------------------------------
Magnitude (a.u.)       :      1.990396753
Magnitude (Debye)      :      5.059186487

Rotational constants in cm-1:             0.012998             0.005180             0.004994
Rotational constants in MHz :           389.684489           155.297161           149.718922

                             ****ORCA TERMINATED NORMALLY****
TOTAL RUN TIME: 0 days 0 hours 1 minutes 51 seconds 62 msec
