                         Program Version 6.0.0  -   RELEASE  -
|  1> ! pbe def2-sv(p) def2/J RI DEFGRID1 loosescf d4 GCP(DFT/SV(P)) printgap
|  2> %output
|  3>     printlevel normal
|  4> end
|  5> * xyz 0 1
|  6> C 5.2167743719 -1.7884635594 -1.8980908979
|  7> C 4.7668605013 -0.543533399 -1.1619633848
|  8> O 3.5039651088 -0.8360979104 -0.5208352569
|  9> P 2.5043275802 0.3169480124 -0.0943534082
| 10> S 2.1627968909 1.6655345508 -1.4858127012
| 11> O 3.1976034503 0.8777545655 1.2218341197
| 12> C 2.8391379229 2.1396952898 1.8114059588
| 13> C 1.4531770901 2.1013505676 2.4202265375
| 14> S 0.9175943616 -0.8903656987 0.5498025282
| 15> C 0.110286369 -1.0360080983 -1.0884583558
| 16> S -1.5538535773 -1.6888988235 -0.9381312402
| 17> P -2.5403240506 0.0309681289 -0.122558064
| 18> S -1.502058324 1.6921683634 -0.1131883115
| 19> O -3.1156162018 -0.461403894 1.2748120265
| 20> C -2.3057913723 -0.8082876921 2.4132908553
| 21> C -2.0684450058 0.3965065678 3.3025915537
| 22> O -3.8484998415 0.2171587628 -0.9708843509
| 23> C -4.6739241154 -0.8265888242 -1.5487276443
| 24> C -5.0659785217 -1.8981309999 -0.5557129363
| 25> H 5.2927231863 -2.6203324182 -1.2039923883
| 26> H 4.5038938963 -2.0430658394 -2.6772695205
| 27> H 6.1868304617 -1.6038767719 -2.3479769703
| 28> H 4.6224632113 0.300961185 -1.8447808121
| 29> H 5.4782618601 -0.257847687 -0.3839368908
| 30> H 3.6094760073 2.3030767076 2.5663178998
| 31> H 2.8998303875 2.9137646132 1.0395838542
| 32> H 1.2714190391 3.021616163 2.965895083
| 33> H 0.703827534 2.0115168275 1.6330501411
| 34> H 1.3618361603 1.254271566 3.0956648297
| 35> H 0.6669105798 -1.7403660983 -1.7020248575
| 36> H 0.0823507674 -0.0417574566 -1.541681259
| 37> H -2.8847544709 -1.574464637 2.9326250127
| 38> H -1.3570349519 -1.234490748 2.0716029958
| 39> H -1.4953547841 0.0924161691 4.1722336766
| 40> H -1.5157881089 1.160817571 2.7615201201
| 41> H -3.0171740031 0.8169914283 3.6239608401
| 42> H -5.5427035523 -0.2768292989 -1.9141569105
| 43> H -4.1260523144 -1.2580992684 -2.3898586339
| 44> H -4.1881174375 -2.4604175 -0.2430080506
| 45> H -5.5326893238 -1.4505082144 0.317545936
| 46> H -5.7674700419 -2.5770850037 -1.0307755663
| 47> *
| 48>
| 49>                          ****END OF INPUT****

CARTESIAN COORDINATES (ANGSTROEM)
---------------------------------
  C      5.216774   -1.788464   -1.898091
  C      4.766861   -0.543533   -1.161963
  O      3.503965   -0.836098   -0.520835
  P      2.504328    0.316948   -0.094353
  S      2.162797    1.665535   -1.485813
  O      3.197603    0.877755    1.221834
  C      2.839138    2.139695    1.811406
  C      1.453177    2.101351    2.420227
  S      0.917594   -0.890366    0.549803
  C      0.110286   -1.036008   -1.088458
  S     -1.553854   -1.688899   -0.938131
  P     -2.540324    0.030968   -0.122558
  S     -1.502058    1.692168   -0.113188
  O     -3.115616   -0.461404    1.274812
  C     -2.305791   -0.808288    2.413291
  C     -2.068445    0.396507    3.302592
  O     -3.848500    0.217159   -0.970884
  C     -4.673924   -0.826589   -1.548728
  C     -5.065979   -1.898131   -0.555713
  H      5.292723   -2.620332   -1.203992
  H      4.503894   -2.043066   -2.677270
  H      6.186830   -1.603877   -2.347977
  H      4.622463    0.300961   -1.844781
  H      5.478262   -0.257848   -0.383937
  H      3.609476    2.303077    2.566318
  H      2.899830    2.913765    1.039584
  H      1.271419    3.021616    2.965895
  H      0.703828    2.011517    1.633050
  H      1.361836    1.254272    3.095665
  H      0.666911   -1.740366   -1.702025
  H      0.082351   -0.041757   -1.541681
  H     -2.884754   -1.574465    2.932625
  H     -1.357035   -1.234491    2.071603
  H     -1.495355    0.092416    4.172234
  H     -1.515788    1.160818    2.761520
  H     -3.017174    0.816991    3.623961
  H     -5.542704   -0.276829   -1.914157
  H     -4.126052   -1.258099   -2.389859
  H     -4.188117   -2.460418   -0.243008
  H     -5.532689   -1.450508    0.317546
  H     -5.767470   -2.577085   -1.030776

 Total Charge           Charge          ....    0
 Multiplicity           Mult            ....    1
 Number of Electrons    NEL             ....  202
 Basis Dimension        Dim             ....  334

ORBITAL ENERGIES
----------------

  NO   OCC          E(Eh)            E(eV)
   0   2.0000     -88.050096     -2395.9649
   1   2.0000     -88.040686     -2395.7089
   2   2.0000     -87.982554     -2394.1270
   3   2.0000     -87.980854     -2394.0807
   4   2.0000     -76.426234     -2079.6636
   5   2.0000     -76.422225     -2079.5545
   6   2.0000     -18.792953      -511.3823
   7   2.0000     -18.790908      -511.3266
   8   2.0000     -18.790410      -511.3130
   9   2.0000     -18.785785      -511.1872
  10   2.0000      -9.960677      -271.0438
  11   2.0000      -9.953956      -270.8609
  12   2.0000      -9.953213      -270.8407
  13   2.0000      -9.948565      -270.7142
  14   2.0000      -9.948275      -270.7063
  15   2.0000      -9.892912      -269.1998
  16   2.0000      -9.886262      -269.0189
  17   2.0000      -9.879192      -268.8265
  18   2.0000      -9.876915      -268.7645
  19   2.0000      -7.694756      -209.3849
  20   2.0000      -7.685818      -209.1417
  21   2.0000      -7.627450      -207.5535
  22   2.0000      -7.625637      -207.5041
  23   2.0000      -6.423508      -174.7925
  24   2.0000      -6.420058      -174.6987
  25   2.0000      -5.722609      -155.7201
  26   2.0000      -5.719043      -155.6231
  27   2.0000      -5.713733      -155.4786
  28   2.0000      -5.712080      -155.4336
  29   2.0000      -5.710647      -155.3946
  30   2.0000      -5.702415      -155.1706
  31   2.0000      -5.656218      -153.9135
  32   2.0000      -5.654758      -153.8738
  33   2.0000      -5.648115      -153.6930
  34   2.0000      -5.647743      -153.6829
  35   2.0000      -5.646109      -153.6384
  36   2.0000      -5.645730      -153.6281
  37   2.0000      -4.646180      -126.4290
  38   2.0000      -4.645505      -126.4106
  39   2.0000      -4.643686      -126.3611
  40   2.0000      -4.642676      -126.3336
  41   2.0000      -4.641702      -126.3071
  42   2.0000      -4.640511      -126.2747
  43   2.0000      -0.987291       -26.8655
  44   2.0000      -0.983657       -26.7667
  45   2.0000      -0.945161       -25.7191
  46   2.0000      -0.941984       -25.6327
  47   2.0000      -0.764425       -20.8010
  48   2.0000      -0.722817       -19.6689
  49   2.0000      -0.712222       -19.3806
  50   2.0000      -0.691937       -18.8286
  51   2.0000      -0.683763       -18.6061
  52   2.0000      -0.675529       -18.3821
  53   2.0000      -0.648916       -17.6579
  54   2.0000      -0.633337       -17.2340
  55   2.0000      -0.595761       -16.2115
  56   2.0000      -0.591441       -16.0939
  57   2.0000      -0.573839       -15.6149
  58   2.0000      -0.569420       -15.4947
  59   2.0000      -0.561555       -15.2807
  60   2.0000      -0.502220       -13.6661
  61   2.0000      -0.496553       -13.5119
  62   2.0000      -0.477524       -12.9941
  63   2.0000      -0.470477       -12.8023
  64   2.0000      -0.453569       -12.3422
  65   2.0000      -0.442940       -12.0530
  66   2.0000      -0.439929       -11.9711
  67   2.0000      -0.437061       -11.8930
  68   2.0000      -0.431827       -11.7506
  69   2.0000      -0.423716       -11.5299
  70   2.0000      -0.403237       -10.9726
  71   2.0000      -0.401467       -10.9245
  72   2.0000      -0.392232       -10.6732
  73   2.0000      -0.389277       -10.5928
  74   2.0000      -0.387030       -10.5316
  75   2.0000      -0.372510       -10.1365
  76   2.0000      -0.359279        -9.7765
  77   2.0000      -0.357658        -9.7324
  78   2.0000      -0.355294        -9.6680
  79   2.0000      -0.354048        -9.6341
  80   2.0000      -0.347982        -9.4691
  81   2.0000      -0.346285        -9.4229
  82   2.0000      -0.336730        -9.1629
  83   2.0000      -0.333518        -9.0755
  84   2.0000      -0.330913        -9.0046
  85   2.0000      -0.318216        -8.6591
  86   2.0000      -0.312968        -8.5163
  87   2.0000      -0.293797        -7.9946
  88   2.0000      -0.292505        -7.9595
  89   2.0000      -0.290856        -7.9146
  90   2.0000      -0.284799        -7.7498
  91   2.0000      -0.278103        -7.5676
  92   2.0000      -0.271012        -7.3746
  93   2.0000      -0.262356        -7.1391
  94   2.0000      -0.260755        -7.0955
  95   2.0000      -0.236089        -6.4243
  96   2.0000      -0.223886        -6.0922
  97   2.0000      -0.206333        -5.6146
  98   2.0000      -0.199799        -5.4368
  99   2.0000      -0.193645        -5.2693
 100   2.0000      -0.190178        -5.1750
 101   0.0000      -0.048814        -1.3283
 102   0.0000      -0.032844        -0.8937
 103   0.0000      -0.011106        -0.3022
 104   0.0000       0.010234         0.2785
 105   0.0000       0.016556         0.4505

MULLIKEN ATOMIC CHARGES
-----------------------
   0 C :   -0.278216
   1 C :   -0.009404
   2 O :   -0.374095
   3 P :    0.616181
   4 S :   -0.323106
   5 O :   -0.377552
   6 C :    0.010779
   7 C :   -0.366389
   8 S :   -0.098276
   9 C :   -0.334811
  10 S :   -0.131582
  11 P :    0.588601
  12 S :   -0.283016
  13 O :   -0.370724
  14 C :   -0.017470
  15 C :   -0.304367
  16 O :   -0.357003
  17 C :   -0.003906
  18 C :   -0.318486
  19 H :    0.117321
  20 H :    0.115459
  21 H :    0.110642
  22 H :    0.104087
  23 H :    0.102160
  24 H :    0.101341
  25 H :    0.110997
  26 H :    0.112500
  27 H :    0.172705
  28 H :    0.111712
  29 H :    0.181541
  30 H :    0.211848
  31 H :    0.102682
  32 H :    0.113477
  33 H :    0.106091
  34 H :    0.145178
  35 H :    0.112305
  36 H :    0.115227
  37 H :    0.114644
  38 H :    0.125490
  39 H :    0.128235
  40 H :    0.117200
Sum of atomic charges:    0.0000000

LOEWDIN ATOMIC CHARGES
----------------------
   0 C :   -0.350666
   1 C :   -0.119145
   2 O :   -0.251441
   3 P :    0.569392
   4 S :   -0.311076
   5 O :   -0.245651
   6 C :   -0.117631
   7 C :   -0.376700
   8 S :    0.083311
   9 C :   -0.477552
  10 S :    0.068260
  11 P :    0.561861
  12 S :   -0.279363
  13 O :   -0.243521
  14 C :   -0.116977
  15 C :   -0.363027
  16 O :   -0.233352
  17 C :   -0.111397
  18 C :   -0.367762
  19 H :    0.127176
  20 H :    0.126585
  21 H :    0.130269
  22 H :    0.107046
  23 H :    0.112728
  24 H :    0.116869
  25 H :    0.111557
  26 H :    0.131244
  27 H :    0.122305
  28 H :    0.120996
  29 H :    0.134183
  30 H :    0.125017
  31 H :    0.116920
  32 H :    0.097771
  33 H :    0.127582
  34 H :    0.128139
  35 H :    0.125961
  36 H :    0.125198
  37 H :    0.112710
  38 H :    0.117615
  39 H :    0.131373
  40 H :    0.133191

  Mayer bond orders larger than 0.100000
B(  0-C ,  1-C ) :   1.1620 B(  0-C , 19-H ) :   0.9505 B(  0-C , 20-H ) :   0.9515
B(  0-C , 21-H ) :   0.9420 B(  1-C ,  2-O ) :   0.9024 B(  1-C , 22-H ) :   0.9077
B(  1-C , 23-H ) :   0.9315 B(  2-O ,  3-P ) :   1.1183 B(  3-P ,  4-S ) :   1.6202
B(  3-P ,  5-O ) :   1.1107 B(  3-P ,  8-S ) :   0.9700 B(  4-S ,  8-S ) :   0.1165
B(  5-O ,  6-C ) :   0.9063 B(  6-C ,  7-C ) :   1.1617 B(  6-C , 24-H ) :   0.9327
B(  6-C , 25-H ) :   0.9146 B(  7-C , 26-H ) :   0.9374 B(  7-C , 27-H ) :   0.9140
B(  7-C , 28-H ) :   0.9441 B(  8-S ,  9-C ) :   0.9773 B(  9-C , 10-S ) :   1.0208
B(  9-C , 29-H ) :   0.9042 B(  9-C , 30-H ) :   0.8525 B( 10-S , 11-P ) :   0.9151
B( 10-S , 12-S ) :   0.1147 B( 11-P , 12-S ) :   1.6660 B( 11-P , 13-O ) :   1.0888
B( 11-P , 16-O ) :   1.1500 B( 13-O , 14-C ) :   0.9070 B( 14-C , 15-C ) :   1.1697
B( 14-C , 31-H ) :   0.9350 B( 14-C , 32-H ) :   0.9048 B( 15-C , 33-H ) :   0.9386
B( 15-C , 34-H ) :   0.9267 B( 15-C , 35-H ) :   0.9455 B( 16-O , 17-C ) :   0.9008
B( 17-C , 18-C ) :   1.1683 B( 17-C , 36-H ) :   0.9344 B( 17-C , 37-H ) :   0.9253
B( 18-C , 38-H ) :   0.9382 B( 18-C , 39-H ) :   0.9412 B( 18-C , 40-H ) :   0.9340

Dispersion correction           -0.064218307
FINAL SINGLE POINT ENERGY     -2929.515555951172

DIPOLE MOMENT
-------------

Method             : SCF
Type of density    : Electron Density
Multiplicity       :   1
Irrep              :   0
Energy             : -2929.6354883540066112 Eh
Relativity type    :
Basis              : AO
                                X                 Y                 Z
Electronic contribution:     -1.274630459       4.022157380      -8.969212696
Nuclear contribution   :      1.202798918      -5.274661980       9.554628509
                        -----------------------------------------
Total Dipole Moment    :     -0.071831541      -1.252504600       0.585415813
                        -----------------------------------------
Magnitude (a.u.)       :      1.384427397
Magnitude (Debye)      :      3.518934788

Rotational constants in cm-1:             0.013043             0.004597             0.004108
Rotational constants in MHz :           391.012118           137.819287           123.147537

                             ****ORCA TERMINATED NORMALLY****
TOTAL RUN TIME: 0 days 0 hours 0 minutes 20 seconds 671 msec
