                         Program Version 6.0.0  -   RELEASE  -
|  1> ! pbe def2-sv(p) def2/J RI DEFGRID1 loosescf d4 GCP(DFT/SV(P)) printgap
|  2> %output
|  3>     printlevel normal
|  4> end
|  5> * xyz 0 1
|  6> C 4.0151669663 -1.9234719001 -1.0552798909
|  7> C 4.4112937263 -0.4646181285 -1.1579969493
|  8> O 3.6076761261 0.3859024902 -0.3239646963
|  9> P 2.0407881553 0.5895036538 -0.5483027223
| 10> S 1.5117127251 0.6562283445 -2.4331341615
| 11> O 1.801387557 1.9437597442 0.2236013791
| 12> C 2.5384323439 2.3853126339 1.390083828
| 13> C 2.3969418786 1.4394086958 2.5637930314
| 14> S 1.1441346969 -0.952821202 0.6204753791
| 15> C 0.0251298575 -1.7002725162 -0.6071047251
| 16> S -1.6295741406 -2.037298296 0.0457945173
| 17> P -2.3839475647 -0.0702584258 0.3316859515
| 18> S -1.2916801326 1.4256997654 -0.3418462206
| 19> O -2.7779559133 0.016504576 1.8619984664
| 20> C -1.8398234978 0.3621494308 2.8970017594
| 21> C -1.1951027008 -0.8705373782 3.5019881516
| 22> O -3.8719159424 -0.1359791203 -0.2005145639
| 23> C -4.2170781246 0.1540166349 -1.5656868801
| 24> C -3.6004990833 -0.826979556 -2.5434499587
| 25> H 3.9845613625 -2.2383693311 -0.0153197607
| 26> H 3.033096375 -2.0700914562 -1.5028268005
| 27> H 4.7380494627 -2.5272513212 -1.5944061379
| 28> H 4.3220749467 -0.1165432496 -2.1917881478
| 29> H 5.4263333521 -0.2960750768 -0.7950848113
| 30> H 3.5862434855 2.5019995613 1.1058830052
| 31> H 2.0985887705 3.3612896417 1.6023765204
| 32> H 2.8339557639 0.4715983411 2.3233953517
| 33> H 2.9139522768 1.8598287522 3.4206510445
| 34> H 1.348483295 1.2967279932 2.8135122954
| 35> H 0.417099018 -2.6727484838 -0.8944057992
| 36> H -0.0278584818 -1.0253786617 -1.4657154956
| 37> H -1.0915262834 1.0455798353 2.4786807289
| 38> H -2.4400158332 0.8962835143 3.6362075998
| 39> H -0.5333188449 -1.3545838936 2.7866361719
| 40> H -0.6166547406 -0.5779012559 4.3725178173
| 41> H -1.9646998154 -1.5758127465 3.8025723248
| 42> H -5.306554916 0.0976974737 -1.5743712642
| 43> H -3.8973190881 1.1757135591 -1.7953049639
| 44> H -4.0050681857 -0.647385767 -3.5345586676
| 45> H -2.5197322676 -0.6888889222 -2.5800089844
| 46> H -3.8180430131 -1.8489538907 -2.2432058498
| 47> *
| 48>
| 49>                          ****END OF INPUT****

CARTESIAN COORDINATES (ANGSTROEM)
---------------------------------
  C      4.015167   -1.923472   -1.055280
  C      4.411294   -0.464618   -1.157997
  O      3.607676    0.385902   -0.323965
  P      2.040788    0.589504   -0.548303
  S      1.511713    0.656228   -2.433134
  O      1.801388    1.943760    0.223601
  C      2.538432    2.385313    1.390084
  C      2.396942    1.439409    2.563793
  S      1.144135   -0.952821    0.620475
  C      0.025130   -1.700273   -0.607105
  S     -1.629574   -2.037298    0.045795
  P     -2.383948   -0.070258    0.331686
  S     -1.291680    1.425700   -0.341846
  O     -2.777956    0.016505    1.861998
  C     -1.839823    0.362149    2.897002
  C     -1.195103   -0.870537    3.501988
  O     -3.871916   -0.135979   -0.200515
  C     -4.217078    0.154017   -1.565687
  C     -3.600499   -0.826980   -2.543450
  H      3.984561   -2.238369   -0.015320
  H      3.033096   -2.070091   -1.502827
  H      4.738049   -2.527251   -1.594406
  H      4.322075   -0.116543   -2.191788
  H      5.426333   -0.296075   -0.795085
  H      3.586243    2.502000    1.105883
  H      2.098589    3.361290    1.602377
  H      2.833956    0.471598    2.323395
  H      2.913952    1.859829    3.420651
  H      1.348483    1.296728    2.813512
  H      0.417099   -2.672748   -0.894406
  H     -0.027858   -1.025379   -1.465715
  H     -1.091526    1.045580    2.478681
  H     -2.440016    0.896284    3.636208
  H     -0.533319   -1.354584    2.786636
  H     -0.616655   -0.577901    4.372518
  H     -1.964700   -1.575813    3.802572
  H     -5.306555    0.097697   -1.574371
  H     -3.897319    1.175714   -1.795305
  H     -4.005068   -0.647386   -3.534559
  H     -2.519732   -0.688889   -2.580009
  H     -3.818043   -1.848954   -2.243206

 Total Charge           Charge          ....    0
 Multiplicity           Mult            ....    1
 Number of Electrons    NEL             ....  202
 Basis Dimension        Dim             ....  334

ORBITAL ENERGIES
----------------

  NO   OCC          E(Eh)            E(eV)
   0   2.0000     -88.043346     -2395.7812
   1   2.0000     -88.040868     -2395.7138
   2   2.0000     -87.984056     -2394.1679
   3   2.0000     -87.982535     -2394.1265
   4   2.0000     -76.426408     -2079.6683
   5   2.0000     -76.421555     -2079.5362
   6   2.0000     -18.791252      -511.3360
   7   2.0000     -18.789486      -511.2879
   8   2.0000     -18.783894      -511.1358
   9   2.0000     -18.782603      -511.1006
  10   2.0000      -9.957331      -270.9527
  11   2.0000      -9.953830      -270.8575
  12   2.0000      -9.953569      -270.8504
  13   2.0000      -9.949066      -270.7279
  14   2.0000      -9.948775      -270.7199
  15   2.0000      -9.892790      -269.1965
  16   2.0000      -9.886053      -269.0132
  17   2.0000      -9.880543      -268.8632
  18   2.0000      -9.879944      -268.8469
  19   2.0000      -7.688255      -209.2080
  20   2.0000      -7.685050      -209.1208
  21   2.0000      -7.629136      -207.5994
  22   2.0000      -7.626916      -207.5389
  23   2.0000      -6.423293      -174.7867
  24   2.0000      -6.418910      -174.6674
  25   2.0000      -5.716205      -155.5458
  26   2.0000      -5.712992      -155.4584
  27   2.0000      -5.712557      -155.4466
  28   2.0000      -5.709711      -155.3691
  29   2.0000      -5.705365      -155.2509
  30   2.0000      -5.701952      -155.1580
  31   2.0000      -5.658198      -153.9674
  32   2.0000      -5.655825      -153.9028
  33   2.0000      -5.649590      -153.7332
  34   2.0000      -5.649282      -153.7248
  35   2.0000      -5.647535      -153.6772
  36   2.0000      -5.647212      -153.6684
  37   2.0000      -4.646286      -126.4319
  38   2.0000      -4.644729      -126.3895
  39   2.0000      -4.643789      -126.3639
  40   2.0000      -4.641080      -126.2902
  41   2.0000      -4.640974      -126.2873
  42   2.0000      -4.639378      -126.2439
  43   2.0000      -0.986974       -26.8569
  44   2.0000      -0.983375       -26.7590
  45   2.0000      -0.941871       -25.6296
  46   2.0000      -0.939097       -25.5541
  47   2.0000      -0.759384       -20.6639
  48   2.0000      -0.718642       -19.5552
  49   2.0000      -0.709729       -19.3127
  50   2.0000      -0.692207       -18.8359
  51   2.0000      -0.679884       -18.5006
  52   2.0000      -0.677763       -18.4429
  53   2.0000      -0.649847       -17.6832
  54   2.0000      -0.632213       -17.2034
  55   2.0000      -0.601657       -16.3719
  56   2.0000      -0.593542       -16.1511
  57   2.0000      -0.581257       -15.8168
  58   2.0000      -0.564084       -15.3495
  59   2.0000      -0.558919       -15.2090
  60   2.0000      -0.496114       -13.4999
  61   2.0000      -0.492033       -13.3889
  62   2.0000      -0.469540       -12.7768
  63   2.0000      -0.463860       -12.6223
  64   2.0000      -0.452615       -12.3163
  65   2.0000      -0.448506       -12.2045
  66   2.0000      -0.446013       -12.1366
  67   2.0000      -0.434128       -11.8132
  68   2.0000      -0.426406       -11.6031
  69   2.0000      -0.418438       -11.3863
  70   2.0000      -0.411481       -11.1970
  71   2.0000      -0.402140       -10.9428
  72   2.0000      -0.391434       -10.6515
  73   2.0000      -0.389454       -10.5976
  74   2.0000      -0.382000       -10.3948
  75   2.0000      -0.369903       -10.0656
  76   2.0000      -0.367227        -9.9928
  77   2.0000      -0.359743        -9.7891
  78   2.0000      -0.354084        -9.6351
  79   2.0000      -0.349259        -9.5038
  80   2.0000      -0.347984        -9.4691
  81   2.0000      -0.345581        -9.4037
  82   2.0000      -0.340549        -9.2668
  83   2.0000      -0.334529        -9.1030
  84   2.0000      -0.334070        -9.0905
  85   2.0000      -0.314238        -8.5509
  86   2.0000      -0.309019        -8.4088
  87   2.0000      -0.297144        -8.0857
  88   2.0000      -0.295297        -8.0354
  89   2.0000      -0.293688        -7.9917
  90   2.0000      -0.284267        -7.7353
  91   2.0000      -0.273280        -7.4363
  92   2.0000      -0.264878        -7.2077
  93   2.0000      -0.259486        -7.0610
  94   2.0000      -0.255967        -6.9652
  95   2.0000      -0.231790        -6.3073
  96   2.0000      -0.219468        -5.9720
  97   2.0000      -0.213556        -5.8112
  98   2.0000      -0.199548        -5.4300
  99   2.0000      -0.194228        -5.2852
 100   2.0000      -0.185003        -5.0342
 101   0.0000      -0.043611        -1.1867
 102   0.0000      -0.037687        -1.0255
 103   0.0000      -0.013812        -0.3759
 104   0.0000       0.006004         0.1634
 105   0.0000       0.007983         0.2172

MULLIKEN ATOMIC CHARGES
-----------------------
   0 C :   -0.318134
   1 C :    0.004714
   2 O :   -0.388704
   3 P :    0.632393
   4 S :   -0.299476
   5 O :   -0.359411
   6 C :    0.014722
   7 C :   -0.355668
   8 S :   -0.131829
   9 C :   -0.343447
  10 S :   -0.114197
  11 P :    0.592537
  12 S :   -0.306567
  13 O :   -0.355548
  14 C :   -0.023840
  15 C :   -0.304834
  16 O :   -0.358476
  17 C :    0.005449
  18 C :   -0.330424
  19 H :    0.118982
  20 H :    0.120060
  21 H :    0.112791
  22 H :    0.112141
  23 H :    0.102130
  24 H :    0.109541
  25 H :    0.112742
  26 H :    0.129088
  27 H :    0.116403
  28 H :    0.144740
  29 H :    0.180372
  30 H :    0.216442
  31 H :    0.119683
  32 H :    0.105387
  33 H :    0.132705
  34 H :    0.105717
  35 H :    0.114196
  36 H :    0.105990
  37 H :    0.112714
  38 H :    0.112982
  39 H :    0.136243
  40 H :    0.119693
Sum of atomic charges:   -0.0000000

LOEWDIN ATOMIC CHARGES
----------------------
   0 C :   -0.371104
   1 C :   -0.116783
   2 O :   -0.252855
   3 P :    0.580081
   4 S :   -0.293223
   5 O :   -0.232503
   6 C :   -0.106143
   7 C :   -0.372332
   8 S :    0.071926
   9 C :   -0.480577
  10 S :    0.079819
  11 P :    0.562790
  12 S :   -0.297517
  13 O :   -0.237114
  14 C :   -0.117727
  15 C :   -0.367338
  16 O :   -0.237118
  17 C :   -0.114920
  18 C :   -0.371675
  19 H :    0.123450
  20 H :    0.118922
  21 H :    0.130657
  22 H :    0.111949
  23 H :    0.117323
  24 H :    0.114820
  25 H :    0.124472
  26 H :    0.118051
  27 H :    0.133621
  28 H :    0.127322
  29 H :    0.133240
  30 H :    0.122204
  31 H :    0.104535
  32 H :    0.119084
  33 H :    0.110930
  34 H :    0.126916
  35 H :    0.126619
  36 H :    0.119474
  37 H :    0.112858
  38 H :    0.131046
  39 H :    0.123154
  40 H :    0.123667

  Mayer bond orders larger than 0.100000
B(  0-C ,  1-C ) :   1.1653 B(  0-C , 19-H ) :   0.9420 B(  0-C , 20-H ) :   0.9355
B(  0-C , 21-H ) :   0.9366 B(  1-C ,  2-O ) :   0.9141 B(  1-C , 22-H ) :   0.9171
B(  1-C , 23-H ) :   0.9344 B(  2-O ,  3-P ) :   1.0591 B(  3-P ,  4-S ) :   1.6222
B(  3-P ,  5-O ) :   1.1321 B(  3-P ,  8-S ) :   0.9352 B(  4-S ,  8-S ) :   0.1166
B(  4-S , 30-H ) :   0.1037 B(  5-O ,  6-C ) :   0.9043 B(  6-C ,  7-C ) :   1.1699
B(  6-C , 24-H ) :   0.9269 B(  6-C , 25-H ) :   0.9321 B(  7-C , 26-H ) :   0.9312
B(  7-C , 27-H ) :   0.9339 B(  7-C , 28-H ) :   0.9330 B(  8-S ,  9-C ) :   0.9944
B(  9-C , 10-S ) :   1.0118 B(  9-C , 29-H ) :   0.9024 B(  9-C , 30-H ) :   0.8441
B( 10-S , 11-P ) :   0.9307 B( 10-S , 12-S ) :   0.1204 B( 11-P , 12-S ) :   1.6263
B( 11-P , 13-O ) :   1.1257 B( 11-P , 16-O ) :   1.1266 B( 13-O , 14-C ) :   0.9171
B( 14-C , 15-C ) :   1.1689 B( 14-C , 31-H ) :   0.8985 B( 14-C , 32-H ) :   0.9337
B( 15-C , 33-H ) :   0.9289 B( 15-C , 34-H ) :   0.9385 B( 15-C , 35-H ) :   0.9446
B( 16-O , 17-C ) :   0.9145 B( 17-C , 18-C ) :   1.1632 B( 17-C , 36-H ) :   0.9348
B( 17-C , 37-H ) :   0.9197 B( 18-C , 38-H ) :   0.9366 B( 18-C , 39-H ) :   0.9334
B( 18-C , 40-H ) :   0.9421

Dispersion correction           -0.068094692
FINAL SINGLE POINT ENERGY     -2929.514296153283

DIPOLE MOMENT
-------------

Method             : SCF
Type of density    : Electron Density
Multiplicity       :   1
Irrep              :   0
Energy             : -2929.6312633635543534 Eh
Relativity type    :
Basis              : AO
                                X                 Y                 Z
Electronic contribution:     -7.422844213       4.493187541      -7.073427790
Nuclear contribution   :      8.253162618      -5.033175816       7.928910333
                        -----------------------------------------
Total Dipole Moment    :      0.830318405      -0.539988274       0.855482543
                        -----------------------------------------
Magnitude (a.u.)       :      1.308765209
Magnitude (Debye)      :      3.326616790

Rotational constants in cm-1:             0.011704             0.005675             0.005034
Rotational constants in MHz :           350.869787           170.135556           150.927093

                             ****ORCA TERMINATED NORMALLY****
TOTAL RUN TIME: 0 days 0 hours 0 minutes 21 seconds 554 msec
