                         Program Version 6.0.0  -   RELEASE  -
|  1> ! r2scan-3c def2/J RI DEFGRID2 scfconv6 printgap
|  2> %output
|  3>     printlevel normal
|  4> end
|  5> %cpcm
|  6>     smd true
|  7>     smdsolvent "water"
|  8> end
|  9> * xyz 0 1
| 10> C -0.7030383812 -0.5888890564 -0.3042317479
| 11> C 0.6949135279 -0.5835101109 0.3318245491
| 12> O 1.5076590945 0.4755459851 -0.1306405089
| 13> O -1.5010043938 0.5017931481 0.1074727847
| 14> H -1.2304916472 -1.4871641471 0.0221666298
| 15> H -0.6063766517 -0.6074729616 -1.3952278863
| 16> H 1.2099172314 -1.5033783199 0.0485764978
| 17> H 0.5980655024 -0.5489883778 1.4223999101
| 18> H 1.2220822689 1.3006887593 0.2847907601
| 19> H -1.2020124847 1.3031015505 -0.3437552562
| 20> *
| 21>
| 22>                          ****END OF INPUT****

CARTESIAN COORDINATES (ANGSTROEM)
---------------------------------
  C     -0.703038   -0.588889   -0.304232
  C      0.694914   -0.583510    0.331825
  O      1.507659    0.475546   -0.130641
  O     -1.501004    0.501793    0.107473
  H     -1.230492   -1.487164    0.022167
  H     -0.606377   -0.607473   -1.395228
  H      1.209917   -1.503378    0.048576
  H      0.598066   -0.548988    1.422400
  H      1.222082    1.300689    0.284791
  H     -1.202012    1.303102   -0.343755

 Total Charge           Charge          ....    0
 Multiplicity           Mult            ....    1
 Number of Electrons    NEL             ....   34
 Basis Dimension        Dim             ....  116

ORBITAL ENERGIES
----------------

  NO   OCC          E(Eh)            E(eV)
   0   2.0000     -18.953405      -515.7484
   1   2.0000     -18.953373      -515.7475
   2   2.0000     -10.069377      -274.0017
   3   2.0000     -10.069252      -273.9983
   4   2.0000      -0.996762       -27.1233
   5   2.0000      -0.979026       -26.6407
   6   2.0000      -0.695846       -18.9349
   7   2.0000      -0.586196       -15.9512
   8   2.0000      -0.482589       -13.1319
   9   2.0000      -0.472492       -12.8572
  10   2.0000      -0.427616       -11.6360
  11   2.0000      -0.385535       -10.4909
  12   2.0000      -0.368093       -10.0163
  13   2.0000      -0.326280        -8.8785
  14   2.0000      -0.290872        -7.9150
  15   2.0000      -0.270470        -7.3599
  16   2.0000      -0.227886        -6.2011
  17   0.0000       0.058280         1.5859
  18   0.0000       0.105965         2.8834
  19   0.0000       0.128286         3.4908
  20   0.0000       0.144129         3.9220
  21   0.0000       0.144522         3.9327

MULLIKEN ATOMIC CHARGES
-----------------------
   0 C :   -0.151468
   1 C :   -0.151725
   2 O :   -0.503973
   3 O :   -0.503719
   4 H :    0.151329
   5 H :    0.149495
   6 H :    0.151357
   7 H :    0.149595
   8 H :    0.354616
   9 H :    0.354492
Sum of atomic charges:    0.0000000

LOEWDIN ATOMIC CHARGES
----------------------
   0 C :    0.005068
   1 C :    0.005083
   2 O :   -0.642902
   3 O :   -0.642888
   4 H :    0.184382
   5 H :    0.169009
   6 H :    0.184360
   7 H :    0.169066
   8 H :    0.284402
   9 H :    0.284420

  Mayer bond orders larger than 0.100000
B(  0-C ,  1-C ) :   0.9396 B(  0-C ,  3-O ) :   0.9338 B(  0-C ,  4-H ) :   0.9631
B(  0-C ,  5-H ) :   0.9677 B(  1-C ,  2-O ) :   0.9338 B(  1-C ,  6-H ) :   0.9631
B(  1-C ,  7-H ) :   0.9677 B(  2-O ,  8-H ) :   0.8647 B(  3-O ,  9-H ) :   0.8647

Dispersion correction           -0.001578599
FINAL SINGLE POINT ENERGY      -230.224727435582

DIPOLE MOMENT
-------------

Method             : SCF
Type of density    : Electron Density
Multiplicity       :   1
Irrep              :   0
Energy             :  -230.2305528902953711 Eh
Relativity type    :
Basis              : AO
                                X                 Y                 Z
Electronic contribution:      0.010917616       1.600246663      -0.038010947
Nuclear contribution   :     -0.008171850      -1.433279704       0.036198222
                        -----------------------------------------
Total Dipole Moment    :      0.002745766       0.166966958      -0.001812725
                        -----------------------------------------
Magnitude (a.u.)       :      0.166999372
Magnitude (Debye)      :      0.424478671

Rotational constants in cm-1:             0.534430             0.172132             0.146069
Rotational constants in MHz :         16021.821198          5160.401203          4379.037979

                             ****ORCA TERMINATED NORMALLY****
TOTAL RUN TIME: 0 days 0 hours 0 minutes 11 seconds 763 msec
