                         Program Version 6.0.0  -   RELEASE  -
|  1> ! pbe def2-sv(p) def2/J RI DEFGRID1 loosescf d4 GCP(DFT/SV(P)) printgap
|  2> %output
|  3>     printlevel normal
|  4> end
|  5> * xyz 0 1
|  6> C -2.5935547587 1.4078792021 -5.3376e-06
|  7> C -1.6080802511 0.2897329049 -3.00013e-05
|  8> C -1.8690545735 -1.0487060832 -2.60489e-05
|  9> N -0.7010197991 -1.7654625209 0.0001867485
| 10> C 0.3469799955 -0.8949464187 -7.3038e-05
| 11> C -0.1847770178 0.4195560554 -3.47305e-05
| 12> C 0.6850900871 1.5097321786 3.18141e-05
| 13> C 2.0411350493 1.2723470992 1.91677e-05
| 14> C 2.5515892225 -0.0294654687 -1.6627e-06
| 15> C 1.7173424363 -1.1264303988 -3.46722e-05
| 16> H -3.6079823354 1.0179989051 0.0005316544
| 17> H -2.4578465475 2.0351976747 0.8804215258
| 18> H -2.4585363739 2.0346168186 -0.8809613751
| 19> H -2.8177053583 -1.5500862353 7.49579e-05
| 20> H -0.6324338292 -2.768353163 -0.0009211898
| 21> H 0.2988831379 2.5184255194 -1.44169e-05
| 22> H 2.7313036903 2.1037817003 6.86864e-05
| 23> H 3.6221902378 -0.1732852618 5.98129e-05
| 24> H 2.1144464307 -2.1305706373 -1.36162e-05
| 25> *
| 26>
| 27>                          ****END OF INPUT****

CARTESIAN COORDINATES (ANGSTROEM)
---------------------------------
  C     -2.593555    1.407879   -0.000005
  C     -1.608080    0.289733   -0.000030
  C     -1.869055   -1.048706   -0.000026
  N     -0.701020   -1.765463    0.000187
  C      0.346980   -0.894946   -0.000073
  C     -0.184777    0.419556   -0.000035
  C      0.685090    1.509732    0.000032
  C      2.041135    1.272347    0.000019
  C      2.551589   -0.029465   -0.000002
  C      1.717342   -1.126430   -0.000035
  H     -3.607982    1.017999    0.000532
  H     -2.457847    2.035198    0.880422
  H     -2.458536    2.034617   -0.880961
  H     -2.817705   -1.550086    0.000075
  H     -0.632434   -2.768353   -0.000921
  H      0.298883    2.518426   -0.000014
  H      2.731304    2.103782    0.000069
  H      3.622190   -0.173285    0.000060
  H      2.114446   -2.130571   -0.000014

 Total Charge           Charge          ....    0
 Multiplicity           Mult            ....    1
 Number of Electrons    NEL             ....   70
 Basis Dimension        Dim             ....  158

ORBITAL ENERGIES
----------------

  NO   OCC          E(Eh)            E(eV)
   0   2.0000     -14.033718      -381.8769
   1   2.0000      -9.916112      -269.8311
   2   2.0000      -9.911973      -269.7185
   3   2.0000      -9.885350      -268.9941
   4   2.0000      -9.881688      -268.8944
   5   2.0000      -9.880923      -268.8736
   6   2.0000      -9.879696      -268.8402
   7   2.0000      -9.879540      -268.8359
   8   2.0000      -9.879422      -268.8327
   9   2.0000      -9.875517      -268.7265
  10   2.0000      -0.894468       -24.3397
  11   2.0000      -0.755224       -20.5507
  12   2.0000      -0.715602       -19.4725
  13   2.0000      -0.656993       -17.8777
  14   2.0000      -0.648923       -17.6581
  15   2.0000      -0.620118       -16.8743
  16   2.0000      -0.557542       -15.1715
  17   2.0000      -0.525761       -14.3067
  18   2.0000      -0.498674       -13.5696
  19   2.0000      -0.482300       -13.1240
  20   2.0000      -0.430143       -11.7048
  21   2.0000      -0.416270       -11.3273
  22   2.0000      -0.389279       -10.5928
  23   2.0000      -0.386143       -10.5075
  24   2.0000      -0.379037       -10.3141
  25   2.0000      -0.362243        -9.8571
  26   2.0000      -0.353836        -9.6284
  27   2.0000      -0.343042        -9.3346
  28   2.0000      -0.328077        -8.9274
  29   2.0000      -0.302102        -8.2206
  30   2.0000      -0.295846        -8.0504
  31   2.0000      -0.285365        -7.7652
  32   2.0000      -0.238778        -6.4975
  33   2.0000      -0.195364        -5.3161
  34   2.0000      -0.174436        -4.7466
  35   0.0000      -0.033816        -0.9202
  36   0.0000       0.000577         0.0157
  37   0.0000       0.032777         0.8919
  38   0.0000       0.040183         1.0934
  39   0.0000       0.051556         1.4029

MULLIKEN ATOMIC CHARGES
-----------------------
   0 C :   -0.199272
   1 C :   -0.045175
   2 C :   -0.088887
   3 N :   -0.180748
   4 C :    0.132218
   5 C :    0.100998
   6 C :   -0.174071
   7 C :   -0.040110
   8 C :   -0.071674
   9 C :   -0.145366
  10 H :    0.091341
  11 H :    0.108691
  12 H :    0.108699
  13 H :    0.046123
  14 H :    0.220664
  15 H :    0.030561
  16 H :    0.042121
  17 H :    0.046393
  18 H :    0.017494
Sum of atomic charges:   -0.0000000

LOEWDIN ATOMIC CHARGES
----------------------
   0 C :   -0.321314
   1 C :   -0.099117
   2 C :   -0.113425
   3 N :   -0.072455
   4 C :   -0.007078
   5 C :   -0.050975
   6 C :   -0.124582
   7 C :   -0.143715
   8 C :   -0.135498
   9 C :   -0.151369
  10 H :    0.124783
  11 H :    0.128122
  12 H :    0.128126
  13 H :    0.117849
  14 H :    0.240193
  15 H :    0.120879
  16 H :    0.119401
  17 H :    0.120537
  18 H :    0.119638

  Mayer bond orders larger than 0.100000
B(  0-C ,  1-C ) :   1.1613 B(  0-C , 10-H ) :   0.9399 B(  0-C , 11-H ) :   0.9292
B(  0-C , 12-H ) :   0.9292 B(  1-C ,  2-C ) :   1.5117 B(  1-C ,  5-C ) :   1.2651
B(  2-C ,  3-N ) :   1.1629 B(  2-C , 13-H ) :   0.9654 B(  3-N ,  4-C ) :   1.1902
B(  3-N , 14-H ) :   0.8718 B(  4-C ,  5-C ) :   1.2473 B(  4-C ,  9-C ) :   1.2930
B(  5-C ,  6-C ) :   1.3026 B(  6-C ,  7-C ) :   1.4091 B(  6-C ,  9-C ) :   0.1058
B(  6-C , 15-H ) :   0.9675 B(  7-C ,  8-C ) :   1.3276 B(  7-C , 16-H ) :   0.9598
B(  8-C ,  9-C ) :   1.3916 B(  8-C , 17-H ) :   0.9582 B(  9-C , 18-H ) :   0.9764

Dispersion correction           -0.021777145
FINAL SINGLE POINT ENERGY      -402.259650052139

DIPOLE MOMENT
-------------

Method             : SCF
Type of density    : Electron Density
Multiplicity       :   1
Irrep              :   0
Energy             :  -402.3108921636397781 Eh
Relativity type    :
Basis              : AO
                                X                 Y                 Z
Electronic contribution:      2.609732340      -3.658578210       0.000156924
Nuclear contribution   :     -3.013196683       2.887123512      -0.000706319
                        -----------------------------------------
Total Dipole Moment    :     -0.403464343      -0.771454698      -0.000549395
                        -----------------------------------------
Magnitude (a.u.)       :      0.870589530
Magnitude (Debye)      :      2.212862727

Rotational constants in cm-1:             0.087776             0.042953             0.028995
Rotational constants in MHz :          2631.470170          1287.702910           869.259587

                             ****ORCA TERMINATED NORMALLY****
TOTAL RUN TIME: 0 days 0 hours 0 minutes 41 seconds 635 msec
