                         Program Version 6.0.1  -  RELEASE   -
|  1> ! pbe def2-sv(p) def2/J RI DEFGRID1 loosescf d4 GCP(DFT/SV(P)) printgap
|  2> %output
|  3>     printlevel normal
|  4> end
|  5> * xyz 0 1
|  6> C 4.2911881187 -3.3307282602 0.1908444402
|  7> C 2.8917485882 -2.7618040072 0.3092953337
|  8> O 2.6724798585 -1.8859899233 -0.8136772416
|  9> C 1.4887871945 -1.354441537 -0.9611148367
| 10> O 0.5403037019 -1.5982238539 -0.228489305
| 11> C 1.3926152978 -0.4242497701 -2.1451583128
| 12> C 0.5602828344 0.7886824285 -1.7507226871
| 13> H 0.5427722994 1.533739158 -2.550343877
| 14> C 1.1112834697 1.4333290777 -0.4876957599
| 15> O 2.1220340282 1.0386352707 0.051759133
| 16> O 0.4002987815 2.468886309 -0.1125120688
| 17> C 0.8454749969 3.2190152761 1.0369136251
| 18> C 0.075296488 4.5234948554 1.0711937785
| 19> S -1.2142911461 0.4001481647 -1.5345500164
| 20> P -1.4983212582 -0.3600198438 0.4401010799
| 21> S -0.3601244662 0.027741646 1.9906722776
| 22> O -2.9554522978 0.3072566083 0.6730303368
| 23> C -3.0963837264 1.697822536 0.9605813951
| 24> O -1.9654403275 -1.867118851 0.329036676
| 25> C -3.0451343696 -2.2753490552 -0.5321989836
| 26> H 5.0174833341 -2.5238533022 0.1894244328
| 27> H 4.4832715468 -3.9850190831 1.0344603344
| 28> H 4.3869889896 -3.8944648829 -0.7321115646
| 29> H 2.7622979545 -2.1740352281 1.2243184223
| 30> H 2.125003215 -3.543254212 0.2937428015
| 31> H 0.9101178149 -0.9469068166 -2.9726855171
| 32> H 2.3992366803 -0.12406345 -2.4342847266
| 33> H 0.663348217 2.6077897645 1.9271872275
| 34> H 1.9238960902 3.3762941873 0.9411647347
| 35> H 0.2543037928 5.0878864777 0.1610275858
| 36> H -0.9886562386 4.3263057288 1.1617364558
| 37> H 0.4040879154 5.104583415 1.9259148773
| 38> H -4.1417444178 1.8392369729 1.2224012462
| 39> H -2.8352676492 2.2894159924 0.0821273199
| 40> H -2.4517534652 1.9697091229 1.7988052461
| 41> H -3.9892576976 -1.8993410698 -0.1419395352
| 42> H -3.0222623281 -3.3620287855 -0.515217313
| 43> H -2.8840458864 -1.900827205 -1.5433530585
| 44> *
| 45>
| 46>                          ****END OF INPUT****

CARTESIAN COORDINATES (ANGSTROEM)
---------------------------------
  C      4.291188   -3.330728    0.190844
  C      2.891749   -2.761804    0.309295
  O      2.672480   -1.885990   -0.813677
  C      1.488787   -1.354442   -0.961115
  O      0.540304   -1.598224   -0.228489
  C      1.392615   -0.424250   -2.145158
  C      0.560283    0.788682   -1.750723
  H      0.542772    1.533739   -2.550344
  C      1.111283    1.433329   -0.487696
  O      2.122034    1.038635    0.051759
  O      0.400299    2.468886   -0.112512
  C      0.845475    3.219015    1.036914
  C      0.075296    4.523495    1.071194
  S     -1.214291    0.400148   -1.534550
  P     -1.498321   -0.360020    0.440101
  S     -0.360124    0.027742    1.990672
  O     -2.955452    0.307257    0.673030
  C     -3.096384    1.697823    0.960581
  O     -1.965440   -1.867119    0.329037
  C     -3.045134   -2.275349   -0.532199
  H      5.017483   -2.523853    0.189424
  H      4.483272   -3.985019    1.034460
  H      4.386989   -3.894465   -0.732112
  H      2.762298   -2.174035    1.224318
  H      2.125003   -3.543254    0.293743
  H      0.910118   -0.946907   -2.972686
  H      2.399237   -0.124063   -2.434285
  H      0.663348    2.607790    1.927187
  H      1.923896    3.376294    0.941165
  H      0.254304    5.087886    0.161028
  H     -0.988656    4.326306    1.161736
  H      0.404088    5.104583    1.925915
  H     -4.141744    1.839237    1.222401
  H     -2.835268    2.289416    0.082127
  H     -2.451753    1.969709    1.798805
  H     -3.989258   -1.899341   -0.141940
  H     -3.022262   -3.362029   -0.515217
  H     -2.884046   -1.900827   -1.543353

 Total Charge           Charge          ....    0
 Multiplicity           Mult            ....    1
 Number of Electrons    NEL             ....  174
 Basis Dimension        Dim             ....  316

ORBITAL ENERGIES
----------------

  NO   OCC          E(Eh)            E(eV)
   0   2.0000     -88.033961     -2395.5259
   1   2.0000     -87.967809     -2393.7258
   2   2.0000     -76.416506     -2079.3989
   3   2.0000     -18.804094      -511.6854
   4   2.0000     -18.802269      -511.6357
   5   2.0000     -18.775848      -510.9168
   6   2.0000     -18.771431      -510.7966
   7   2.0000     -18.743374      -510.0331
   8   2.0000     -18.740276      -509.9488
   9   2.0000     -10.016548      -272.5641
  10   2.0000     -10.011354      -272.4228
  11   2.0000      -9.951486      -270.7937
  12   2.0000      -9.942682      -270.5541
  13   2.0000      -9.941630      -270.5255
  14   2.0000      -9.938531      -270.4412
  15   2.0000      -9.929526      -270.1961
  16   2.0000      -9.911843      -269.7150
  17   2.0000      -9.886961      -269.0379
  18   2.0000      -9.884990      -268.9843
  19   2.0000      -7.678501      -208.9426
  20   2.0000      -7.612806      -207.1550
  21   2.0000      -6.411529      -174.4666
  22   2.0000      -5.706670      -155.2864
  23   2.0000      -5.702931      -155.1846
  24   2.0000      -5.695306      -154.9772
  25   2.0000      -5.642182      -153.5316
  26   2.0000      -5.633581      -153.2975
  27   2.0000      -5.632282      -153.2622
  28   2.0000      -4.634614      -126.1143
  29   2.0000      -4.633592      -126.0864
  30   2.0000      -4.631767      -126.0368
  31   2.0000      -1.014765       -27.6132
  32   2.0000      -1.011147       -27.5147
  33   2.0000      -0.969883       -26.3918
  34   2.0000      -0.923707       -25.1354
  35   2.0000      -0.921341       -25.0710
  36   2.0000      -0.914083       -24.8735
  37   2.0000      -0.762523       -20.7493
  38   2.0000      -0.713592       -19.4178
  39   2.0000      -0.701514       -19.0892
  40   2.0000      -0.686201       -18.6725
  41   2.0000      -0.654184       -17.8013
  42   2.0000      -0.623566       -16.9681
  43   2.0000      -0.613495       -16.6940
  44   2.0000      -0.606424       -16.5016
  45   2.0000      -0.588352       -16.0099
  46   2.0000      -0.556391       -15.1402
  47   2.0000      -0.509772       -13.8716
  48   2.0000      -0.506552       -13.7840
  49   2.0000      -0.501827       -13.6554
  50   2.0000      -0.485121       -13.2008
  51   2.0000      -0.463852       -12.6221
  52   2.0000      -0.453195       -12.3321
  53   2.0000      -0.444128       -12.0853
  54   2.0000      -0.441664       -12.0183
  55   2.0000      -0.423773       -11.5315
  56   2.0000      -0.419091       -11.4040
  57   2.0000      -0.411354       -11.1935
  58   2.0000      -0.407629       -11.0921
  59   2.0000      -0.400353       -10.8941
  60   2.0000      -0.399949       -10.8832
  61   2.0000      -0.395580       -10.7643
  62   2.0000      -0.386414       -10.5149
  63   2.0000      -0.377138       -10.2624
  64   2.0000      -0.370166       -10.0727
  65   2.0000      -0.359311        -9.7773
  66   2.0000      -0.357045        -9.7157
  67   2.0000      -0.355562        -9.6753
  68   2.0000      -0.347197        -9.4477
  69   2.0000      -0.340231        -9.2582
  70   2.0000      -0.336088        -9.1454
  71   2.0000      -0.319891        -8.7047
  72   2.0000      -0.313179        -8.5220
  73   2.0000      -0.306368        -8.3367
  74   2.0000      -0.301305        -8.1989
  75   2.0000      -0.299569        -8.1517
  76   2.0000      -0.284615        -7.7448
  77   2.0000      -0.283683        -7.7194
  78   2.0000      -0.264711        -7.2031
  79   2.0000      -0.260878        -7.0988
  80   2.0000      -0.253201        -6.8899
  81   2.0000      -0.247920        -6.7462
  82   2.0000      -0.234699        -6.3865
  83   2.0000      -0.223651        -6.0858
  84   2.0000      -0.207136        -5.6365
  85   2.0000      -0.189201        -5.1484
  86   2.0000      -0.176762        -4.8100
  87   0.0000      -0.041521        -1.1298
  88   0.0000      -0.032453        -0.8831
  89   0.0000      -0.021790        -0.5929
  90   0.0000       0.006978         0.1899
  91   0.0000       0.028634         0.7792

MULLIKEN ATOMIC CHARGES
-----------------------
   0 C :   -0.274420
   1 C :   -0.031706
   2 O :   -0.215852
   3 C :    0.130229
   4 O :   -0.216311
   5 C :   -0.017397
   6 C :   -0.296741
   7 H :    0.147836
   8 C :    0.178476
   9 O :   -0.183999
  10 O :   -0.217783
  11 C :   -0.030074
  12 C :   -0.280732
  13 S :   -0.107579
  14 P :    0.625298
  15 S :   -0.310434
  16 O :   -0.401872
  17 C :   -0.106914
  18 O :   -0.359126
  19 C :   -0.101811
  20 H :    0.119313
  21 H :    0.112257
  22 H :    0.111078
  23 H :    0.124706
  24 H :    0.107626
  25 H :    0.118880
  26 H :    0.109520
  27 H :    0.124535
  28 H :    0.102883
  29 H :    0.110244
  30 H :    0.117111
  31 H :    0.112066
  32 H :    0.115410
  33 H :    0.112306
  34 H :    0.113039
  35 H :    0.122827
  36 H :    0.125278
  37 H :    0.111831
Sum of atomic charges:    0.0000000

LOEWDIN ATOMIC CHARGES
----------------------
   0 C :   -0.350967
   1 C :   -0.104028
   2 O :   -0.041942
   3 C :    0.041266
   4 O :   -0.171979
   5 C :   -0.248169
   6 C :   -0.261761
   7 H :    0.149327
   8 C :    0.003643
   9 O :   -0.144241
  10 O :   -0.050468
  11 C :   -0.111230
  12 C :   -0.350528
  13 S :    0.095187
  14 P :    0.587656
  15 S :   -0.291859
  16 O :   -0.273312
  17 C :   -0.225146
  18 O :   -0.236323
  19 C :   -0.210096
  20 H :    0.128799
  21 H :    0.131281
  22 H :    0.124712
  23 H :    0.126820
  24 H :    0.117680
  25 H :    0.144436
  26 H :    0.141860
  27 H :    0.115204
  28 H :    0.115237
  29 H :    0.124292
  30 H :    0.125550
  31 H :    0.131635
  32 H :    0.117459
  33 H :    0.103187
  34 H :    0.103497
  35 H :    0.115242
  36 H :    0.122915
  37 H :    0.105162

  Mayer bond orders larger than 0.100000
B(  0-C ,  1-C ) :   1.1514 B(  0-C , 20-H ) :   0.9490 B(  0-C , 21-H ) :   0.9441
B(  0-C , 22-H ) :   0.9506 B(  1-C ,  2-O ) :   0.8967 B(  1-C , 23-H ) :   0.9302
B(  1-C , 24-H ) :   0.9298 B(  2-O ,  3-C ) :   1.2730 B(  3-C ,  4-O ) :   1.8928
B(  3-C ,  5-C ) :   1.0193 B(  4-O , 14-P ) :   0.1281 B(  5-C ,  6-C ) :   1.0231
B(  5-C , 25-H ) :   0.8833 B(  5-C , 26-H ) :   0.8877 B(  6-C ,  7-H ) :   0.8762
B(  6-C ,  8-C ) :   0.8991 B(  6-C , 13-S ) :   1.0107 B(  8-C ,  9-O ) :   2.0360
B(  8-C , 10-O ) :   1.2653 B( 10-O , 11-C ) :   0.8963 B( 11-C , 12-C ) :   1.1558
B( 11-C , 27-H ) :   0.9112 B( 11-C , 28-H ) :   0.9267 B( 12-C , 29-H ) :   0.9506
B( 12-C , 30-H ) :   0.9466 B( 12-C , 31-H ) :   0.9434 B( 13-S , 14-P ) :   0.9354
B( 13-S , 15-S ) :   0.1206 B( 14-P , 15-S ) :   1.5936 B( 14-P , 16-O ) :   1.0148
B( 14-P , 18-O ) :   1.1184 B( 16-O , 17-C ) :   0.9499 B( 17-C , 32-H ) :   0.9566
B( 17-C , 33-H ) :   0.9403 B( 17-C , 34-H ) :   0.9289 B( 18-O , 19-C ) :   0.9286
B( 19-C , 35-H ) :   0.9472 B( 19-C , 36-H ) :   0.9592 B( 19-C , 37-H ) :   0.9382

Dispersion correction           -0.054693484
FINAL SINGLE POINT ENERGY     -1979.007886919026

DIPOLE MOMENT
-------------

Method             : SCF
Type of density    : Electron Density
Multiplicity       :   1
Irrep              :   0
Energy             : -1979.1362630012467889 Eh
Relativity type    :
Basis              : AO
                                X                 Y                 Z
Electronic contribution:     -6.569690009      -3.514148436      -1.731281454
Nuclear contribution   :      6.612459610       3.833918828       0.598140467
                        -----------------------------------------
Total Dipole Moment    :      0.042769601       0.319770392      -1.133140987
                        -----------------------------------------
Magnitude (a.u.)       :      1.178172669
Magnitude (Debye)      :      2.994676934

Rotational constants in cm-1:             0.012295             0.008691             0.006652
Rotational constants in MHz :           368.594415           260.537989           199.426487

                             ****ORCA TERMINATED NORMALLY****
TOTAL RUN TIME: 0 days 0 hours 0 minutes 38 seconds 703 msec
