                         Program Version 6.0.0  -   RELEASE  -
|  1> ! pbe def2-sv(p) def2/J RI DEFGRID1 loosescf d4 GCP(DFT/SV(P)) printgap
|  2> %output
|  3>     printlevel normal
|  4> end
|  5> * xyz 0 1
|  6> C 3.2373275322 -0.1953030377 -2.8049876436
|  7> C 2.0842912441 -0.8477681637 -2.0725251604
|  8> O 1.5021954046 0.0641391259 -1.1080688608
|  9> P 1.8899617281 0.1121614629 0.4179866016
| 10> S 0.9235042305 1.4969692239 1.4003181947
| 11> O 3.4688769021 0.2815719495 0.3790536627
| 12> C 4.2326102585 0.7214473904 1.5177225482
| 13> C 4.2077254748 -0.2807705356 2.6531253345
| 14> S 1.6086503282 -1.8760671957 1.1151115969
| 15> C -0.1852801403 -1.7746623211 1.3195030818
| 16> S -1.0928702664 -1.764496289 -0.2650667303
| 17> P -1.9953583786 0.1567241912 -0.3785732911
| 18> S -1.2302045352 1.4890571506 -1.6063360817
| 19> O -2.134354966 0.4634881102 1.1679605615
| 20> C -3.0662912261 1.4180179114 1.724038599
| 21> C -2.6677204067 2.848058142 1.4263050869
| 22> O -3.5093748996 -0.1776935336 -0.7547189647
| 23> C -3.9504713652 -0.268958726 -2.1163996976
| 24> C -3.422050486 -1.5211982742 -2.7852019274
| 25> H 3.5928167926 -0.8715683549 -3.5760808808
| 26> H 2.9048904502 0.7319850929 -3.2644215168
| 27> H 4.0479121372 0.0243250439 -2.1153887967
| 28> H 2.4020903274 -1.7565966391 -1.5531605653
| 29> H 1.2602970958 -1.0790299853 -2.7510537812
| 30> H 5.2391179887 0.8526776703 1.1178920791
| 31> H 3.8344552643 1.6864818312 1.8459741741
| 32> H 4.9109658144 0.0313368819 3.4185247484
| 33> H 3.2110513623 -0.3272993909 3.0886870629
| 34> H 4.4802867389 -1.2693785608 2.2923557082
| 35> H -0.4344013311 -0.8749820628 1.8797484115
| 36> H -0.484487856 -2.6748345433 1.8492202482
| 37> H -4.0619424127 1.1931312355 1.3354817999
| 38> H -3.0252269563 1.2114170514 2.79498417
| 39> H -2.7366959858 3.0487178815 0.3585492549
| 40> H -3.3271426623 3.524650337 1.9601964496
| 41> H -1.6400176219 3.0209115339 1.7409597742
| 42> H -5.0388104341 -0.2738992185 -2.0456324987
| 43> H -3.6125625374 0.6260736513 -2.6500826442
| 44> H -2.3333478892 -1.4761897486 -2.8323842742
| 45> H -3.7078062516 -2.4037033515 -2.2191773068
| 46> H -3.8178953367 -1.5900122515 -3.7930954436
| 47> *
| 48>
| 49>                          ****END OF INPUT****

CARTESIAN COORDINATES (ANGSTROEM)
---------------------------------
  C      3.237328   -0.195303   -2.804988
  C      2.084291   -0.847768   -2.072525
  O      1.502195    0.064139   -1.108069
  P      1.889962    0.112161    0.417987
  S      0.923504    1.496969    1.400318
  O      3.468877    0.281572    0.379054
  C      4.232610    0.721447    1.517723
  C      4.207725   -0.280771    2.653125
  S      1.608650   -1.876067    1.115112
  C     -0.185280   -1.774662    1.319503
  S     -1.092870   -1.764496   -0.265067
  P     -1.995358    0.156724   -0.378573
  S     -1.230205    1.489057   -1.606336
  O     -2.134355    0.463488    1.167961
  C     -3.066291    1.418018    1.724039
  C     -2.667720    2.848058    1.426305
  O     -3.509375   -0.177694   -0.754719
  C     -3.950471   -0.268959   -2.116400
  C     -3.422050   -1.521198   -2.785202
  H      3.592817   -0.871568   -3.576081
  H      2.904890    0.731985   -3.264422
  H      4.047912    0.024325   -2.115389
  H      2.402090   -1.756597   -1.553161
  H      1.260297   -1.079030   -2.751054
  H      5.239118    0.852678    1.117892
  H      3.834455    1.686482    1.845974
  H      4.910966    0.031337    3.418525
  H      3.211051   -0.327299    3.088687
  H      4.480287   -1.269379    2.292356
  H     -0.434401   -0.874982    1.879748
  H     -0.484488   -2.674835    1.849220
  H     -4.061942    1.193131    1.335482
  H     -3.025227    1.211417    2.794984
  H     -2.736696    3.048718    0.358549
  H     -3.327143    3.524650    1.960196
  H     -1.640018    3.020912    1.740960
  H     -5.038810   -0.273899   -2.045632
  H     -3.612563    0.626074   -2.650083
  H     -2.333348   -1.476190   -2.832384
  H     -3.707806   -2.403703   -2.219177
  H     -3.817895   -1.590012   -3.793095

 Total Charge           Charge          ....    0
 Multiplicity           Mult            ....    1
 Number of Electrons    NEL             ....  202
 Basis Dimension        Dim             ....  334

ORBITAL ENERGIES
----------------

  NO   OCC          E(Eh)            E(eV)
   0   2.0000     -88.040698     -2395.7092
   1   2.0000     -88.034397     -2395.5377
   2   2.0000     -87.981044     -2394.0859
   3   2.0000     -87.973554     -2393.8821
   4   2.0000     -76.422263     -2079.5555
   5   2.0000     -76.419001     -2079.4667
   6   2.0000     -18.793369      -511.3936
   7   2.0000     -18.784637      -511.1560
   8   2.0000     -18.783654      -511.1292
   9   2.0000     -18.783430      -511.1231
  10   2.0000      -9.954412      -270.8733
  11   2.0000      -9.953116      -270.8381
  12   2.0000      -9.949957      -270.7521
  13   2.0000      -9.946707      -270.6636
  14   2.0000      -9.945506      -270.6310
  15   2.0000      -9.884654      -268.9751
  16   2.0000      -9.882712      -268.9223
  17   2.0000      -9.879227      -268.8274
  18   2.0000      -9.872472      -268.6436
  19   2.0000      -7.685871      -209.1432
  20   2.0000      -7.679593      -208.9723
  21   2.0000      -7.626141      -207.5178
  22   2.0000      -7.618477      -207.3093
  23   2.0000      -6.419733      -174.6898
  24   2.0000      -6.416244      -174.5949
  25   2.0000      -5.713583      -155.4745
  26   2.0000      -5.710332      -155.3860
  27   2.0000      -5.707918      -155.3204
  28   2.0000      -5.703984      -155.2133
  29   2.0000      -5.703029      -155.1873
  30   2.0000      -5.696198      -155.0014
  31   2.0000      -5.655025      -153.8811
  32   2.0000      -5.647462      -153.6752
  33   2.0000      -5.646661      -153.6535
  34   2.0000      -5.646364      -153.6454
  35   2.0000      -5.639241      -153.4516
  36   2.0000      -5.638459      -153.4303
  37   2.0000      -4.642642      -126.3327
  38   2.0000      -4.641483      -126.3012
  39   2.0000      -4.639910      -126.2584
  40   2.0000      -4.639212      -126.2394
  41   2.0000      -4.638075      -126.2084
  42   2.0000      -4.636297      -126.1601
  43   2.0000      -0.984548       -26.7909
  44   2.0000      -0.981070       -26.6963
  45   2.0000      -0.941182       -25.6109
  46   2.0000      -0.937892       -25.5213
  47   2.0000      -0.758079       -20.6284
  48   2.0000      -0.715496       -19.4696
  49   2.0000      -0.705018       -19.1845
  50   2.0000      -0.687648       -18.7118
  51   2.0000      -0.682951       -18.5840
  52   2.0000      -0.669245       -18.2111
  53   2.0000      -0.648038       -17.6340
  54   2.0000      -0.629445       -17.1281
  55   2.0000      -0.594855       -16.1868
  56   2.0000      -0.584839       -15.9143
  57   2.0000      -0.571650       -15.5554
  58   2.0000      -0.569578       -15.4990
  59   2.0000      -0.558667       -15.2021
  60   2.0000      -0.495260       -13.4767
  61   2.0000      -0.491616       -13.3776
  62   2.0000      -0.471361       -12.8264
  63   2.0000      -0.464150       -12.6302
  64   2.0000      -0.454637       -12.3713
  65   2.0000      -0.446086       -12.1386
  66   2.0000      -0.437892       -11.9156
  67   2.0000      -0.426659       -11.6100
  68   2.0000      -0.424066       -11.5394
  69   2.0000      -0.414088       -11.2679
  70   2.0000      -0.411846       -11.2069
  71   2.0000      -0.401375       -10.9220
  72   2.0000      -0.387713       -10.5502
  73   2.0000      -0.382242       -10.4013
  74   2.0000      -0.377934       -10.2841
  75   2.0000      -0.367070        -9.9885
  76   2.0000      -0.361008        -9.8235
  77   2.0000      -0.354180        -9.6377
  78   2.0000      -0.350316        -9.5326
  79   2.0000      -0.348937        -9.4951
  80   2.0000      -0.343037        -9.3345
  81   2.0000      -0.339639        -9.2420
  82   2.0000      -0.338361        -9.2073
  83   2.0000      -0.331380        -9.0173
  84   2.0000      -0.325998        -8.8709
  85   2.0000      -0.313645        -8.5347
  86   2.0000      -0.306884        -8.3507
  87   2.0000      -0.294318        -8.0088
  88   2.0000      -0.290547        -7.9062
  89   2.0000      -0.287561        -7.8249
  90   2.0000      -0.285360        -7.7650
  91   2.0000      -0.268808        -7.3146
  92   2.0000      -0.265089        -7.2134
  93   2.0000      -0.259864        -7.0713
  94   2.0000      -0.253174        -6.8892
  95   2.0000      -0.233694        -6.3591
  96   2.0000      -0.215464        -5.8631
  97   2.0000      -0.205627        -5.5954
  98   2.0000      -0.198101        -5.3906
  99   2.0000      -0.185732        -5.0540
 100   2.0000      -0.178292        -4.8516
 101   0.0000      -0.040590        -1.1045
 102   0.0000      -0.029217        -0.7950
 103   0.0000      -0.018893        -0.5141
 104   0.0000       0.005509         0.1499
 105   0.0000       0.024436         0.6649

MULLIKEN ATOMIC CHARGES
-----------------------
   0 C :   -0.290433
   1 C :   -0.006014
   2 O :   -0.332708
   3 P :    0.599328
   4 S :   -0.304971
   5 O :   -0.379628
   6 C :    0.000691
   7 C :   -0.320496
   8 S :   -0.101637
   9 C :   -0.352027
  10 S :   -0.120529
  11 P :    0.633310
  12 S :   -0.299368
  13 O :   -0.375619
  14 C :    0.000951
  15 C :   -0.313944
  16 O :   -0.379248
  17 C :   -0.004353
  18 C :   -0.319777
  19 H :    0.106161
  20 H :    0.123242
  21 H :    0.117911
  22 H :    0.097205
  23 H :    0.108976
  24 H :    0.104704
  25 H :    0.113195
  26 H :    0.114232
  27 H :    0.128709
  28 H :    0.117297
  29 H :    0.212626
  30 H :    0.181380
  31 H :    0.106720
  32 H :    0.103221
  33 H :    0.127131
  34 H :    0.103964
  35 H :    0.134455
  36 H :    0.100546
  37 H :    0.107771
  38 H :    0.123785
  39 H :    0.119757
  40 H :    0.113483
Sum of atomic charges:   -0.0000000

LOEWDIN ATOMIC CHARGES
----------------------
   0 C :   -0.360014
   1 C :   -0.115610
   2 O :   -0.221131
   3 P :    0.568737
   4 S :   -0.297353
   5 O :   -0.246304
   6 C :   -0.116666
   7 C :   -0.372138
   8 S :    0.071527
   9 C :   -0.477552
  10 S :    0.064866
  11 P :    0.569573
  12 S :   -0.295288
  13 O :   -0.240129
  14 C :   -0.106527
  15 C :   -0.368024
  16 O :   -0.248283
  17 C :   -0.126264
  18 C :   -0.368412
  19 H :    0.127905
  20 H :    0.130389
  21 H :    0.123991
  22 H :    0.100559
  23 H :    0.118869
  24 H :    0.118289
  25 H :    0.113266
  26 H :    0.131730
  27 H :    0.121688
  28 H :    0.123014
  29 H :    0.133356
  30 H :    0.137490
  31 H :    0.111577
  32 H :    0.118580
  33 H :    0.122457
  34 H :    0.126390
  35 H :    0.128755
  36 H :    0.116446
  37 H :    0.106286
  38 H :    0.117350
  39 H :    0.125418
  40 H :    0.131189

  Mayer bond orders larger than 0.100000
B(  0-C ,  1-C ) :   1.1630 B(  0-C , 19-H ) :   0.9401 B(  0-C , 20-H ) :   0.9466
B(  0-C , 21-H ) :   0.9423 B(  1-C ,  2-O ) :   0.8908 B(  1-C , 22-H ) :   0.9116
B(  1-C , 23-H ) :   0.9305 B(  2-O ,  3-P ) :   1.1584 B(  3-P ,  4-S ) :   1.6408
B(  3-P ,  5-O ) :   1.0835 B(  3-P ,  8-S ) :   0.9410 B(  4-S ,  8-S ) :   0.1054
B(  5-O ,  6-C ) :   0.9057 B(  6-C ,  7-C ) :   1.1660 B(  6-C , 24-H ) :   0.9340
B(  6-C , 25-H ) :   0.9176 B(  7-C , 26-H ) :   0.9371 B(  7-C , 27-H ) :   0.9341
B(  7-C , 28-H ) :   0.9435 B(  8-S ,  9-C ) :   1.0010 B(  9-C , 10-S ) :   0.9964
B(  9-C , 29-H ) :   0.8613 B(  9-C , 30-H ) :   0.9116 B( 10-S , 11-P ) :   0.9389
B( 10-S , 12-S ) :   0.1067 B( 11-P , 12-S ) :   1.6555 B( 11-P , 13-O ) :   1.1096
B( 11-P , 16-O ) :   1.0625 B( 13-O , 14-C ) :   0.9016 B( 14-C , 15-C ) :   1.1673
B( 14-C , 31-H ) :   0.9270 B( 14-C , 32-H ) :   0.9358 B( 15-C , 33-H ) :   0.9329
B( 15-C , 34-H ) :   0.9365 B( 15-C , 35-H ) :   0.9403 B( 16-O , 17-C ) :   0.9198
B( 17-C , 18-C ) :   1.1630 B( 17-C , 36-H ) :   0.9310 B( 17-C , 37-H ) :   0.9055
B( 18-C , 38-H ) :   0.9315 B( 18-C , 39-H ) :   0.9446 B( 18-C , 40-H ) :   0.9394

Dispersion correction           -0.068175514
FINAL SINGLE POINT ENERGY     -2929.509405636057

DIPOLE MOMENT
-------------

Method             : SCF
Type of density    : Electron Density
Multiplicity       :   1
Irrep              :   0
Energy             : -2929.6272855873417029 Eh
Relativity type    :
Basis              : AO
                                X                 Y                 Z
Electronic contribution:     -1.572291951      -1.879538071       3.239772433
Nuclear contribution   :      1.638850649       1.058534521      -2.983664961
                        -----------------------------------------
Total Dipole Moment    :      0.066558698      -0.821003550       0.256107472
                        -----------------------------------------
Magnitude (a.u.)       :      0.862593720
Magnitude (Debye)      :      2.192538993

Rotational constants in cm-1:             0.012132             0.005686             0.005115
Rotational constants in MHz :           363.721025           170.449532           153.345989

                             ****ORCA TERMINATED NORMALLY****
TOTAL RUN TIME: 0 days 0 hours 0 minutes 21 seconds 504 msec
