                         Program Version 6.0.0  -   RELEASE  -
|  1> ! pbe def2-sv(p) def2/J RI DEFGRID1 loosescf d4 GCP(DFT/SV(P)) printgap
|  2> %output
|  3>     printlevel normal
|  4> end
|  5> * xyz 0 1
|  6> C 2.5020690808 2.606836675 -0.269134447
|  7> C 2.7206164426 1.7975440249 0.9936117987
|  8> O 1.6642202802 0.820267533 1.1825889785
|  9> P 1.7653674614 -0.7088471685 0.8108029663
| 10> S 0.2021380078 -1.6664699639 1.4973032188
| 11> O 3.1812850296 -1.07952148 1.4312924766
| 12> C 3.9731746469 -2.2296026825 1.0782805916
| 13> C 3.2179878714 -3.5328372034 1.2307622772
| 14> S 2.1226724295 -0.9074027068 -1.2786557339
| 15> C 0.4211204435 -0.7847948683 -1.8619828537
| 16> S -0.238859484 0.9129770573 -1.7674577326
| 17> P -1.8567874323 0.6315534827 -0.4555548451
| 18> S -2.7111313128 -1.1373825879 -0.5507747365
| 19> O -2.8470280486 1.8370159738 -0.7734408721
| 20> C -3.9011257428 1.7333805097 -1.7455973851
| 21> C -3.3662736175 1.7024556802 -3.1625917103
| 22> O -1.1958625734 1.1461932337 0.8889140585
| 23> C -1.912424854 1.5863390459 2.0600413641
| 24> C -2.86772233 0.537287047 2.588612153
| 25> H 1.5051205506 3.0401019624 -0.268995293
| 26> H 3.2380280485 3.4037713383 -0.3059069628
| 27> H 2.6079437931 1.9854485006 -1.1550312368
| 28> H 2.6574252128 2.4281316149 1.8821031967
| 29> H 3.6825081175 1.2824580669 0.9778007895
| 30> H 4.3199407267 -2.1017246998 0.049302172
| 31> H 4.8187285343 -2.1767825063 1.7665002739
| 32> H 2.3844370468 -3.5698993208 0.5307619419
| 33> H 3.8869305793 -4.3629674021 1.0284347605
| 34> H 2.8204850349 -3.6263066311 2.23872965
| 35> H -0.2248984949 -1.4440638013 -1.274670193
| 36> H 0.4405619846 -1.0823904039 -2.9071086404
| 37> H -4.4785570588 0.8276605162 -1.5334945414
| 38> H -4.5130054274 2.6179262976 -1.5634325971
| 39> H -2.8244627766 0.7737374895 -3.334160842
| 40> H -4.1961732646 1.759340287 -3.8594587233
| 41> H -2.6926497551 2.5386847077 -3.3309947366
| 42> H -1.1156440103 1.7932882883 2.7772190637
| 43> H -2.4407217693 2.5087515435 1.8066855873
| 44> H -2.339029965 -0.4007591808 2.7517990405
| 45> H -3.2970240832 0.8759357478 3.5261861275
| 46> H -3.6686321843 0.3593073316 1.8717408997
| 47> *
| 48>
| 49>                          ****END OF INPUT****

CARTESIAN COORDINATES (ANGSTROEM)
---------------------------------
  C      2.502069    2.606837   -0.269134
  C      2.720616    1.797544    0.993612
  O      1.664220    0.820268    1.182589
  P      1.765367   -0.708847    0.810803
  S      0.202138   -1.666470    1.497303
  O      3.181285   -1.079521    1.431292
  C      3.973175   -2.229603    1.078281
  C      3.217988   -3.532837    1.230762
  S      2.122672   -0.907403   -1.278656
  C      0.421120   -0.784795   -1.861983
  S     -0.238859    0.912977   -1.767458
  P     -1.856787    0.631553   -0.455555
  S     -2.711131   -1.137383   -0.550775
  O     -2.847028    1.837016   -0.773441
  C     -3.901126    1.733381   -1.745597
  C     -3.366274    1.702456   -3.162592
  O     -1.195863    1.146193    0.888914
  C     -1.912425    1.586339    2.060041
  C     -2.867722    0.537287    2.588612
  H      1.505121    3.040102   -0.268995
  H      3.238028    3.403771   -0.305907
  H      2.607944    1.985449   -1.155031
  H      2.657425    2.428132    1.882103
  H      3.682508    1.282458    0.977801
  H      4.319941   -2.101725    0.049302
  H      4.818729   -2.176783    1.766500
  H      2.384437   -3.569899    0.530762
  H      3.886931   -4.362967    1.028435
  H      2.820485   -3.626307    2.238730
  H     -0.224898   -1.444064   -1.274670
  H      0.440562   -1.082390   -2.907109
  H     -4.478557    0.827661   -1.533495
  H     -4.513005    2.617926   -1.563433
  H     -2.824463    0.773737   -3.334161
  H     -4.196173    1.759340   -3.859459
  H     -2.692650    2.538685   -3.330995
  H     -1.115644    1.793288    2.777219
  H     -2.440722    2.508752    1.806686
  H     -2.339030   -0.400759    2.751799
  H     -3.297024    0.875936    3.526186
  H     -3.668632    0.359307    1.871741

 Total Charge           Charge          ....    0
 Multiplicity           Mult            ....    1
 Number of Electrons    NEL             ....  202
 Basis Dimension        Dim             ....  334

ORBITAL ENERGIES
----------------

  NO   OCC          E(Eh)            E(eV)
   0   2.0000     -88.044676     -2395.8174
   1   2.0000     -88.038341     -2395.6450
   2   2.0000     -87.979046     -2394.0316
   3   2.0000     -87.975484     -2393.9346
   4   2.0000     -76.422289     -2079.5562
   5   2.0000     -76.420671     -2079.5122
   6   2.0000     -18.793169      -511.3881
   7   2.0000     -18.790663      -511.3199
   8   2.0000     -18.784784      -511.1600
   9   2.0000     -18.777037      -510.9492
  10   2.0000      -9.958351      -270.9805
  11   2.0000      -9.953857      -270.8582
  12   2.0000      -9.951571      -270.7960
  13   2.0000      -9.948357      -270.7086
  14   2.0000      -9.944189      -270.5952
  15   2.0000      -9.881162      -268.8801
  16   2.0000      -9.881015      -268.8761
  17   2.0000      -9.879470      -268.8341
  18   2.0000      -9.870893      -268.6007
  19   2.0000      -7.689614      -209.2450
  20   2.0000      -7.683531      -209.0795
  21   2.0000      -7.623958      -207.4584
  22   2.0000      -7.620525      -207.3650
  23   2.0000      -6.419384      -174.6803
  24   2.0000      -6.417827      -174.6379
  25   2.0000      -5.717327      -155.5764
  26   2.0000      -5.713951      -155.4845
  27   2.0000      -5.711400      -155.4151
  28   2.0000      -5.708041      -155.3237
  29   2.0000      -5.706952      -155.2940
  30   2.0000      -5.700398      -155.1157
  31   2.0000      -5.652871      -153.8224
  32   2.0000      -5.649612      -153.7338
  33   2.0000      -5.644709      -153.6003
  34   2.0000      -5.644009      -153.5813
  35   2.0000      -5.641069      -153.5013
  36   2.0000      -5.640550      -153.4872
  37   2.0000      -4.642254      -126.3221
  38   2.0000      -4.641466      -126.3007
  39   2.0000      -4.640639      -126.2782
  40   2.0000      -4.639326      -126.2425
  41   2.0000      -4.639323      -126.2424
  42   2.0000      -4.638382      -126.2168
  43   2.0000      -0.985239       -26.8097
  44   2.0000      -0.980812       -26.6893
  45   2.0000      -0.940257       -25.5857
  46   2.0000      -0.935493       -25.4560
  47   2.0000      -0.761407       -20.7189
  48   2.0000      -0.717733       -19.5305
  49   2.0000      -0.706444       -19.2233
  50   2.0000      -0.687692       -18.7130
  51   2.0000      -0.682842       -18.5811
  52   2.0000      -0.671352       -18.2684
  53   2.0000      -0.647642       -17.6232
  54   2.0000      -0.630187       -17.1483
  55   2.0000      -0.593181       -16.1413
  56   2.0000      -0.584932       -15.9168
  57   2.0000      -0.574459       -15.6318
  58   2.0000      -0.569886       -15.5074
  59   2.0000      -0.559731       -15.2311
  60   2.0000      -0.500905       -13.6303
  61   2.0000      -0.489598       -13.3226
  62   2.0000      -0.469399       -12.7730
  63   2.0000      -0.463325       -12.6077
  64   2.0000      -0.449822       -12.2403
  65   2.0000      -0.447169       -12.1681
  66   2.0000      -0.436776       -11.8853
  67   2.0000      -0.430939       -11.7265
  68   2.0000      -0.425643       -11.5823
  69   2.0000      -0.412716       -11.2306
  70   2.0000      -0.410407       -11.1677
  71   2.0000      -0.402755       -10.9595
  72   2.0000      -0.396497       -10.7892
  73   2.0000      -0.384898       -10.4736
  74   2.0000      -0.379364       -10.3230
  75   2.0000      -0.365345        -9.9415
  76   2.0000      -0.353659        -9.6236
  77   2.0000      -0.352196        -9.5837
  78   2.0000      -0.348603        -9.4860
  79   2.0000      -0.342555        -9.3214
  80   2.0000      -0.342171        -9.3110
  81   2.0000      -0.339771        -9.2456
  82   2.0000      -0.337073        -9.1722
  83   2.0000      -0.334119        -9.0919
  84   2.0000      -0.326108        -8.8739
  85   2.0000      -0.314582        -8.5602
  86   2.0000      -0.310094        -8.4381
  87   2.0000      -0.295717        -8.0469
  88   2.0000      -0.291652        -7.9363
  89   2.0000      -0.291067        -7.9203
  90   2.0000      -0.275782        -7.5044
  91   2.0000      -0.271264        -7.3815
  92   2.0000      -0.269322        -7.3286
  93   2.0000      -0.259542        -7.0625
  94   2.0000      -0.254898        -6.9361
  95   2.0000      -0.233582        -6.3561
  96   2.0000      -0.219575        -5.9749
  97   2.0000      -0.209621        -5.7041
  98   2.0000      -0.194584        -5.2949
  99   2.0000      -0.187554        -5.1036
 100   2.0000      -0.180084        -4.9003
 101   0.0000      -0.039169        -1.0658
 102   0.0000      -0.029921        -0.8142
 103   0.0000      -0.011373        -0.3095
 104   0.0000       0.014513         0.3949
 105   0.0000       0.017480         0.4756

MULLIKEN ATOMIC CHARGES
-----------------------
   0 C :   -0.288969
   1 C :   -0.012328
   2 O :   -0.344318
   3 P :    0.601048
   4 S :   -0.287349
   5 O :   -0.382827
   6 C :   -0.014176
   7 C :   -0.305663
   8 S :   -0.130550
   9 C :   -0.347710
  10 S :   -0.094198
  11 P :    0.625360
  12 S :   -0.315403
  13 O :   -0.382914
  14 C :   -0.004445
  15 C :   -0.308701
  16 O :   -0.351879
  17 C :    0.009879
  18 C :   -0.322868
  19 H :    0.123201
  20 H :    0.103820
  21 H :    0.120632
  22 H :    0.106182
  23 H :    0.100299
  24 H :    0.113123
  25 H :    0.108420
  26 H :    0.127428
  27 H :    0.109551
  28 H :    0.126670
  29 H :    0.210599
  30 H :    0.181013
  31 H :    0.110151
  32 H :    0.101129
  33 H :    0.121792
  34 H :    0.111002
  35 H :    0.114742
  36 H :    0.103963
  37 H :    0.100618
  38 H :    0.138724
  39 H :    0.104303
  40 H :    0.120648
Sum of atomic charges:   -0.0000000

LOEWDIN ATOMIC CHARGES
----------------------
   0 C :   -0.365672
   1 C :   -0.111082
   2 O :   -0.229048
   3 P :    0.561697
   4 S :   -0.288225
   5 O :   -0.247120
   6 C :   -0.115637
   7 C :   -0.369053
   8 S :    0.062584
   9 C :   -0.478418
  10 S :    0.092133
  11 P :    0.572160
  12 S :   -0.306182
  13 O :   -0.248165
  14 C :   -0.121997
  15 C :   -0.368461
  16 O :   -0.231630
  17 C :   -0.108347
  18 C :   -0.370363
  19 H :    0.125698
  20 H :    0.126310
  21 H :    0.114313
  22 H :    0.120053
  23 H :    0.107654
  24 H :    0.106746
  25 H :    0.120759
  26 H :    0.122157
  27 H :    0.129262
  28 H :    0.130720
  29 H :    0.126793
  30 H :    0.136659
  31 H :    0.109000
  32 H :    0.116314
  33 H :    0.120243
  34 H :    0.129926
  35 H :    0.123450
  36 H :    0.119965
  37 H :    0.108879
  38 H :    0.130957
  39 H :    0.126343
  40 H :    0.118624

  Mayer bond orders larger than 0.100000
B(  0-C ,  1-C ) :   1.1692 B(  0-C , 19-H ) :   0.9422 B(  0-C , 20-H ) :   0.9372
B(  0-C , 21-H ) :   0.9332 B(  1-C ,  2-O ) :   0.9003 B(  1-C , 22-H ) :   0.9355
B(  1-C , 23-H ) :   0.9189 B(  2-O ,  3-P ) :   1.1394 B(  3-P ,  4-S ) :   1.6653
B(  3-P ,  5-O ) :   1.0787 B(  3-P ,  8-S ) :   0.9228 B(  4-S ,  8-S ) :   0.1071
B(  5-O ,  6-C ) :   0.9131 B(  6-C ,  7-C ) :   1.1672 B(  6-C , 24-H ) :   0.9257
B(  6-C , 25-H ) :   0.9333 B(  7-C , 26-H ) :   0.9319 B(  7-C , 27-H ) :   0.9348
B(  7-C , 28-H ) :   0.9430 B(  8-S ,  9-C ) :   1.0090 B(  9-C , 10-S ) :   0.9986
B(  9-C , 29-H ) :   0.8438 B(  9-C , 30-H ) :   0.9110 B( 10-S , 11-P ) :   0.9630
B( 10-S , 12-S ) :   0.1181 B( 11-P , 12-S ) :   1.5989 B( 11-P , 13-O ) :   1.0824
B( 11-P , 16-O ) :   1.1413 B( 13-O , 14-C ) :   0.9112 B( 14-C , 15-C ) :   1.1674
B( 14-C , 31-H ) :   0.9112 B( 14-C , 32-H ) :   0.9332 B( 15-C , 33-H ) :   0.9361
B( 15-C , 34-H ) :   0.9386 B( 15-C , 35-H ) :   0.9455 B( 16-O , 17-C ) :   0.9081
B( 17-C , 18-C ) :   1.1674 B( 17-C , 36-H ) :   0.9317 B( 17-C , 37-H ) :   0.9324
B( 18-C , 38-H ) :   0.9388 B( 18-C , 39-H ) :   0.9359 B( 18-C , 40-H ) :   0.9360

Dispersion correction           -0.068791719
FINAL SINGLE POINT ENERGY     -2929.513095942971

DIPOLE MOMENT
-------------

Method             : SCF
Type of density    : Electron Density
Multiplicity       :   1
Irrep              :   0
Energy             : -2929.6301993441338709 Eh
Relativity type    :
Basis              : AO
                                X                 Y                 Z
Electronic contribution:      0.277313554      -6.118049952      -1.645149654
Nuclear contribution   :      0.647656133       7.160694940       1.354292143
                        -----------------------------------------
Total Dipole Moment    :      0.924969687       1.042644988      -0.290857510
                        -----------------------------------------
Magnitude (a.u.)       :      1.423824281
Magnitude (Debye)      :      3.619073710

Rotational constants in cm-1:             0.012624             0.005500             0.005259
Rotational constants in MHz :           378.455316           164.898378           157.654349

                             ****ORCA TERMINATED NORMALLY****
TOTAL RUN TIME: 0 days 0 hours 0 minutes 22 seconds 260 msec
