                         Program Version 6.0.0  -   RELEASE  -
|  1> ! r2scan-3c def2/J RI DEFGRID2 scfconv6 printgap
|  2> %output
|  3>     printlevel normal
|  4> end
|  5> %cpcm
|  6>     smd true
|  7>     smdsolvent "water"
|  8> end
|  9> * xyz 0 1
| 10> C -1.9444652673 0.0582331848 -0.0030915486
| 11> C -0.6881701568 -0.788396806 0.0038990924
| 12> N 0.526356387 0.0227682244 0.0004706993
| 13> O 0.4320956385 1.2304728601 0.0014545236
| 14> O 1.5894534437 -0.5722077203 -0.0026413679
| 15> H -2.8151464347 -0.5888584194 2.5934e-05
| 16> H -1.9788046934 0.7013621111 0.8721496829
| 17> H -1.9766885541 0.6899191957 -0.8867228936
| 18> H -0.6294979624 -1.4397403952 -0.8720218892
| 19> H -0.6322900829 -1.4272441822 0.8892445818
| 20> *
| 21>
| 22>                          ****END OF INPUT****

CARTESIAN COORDINATES (ANGSTROEM)
---------------------------------
  C     -1.944465    0.058233   -0.003092
  C     -0.688170   -0.788397    0.003899
  N      0.526356    0.022768    0.000471
  O      0.432096    1.230473    0.001455
  O      1.589453   -0.572208   -0.002641
  H     -2.815146   -0.588858    0.000026
  H     -1.978805    0.701362    0.872150
  H     -1.976689    0.689919   -0.886723
  H     -0.629498   -1.439740   -0.872022
  H     -0.632290   -1.427244    0.889245

 Total Charge           Charge          ....    0
 Multiplicity           Mult            ....    1
 Number of Electrons    NEL             ....   40
 Basis Dimension        Dim             ....  135

ORBITAL ENERGIES
----------------

  NO   OCC          E(Eh)            E(eV)
   0   2.0000     -18.997931      -516.9600
   1   2.0000     -18.993066      -516.8276
   2   2.0000     -14.398306      -391.7978
   3   2.0000     -10.082906      -274.3698
   4   2.0000     -10.024914      -272.7918
   5   2.0000      -1.215266       -33.0691
   6   2.0000      -1.037586       -28.2341
   7   2.0000      -0.800416       -21.7804
   8   2.0000      -0.668571       -18.1927
   9   2.0000      -0.567341       -15.4381
  10   2.0000      -0.528857       -14.3909
  11   2.0000      -0.512641       -13.9497
  12   2.0000      -0.496398       -13.5077
  13   2.0000      -0.412783       -11.2324
  14   2.0000      -0.380038       -10.3414
  15   2.0000      -0.352549        -9.5934
  16   2.0000      -0.331416        -9.0183
  17   2.0000      -0.303088        -8.2474
  18   2.0000      -0.289568        -7.8796
  19   2.0000      -0.269618        -7.3367
  20   0.0000      -0.108431        -2.9506
  21   0.0000       0.092631         2.5206
  22   0.0000       0.110569         3.0087
  23   0.0000       0.135246         3.6802
  24   0.0000       0.157872         4.2959

MULLIKEN ATOMIC CHARGES
-----------------------
   0 C :   -0.451401
   1 C :   -0.289707
   2 N :    0.261168
   3 O :   -0.226875
   4 O :   -0.249962
   5 H :    0.175641
   6 H :    0.172657
   7 H :    0.172767
   8 H :    0.217753
   9 H :    0.217959
Sum of atomic charges:    0.0000000

LOEWDIN ATOMIC CHARGES
----------------------
   0 C :   -0.374758
   1 C :    0.034034
   2 N :   -0.521981
   3 O :   -0.037097
   4 O :   -0.049653
   5 H :    0.169072
   6 H :    0.168537
   7 H :    0.168458
   8 H :    0.221570
   9 H :    0.221817

  Mayer bond orders larger than 0.100000
B(  0-C ,  1-C ) :   0.9132 B(  0-C ,  5-H ) :   0.9489 B(  0-C ,  6-H ) :   0.9698
B(  0-C ,  7-H ) :   0.9700 B(  1-C ,  2-N ) :   0.9387 B(  1-C ,  8-H ) :   0.9101
B(  1-C ,  9-H ) :   0.9092 B(  2-N ,  3-O ) :   1.8294 B(  2-N ,  4-O ) :   1.8092
B(  3-O ,  4-O ) :   0.2693

Dispersion correction           -0.001883666
FINAL SINGLE POINT ENERGY      -284.287588823058

DIPOLE MOMENT
-------------

Method             : SCF
Type of density    : Electron Density
Multiplicity       :   1
Irrep              :   0
Energy             :  -284.2969883902856054 Eh
Relativity type    :
Basis              : AO
                                X                 Y                 Z
Electronic contribution:      5.833901460       0.982923235       0.002124886
Nuclear contribution   :     -7.502923072      -1.927026235       0.002494989
                        -----------------------------------------
Total Dipole Moment    :     -1.669021612      -0.944103000       0.004619875
                        -----------------------------------------
Magnitude (a.u.)       :      1.917546598
Magnitude (Debye)      :      4.874016109

Rotational constants in cm-1:             0.369954             0.142634             0.107027
Rotational constants in MHz :         11090.948230          4276.068556          3208.594420

                             ****ORCA TERMINATED NORMALLY****
TOTAL RUN TIME: 0 days 0 hours 0 minutes 21 seconds 187 msec
