                         Program Version 6.0.0  -   RELEASE  -
|  1> ! pbe def2-sv(p) def2/J RI DEFGRID1 loosescf d4 GCP(DFT/SV(P)) printgap
|  2> %output
|  3>     printlevel normal
|  4> end
|  5> * xyz 0 1
|  6> C 3.8038994227 -2.7246163475 -0.2399063865
|  7> C 4.3183301016 -1.3698082192 0.2058976777
|  8> O 3.2539681505 -0.4184860172 0.4002185615
|  9> P 2.4459802714 0.1794127431 -0.8320167373
| 10> S 3.4626328845 0.415086138 -2.4883306555
| 11> O 1.9566791792 1.5063990088 -0.1060224178
| 12> C 1.6376472406 2.697866011 -0.8443293938
| 13> C 0.4802682817 2.4973303446 -1.8017990418
| 14> S 0.7092119076 -1.0279438652 -0.9277934465
| 15> C 0.3937892053 -1.0859234242 0.87935534
| 16> S -1.2963439782 -1.5795764914 1.2140160903
| 17> P -2.1916508866 0.3105888679 0.7797395515
| 18> S -1.2084564144 1.8335746873 1.5282070875
| 19> O -3.7090610371 0.1050487546 1.1951887796
| 20> C -4.1549436503 -0.4823576712 2.4319585256
| 21> C -3.6056531246 0.2310919721 3.6492143168
| 22> O -2.3061641893 0.5058288708 -0.781161028
| 23> C -3.2271616927 -0.1660152682 -1.6746897285
| 24> C -2.965578281 -1.6543265751 -1.7765830075
| 25> H 4.6405532753 -3.4101468921 -0.3298239678
| 26> H 3.0923370242 -3.1244752512 0.477934137
| 27> H 3.3169640457 -2.6352560371 -1.21080262
| 28> H 5.0137343751 -0.9644509986 -0.5357292557
| 29> H 4.8047908138 -1.4206838169 1.1809203414
| 30> H 1.3910140638 3.4247974477 -0.0686065464
| 31> H 2.5326319104 3.0147897623 -1.3883595474
| 32> H 0.2623732223 3.4361329674 -2.3005585165
| 33> H 0.7409862523 1.748844566 -2.5504588751
| 34> H -0.4058623929 2.1666853376 -1.2637765033
| 35> H 0.5739108606 -0.0932859249 1.2989283761
| 36> H 1.0384236249 -1.8343525994 1.3318201526
| 37> H -5.2418364032 -0.3992990756 2.3773241237
| 38> H -3.8602339679 -1.5352093594 2.4358900749
| 39> H -2.5226897584 0.1239075292 3.6908958778
| 40> H -3.8440128304 1.2914163497 3.6083363241
| 41> H -4.0382386167 -0.2001947058 4.5461305616
| 42> H -4.2430264694 0.0344301686 -1.3299119719
| 43> H -3.0518127401 0.3342641572 -2.6283757939
| 44> H -3.5775968317 -2.0634212217 -2.5743835503
| 45> H -1.9169048333 -1.8384593941 -2.0023138813
| 46> H -3.2191208425 -2.155895933 -0.8454566335
| 47> *
| 48>
| 49>                          ****END OF INPUT****

CARTESIAN COORDINATES (ANGSTROEM)
---------------------------------
  C      3.803899   -2.724616   -0.239906
  C      4.318330   -1.369808    0.205898
  O      3.253968   -0.418486    0.400219
  P      2.445980    0.179413   -0.832017
  S      3.462633    0.415086   -2.488331
  O      1.956679    1.506399   -0.106022
  C      1.637647    2.697866   -0.844329
  C      0.480268    2.497330   -1.801799
  S      0.709212   -1.027944   -0.927793
  C      0.393789   -1.085923    0.879355
  S     -1.296344   -1.579576    1.214016
  P     -2.191651    0.310589    0.779740
  S     -1.208456    1.833575    1.528207
  O     -3.709061    0.105049    1.195189
  C     -4.154944   -0.482358    2.431959
  C     -3.605653    0.231092    3.649214
  O     -2.306164    0.505829   -0.781161
  C     -3.227162   -0.166015   -1.674690
  C     -2.965578   -1.654327   -1.776583
  H      4.640553   -3.410147   -0.329824
  H      3.092337   -3.124475    0.477934
  H      3.316964   -2.635256   -1.210803
  H      5.013734   -0.964451   -0.535729
  H      4.804791   -1.420684    1.180920
  H      1.391014    3.424797   -0.068607
  H      2.532632    3.014790   -1.388360
  H      0.262373    3.436133   -2.300559
  H      0.740986    1.748845   -2.550459
  H     -0.405862    2.166685   -1.263777
  H      0.573911   -0.093286    1.298928
  H      1.038424   -1.834353    1.331820
  H     -5.241836   -0.399299    2.377324
  H     -3.860234   -1.535209    2.435890
  H     -2.522690    0.123908    3.690896
  H     -3.844013    1.291416    3.608336
  H     -4.038239   -0.200195    4.546131
  H     -4.243026    0.034430   -1.329912
  H     -3.051813    0.334264   -2.628376
  H     -3.577597   -2.063421   -2.574384
  H     -1.916905   -1.838459   -2.002314
  H     -3.219121   -2.155896   -0.845457

 Total Charge           Charge          ....    0
 Multiplicity           Mult            ....    1
 Number of Electrons    NEL             ....  202
 Basis Dimension        Dim             ....  334

ORBITAL ENERGIES
----------------

  NO   OCC          E(Eh)            E(eV)
   0   2.0000     -88.054114     -2396.0743
   1   2.0000     -88.038872     -2395.6595
   2   2.0000     -87.987015     -2394.2484
   3   2.0000     -87.985387     -2394.2041
   4   2.0000     -76.433385     -2079.8582
   5   2.0000     -76.422024     -2079.5490
   6   2.0000     -18.805942      -511.7357
   7   2.0000     -18.795039      -511.4390
   8   2.0000     -18.786931      -511.2184
   9   2.0000     -18.779061      -511.0042
  10   2.0000      -9.968481      -271.2562
  11   2.0000      -9.959220      -271.0042
  12   2.0000      -9.956671      -270.9348
  13   2.0000      -9.951151      -270.7846
  14   2.0000      -9.938167      -270.4313
  15   2.0000      -9.889918      -269.1184
  16   2.0000      -9.889812      -269.1155
  17   2.0000      -9.884859      -268.9807
  18   2.0000      -9.863107      -268.3888
  19   2.0000      -7.698897      -209.4976
  20   2.0000      -7.683706      -209.0843
  21   2.0000      -7.631836      -207.6728
  22   2.0000      -7.630517      -207.6369
  23   2.0000      -6.430402      -174.9801
  24   2.0000      -6.419429      -174.6815
  25   2.0000      -5.726608      -155.8289
  26   2.0000      -5.723406      -155.7418
  27   2.0000      -5.716091      -155.5427
  28   2.0000      -5.711950      -155.4301
  29   2.0000      -5.708209      -155.3283
  30   2.0000      -5.700392      -155.1155
  31   2.0000      -5.660931      -154.0418
  32   2.0000      -5.659518      -154.0033
  33   2.0000      -5.652415      -153.8100
  34   2.0000      -5.651869      -153.7952
  35   2.0000      -5.650979      -153.7710
  36   2.0000      -5.650773      -153.7654
  37   2.0000      -4.653474      -126.6275
  38   2.0000      -4.652315      -126.5959
  39   2.0000      -4.650310      -126.5414
  40   2.0000      -4.641787      -126.3095
  41   2.0000      -4.641468      -126.3008
  42   2.0000      -4.639876      -126.2574
  43   2.0000      -0.996864       -27.1260
  44   2.0000      -0.981021       -26.6949
  45   2.0000      -0.951780       -25.8992
  46   2.0000      -0.937404       -25.5081
  47   2.0000      -0.766681       -20.8625
  48   2.0000      -0.723843       -19.6968
  49   2.0000      -0.709618       -19.3097
  50   2.0000      -0.697828       -18.9889
  51   2.0000      -0.681529       -18.5453
  52   2.0000      -0.670800       -18.2534
  53   2.0000      -0.655228       -17.8296
  54   2.0000      -0.638904       -17.3855
  55   2.0000      -0.597088       -16.2476
  56   2.0000      -0.591601       -16.0983
  57   2.0000      -0.587560       -15.9883
  58   2.0000      -0.565634       -15.3917
  59   2.0000      -0.560135       -15.2421
  60   2.0000      -0.505485       -13.7549
  61   2.0000      -0.488120       -13.2824
  62   2.0000      -0.477752       -13.0003
  63   2.0000      -0.460857       -12.5406
  64   2.0000      -0.456939       -12.4339
  65   2.0000      -0.445802       -12.1309
  66   2.0000      -0.444307       -12.0902
  67   2.0000      -0.438893       -11.9429
  68   2.0000      -0.432844       -11.7783
  69   2.0000      -0.418653       -11.3921
  70   2.0000      -0.414275       -11.2730
  71   2.0000      -0.411053       -11.1853
  72   2.0000      -0.394871       -10.7450
  73   2.0000      -0.390065       -10.6142
  74   2.0000      -0.381039       -10.3686
  75   2.0000      -0.375464       -10.2169
  76   2.0000      -0.360169        -9.8007
  77   2.0000      -0.359243        -9.7755
  78   2.0000      -0.353303        -9.6139
  79   2.0000      -0.350188        -9.5291
  80   2.0000      -0.347099        -9.4451
  81   2.0000      -0.345216        -9.3938
  82   2.0000      -0.338938        -9.2230
  83   2.0000      -0.332582        -9.0500
  84   2.0000      -0.329152        -8.9567
  85   2.0000      -0.324443        -8.8285
  86   2.0000      -0.312489        -8.5033
  87   2.0000      -0.305527        -8.3138
  88   2.0000      -0.297411        -8.0930
  89   2.0000      -0.294124        -8.0035
  90   2.0000      -0.284149        -7.7321
  91   2.0000      -0.279004        -7.5921
  92   2.0000      -0.269619        -7.3367
  93   2.0000      -0.260362        -7.0848
  94   2.0000      -0.253908        -6.9092
  95   2.0000      -0.236915        -6.4468
  96   2.0000      -0.216211        -5.8834
  97   2.0000      -0.206819        -5.6278
  98   2.0000      -0.205317        -5.5869
  99   2.0000      -0.199977        -5.4417
 100   2.0000      -0.199002        -5.4151
 101   0.0000      -0.047378        -1.2892
 102   0.0000      -0.027441        -0.7467
 103   0.0000      -0.023224        -0.6320
 104   0.0000      -0.000010        -0.0003
 105   0.0000       0.008934         0.2431

MULLIKEN ATOMIC CHARGES
-----------------------
   0 C :   -0.320068
   1 C :   -0.002820
   2 O :   -0.373691
   3 P :    0.586627
   4 S :   -0.316052
   5 O :   -0.362515
   6 C :    0.014211
   7 C :   -0.344658
   8 S :   -0.088066
   9 C :   -0.363198
  10 S :   -0.117267
  11 P :    0.617354
  12 S :   -0.303383
  13 O :   -0.380623
  14 C :   -0.017966
  15 C :   -0.308650
  16 O :   -0.347555
  17 C :    0.005294
  18 C :   -0.327722
  19 H :    0.112876
  20 H :    0.114284
  21 H :    0.130948
  22 H :    0.114267
  23 H :    0.106258
  24 H :    0.105896
  25 H :    0.104752
  26 H :    0.102118
  27 H :    0.112353
  28 H :    0.148587
  29 H :    0.214876
  30 H :    0.186661
  31 H :    0.112708
  32 H :    0.116812
  33 H :    0.128892
  34 H :    0.129282
  35 H :    0.114031
  36 H :    0.109856
  37 H :    0.113499
  38 H :    0.114599
  39 H :    0.139105
  40 H :    0.118087
Sum of atomic charges:   -0.0000000

LOEWDIN ATOMIC CHARGES
----------------------
   0 C :   -0.367827
   1 C :   -0.118381
   2 O :   -0.243373
   3 P :    0.574277
   4 S :   -0.317200
   5 O :   -0.235940
   6 C :   -0.114951
   7 C :   -0.380642
   8 S :    0.070058
   9 C :   -0.479210
  10 S :    0.081355
  11 P :    0.576102
  12 S :   -0.293961
  13 O :   -0.242977
  14 C :   -0.114526
  15 C :   -0.368670
  16 O :   -0.227616
  17 C :   -0.108318
  18 C :   -0.371729
  19 H :    0.131471
  20 H :    0.120738
  21 H :    0.123475
  22 H :    0.111617
  23 H :    0.118986
  24 H :    0.119648
  25 H :    0.108060
  26 H :    0.127366
  27 H :    0.113842
  28 H :    0.121995
  29 H :    0.127415
  30 H :    0.129871
  31 H :    0.122910
  32 H :    0.108521
  33 H :    0.122850
  34 H :    0.132181
  35 H :    0.131645
  36 H :    0.114148
  37 H :    0.124523
  38 H :    0.131909
  39 H :    0.125079
  40 H :    0.115278

  Mayer bond orders larger than 0.100000
B(  0-C ,  1-C ) :   1.1604 B(  0-C , 19-H ) :   0.9378 B(  0-C , 20-H ) :   0.9433
B(  0-C , 21-H ) :   0.9343 B(  1-C ,  2-O ) :   0.9140 B(  1-C , 22-H ) :   0.9148
B(  1-C , 23-H ) :   0.9344 B(  2-O ,  3-P ) :   1.0791 B(  3-P ,  4-S ) :   1.6234
B(  3-P ,  5-O ) :   1.1155 B(  3-P ,  8-S ) :   0.9722 B(  5-O ,  6-C ) :   0.9008
B(  6-C ,  7-C ) :   1.1667 B(  6-C , 24-H ) :   0.9297 B(  6-C , 25-H ) :   0.9229
B(  7-C , 26-H ) :   0.9369 B(  7-C , 27-H ) :   0.9319 B(  7-C , 28-H ) :   0.9206
B(  8-S ,  9-C ) :   0.9612 B(  9-C , 10-S ) :   1.0247 B(  9-C , 29-H ) :   0.8483
B(  9-C , 30-H ) :   0.8985 B( 10-S , 11-P ) :   0.9213 B( 10-S , 12-S ) :   0.1097
B( 11-P , 12-S ) :   1.6454 B( 11-P , 13-O ) :   1.0863 B( 11-P , 16-O ) :   1.1342
B( 13-O , 14-C ) :   0.9089 B( 14-C , 15-C ) :   1.1671 B( 14-C , 31-H ) :   0.9329
B( 14-C , 32-H ) :   0.9256 B( 15-C , 33-H ) :   0.9313 B( 15-C , 34-H ) :   0.9432
B( 15-C , 35-H ) :   0.9347 B( 16-O , 17-C ) :   0.8953 B( 17-C , 18-C ) :   1.1691
B( 17-C , 36-H ) :   0.9284 B( 17-C , 37-H ) :   0.9334 B( 18-C , 38-H ) :   0.9352
B( 18-C , 39-H ) :   0.9363 B( 18-C , 40-H ) :   0.9407

Dispersion correction           -0.066766229
FINAL SINGLE POINT ENERGY     -2929.514720449972

DIPOLE MOMENT
-------------

Method             : SCF
Type of density    : Electron Density
Multiplicity       :   1
Irrep              :   0
Energy             : -2929.6353226632350015 Eh
Relativity type    :
Basis              : AO
                                X                 Y                 Z
Electronic contribution:      6.876810752       4.923167339      -1.190516376
Nuclear contribution   :     -8.274651642      -6.124991033       1.877641868
                        -----------------------------------------
Total Dipole Moment    :     -1.397840890      -1.201823695       0.687125493
                        -----------------------------------------
Magnitude (a.u.)       :      1.967353753
Magnitude (Debye)      :      5.000615835

Rotational constants in cm-1:             0.013035             0.004828             0.004624
Rotational constants in MHz :           390.790027           144.753771           138.632397

                             ****ORCA TERMINATED NORMALLY****
TOTAL RUN TIME: 0 days 0 hours 0 minutes 21 seconds 241 msec
