                         Program Version 6.0.0  -   RELEASE  -
|  1> ! pbe def2-sv(p) def2/J RI DEFGRID1 loosescf d4 GCP(DFT/SV(P)) printgap
|  2> %output
|  3>     printlevel normal
|  4> end
|  5> * xyz 0 1
|  6> C 5.175955264 -1.3655645996 -1.989087844
|  7> C 3.6898493809 -1.3305792018 -1.6957400283
|  8> O 3.4308576046 -0.1858902387 -0.8601893264
|  9> P 1.9379740842 0.2857591336 -0.5486014972
| 10> S 0.8740365043 0.6440156994 -2.1527677868
| 11> O 2.2076985955 1.578107998 0.2979439374
| 12> C 3.2278345386 1.7356853321 1.315064982
| 13> C 3.0103081912 0.8140564137 2.4954707384
| 14> S 1.2028031975 -1.3043469658 0.6706552481
| 15> C -0.2027138453 -1.8746959478 -0.3296572241
| 16> S -1.8118045786 -1.724485733 0.4875404223
| 17> P -2.0944938461 0.3822021944 0.4160896671
| 18> S -0.7424424027 1.5130729235 1.2698534633
| 19> O -3.5812932091 0.5241855858 0.9591823493
| 20> C -4.0993872741 -0.1120735112 2.1438942549
| 21> C -3.2500408609 0.1463058412 3.370019384
| 22> O -2.256476678 0.8292523209 -1.0850081413
| 23> C -3.2726705232 0.3648364915 -2.0081878432
| 24> C -2.7589080051 -0.7783046447 -2.8618164564
| 25> H 5.4756347096 -0.4574943173 -2.504712508
| 26> H 5.7365911963 -1.4463745062 -1.0624428292
| 27> H 5.3935370796 -2.2228630468 -2.617348282
| 28> H 3.368157572 -2.2269907067 -1.1573752364
| 29> H 3.1002455253 -1.2300053758 -2.613012401
| 30> H 4.2010602104 1.5669321623 0.8500160579
| 31> H 3.1228786614 2.783147571 1.6020178142
| 32> H 3.1713797367 -0.2234078495 2.2058401631
| 33> H 3.7089654049 1.0743504489 3.2842931226
| 34> H 1.9927475266 0.9226951579 2.8655814865
| 35> H -0.072747913 -2.9390073751 -0.5075919654
| 36> H -0.2080265035 -1.3066849968 -1.2648174466
| 37> H -5.0958616903 0.3206208884 2.2497862342
| 38> H -4.1769092882 -1.1846943942 1.946193572
| 39> H -3.7280822798 -0.2942110317 4.2389186275
| 40> H -2.263241077 -0.2973233673 3.2434355345
| 41> H -3.1258557628 1.2152708892 3.5274098352
| 42> H -4.1625571063 0.0816457664 -1.4431450838
| 43> H -3.4858775865 1.2440018051 -2.6183770986
| 44> H -2.6521939636 -1.686765665 -2.2742122554
| 45> H -3.4640130445 -0.9603002091 -3.6665416175
| 46> H -1.7941234081 -0.5106869578 -3.2885425938
| 47> *
| 48>
| 49>                          ****END OF INPUT****

CARTESIAN COORDINATES (ANGSTROEM)
---------------------------------
  C      5.175955   -1.365565   -1.989088
  C      3.689849   -1.330579   -1.695740
  O      3.430858   -0.185890   -0.860189
  P      1.937974    0.285759   -0.548601
  S      0.874037    0.644016   -2.152768
  O      2.207699    1.578108    0.297944
  C      3.227835    1.735685    1.315065
  C      3.010308    0.814056    2.495471
  S      1.202803   -1.304347    0.670655
  C     -0.202714   -1.874696   -0.329657
  S     -1.811805   -1.724486    0.487540
  P     -2.094494    0.382202    0.416090
  S     -0.742442    1.513073    1.269853
  O     -3.581293    0.524186    0.959182
  C     -4.099387   -0.112074    2.143894
  C     -3.250041    0.146306    3.370019
  O     -2.256477    0.829252   -1.085008
  C     -3.272671    0.364836   -2.008188
  C     -2.758908   -0.778305   -2.861816
  H      5.475635   -0.457494   -2.504713
  H      5.736591   -1.446375   -1.062443
  H      5.393537   -2.222863   -2.617348
  H      3.368158   -2.226991   -1.157375
  H      3.100246   -1.230005   -2.613012
  H      4.201060    1.566932    0.850016
  H      3.122879    2.783148    1.602018
  H      3.171380   -0.223408    2.205840
  H      3.708965    1.074350    3.284293
  H      1.992748    0.922695    2.865581
  H     -0.072748   -2.939007   -0.507592
  H     -0.208027   -1.306685   -1.264817
  H     -5.095862    0.320621    2.249786
  H     -4.176909   -1.184694    1.946194
  H     -3.728082   -0.294211    4.238919
  H     -2.263241   -0.297323    3.243436
  H     -3.125856    1.215271    3.527410
  H     -4.162557    0.081646   -1.443145
  H     -3.485878    1.244002   -2.618377
  H     -2.652194   -1.686766   -2.274212
  H     -3.464013   -0.960300   -3.666542
  H     -1.794123   -0.510687   -3.288543

 Total Charge           Charge          ....    0
 Multiplicity           Mult            ....    1
 Number of Electrons    NEL             ....  202
 Basis Dimension        Dim             ....  334

ORBITAL ENERGIES
----------------

  NO   OCC          E(Eh)            E(eV)
   0   2.0000     -88.041592     -2395.7335
   1   2.0000     -88.037234     -2395.6149
   2   2.0000     -87.977752     -2393.9963
   3   2.0000     -87.970041     -2393.7865
   4   2.0000     -76.420241     -2079.5005
   5   2.0000     -76.418176     -2079.4443
   6   2.0000     -18.787080      -511.2224
   7   2.0000     -18.785703      -511.1850
   8   2.0000     -18.784441      -511.1506
   9   2.0000     -18.779860      -511.0260
  10   2.0000      -9.956587      -270.9325
  11   2.0000      -9.953611      -270.8515
  12   2.0000      -9.952589      -270.8237
  13   2.0000      -9.948923      -270.7239
  14   2.0000      -9.948817      -270.7211
  15   2.0000      -9.887052      -269.0404
  16   2.0000      -9.884238      -268.9638
  17   2.0000      -9.880154      -268.8527
  18   2.0000      -9.880002      -268.8485
  19   2.0000      -7.686535      -209.1613
  20   2.0000      -7.681767      -209.0315
  21   2.0000      -7.622948      -207.4310
  22   2.0000      -7.615085      -207.2170
  23   2.0000      -6.417367      -174.6254
  24   2.0000      -6.415279      -174.5686
  25   2.0000      -5.714115      -155.4890
  26   2.0000      -5.711000      -155.4042
  27   2.0000      -5.709706      -155.3690
  28   2.0000      -5.706282      -155.2758
  29   2.0000      -5.703861      -155.2100
  30   2.0000      -5.698777      -155.0716
  31   2.0000      -5.651884      -153.7956
  32   2.0000      -5.644189      -153.5862
  33   2.0000      -5.643564      -153.5692
  34   2.0000      -5.642997      -153.5538
  35   2.0000      -5.635599      -153.3525
  36   2.0000      -5.635149      -153.3402
  37   2.0000      -4.640210      -126.2665
  38   2.0000      -4.638972      -126.2329
  39   2.0000      -4.638277      -126.2139
  40   2.0000      -4.637770      -126.2001
  41   2.0000      -4.637423      -126.1907
  42   2.0000      -4.635053      -126.1262
  43   2.0000      -0.982644       -26.7391
  44   2.0000      -0.980712       -26.6865
  45   2.0000      -0.937530       -25.5115
  46   2.0000      -0.936780       -25.4911
  47   2.0000      -0.757747       -20.6193
  48   2.0000      -0.716448       -19.4955
  49   2.0000      -0.708916       -19.2906
  50   2.0000      -0.689091       -18.7511
  51   2.0000      -0.685953       -18.6657
  52   2.0000      -0.674685       -18.3591
  53   2.0000      -0.645308       -17.5597
  54   2.0000      -0.628738       -17.1088
  55   2.0000      -0.590327       -16.0636
  56   2.0000      -0.581798       -15.8315
  57   2.0000      -0.571561       -15.5530
  58   2.0000      -0.568578       -15.4718
  59   2.0000      -0.563453       -15.3323
  60   2.0000      -0.502374       -13.6703
  61   2.0000      -0.496766       -13.5177
  62   2.0000      -0.469085       -12.7644
  63   2.0000      -0.466083       -12.6828
  64   2.0000      -0.449702       -12.2370
  65   2.0000      -0.445245       -12.1157
  66   2.0000      -0.440561       -11.9883
  67   2.0000      -0.433576       -11.7982
  68   2.0000      -0.430621       -11.7178
  69   2.0000      -0.423505       -11.5242
  70   2.0000      -0.408114       -11.1054
  71   2.0000      -0.395838       -10.7713
  72   2.0000      -0.393799       -10.7158
  73   2.0000      -0.380669       -10.3585
  74   2.0000      -0.379723       -10.3328
  75   2.0000      -0.364120        -9.9082
  76   2.0000      -0.353962        -9.6318
  77   2.0000      -0.351246        -9.5579
  78   2.0000      -0.349355        -9.5064
  79   2.0000      -0.347096        -9.4450
  80   2.0000      -0.343738        -9.3536
  81   2.0000      -0.340521        -9.2660
  82   2.0000      -0.338291        -9.2054
  83   2.0000      -0.336581        -9.1588
  84   2.0000      -0.333627        -9.0784
  85   2.0000      -0.314746        -8.5647
  86   2.0000      -0.309710        -8.4276
  87   2.0000      -0.298721        -8.1286
  88   2.0000      -0.292610        -7.9623
  89   2.0000      -0.288462        -7.8495
  90   2.0000      -0.283797        -7.7225
  91   2.0000      -0.269387        -7.3304
  92   2.0000      -0.268812        -7.3147
  93   2.0000      -0.256839        -6.9889
  94   2.0000      -0.251773        -6.8511
  95   2.0000      -0.236782        -6.4432
  96   2.0000      -0.218435        -5.9439
  97   2.0000      -0.197041        -5.3618
  98   2.0000      -0.195930        -5.3315
  99   2.0000      -0.180290        -4.9059
 100   2.0000      -0.179648        -4.8885
 101   0.0000      -0.035645        -0.9699
 102   0.0000      -0.029427        -0.8007
 103   0.0000      -0.010533        -0.2866
 104   0.0000       0.002836         0.0772
 105   0.0000       0.020428         0.5559

MULLIKEN ATOMIC CHARGES
-----------------------
   0 C :   -0.279968
   1 C :   -0.003468
   2 O :   -0.389573
   3 P :    0.618488
   4 S :   -0.302919
   5 O :   -0.344351
   6 C :    0.004333
   7 C :   -0.335713
   8 S :   -0.106162
   9 C :   -0.338849
  10 S :   -0.138371
  11 P :    0.599426
  12 S :   -0.296908
  13 O :   -0.382261
  14 C :   -0.013840
  15 C :   -0.309225
  16 O :   -0.342842
  17 C :   -0.002807
  18 C :   -0.314190
  19 H :    0.120876
  20 H :    0.112788
  21 H :    0.110000
  22 H :    0.092419
  23 H :    0.098375
  24 H :    0.110031
  25 H :    0.113070
  26 H :    0.124602
  27 H :    0.114375
  28 H :    0.143793
  29 H :    0.176694
  30 H :    0.199559
  31 H :    0.109366
  32 H :    0.113036
  33 H :    0.108791
  34 H :    0.128020
  35 H :    0.127961
  36 H :    0.099877
  37 H :    0.110981
  38 H :    0.116962
  39 H :    0.107930
  40 H :    0.139691
Sum of atomic charges:   -0.0000000

LOEWDIN ATOMIC CHARGES
----------------------
   0 C :   -0.350524
   1 C :   -0.124878
   2 O :   -0.257693
   3 P :    0.574059
   4 S :   -0.293720
   5 O :   -0.219532
   6 C :   -0.106422
   7 C :   -0.371213
   8 S :    0.075779
   9 C :   -0.484741
  10 S :    0.056736
  11 P :    0.559521
  12 S :   -0.301896
  13 O :   -0.247704
  14 C :   -0.115255
  15 C :   -0.371034
  16 O :   -0.225715
  17 C :   -0.109575
  18 C :   -0.368752
  19 H :    0.128792
  20 H :    0.124867
  21 H :    0.129878
  22 H :    0.101579
  23 H :    0.106143
  24 H :    0.113644
  25 H :    0.124722
  26 H :    0.115193
  27 H :    0.132047
  28 H :    0.133418
  29 H :    0.135721
  30 H :    0.120577
  31 H :    0.121318
  32 H :    0.106694
  33 H :    0.128803
  34 H :    0.121968
  35 H :    0.130868
  36 H :    0.107995
  37 H :    0.123224
  38 H :    0.116124
  39 H :    0.128710
  40 H :    0.130273

  Mayer bond orders larger than 0.100000
B(  0-C ,  1-C ) :   1.1603 B(  0-C , 19-H ) :   0.9513 B(  0-C , 20-H ) :   0.9515
B(  0-C , 21-H ) :   0.9424 B(  1-C ,  2-O ) :   0.9142 B(  1-C , 22-H ) :   0.9196
B(  1-C , 23-H ) :   0.9112 B(  2-O ,  3-P ) :   1.0531 B(  3-P ,  4-S ) :   1.6291
B(  3-P ,  5-O ) :   1.1579 B(  3-P ,  8-S ) :   0.9323 B(  4-S ,  8-S ) :   0.1191
B(  4-S , 30-H ) :   0.1258 B(  5-O ,  6-C ) :   0.8961 B(  6-C ,  7-C ) :   1.1695
B(  6-C , 24-H ) :   0.9268 B(  6-C , 25-H ) :   0.9326 B(  7-C , 26-H ) :   0.9330
B(  7-C , 27-H ) :   0.9355 B(  7-C , 28-H ) :   0.9373 B(  8-S ,  9-C ) :   1.0108
B(  9-C , 10-S ) :   0.9879 B(  9-C , 29-H ) :   0.9115 B(  9-C , 30-H ) :   0.8359
B( 10-S , 11-P ) :   0.9346 B( 10-S , 12-S ) :   0.1150 B( 11-P , 12-S ) :   1.6715
B( 11-P , 13-O ) :   1.0766 B( 11-P , 16-O ) :   1.1408 B( 13-O , 14-C ) :   0.9156
B( 14-C , 15-C ) :   1.1674 B( 14-C , 31-H ) :   0.9335 B( 14-C , 32-H ) :   0.9257
B( 15-C , 33-H ) :   0.9342 B( 15-C , 34-H ) :   0.9312 B( 15-C , 35-H ) :   0.9418
B( 16-O , 17-C ) :   0.9006 B( 17-C , 18-C ) :   1.1708 B( 17-C , 36-H ) :   0.9197
B( 17-C , 37-H ) :   0.9349 B( 18-C , 38-H ) :   0.9327 B( 18-C , 39-H ) :   0.9380
B( 18-C , 40-H ) :   0.9339

Dispersion correction           -0.067373032
FINAL SINGLE POINT ENERGY     -2929.507388275736

DIPOLE MOMENT
-------------

Method             : SCF
Type of density    : Electron Density
Multiplicity       :   1
Irrep              :   0
Energy             : -2929.6250003443096830 Eh
Relativity type    :
Basis              : AO
                                X                 Y                 Z
Electronic contribution:     -4.886983312       6.504870960      -0.769624861
Nuclear contribution   :      4.880708639      -7.828165096       1.034072053
                        -----------------------------------------
Total Dipole Moment    :     -0.006274673      -1.323294135       0.264447191
                        -----------------------------------------
Magnitude (a.u.)       :      1.349473622
Magnitude (Debye)      :      3.430089355

Rotational constants in cm-1:             0.012475             0.005476             0.004754
Rotational constants in MHz :           373.988026           164.173943           142.507756

                             ****ORCA TERMINATED NORMALLY****
TOTAL RUN TIME: 0 days 0 hours 0 minutes 21 seconds 520 msec
