                         Program Version 6.0.0  -   RELEASE  -
|  1> ! pbe def2-sv(p) def2/J RI DEFGRID1 loosescf d4 GCP(DFT/SV(P)) printgap
|  2> %output
|  3>     printlevel normal
|  4> end
|  5> * xyz 0 1
|  6> C 5.5633566808 -0.9294955446 -1.411451472
|  7> C 4.1595379628 -1.1082453624 -1.9565977636
|  8> O 3.2484254204 -1.4911412677 -0.9058077168
|  9> P 2.3522087902 -0.4316113907 -0.1299862644
| 10> S 3.2925971685 1.1174905888 0.6258693593
| 11> O 1.6175066303 -1.376954892 0.9022528889
| 12> C 2.0659305138 -1.532180682 2.2727312877
| 13> C 1.2037848502 -0.7100262137 3.208475901
| 14> S 0.8189675368 -6.3669e-05 -1.5213033992
| 15> C 0.173820024 1.4634332519 -0.6616774895
| 16> S -0.8566119336 1.0377054173 0.7570818404
| 17> P -2.5085846596 0.2910967525 -0.3710881952
| 18> S -2.8262148407 1.1569072377 -2.0972570862
| 19> O -3.736260145 0.3446228506 0.6365803206
| 20> C -4.5814666124 1.5011773378 0.7636591257
| 21> C -3.8519227992 2.685157408 1.3650485736
| 22> O -2.2678554802 -1.2561667397 -0.5531281657
| 23> C -1.724401975 -2.1860144097 0.414123876
| 24> C -2.4465733251 -2.1458198154 1.7433268219
| 25> H 5.5890898784 -0.1093122689 -0.6973225347
| 26> H 5.8884862475 -1.8390518871 -0.9143484826
| 27> H 6.2388888175 -0.7058037169 -2.2307452071
| 28> H 4.1123402787 -1.9280607473 -2.6757656046
| 29> H 3.8014344283 -0.1894524089 -2.4299448374
| 30> H 1.9767451277 -2.6005342409 2.4735983178
| 31> H 3.113827785 -1.2292714366 2.3427352262
| 32> H 0.1596472076 -0.9895173899 3.1058017597
| 33> H 1.525182532 -0.8827201578 4.2304236086
| 34> H 1.3040080662 0.3485916066 2.9777965717
| 35> H -0.4229270745 2.012755635 -1.3904304993
| 36> H 1.0071028122 2.0613697972 -0.2903711986
| 37> H -4.9727764301 1.7538831194 -0.2267710963
| 38> H -5.393088961 1.1590799547 1.4072569357
| 39> H -3.3651745406 2.4001840947 2.294205977
| 40> H -3.0978692791 3.0508725656 0.6698698213
| 41> H -4.5630124274 3.4815019341 1.5599285756
| 42> H -1.84124232 -3.1517880593 -0.0802381085
| 43> H -0.6598002576 -1.967867708 0.5366915359
| 44> H -2.3041620158 -1.1783021497 2.2214061267
| 45> H -3.5111634369 -2.3090937051 1.5975678338
| 46> H -2.0480840039 -2.9251338075 2.3861065157
| 47> *
| 48>
| 49>                          ****END OF INPUT****

CARTESIAN COORDINATES (ANGSTROEM)
---------------------------------
  C      5.563357   -0.929496   -1.411451
  C      4.159538   -1.108245   -1.956598
  O      3.248425   -1.491141   -0.905808
  P      2.352209   -0.431611   -0.129986
  S      3.292597    1.117491    0.625869
  O      1.617507   -1.376955    0.902253
  C      2.065931   -1.532181    2.272731
  C      1.203785   -0.710026    3.208476
  S      0.818968   -0.000064   -1.521303
  C      0.173820    1.463433   -0.661677
  S     -0.856612    1.037705    0.757082
  P     -2.508585    0.291097   -0.371088
  S     -2.826215    1.156907   -2.097257
  O     -3.736260    0.344623    0.636580
  C     -4.581467    1.501177    0.763659
  C     -3.851923    2.685157    1.365049
  O     -2.267855   -1.256167   -0.553128
  C     -1.724402   -2.186014    0.414124
  C     -2.446573   -2.145820    1.743327
  H      5.589090   -0.109312   -0.697323
  H      5.888486   -1.839052   -0.914348
  H      6.238889   -0.705804   -2.230745
  H      4.112340   -1.928061   -2.675766
  H      3.801434   -0.189452   -2.429945
  H      1.976745   -2.600534    2.473598
  H      3.113828   -1.229271    2.342735
  H      0.159647   -0.989517    3.105802
  H      1.525183   -0.882720    4.230424
  H      1.304008    0.348592    2.977797
  H     -0.422927    2.012756   -1.390430
  H      1.007103    2.061370   -0.290371
  H     -4.972776    1.753883   -0.226771
  H     -5.393089    1.159080    1.407257
  H     -3.365175    2.400184    2.294206
  H     -3.097869    3.050873    0.669870
  H     -4.563012    3.481502    1.559929
  H     -1.841242   -3.151788   -0.080238
  H     -0.659800   -1.967868    0.536692
  H     -2.304162   -1.178302    2.221406
  H     -3.511163   -2.309094    1.597568
  H     -2.048084   -2.925134    2.386107

 Total Charge           Charge          ....    0
 Multiplicity           Mult            ....    1
 Number of Electrons    NEL             ....  202
 Basis Dimension        Dim             ....  334

ORBITAL ENERGIES
----------------

  NO   OCC          E(Eh)            E(eV)
   0   2.0000     -88.044979     -2395.8257
   1   2.0000     -88.043928     -2395.7971
   2   2.0000     -87.994288     -2394.4463
   3   2.0000     -87.984014     -2394.1667
   4   2.0000     -76.431390     -2079.8039
   5   2.0000     -76.426432     -2079.6689
   6   2.0000     -18.797561      -511.5076
   7   2.0000     -18.795939      -511.4635
   8   2.0000     -18.794552      -511.4257
   9   2.0000     -18.788355      -511.2571
  10   2.0000      -9.959101      -271.0009
  11   2.0000      -9.957327      -270.9526
  12   2.0000      -9.953226      -270.8411
  13   2.0000      -9.952482      -270.8208
  14   2.0000      -9.950184      -270.7583
  15   2.0000      -9.887732      -269.0589
  16   2.0000      -9.886437      -269.0236
  17   2.0000      -9.884355      -268.9670
  18   2.0000      -9.883862      -268.9536
  19   2.0000      -7.690061      -209.2572
  20   2.0000      -7.688498      -209.2147
  21   2.0000      -7.639193      -207.8730
  22   2.0000      -7.629308      -207.6040
  23   2.0000      -6.429148      -174.9460
  24   2.0000      -6.423677      -174.7971
  25   2.0000      -5.717825      -155.5899
  26   2.0000      -5.716211      -155.5460
  27   2.0000      -5.714667      -155.5040
  28   2.0000      -5.713089      -155.4611
  29   2.0000      -5.707057      -155.2969
  30   2.0000      -5.705613      -155.2576
  31   2.0000      -5.667958      -154.2330
  32   2.0000      -5.659874      -154.0130
  33   2.0000      -5.659453      -154.0015
  34   2.0000      -5.658277      -153.9696
  35   2.0000      -5.649843      -153.7400
  36   2.0000      -5.649449      -153.7293
  37   2.0000      -4.651641      -126.5776
  38   2.0000      -4.650897      -126.5574
  39   2.0000      -4.649655      -126.5235
  40   2.0000      -4.646437      -126.4360
  41   2.0000      -4.645490      -126.4102
  42   2.0000      -4.643983      -126.3692
  43   2.0000      -0.991807       -26.9885
  44   2.0000      -0.985993       -26.8302
  45   2.0000      -0.950042       -25.8520
  46   2.0000      -0.944220       -25.6935
  47   2.0000      -0.766101       -20.8467
  48   2.0000      -0.723715       -19.6933
  49   2.0000      -0.711397       -19.3581
  50   2.0000      -0.690261       -18.7829
  51   2.0000      -0.689199       -18.7541
  52   2.0000      -0.678389       -18.4599
  53   2.0000      -0.653583       -17.7849
  54   2.0000      -0.639477       -17.4011
  55   2.0000      -0.601216       -16.3599
  56   2.0000      -0.594890       -16.1878
  57   2.0000      -0.576630       -15.6909
  58   2.0000      -0.575013       -15.6469
  59   2.0000      -0.561011       -15.2659
  60   2.0000      -0.509383       -13.8610
  61   2.0000      -0.491288       -13.3686
  62   2.0000      -0.481355       -13.0983
  63   2.0000      -0.470477       -12.8023
  64   2.0000      -0.459723       -12.5097
  65   2.0000      -0.445789       -12.1305
  66   2.0000      -0.443265       -12.0619
  67   2.0000      -0.438090       -11.9210
  68   2.0000      -0.432063       -11.7570
  69   2.0000      -0.420469       -11.4416
  70   2.0000      -0.406912       -11.0726
  71   2.0000      -0.402296       -10.9470
  72   2.0000      -0.397102       -10.8057
  73   2.0000      -0.388368       -10.5680
  74   2.0000      -0.379540       -10.3278
  75   2.0000      -0.374477       -10.1900
  76   2.0000      -0.369750       -10.0614
  77   2.0000      -0.365225        -9.9383
  78   2.0000      -0.355531        -9.6745
  79   2.0000      -0.352587        -9.5944
  80   2.0000      -0.351234        -9.5576
  81   2.0000      -0.346673        -9.4335
  82   2.0000      -0.344073        -9.3627
  83   2.0000      -0.339755        -9.2452
  84   2.0000      -0.335263        -9.1230
  85   2.0000      -0.321669        -8.7530
  86   2.0000      -0.310047        -8.4368
  87   2.0000      -0.302190        -8.2230
  88   2.0000      -0.294693        -8.0190
  89   2.0000      -0.293290        -7.9808
  90   2.0000      -0.291009        -7.9187
  91   2.0000      -0.282415        -7.6849
  92   2.0000      -0.270008        -7.3473
  93   2.0000      -0.264708        -7.2031
  94   2.0000      -0.261746        -7.1225
  95   2.0000      -0.237295        -6.4571
  96   2.0000      -0.220985        -6.0133
  97   2.0000      -0.214262        -5.8304
  98   2.0000      -0.206908        -5.6303
  99   2.0000      -0.202647        -5.5143
 100   2.0000      -0.200852        -5.4655
 101   0.0000      -0.046112        -1.2548
 102   0.0000      -0.028114        -0.7650
 103   0.0000      -0.006159        -0.1676
 104   0.0000      -0.001804        -0.0491
 105   0.0000       0.012342         0.3359

MULLIKEN ATOMIC CHARGES
-----------------------
   0 C :   -0.292008
   1 C :   -0.009429
   2 O :   -0.370750
   3 P :    0.605399
   4 S :   -0.334950
   5 O :   -0.361927
   6 C :   -0.003412
   7 C :   -0.299079
   8 S :   -0.060277
   9 C :   -0.375087
  10 S :   -0.102734
  11 P :    0.604535
  12 S :   -0.317405
  13 O :   -0.375783
  14 C :   -0.001791
  15 C :   -0.314875
  16 O :   -0.354137
  17 C :   -0.035122
  18 C :   -0.317145
  19 H :    0.128473
  20 H :    0.112147
  21 H :    0.109560
  22 H :    0.110019
  23 H :    0.104869
  24 H :    0.107278
  25 H :    0.109543
  26 H :    0.122288
  27 H :    0.109308
  28 H :    0.125338
  29 H :    0.196330
  30 H :    0.193388
  31 H :    0.114747
  32 H :    0.104664
  33 H :    0.115169
  34 H :    0.127139
  35 H :    0.113684
  36 H :    0.107229
  37 H :    0.143412
  38 H :    0.127359
  39 H :    0.122271
  40 H :    0.111762
Sum of atomic charges:    0.0000000

LOEWDIN ATOMIC CHARGES
----------------------
   0 C :   -0.362467
   1 C :   -0.115446
   2 O :   -0.247337
   3 P :    0.570083
   4 S :   -0.318489
   5 O :   -0.237227
   6 C :   -0.112338
   7 C :   -0.361491
   8 S :    0.096981
   9 C :   -0.489947
  10 S :    0.081965
  11 P :    0.573786
  12 S :   -0.312328
  13 O :   -0.242562
  14 C :   -0.117525
  15 C :   -0.370157
  16 O :   -0.232221
  17 C :   -0.120832
  18 C :   -0.367492
  19 H :    0.124621
  20 H :    0.125175
  21 H :    0.129757
  22 H :    0.120142
  23 H :    0.109057
  24 H :    0.118463
  25 H :    0.110947
  26 H :    0.122828
  27 H :    0.129637
  28 H :    0.123755
  29 H :    0.128892
  30 H :    0.127388
  31 H :    0.113184
  32 H :    0.118514
  33 H :    0.122720
  34 H :    0.121314
  35 H :    0.131384
  36 H :    0.122453
  37 H :    0.110705
  38 H :    0.116325
  39 H :    0.128446
  40 H :    0.129339

  Mayer bond orders larger than 0.100000
B(  0-C ,  1-C ) :   1.1671 B(  0-C , 19-H ) :   0.9336 B(  0-C , 20-H ) :   0.9476
B(  0-C , 21-H ) :   0.9398 B(  1-C ,  2-O ) :   0.8997 B(  1-C , 22-H ) :   0.9355
B(  1-C , 23-H ) :   0.9150 B(  2-O ,  3-P ) :   1.1231 B(  3-P ,  4-S ) :   1.5830
B(  3-P ,  5-O ) :   1.1241 B(  3-P ,  8-S ) :   0.9757 B(  4-S ,  8-S ) :   0.1100
B(  5-O ,  6-C ) :   0.8779 B(  6-C ,  7-C ) :   1.1726 B(  6-C , 24-H ) :   0.9334
B(  6-C , 25-H ) :   0.9111 B(  7-C , 26-H ) :   0.9410 B(  7-C , 27-H ) :   0.9376
B(  7-C , 28-H ) :   0.9363 B(  8-S ,  9-C ) :   1.0036 B(  9-C , 10-S ) :   1.0073
B(  9-C , 29-H ) :   0.8690 B(  9-C , 30-H ) :   0.8669 B( 10-S , 11-P ) :   0.9342
B( 10-S , 12-S ) :   0.1079 B( 11-P , 12-S ) :   1.6201 B( 11-P , 13-O ) :   1.0910
B( 11-P , 16-O ) :   1.1553 B( 13-O , 14-C ) :   0.9058 B( 14-C , 15-C ) :   1.1652
B( 14-C , 31-H ) :   0.9161 B( 14-C , 32-H ) :   0.9341 B( 15-C , 33-H ) :   0.9450
B( 15-C , 34-H ) :   0.9350 B( 15-C , 35-H ) :   0.9374 B( 16-O , 17-C ) :   0.8940
B( 17-C , 18-C ) :   1.1739 B( 17-C , 36-H ) :   0.9329 B( 17-C , 37-H ) :   0.8988
B( 18-C , 38-H ) :   0.9281 B( 18-C , 39-H ) :   0.9407 B( 18-C , 40-H ) :   0.9353

Dispersion correction           -0.066117185
FINAL SINGLE POINT ENERGY     -2929.524139691131

DIPOLE MOMENT
-------------

Method             : SCF
Type of density    : Electron Density
Multiplicity       :   1
Irrep              :   0
Energy             : -2929.6436075188094037 Eh
Relativity type    :
Basis              : AO
                                X                 Y                 Z
Electronic contribution:     -2.249485215       4.591411213     -15.173626524
Nuclear contribution   :      2.491021497      -5.409222174      16.338177751
                        -----------------------------------------
Total Dipole Moment    :      0.241536282      -0.817810960       1.164551227
                        -----------------------------------------
Magnitude (a.u.)       :      1.443375939
Magnitude (Debye)      :      3.668770075

Rotational constants in cm-1:             0.013706             0.004702             0.004395
Rotational constants in MHz :           410.895998           140.964236           131.769595

                             ****ORCA TERMINATED NORMALLY****
TOTAL RUN TIME: 0 days 0 hours 0 minutes 21 seconds 618 msec
