                         Program Version 6.0.0  -   RELEASE  -
|  1> ! pbe def2-sv(p) def2/J RI DEFGRID1 loosescf d4 GCP(DFT/SV(P)) printgap
|  2> %output
|  3>     printlevel normal
|  4> end
|  5> * xyz 0 1
|  6> C 3.6682629226 1.657465075 -0.7535750337
|  7> C 2.2700208099 1.8227572385 -0.1960685797
|  8> O 1.5420846042 0.582219018 -0.2225077469
|  9> P 1.923270164 -0.6404125982 0.734771355
| 10> S 2.7000013858 -0.1440114024 2.4537983481
| 11> O 2.8555499788 -1.6127868348 -0.096385818
| 12> C 2.4867285403 -2.0893106658 -1.4176835259
| 13> C 3.7605875482 -2.3235143319 -2.2021383774
| 14> S 0.0811880442 -1.6659464658 0.7793639284
| 15> C -0.7294522118 -0.6107357164 2.0063337574
| 16> S -1.0766149951 1.0720240805 1.4147815354
| 17> P -2.01830806 0.6117321014 -0.4319941027
| 18> S -0.9875440536 0.2534545207 -2.0652447739
| 19> O -3.0356109158 1.8238795657 -0.6180889379
| 20> C -2.6770008888 3.0294983796 -1.3103354704
| 21> C -1.7027232491 3.864634733 -0.5042588376
| 22> O -2.9843582362 -0.537639503 0.0579118502
| 23> C -3.4798774198 -1.5941656331 -0.7960242722
| 24> C -3.3275310053 -2.9183628802 -0.0753056548
| 25> H 3.6242471542 1.2819995803 -1.7730647899
| 26> H 4.1755670451 2.6169680137 -0.7444285823
| 27> H 4.2276743284 0.9536525228 -0.1367464748
| 28> H 1.667312599 2.4946724279 -0.8099046704
| 29> H 2.2997881123 2.1849714774 0.8365841822
| 30> H 1.9244956 -3.0161895453 -1.2822016876
| 31> H 1.8433819357 -1.3481799827 -1.9014469098
| 32> H 4.3055247942 -1.3919398111 -2.3273623819
| 33> H 4.3941190856 -3.0306289609 -1.6743924964
| 34> H 3.506102235 -2.723974572 -3.1781026963
| 35> H -0.0754715923 -0.4958147092 2.8718834813
| 36> H -1.6622803611 -1.1004785181 2.2743825604
| 37> H -2.2457381732 2.7568764983 -2.2798305348
| 38> H -3.6264664423 3.5453320487 -1.4585670386
| 39> H -1.4930939144 4.7901504951 -1.0306702399
| 40> H -2.1165931598 4.088676347 0.4754265571
| 41> H -0.7721525148 3.3130266117 -0.3667362235
| 42> H -4.5277265336 -1.3662852535 -1.0007272105
| 43> H -2.9148060535 -1.5852560552 -1.734313283
| 44> H -3.875926613 -2.8995092695 0.8621260057
| 45> H -3.7208413955 -3.7102767651 -0.7041230232
| 46> H -2.2772025106 -3.1137899211 0.131856733
| 47> *
| 48>
| 49>                          ****END OF INPUT****

CARTESIAN COORDINATES (ANGSTROEM)
---------------------------------
  C      3.668263    1.657465   -0.753575
  C      2.270021    1.822757   -0.196069
  O      1.542085    0.582219   -0.222508
  P      1.923270   -0.640413    0.734771
  S      2.700001   -0.144011    2.453798
  O      2.855550   -1.612787   -0.096386
  C      2.486729   -2.089311   -1.417684
  C      3.760588   -2.323514   -2.202138
  S      0.081188   -1.665946    0.779364
  C     -0.729452   -0.610736    2.006334
  S     -1.076615    1.072024    1.414782
  P     -2.018308    0.611732   -0.431994
  S     -0.987544    0.253455   -2.065245
  O     -3.035611    1.823880   -0.618089
  C     -2.677001    3.029498   -1.310335
  C     -1.702723    3.864635   -0.504259
  O     -2.984358   -0.537640    0.057912
  C     -3.479877   -1.594166   -0.796024
  C     -3.327531   -2.918363   -0.075306
  H      3.624247    1.282000   -1.773065
  H      4.175567    2.616968   -0.744429
  H      4.227674    0.953653   -0.136746
  H      1.667313    2.494672   -0.809905
  H      2.299788    2.184971    0.836584
  H      1.924496   -3.016190   -1.282202
  H      1.843382   -1.348180   -1.901447
  H      4.305525   -1.391940   -2.327362
  H      4.394119   -3.030629   -1.674392
  H      3.506102   -2.723975   -3.178103
  H     -0.075472   -0.495815    2.871883
  H     -1.662280   -1.100479    2.274383
  H     -2.245738    2.756876   -2.279831
  H     -3.626466    3.545332   -1.458567
  H     -1.493094    4.790150   -1.030670
  H     -2.116593    4.088676    0.475427
  H     -0.772153    3.313027   -0.366736
  H     -4.527727   -1.366285   -1.000727
  H     -2.914806   -1.585256   -1.734313
  H     -3.875927   -2.899509    0.862126
  H     -3.720841   -3.710277   -0.704123
  H     -2.277203   -3.113790    0.131857

 Total Charge           Charge          ....    0
 Multiplicity           Mult            ....    1
 Number of Electrons    NEL             ....  202
 Basis Dimension        Dim             ....  334

ORBITAL ENERGIES
----------------

  NO   OCC          E(Eh)            E(eV)
   0   2.0000     -88.042435     -2395.7565
   1   2.0000     -88.039796     -2395.6847
   2   2.0000     -87.984432     -2394.1781
   3   2.0000     -87.983448     -2394.1513
   4   2.0000     -76.426538     -2079.6718
   5   2.0000     -76.422654     -2079.5661
   6   2.0000     -18.794537      -511.4254
   7   2.0000     -18.792892      -511.3806
   8   2.0000     -18.788444      -511.2595
   9   2.0000     -18.784122      -511.1419
  10   2.0000      -9.957447      -270.9559
  11   2.0000      -9.955113      -270.8924
  12   2.0000      -9.953707      -270.8541
  13   2.0000      -9.951598      -270.7968
  14   2.0000      -9.945580      -270.6330
  15   2.0000      -9.890027      -269.1213
  16   2.0000      -9.889290      -269.1013
  17   2.0000      -9.888270      -269.0735
  18   2.0000      -9.882314      -268.9114
  19   2.0000      -7.687403      -209.1849
  20   2.0000      -7.684873      -209.1160
  21   2.0000      -7.629326      -207.6045
  22   2.0000      -7.628788      -207.5899
  23   2.0000      -6.423844      -174.8017
  24   2.0000      -6.420560      -174.7123
  25   2.0000      -5.715252      -155.5199
  26   2.0000      -5.713058      -155.4602
  27   2.0000      -5.712038      -155.4324
  28   2.0000      -5.709406      -155.3608
  29   2.0000      -5.704238      -155.2202
  30   2.0000      -5.701499      -155.1457
  31   2.0000      -5.658156      -153.9662
  32   2.0000      -5.657767      -153.9557
  33   2.0000      -5.650167      -153.7489
  34   2.0000      -5.649587      -153.7331
  35   2.0000      -5.649348      -153.7266
  36   2.0000      -5.648637      -153.7072
  37   2.0000      -4.646535      -126.4387
  38   2.0000      -4.645626      -126.4139
  39   2.0000      -4.644193      -126.3749
  40   2.0000      -4.643505      -126.3562
  41   2.0000      -4.641945      -126.3138
  42   2.0000      -4.641038      -126.2891
  43   2.0000      -0.986697       -26.8494
  44   2.0000      -0.982496       -26.7351
  45   2.0000      -0.946470       -25.7548
  46   2.0000      -0.940963       -25.6049
  47   2.0000      -0.764510       -20.8034
  48   2.0000      -0.722699       -19.6656
  49   2.0000      -0.710648       -19.3377
  50   2.0000      -0.689251       -18.7555
  51   2.0000      -0.688011       -18.7217
  52   2.0000      -0.671889       -18.2830
  53   2.0000      -0.650168       -17.6920
  54   2.0000      -0.639242       -17.3947
  55   2.0000      -0.599008       -16.2998
  56   2.0000      -0.586350       -15.9554
  57   2.0000      -0.573643       -15.6096
  58   2.0000      -0.572443       -15.5770
  59   2.0000      -0.561381       -15.2760
  60   2.0000      -0.505564       -13.7571
  61   2.0000      -0.501086       -13.6352
  62   2.0000      -0.475992       -12.9524
  63   2.0000      -0.474064       -12.9000
  64   2.0000      -0.456710       -12.4277
  65   2.0000      -0.442443       -12.0395
  66   2.0000      -0.440153       -11.9772
  67   2.0000      -0.435982       -11.8637
  68   2.0000      -0.428878       -11.6704
  69   2.0000      -0.415900       -11.3172
  70   2.0000      -0.404431       -11.0051
  71   2.0000      -0.395341       -10.7578
  72   2.0000      -0.393260       -10.7012
  73   2.0000      -0.390078       -10.6146
  74   2.0000      -0.383887       -10.4461
  75   2.0000      -0.375430       -10.2160
  76   2.0000      -0.364016        -9.9054
  77   2.0000      -0.359101        -9.7716
  78   2.0000      -0.358077        -9.7438
  79   2.0000      -0.355920        -9.6851
  80   2.0000      -0.346588        -9.4311
  81   2.0000      -0.345037        -9.3889
  82   2.0000      -0.343627        -9.3506
  83   2.0000      -0.342234        -9.3127
  84   2.0000      -0.333794        -9.0830
  85   2.0000      -0.321671        -8.7531
  86   2.0000      -0.310058        -8.4371
  87   2.0000      -0.308639        -8.3985
  88   2.0000      -0.297216        -8.0877
  89   2.0000      -0.286542        -7.7972
  90   2.0000      -0.278431        -7.5765
  91   2.0000      -0.273851        -7.4519
  92   2.0000      -0.267226        -7.2716
  93   2.0000      -0.266952        -7.2641
  94   2.0000      -0.261236        -7.1086
  95   2.0000      -0.234150        -6.3716
  96   2.0000      -0.219287        -5.9671
  97   2.0000      -0.207333        -5.6418
  98   2.0000      -0.202997        -5.5238
  99   2.0000      -0.195342        -5.3155
 100   2.0000      -0.191401        -5.2083
 101   0.0000      -0.050186        -1.3656
 102   0.0000      -0.024400        -0.6640
 103   0.0000      -0.017441        -0.4746
 104   0.0000       0.006552         0.1783
 105   0.0000       0.018207         0.4954

MULLIKEN ATOMIC CHARGES
-----------------------
   0 C :   -0.316989
   1 C :   -0.019342
   2 O :   -0.365181
   3 P :    0.627499
   4 S :   -0.317065
   5 O :   -0.372984
   6 C :   -0.044649
   7 C :   -0.280137
   8 S :   -0.111299
   9 C :   -0.330845
  10 S :   -0.097732
  11 P :    0.617855
  12 S :   -0.324726
  13 O :   -0.366318
  14 C :   -0.000953
  15 C :   -0.344660
  16 O :   -0.376075
  17 C :   -0.003433
  18 C :   -0.305719
  19 H :    0.117142
  20 H :    0.111180
  21 H :    0.130542
  22 H :    0.115238
  23 H :    0.110774
  24 H :    0.111303
  25 H :    0.130066
  26 H :    0.120063
  27 H :    0.122074
  28 H :    0.112811
  29 H :    0.188936
  30 H :    0.187602
  31 H :    0.107872
  32 H :    0.105788
  33 H :    0.115223
  34 H :    0.123756
  35 H :    0.144992
  36 H :    0.106585
  37 H :    0.110130
  38 H :    0.116960
  39 H :    0.113088
  40 H :    0.130625
Sum of atomic charges:    0.0000000

LOEWDIN ATOMIC CHARGES
----------------------
   0 C :   -0.366621
   1 C :   -0.122940
   2 O :   -0.242386
   3 P :    0.571126
   4 S :   -0.313024
   5 O :   -0.244844
   6 C :   -0.122020
   7 C :   -0.349450
   8 S :    0.086925
   9 C :   -0.472936
  10 S :    0.084076
  11 P :    0.570473
  12 S :   -0.315823
  13 O :   -0.245977
  14 C :   -0.121880
  15 C :   -0.370771
  16 O :   -0.242836
  17 C :   -0.116037
  18 C :   -0.357841
  19 H :    0.122518
  20 H :    0.130633
  21 H :    0.124501
  22 H :    0.115460
  23 H :    0.109075
  24 H :    0.114004
  25 H :    0.114230
  26 H :    0.126996
  27 H :    0.130246
  28 H :    0.131608
  29 H :    0.131857
  30 H :    0.133764
  31 H :    0.107263
  32 H :    0.119095
  33 H :    0.132002
  34 H :    0.127666
  35 H :    0.119881
  36 H :    0.116889
  37 H :    0.107531
  38 H :    0.125339
  39 H :    0.131982
  40 H :    0.120244

  Mayer bond orders larger than 0.100000
B(  0-C ,  1-C ) :   1.1614 B(  0-C , 19-H ) :   0.9423 B(  0-C , 20-H ) :   0.9388
B(  0-C , 21-H ) :   0.9327 B(  1-C ,  2-O ) :   0.9080 B(  1-C , 22-H ) :   0.9210
B(  1-C , 23-H ) :   0.9154 B(  2-O ,  3-P ) :   1.0888 B(  3-P ,  4-S ) :   1.6386
B(  3-P ,  5-O ) :   1.1273 B(  3-P ,  8-S ) :   0.9513 B(  5-O ,  6-C ) :   0.8917
B(  6-C ,  7-C ) :   1.1681 B(  6-C , 24-H ) :   0.9291 B(  6-C , 25-H ) :   0.9075
B(  7-C , 26-H ) :   0.9484 B(  7-C , 27-H ) :   0.9481 B(  7-C , 28-H ) :   0.9401
B(  8-S ,  9-C ) :   1.0210 B(  9-C , 10-S ) :   0.9973 B(  9-C , 29-H ) :   0.8809
B(  9-C , 30-H ) :   0.9033 B( 10-S , 11-P ) :   0.9566 B( 10-S , 12-S ) :   0.1093
B( 11-P , 12-S ) :   1.6141 B( 11-P , 13-O ) :   1.1090 B( 11-P , 16-O ) :   1.1187
B( 13-O , 14-C ) :   0.9167 B( 14-C , 15-C ) :   1.1600 B( 14-C , 31-H ) :   0.9106
B( 14-C , 32-H ) :   0.9325 B( 15-C , 33-H ) :   0.9389 B( 15-C , 34-H ) :   0.9430
B( 15-C , 35-H ) :   0.9262 B( 16-O , 17-C ) :   0.8948 B( 17-C , 18-C ) :   1.1641
B( 17-C , 36-H ) :   0.9334 B( 17-C , 37-H ) :   0.9006 B( 18-C , 38-H ) :   0.9486
B( 18-C , 39-H ) :   0.9400 B( 18-C , 40-H ) :   0.9391

Dispersion correction           -0.067420112
FINAL SINGLE POINT ENERGY     -2929.517632637459

DIPOLE MOMENT
-------------

Method             : SCF
Type of density    : Electron Density
Multiplicity       :   1
Irrep              :   0
Energy             : -2929.6351603638663619 Eh
Relativity type    :
Basis              : AO
                                X                 Y                 Z
Electronic contribution:     -3.286627379      -2.073039149      13.313178929
Nuclear contribution   :      2.535589702       2.148697117     -14.384319310
                        -----------------------------------------
Total Dipole Moment    :     -0.751037676       0.075657969      -1.071140381
                        -----------------------------------------
Magnitude (a.u.)       :      1.310390566
Magnitude (Debye)      :      3.330748119

Rotational constants in cm-1:             0.010515             0.005962             0.005370
Rotational constants in MHz :           315.227678           178.744135           160.977419

                             ****ORCA TERMINATED NORMALLY****
TOTAL RUN TIME: 0 days 0 hours 0 minutes 21 seconds 855 msec
