                         Program Version 6.0.0  -   RELEASE  -
|  1> ! pbe def2-sv(p) def2/J RI DEFGRID1 loosescf d4 GCP(DFT/SV(P)) printgap
|  2> %output
|  3>     printlevel normal
|  4> end
|  5> * xyz 0 1
|  6> C 4.1308548566 -0.9116507755 -1.9445105174
|  7> C 2.7500156222 -0.3759973552 -2.2524776412
|  8> O 2.2168311581 0.455826457 -1.1922600374
|  9> P 1.9757131902 0.0500570657 0.30557711
| 10> S 0.8691302357 1.3690296462 1.2413791182
| 11> O 3.4407893685 -0.066941222 0.9042782534
| 12> C 3.6664226202 -0.2535316256 2.3157670013
| 13> C 5.0686842486 0.2243726057 2.6337591964
| 14> S 1.343128029 -1.9767120707 0.3485353131
| 15> C -0.3165183368 -1.8658053972 -0.3778148801
| 16> S -1.5712570235 -1.1136357295 0.7012849013
| 17> P -2.0763784839 0.5940643415 -0.467933956
| 18> S -0.9524662561 0.9268468757 -2.0383609597
| 19> O -2.1785061847 1.8248891752 0.5018781145
| 20> C -2.5381405468 1.8018332854 1.902867878
| 21> C -3.8595745839 1.1103136648 2.1554159175
| 22> O -3.6141556703 0.3961830813 -0.8494007021
| 23> C -4.0631250267 -0.3056839078 -2.0177993797
| 24> C -3.83317212 -1.8009541963 -1.919416207
| 25> H 4.7973405776 -0.0971800349 -1.673628444
| 26> H 4.0876831742 -1.6215289316 -1.1216459552
| 27> H 4.5162616072 -1.4136750596 -2.8266574162
| 28> H 2.0462384913 -1.1912776923 -2.4382424909
| 29> H 2.7543802364 0.2992507572 -3.1097085224
| 30> H 2.913208247 0.3179429907 2.8689473584
| 31> H 3.5456582275 -1.3167994952 2.5382645728
| 32> H 5.2621203574 0.0790085074 3.691414409
| 33> H 5.7940277457 -0.3381152752 2.0534169558
| 34> H 5.1661243096 1.2794671438 2.3931087994
| 35> H -0.6093873278 -2.8964382966 -0.5613029133
| 36> H -0.2730178686 -1.2825657829 -1.3027316966
| 37> H -1.7209266162 1.3248216883 2.4514850953
| 38> H -2.574857977 2.8606422228 2.1633286893
| 39> H -4.641853855 1.56536153 1.5534301142
| 40> H -3.7867915259 0.0537824388 1.9019176138
| 41> H -4.1103667212 1.2039032079 3.2074070355
| 42> H -5.126310336 -0.0663967787 -2.0696857037
| 43> H -3.5473639884 0.1082326143 -2.8905953624
| 44> H -4.2262191147 -2.1826173328 -0.98080233
| 45> H -4.3347593971 -2.2929929268 -2.7464744353
| 46> H -2.7684632334 -2.019052328 -1.974603575
| 47> *
| 48>
| 49>                          ****END OF INPUT****

CARTESIAN COORDINATES (ANGSTROEM)
---------------------------------
  C      4.130855   -0.911651   -1.944511
  C      2.750016   -0.375997   -2.252478
  O      2.216831    0.455826   -1.192260
  P      1.975713    0.050057    0.305577
  S      0.869130    1.369030    1.241379
  O      3.440789   -0.066941    0.904278
  C      3.666423   -0.253532    2.315767
  C      5.068684    0.224373    2.633759
  S      1.343128   -1.976712    0.348535
  C     -0.316518   -1.865805   -0.377815
  S     -1.571257   -1.113636    0.701285
  P     -2.076378    0.594064   -0.467934
  S     -0.952466    0.926847   -2.038361
  O     -2.178506    1.824889    0.501878
  C     -2.538141    1.801833    1.902868
  C     -3.859575    1.110314    2.155416
  O     -3.614156    0.396183   -0.849401
  C     -4.063125   -0.305684   -2.017799
  C     -3.833172   -1.800954   -1.919416
  H      4.797341   -0.097180   -1.673628
  H      4.087683   -1.621529   -1.121646
  H      4.516262   -1.413675   -2.826657
  H      2.046238   -1.191278   -2.438242
  H      2.754380    0.299251   -3.109709
  H      2.913208    0.317943    2.868947
  H      3.545658   -1.316799    2.538265
  H      5.262120    0.079009    3.691414
  H      5.794028   -0.338115    2.053417
  H      5.166124    1.279467    2.393109
  H     -0.609387   -2.896438   -0.561303
  H     -0.273018   -1.282566   -1.302732
  H     -1.720927    1.324822    2.451485
  H     -2.574858    2.860642    2.163329
  H     -4.641854    1.565362    1.553430
  H     -3.786792    0.053782    1.901918
  H     -4.110367    1.203903    3.207407
  H     -5.126310   -0.066397   -2.069686
  H     -3.547364    0.108233   -2.890595
  H     -4.226219   -2.182617   -0.980802
  H     -4.334759   -2.292993   -2.746474
  H     -2.768463   -2.019052   -1.974604

 Total Charge           Charge          ....    0
 Multiplicity           Mult            ....    1
 Number of Electrons    NEL             ....  202
 Basis Dimension        Dim             ....  334

ORBITAL ENERGIES
----------------

  NO   OCC          E(Eh)            E(eV)
   0   2.0000     -88.042770     -2395.7656
   1   2.0000     -88.040078     -2395.6923
   2   2.0000     -87.979544     -2394.0451
   3   2.0000     -87.973327     -2393.8759
   4   2.0000     -76.420970     -2079.5203
   5   2.0000     -76.420355     -2079.5036
   6   2.0000     -18.788031      -511.2483
   7   2.0000     -18.786345      -511.2024
   8   2.0000     -18.783705      -511.1306
   9   2.0000     -18.779512      -511.0165
  10   2.0000      -9.957404      -270.9547
  11   2.0000      -9.954148      -270.8661
  12   2.0000      -9.950148      -270.7573
  13   2.0000      -9.949473      -270.7389
  14   2.0000      -9.947085      -270.6740
  15   2.0000      -9.886498      -269.0253
  16   2.0000      -9.884985      -268.9841
  17   2.0000      -9.884876      -268.9812
  18   2.0000      -9.884489      -268.9706
  19   2.0000      -7.687842      -209.1968
  20   2.0000      -7.684733      -209.1122
  21   2.0000      -7.624678      -207.4780
  22   2.0000      -7.618294      -207.3043
  23   2.0000      -6.418018      -174.6431
  24   2.0000      -6.417741      -174.6356
  25   2.0000      -5.715434      -155.5249
  26   2.0000      -5.712635      -155.4487
  27   2.0000      -5.712280      -155.4390
  28   2.0000      -5.709302      -155.3580
  29   2.0000      -5.705179      -155.2458
  30   2.0000      -5.701678      -155.1506
  31   2.0000      -5.653611      -153.8426
  32   2.0000      -5.647291      -153.6706
  33   2.0000      -5.645624      -153.6252
  34   2.0000      -5.644415      -153.5923
  35   2.0000      -5.638787      -153.4392
  36   2.0000      -5.638482      -153.4309
  37   2.0000      -4.640632      -126.2780
  38   2.0000      -4.640597      -126.2771
  39   2.0000      -4.639799      -126.2553
  40   2.0000      -4.639777      -126.2548
  41   2.0000      -4.638533      -126.2209
  42   2.0000      -4.637661      -126.1972
  43   2.0000      -0.983067       -26.7506
  44   2.0000      -0.978767       -26.6336
  45   2.0000      -0.942152       -25.6373
  46   2.0000      -0.935844       -25.4656
  47   2.0000      -0.759651       -20.6712
  48   2.0000      -0.717353       -19.5202
  49   2.0000      -0.709443       -19.3049
  50   2.0000      -0.690495       -18.7893
  51   2.0000      -0.685997       -18.6669
  52   2.0000      -0.676236       -18.4013
  53   2.0000      -0.645373       -17.5615
  54   2.0000      -0.631068       -17.1722
  55   2.0000      -0.596302       -16.2262
  56   2.0000      -0.588540       -16.0150
  57   2.0000      -0.570995       -15.5376
  58   2.0000      -0.567786       -15.4502
  59   2.0000      -0.563575       -15.3357
  60   2.0000      -0.502911       -13.6849
  61   2.0000      -0.487442       -13.2640
  62   2.0000      -0.476695       -12.9715
  63   2.0000      -0.465290       -12.6612
  64   2.0000      -0.452064       -12.3013
  65   2.0000      -0.447136       -12.1672
  66   2.0000      -0.435869       -11.8606
  67   2.0000      -0.434613       -11.8264
  68   2.0000      -0.431647       -11.7457
  69   2.0000      -0.420003       -11.4289
  70   2.0000      -0.407916       -11.0999
  71   2.0000      -0.397957       -10.8289
  72   2.0000      -0.393411       -10.7053
  73   2.0000      -0.384836       -10.4719
  74   2.0000      -0.377051       -10.2601
  75   2.0000      -0.365688        -9.9509
  76   2.0000      -0.361157        -9.8276
  77   2.0000      -0.356922        -9.7123
  78   2.0000      -0.354196        -9.6382
  79   2.0000      -0.350279        -9.5316
  80   2.0000      -0.347686        -9.4610
  81   2.0000      -0.346400        -9.4260
  82   2.0000      -0.343525        -9.3478
  83   2.0000      -0.334992        -9.1156
  84   2.0000      -0.333296        -9.0695
  85   2.0000      -0.313047        -8.5184
  86   2.0000      -0.306127        -8.3301
  87   2.0000      -0.294580        -8.0159
  88   2.0000      -0.288194        -7.8422
  89   2.0000      -0.287068        -7.8115
  90   2.0000      -0.284553        -7.7431
  91   2.0000      -0.272166        -7.4060
  92   2.0000      -0.267823        -7.2878
  93   2.0000      -0.257059        -6.9949
  94   2.0000      -0.255483        -6.9521
  95   2.0000      -0.239746        -6.5238
  96   2.0000      -0.216909        -5.9024
  97   2.0000      -0.202030        -5.4975
  98   2.0000      -0.198525        -5.4021
  99   2.0000      -0.184850        -5.0300
 100   2.0000      -0.181776        -4.9464
 101   0.0000      -0.039668        -1.0794
 102   0.0000      -0.028971        -0.7884
 103   0.0000      -0.010735        -0.2921
 104   0.0000       0.004646         0.1264
 105   0.0000       0.024658         0.6710

MULLIKEN ATOMIC CHARGES
-----------------------
   0 C :   -0.303921
   1 C :   -0.001221
   2 O :   -0.344979
   3 P :    0.607092
   4 S :   -0.307077
   5 O :   -0.378880
   6 C :   -0.010909
   7 C :   -0.281775
   8 S :   -0.118724
   9 C :   -0.359030
  10 S :   -0.102792
  11 P :    0.603887
  12 S :   -0.301611
  13 O :   -0.350442
  14 C :   -0.008287
  15 C :   -0.316234
  16 O :   -0.374385
  17 C :    0.002983
  18 C :   -0.317927
  19 H :    0.122692
  20 H :    0.116497
  21 H :    0.111176
  22 H :    0.106750
  23 H :    0.114269
  24 H :    0.104499
  25 H :    0.101192
  26 H :    0.111215
  27 H :    0.114040
  28 H :    0.123072
  29 H :    0.184200
  30 H :    0.194871
  31 H :    0.127178
  32 H :    0.111228
  33 H :    0.123761
  34 H :    0.125397
  35 H :    0.114285
  36 H :    0.101819
  37 H :    0.108513
  38 H :    0.117864
  39 H :    0.110362
  40 H :    0.119353
Sum of atomic charges:   -0.0000000

LOEWDIN ATOMIC CHARGES
----------------------
   0 C :   -0.366341
   1 C :   -0.109127
   2 O :   -0.223085
   3 P :    0.562461
   4 S :   -0.303383
   5 O :   -0.246282
   6 C :   -0.122109
   7 C :   -0.350869
   8 S :    0.058363
   9 C :   -0.487106
  10 S :    0.073255
  11 P :    0.576646
  12 S :   -0.296936
  13 O :   -0.222610
  14 C :   -0.115029
  15 C :   -0.367448
  16 O :   -0.250719
  17 C :   -0.119403
  18 C :   -0.368433
  19 H :    0.129280
  20 H :    0.118637
  21 H :    0.130216
  22 H :    0.108332
  23 H :    0.124799
  24 H :    0.107750
  25 H :    0.108745
  26 H :    0.130607
  27 H :    0.125346
  28 H :    0.130324
  29 H :    0.136135
  30 H :    0.117518
  31 H :    0.110637
  32 H :    0.124255
  33 H :    0.129539
  34 H :    0.115726
  35 H :    0.132098
  36 H :    0.117440
  37 H :    0.108691
  38 H :    0.124544
  39 H :    0.129363
  40 H :    0.118173

  Mayer bond orders larger than 0.100000
B(  0-C ,  1-C ) :   1.1688 B(  0-C , 19-H ) :   0.9438 B(  0-C , 20-H ) :   0.9382
B(  0-C , 21-H ) :   0.9362 B(  1-C ,  2-O ) :   0.8979 B(  1-C , 22-H ) :   0.9185
B(  1-C , 23-H ) :   0.9347 B(  2-O ,  3-P ) :   1.1531 B(  3-P ,  4-S ) :   1.6558
B(  3-P ,  5-O ) :   1.0833 B(  3-P ,  8-S ) :   0.9450 B(  4-S ,  8-S ) :   0.1137
B(  5-O ,  6-C ) :   0.9047 B(  6-C ,  7-C ) :   1.1612 B(  6-C , 24-H ) :   0.9024
B(  6-C , 25-H ) :   0.9309 B(  7-C , 26-H ) :   0.9417 B(  7-C , 27-H ) :   0.9516
B(  7-C , 28-H ) :   0.9503 B(  8-S ,  9-C ) :   0.9883 B(  9-C , 10-S ) :   1.0105
B(  9-C , 29-H ) :   0.9063 B(  9-C , 30-H ) :   0.8359 B( 10-S , 11-P ) :   0.9388
B( 10-S , 12-S ) :   0.1128 B( 11-P , 12-S ) :   1.6015 B( 11-P , 13-O ) :   1.1599
B( 11-P , 16-O ) :   1.0713 B( 12-S , 30-H ) :   0.1325 B( 13-O , 14-C ) :   0.8970
B( 14-C , 15-C ) :   1.1662 B( 14-C , 31-H ) :   0.9136 B( 14-C , 32-H ) :   0.9343
B( 15-C , 33-H ) :   0.9417 B( 15-C , 34-H ) :   0.9367 B( 15-C , 35-H ) :   0.9354
B( 16-O , 17-C ) :   0.9257 B( 17-C , 18-C ) :   1.1618 B( 17-C , 36-H ) :   0.9344
B( 17-C , 37-H ) :   0.9124 B( 18-C , 38-H ) :   0.9436 B( 18-C , 39-H ) :   0.9380
B( 18-C , 40-H ) :   0.9387

Dispersion correction           -0.067505514
FINAL SINGLE POINT ENERGY     -2929.509727106661

DIPOLE MOMENT
-------------

Method             : SCF
Type of density    : Electron Density
Multiplicity       :   1
Irrep              :   0
Energy             : -2929.6275333648259220 Eh
Relativity type    :
Basis              : AO
                                X                 Y                 Z
Electronic contribution:     -3.041454506       6.323430157      -1.005605707
Nuclear contribution   :      3.064140434      -7.668585116       1.185319430
                        -----------------------------------------
Total Dipole Moment    :      0.022685928      -1.345154959       0.179713724
                        -----------------------------------------
Magnitude (a.u.)       :      1.357296407
Magnitude (Debye)      :      3.449973294

Rotational constants in cm-1:             0.013082             0.005239             0.004621
Rotational constants in MHz :           392.174452           157.047934           138.520329

                             ****ORCA TERMINATED NORMALLY****
TOTAL RUN TIME: 0 days 0 hours 0 minutes 21 seconds 389 msec
