                         Program Version 6.0.0  -   RELEASE  -
|  1> ! pbe def2-sv(p) def2/J RI DEFGRID1 loosescf d4 GCP(DFT/SV(P)) printgap
|  2> %output
|  3>     printlevel normal
|  4> end
|  5> * xyz 0 1
|  6> C 5.0634408897 1.2321182338 -1.6820365615
|  7> C 4.0488569013 1.7890425935 -0.7047576945
|  8> O 3.8457498159 0.8725679781 0.4001514058
|  9> P 2.6349147516 -0.1263999642 0.4976793271
| 10> S 2.7303990525 -1.1273458984 2.1725948355
| 11> O 2.7714015735 -0.9237478143 -0.8743720898
| 12> C 1.7903461975 -1.7996213207 -1.4502174999
| 13> C 1.5067922668 -3.0130935413 -0.5889936806
| 14> S 0.9033489888 1.1143499265 0.2436930609
| 15> C -0.0938021092 0.5069518928 1.6218168477
| 16> S -1.148670063 -0.9143283121 1.2069919251
| 17> P -2.2391921887 -0.0679713517 -0.4057233323
| 18> S -1.4723914311 -0.0551281923 -2.2040253148
| 19> O -2.5601906685 1.3764950224 0.1987071488
| 20> C -2.656941494 2.5470501275 -0.6315097166
| 21> C -3.9955966988 2.5984663375 -1.3389101853
| 22> O -3.5703199838 -0.9237400029 -0.4350051941
| 23> C -4.3129213627 -1.4285119444 0.6988767212
| 24> C -4.8520447402 -0.3215609222 1.5800237094
| 25> H 4.6921042935 0.3145944133 -2.1306214397
| 26> H 5.2447624805 1.9649573664 -2.462058284
| 27> H 5.9951634624 1.0169540526 -1.1662539562
| 28> H 3.0887783466 1.9795356575 -1.1927363357
| 29> H 4.4100792012 2.7058601685 -0.2354755426
| 30> H 0.8750291479 -1.2298439165 -1.6422628397
| 31> H 2.2324316176 -2.0892913283 -2.4053046343
| 32> H 2.4313201705 -3.5375231133 -0.3601534306
| 33> H 1.0351829609 -2.7201972294 0.3478798778
| 34> H 0.8363913339 -3.6779822533 -1.1245063912
| 35> H -0.7178933585 1.3325371151 1.9512220991
| 36> H 0.5667458667 0.1572281104 2.4183576406
| 37> H -2.5281362701 3.3819322658 0.0586061094
| 38> H -1.8361217501 2.5344682695 -1.3556664634
| 39> H -4.8067708031 2.6058214734 -0.6158586442
| 40> H -4.048524242 3.494924784 -1.9483253978
| 41> H -4.1014328428 1.725243029 -1.9822297865
| 42> H -5.1175796503 -2.0011973814 0.2346880563
| 43> H -3.6622791974 -2.0991927864 1.265334743
| 44> H -5.4615703002 -0.7593643455 2.3645070582
| 45> H -4.033831212 0.2320884158 2.0351341737
| 46> H -5.4606950067 0.3630182779 0.9949350846
| 47> *
| 48>
| 49>                          ****END OF INPUT****

CARTESIAN COORDINATES (ANGSTROEM)
---------------------------------
  C      5.063441    1.232118   -1.682037
  C      4.048857    1.789043   -0.704758
  O      3.845750    0.872568    0.400151
  P      2.634915   -0.126400    0.497679
  S      2.730399   -1.127346    2.172595
  O      2.771402   -0.923748   -0.874372
  C      1.790346   -1.799621   -1.450217
  C      1.506792   -3.013094   -0.588994
  S      0.903349    1.114350    0.243693
  C     -0.093802    0.506952    1.621817
  S     -1.148670   -0.914328    1.206992
  P     -2.239192   -0.067971   -0.405723
  S     -1.472391   -0.055128   -2.204025
  O     -2.560191    1.376495    0.198707
  C     -2.656941    2.547050   -0.631510
  C     -3.995597    2.598466   -1.338910
  O     -3.570320   -0.923740   -0.435005
  C     -4.312921   -1.428512    0.698877
  C     -4.852045   -0.321561    1.580024
  H      4.692104    0.314594   -2.130621
  H      5.244762    1.964957   -2.462058
  H      5.995163    1.016954   -1.166254
  H      3.088778    1.979536   -1.192736
  H      4.410079    2.705860   -0.235476
  H      0.875029   -1.229844   -1.642263
  H      2.232432   -2.089291   -2.405305
  H      2.431320   -3.537523   -0.360153
  H      1.035183   -2.720197    0.347880
  H      0.836391   -3.677982   -1.124506
  H     -0.717893    1.332537    1.951222
  H      0.566746    0.157228    2.418358
  H     -2.528136    3.381932    0.058606
  H     -1.836122    2.534468   -1.355666
  H     -4.806771    2.605821   -0.615859
  H     -4.048524    3.494925   -1.948325
  H     -4.101433    1.725243   -1.982230
  H     -5.117580   -2.001197    0.234688
  H     -3.662279   -2.099193    1.265335
  H     -5.461570   -0.759364    2.364507
  H     -4.033831    0.232088    2.035134
  H     -5.460695    0.363018    0.994935

 Total Charge           Charge          ....    0
 Multiplicity           Mult            ....    1
 Number of Electrons    NEL             ....  202
 Basis Dimension        Dim             ....  334

ORBITAL ENERGIES
----------------

  NO   OCC          E(Eh)            E(eV)
   0   2.0000     -88.047093     -2395.8832
   1   2.0000     -88.041999     -2395.7446
   2   2.0000     -87.985571     -2394.2091
   3   2.0000     -87.984574     -2394.1820
   4   2.0000     -76.430735     -2079.7860
   5   2.0000     -76.424647     -2079.6204
   6   2.0000     -18.800424      -511.5855
   7   2.0000     -18.797170      -511.4970
   8   2.0000     -18.788580      -511.2633
   9   2.0000     -18.787691      -511.2391
  10   2.0000      -9.962618      -271.0966
  11   2.0000      -9.957841      -270.9666
  12   2.0000      -9.957547      -270.9586
  13   2.0000      -9.956092      -270.9190
  14   2.0000      -9.940021      -270.4817
  15   2.0000      -9.893275      -269.2097
  16   2.0000      -9.888714      -269.0856
  17   2.0000      -9.885623      -269.0015
  18   2.0000      -9.868815      -268.5441
  19   2.0000      -7.691866      -209.3063
  20   2.0000      -7.686703      -209.1658
  21   2.0000      -7.630542      -207.6376
  22   2.0000      -7.629814      -207.6178
  23   2.0000      -6.428127      -174.9182
  24   2.0000      -6.421999      -174.7515
  25   2.0000      -5.719825      -155.6443
  26   2.0000      -5.716260      -155.5473
  27   2.0000      -5.714560      -155.5011
  28   2.0000      -5.711217      -155.4101
  29   2.0000      -5.708897      -155.3470
  30   2.0000      -5.703745      -155.2068
  31   2.0000      -5.659621      -154.0061
  32   2.0000      -5.658861      -153.9854
  33   2.0000      -5.651116      -153.7747
  34   2.0000      -5.650531      -153.7588
  35   2.0000      -5.650483      -153.7575
  36   2.0000      -5.649737      -153.7371
  37   2.0000      -4.651132      -126.5637
  38   2.0000      -4.649843      -126.5287
  39   2.0000      -4.648286      -126.4863
  40   2.0000      -4.644674      -126.3880
  41   2.0000      -4.643909      -126.3672
  42   2.0000      -4.642277      -126.3228
  43   2.0000      -0.989840       -26.9349
  44   2.0000      -0.984785       -26.7973
  45   2.0000      -0.952998       -25.9324
  46   2.0000      -0.940275       -25.5862
  47   2.0000      -0.764364       -20.7994
  48   2.0000      -0.723764       -19.6946
  49   2.0000      -0.712411       -19.3857
  50   2.0000      -0.697118       -18.9695
  51   2.0000      -0.682950       -18.5840
  52   2.0000      -0.672982       -18.3128
  53   2.0000      -0.652892       -17.7661
  54   2.0000      -0.640842       -17.4382
  55   2.0000      -0.598216       -16.2783
  56   2.0000      -0.586130       -15.9494
  57   2.0000      -0.581426       -15.8214
  58   2.0000      -0.573469       -15.6049
  59   2.0000      -0.566205       -15.4072
  60   2.0000      -0.506562       -13.7842
  61   2.0000      -0.495507       -13.4834
  62   2.0000      -0.483599       -13.1594
  63   2.0000      -0.467912       -12.7325
  64   2.0000      -0.461293       -12.5524
  65   2.0000      -0.447180       -12.1684
  66   2.0000      -0.443230       -12.0609
  67   2.0000      -0.438310       -11.9270
  68   2.0000      -0.424351       -11.5472
  69   2.0000      -0.415662       -11.3107
  70   2.0000      -0.405415       -11.0319
  71   2.0000      -0.403808       -10.9882
  72   2.0000      -0.398386       -10.8406
  73   2.0000      -0.392647       -10.6845
  74   2.0000      -0.383425       -10.4335
  75   2.0000      -0.375838       -10.2271
  76   2.0000      -0.362744        -9.8708
  77   2.0000      -0.357763        -9.7352
  78   2.0000      -0.354186        -9.6379
  79   2.0000      -0.352446        -9.5906
  80   2.0000      -0.351760        -9.5719
  81   2.0000      -0.350362        -9.5338
  82   2.0000      -0.337606        -9.1867
  83   2.0000      -0.335357        -9.1255
  84   2.0000      -0.328858        -8.9487
  85   2.0000      -0.321164        -8.7393
  86   2.0000      -0.316595        -8.6150
  87   2.0000      -0.311175        -8.4675
  88   2.0000      -0.289358        -7.8738
  89   2.0000      -0.288177        -7.8417
  90   2.0000      -0.284235        -7.7344
  91   2.0000      -0.278680        -7.5833
  92   2.0000      -0.274758        -7.4765
  93   2.0000      -0.268605        -7.3091
  94   2.0000      -0.256583        -6.9820
  95   2.0000      -0.244113        -6.6426
  96   2.0000      -0.219773        -5.9803
  97   2.0000      -0.205881        -5.6023
  98   2.0000      -0.201702        -5.4886
  99   2.0000      -0.200670        -5.4605
 100   2.0000      -0.192979        -5.2512
 101   0.0000      -0.051297        -1.3959
 102   0.0000      -0.025241        -0.6868
 103   0.0000      -0.015067        -0.4100
 104   0.0000      -0.002341        -0.0637
 105   0.0000       0.013213         0.3596

MULLIKEN ATOMIC CHARGES
-----------------------
   0 C :   -0.287155
   1 C :   -0.017369
   2 O :   -0.354858
   3 P :    0.609332
   4 S :   -0.306107
   5 O :   -0.377251
   6 C :   -0.030213
   7 C :   -0.313954
   8 S :   -0.118906
   9 C :   -0.335832
  10 S :   -0.103016
  11 P :    0.623757
  12 S :   -0.300065
  13 O :   -0.391492
  14 C :   -0.014036
  15 C :   -0.308965
  16 O :   -0.366175
  17 C :   -0.017151
  18 C :   -0.313882
  19 H :    0.125499
  20 H :    0.109050
  21 H :    0.121176
  22 H :    0.108852
  23 H :    0.112043
  24 H :    0.134806
  25 H :    0.098646
  26 H :    0.113156
  27 H :    0.133239
  28 H :    0.107903
  29 H :    0.188044
  30 H :    0.192960
  31 H :    0.103266
  32 H :    0.118122
  33 H :    0.116212
  34 H :    0.114142
  35 H :    0.128523
  36 H :    0.113725
  37 H :    0.121478
  38 H :    0.115328
  39 H :    0.125365
  40 H :    0.121801
Sum of atomic charges:   -0.0000000

LOEWDIN ATOMIC CHARGES
----------------------
   0 C :   -0.357884
   1 C :   -0.111875
   2 O :   -0.235929
   3 P :    0.570048
   4 S :   -0.295256
   5 O :   -0.242199
   6 C :   -0.125437
   7 C :   -0.370246
   8 S :    0.065057
   9 C :   -0.479577
  10 S :    0.086734
  11 P :    0.567709
  12 S :   -0.296894
  13 O :   -0.249740
  14 C :   -0.124044
  15 C :   -0.363349
  16 O :   -0.240922
  17 C :   -0.115195
  18 C :   -0.366347
  19 H :    0.128544
  20 H :    0.129145
  21 H :    0.129847
  22 H :    0.105689
  23 H :    0.122056
  24 H :    0.101507
  25 H :    0.117031
  26 H :    0.124282
  27 H :    0.113098
  28 H :    0.129535
  29 H :    0.132624
  30 H :    0.128048
  31 H :    0.116625
  32 H :    0.110201
  33 H :    0.122728
  34 H :    0.132056
  35 H :    0.126274
  36 H :    0.123819
  37 H :    0.111043
  38 H :    0.132404
  39 H :    0.122552
  40 H :    0.126238

  Mayer bond orders larger than 0.100000
B(  0-C ,  1-C ) :   1.1663 B(  0-C , 19-H ) :   0.9421 B(  0-C , 20-H ) :   0.9394
B(  0-C , 21-H ) :   0.9468 B(  1-C ,  2-O ) :   0.8933 B(  1-C , 22-H ) :   0.9162
B(  1-C , 23-H ) :   0.9359 B(  2-O ,  3-P ) :   1.1441 B(  3-P ,  4-S ) :   1.6468
B(  3-P ,  5-O ) :   1.0939 B(  3-P ,  8-S ) :   0.9301 B(  4-S ,  8-S ) :   0.1128
B(  4-S , 30-H ) :   0.1091 B(  5-O ,  6-C ) :   0.9010 B(  6-C ,  7-C ) :   1.1677
B(  6-C , 24-H ) :   0.8961 B(  6-C , 25-H ) :   0.9336 B(  7-C , 26-H ) :   0.9446
B(  7-C , 27-H ) :   0.9260 B(  7-C , 28-H ) :   0.9371 B(  8-S ,  9-C ) :   1.0274
B(  9-C , 10-S ) :   0.9936 B(  9-C , 29-H ) :   0.8989 B(  9-C , 30-H ) :   0.8581
B( 10-S , 11-P ) :   0.9624 B( 11-P , 12-S ) :   1.6343 B( 11-P , 13-O ) :   1.0592
B( 11-P , 16-O ) :   1.1335 B( 13-O , 14-C ) :   0.8993 B( 14-C , 15-C ) :   1.1647
B( 14-C , 31-H ) :   0.9322 B( 14-C , 32-H ) :   0.9073 B( 15-C , 33-H ) :   0.9438
B( 15-C , 34-H ) :   0.9395 B( 15-C , 35-H ) :   0.9366 B( 16-O , 17-C ) :   0.9020
B( 17-C , 18-C ) :   1.1652 B( 17-C , 36-H ) :   0.9337 B( 17-C , 37-H ) :   0.9226
B( 18-C , 38-H ) :   0.9362 B( 18-C , 39-H ) :   0.9361 B( 18-C , 40-H ) :   0.9429

Dispersion correction           -0.065334237
FINAL SINGLE POINT ENERGY     -2929.517122670165

DIPOLE MOMENT
-------------

Method             : SCF
Type of density    : Electron Density
Multiplicity       :   1
Irrep              :   0
Energy             : -2929.6372585792546488 Eh
Relativity type    :
Basis              : AO
                                X                 Y                 Z
Electronic contribution:      8.910361547      -4.531596720       6.449864057
Nuclear contribution   :    -10.101569773       5.550544416      -6.654803215
                        -----------------------------------------
Total Dipole Moment    :     -1.191208226       1.018947697      -0.204939158
                        -----------------------------------------
Magnitude (a.u.)       :      1.580895792
Magnitude (Debye)      :      4.018317762

Rotational constants in cm-1:             0.013177             0.004710             0.004353
Rotational constants in MHz :           395.044006           141.201985           130.509497

                             ****ORCA TERMINATED NORMALLY****
TOTAL RUN TIME: 0 days 0 hours 0 minutes 21 seconds 22 msec
