                         Program Version 6.0.0  -   RELEASE  -
|  1> ! pbe def2-sv(p) def2/J RI DEFGRID1 loosescf d4 GCP(DFT/SV(P)) printgap
|  2> %output
|  3>     printlevel normal
|  4> end
|  5> * xyz 0 1
|  6> C 2.6635059845 2.2339957163 2.2683043048
|  7> C 3.9254246234 1.6743399136 1.6422305012
|  8> O 3.6972527501 1.1514044879 0.3185933772
|  9> P 2.849186214 -0.1585583281 0.0750608993
| 10> S 3.0929679665 -1.6199106628 1.3654324023
| 11> O 3.4039210464 -0.4350224137 -1.3839322749
| 12> C 3.1908180874 -1.678603923 -2.0731192865
| 13> C 1.9045169206 -1.6671346079 -2.8775546453
| 14> S 0.8506422109 0.5274149401 -0.1748167914
| 15> C -0.0322322017 -0.8088162731 0.7058623002
| 16> S -1.5354716019 -0.1821847951 1.4581462552
| 17> P -2.6038360142 0.0482049663 -0.3795586863
| 18> S -2.184022645 -1.2565836424 -1.7747310849
| 19> O -2.3126568028 1.5000809751 -0.9136133462
| 20> C -2.4945540288 2.6954287888 -0.1110366248
| 21> C -1.3436090963 3.6387288595 -0.3932801157
| 22> O -4.1131283223 0.1903782325 0.0994455182
| 23> C -4.7930426439 -0.7007464206 1.0042341634
| 24> C -4.7269924275 -2.1474565964 0.5621045775
| 25> H 1.9571584367 1.4312186212 2.475973349
| 26> H 2.9169510353 2.7266735815 3.2016014662
| 27> H 2.1968708098 2.9511003071 1.5976808918
| 28> H 4.3436915578 0.8757604816 2.2633453814
| 29> H 4.6747284616 2.4516904474 1.4864582499
| 30> H 4.0583089914 -1.7725767103 -2.7289231949
| 31> H 3.1965848361 -2.4963674055 -1.3436067506
| 32> H 1.8593212153 -2.5613482558 -3.4909571047
| 33> H 1.0286730217 -1.6498134082 -2.2314545454
| 34> H 1.8746215526 -0.791448438 -3.5205180891
| 35> H 0.6070221912 -1.204254646 1.4962421033
| 36> H -0.3047310617 -1.5879046134 -0.0093220155
| 37> H -3.4530106903 3.1287301228 -0.4017198569
| 38> H -2.5272721423 2.4131817804 0.9453299989
| 39> H -1.4734342356 4.5453539473 0.1886093024
| 40> H -0.4016921861 3.1665200683 -0.124892536
| 41> H -1.3160553929 3.8868007705 -1.4502375779
| 42> H -4.3514013136 -0.5790262037 1.9970294247
| 43> H -5.8193368349 -0.3295791146 1.0047402254
| 44> H -5.1000293299 -2.251628014 -0.4541441986
| 45> H -3.697533129 -2.5022224553 0.5874311371
| 46> H -5.3271233061 -2.7569938755 1.2299047771
| 47> *
| 48>
| 49>                          ****END OF INPUT****

CARTESIAN COORDINATES (ANGSTROEM)
---------------------------------
  C      2.663506    2.233996    2.268304
  C      3.925425    1.674340    1.642231
  O      3.697253    1.151404    0.318593
  P      2.849186   -0.158558    0.075061
  S      3.092968   -1.619911    1.365432
  O      3.403921   -0.435022   -1.383932
  C      3.190818   -1.678604   -2.073119
  C      1.904517   -1.667135   -2.877555
  S      0.850642    0.527415   -0.174817
  C     -0.032232   -0.808816    0.705862
  S     -1.535472   -0.182185    1.458146
  P     -2.603836    0.048205   -0.379559
  S     -2.184023   -1.256584   -1.774731
  O     -2.312657    1.500081   -0.913613
  C     -2.494554    2.695429   -0.111037
  C     -1.343609    3.638729   -0.393280
  O     -4.113128    0.190378    0.099446
  C     -4.793043   -0.700746    1.004234
  C     -4.726992   -2.147457    0.562105
  H      1.957158    1.431219    2.475973
  H      2.916951    2.726674    3.201601
  H      2.196871    2.951100    1.597681
  H      4.343692    0.875760    2.263345
  H      4.674728    2.451690    1.486458
  H      4.058309   -1.772577   -2.728923
  H      3.196585   -2.496367   -1.343607
  H      1.859321   -2.561348   -3.490957
  H      1.028673   -1.649813   -2.231455
  H      1.874622   -0.791448   -3.520518
  H      0.607022   -1.204255    1.496242
  H     -0.304731   -1.587905   -0.009322
  H     -3.453011    3.128730   -0.401720
  H     -2.527272    2.413182    0.945330
  H     -1.473434    4.545354    0.188609
  H     -0.401692    3.166520   -0.124893
  H     -1.316055    3.886801   -1.450238
  H     -4.351401   -0.579026    1.997029
  H     -5.819337   -0.329579    1.004740
  H     -5.100029   -2.251628   -0.454144
  H     -3.697533   -2.502222    0.587431
  H     -5.327123   -2.756994    1.229905

 Total Charge           Charge          ....    0
 Multiplicity           Mult            ....    1
 Number of Electrons    NEL             ....  202
 Basis Dimension        Dim             ....  334

ORBITAL ENERGIES
----------------

  NO   OCC          E(Eh)            E(eV)
   0   2.0000     -88.052433     -2396.0285
   1   2.0000     -88.042445     -2395.7567
   2   2.0000     -87.993228     -2394.4175
   3   2.0000     -87.987050     -2394.2493
   4   2.0000     -76.429323     -2079.7476
   5   2.0000     -76.427337     -2079.6936
   6   2.0000     -18.798477      -511.5326
   7   2.0000     -18.793585      -511.3995
   8   2.0000     -18.791392      -511.3398
   9   2.0000     -18.786295      -511.2011
  10   2.0000      -9.962794      -271.1014
  11   2.0000      -9.957202      -270.9493
  12   2.0000      -9.954911      -270.8869
  13   2.0000      -9.952241      -270.8142
  14   2.0000      -9.947878      -270.6955
  15   2.0000      -9.887070      -269.0409
  16   2.0000      -9.886872      -269.0355
  17   2.0000      -9.886562      -269.0270
  18   2.0000      -9.876072      -268.7416
  19   2.0000      -7.697097      -209.4487
  20   2.0000      -7.686842      -209.1696
  21   2.0000      -7.638136      -207.8442
  22   2.0000      -7.632231      -207.6836
  23   2.0000      -6.426718      -174.8799
  24   2.0000      -6.424933      -174.8313
  25   2.0000      -5.724590      -155.7740
  26   2.0000      -5.721701      -155.6954
  27   2.0000      -5.714710      -155.5052
  28   2.0000      -5.714468      -155.4986
  29   2.0000      -5.711491      -155.4176
  30   2.0000      -5.703794      -155.2081
  31   2.0000      -5.666824      -154.2021
  32   2.0000      -5.661288      -154.0515
  33   2.0000      -5.658760      -153.9827
  34   2.0000      -5.658538      -153.9766
  35   2.0000      -5.652781      -153.8200
  36   2.0000      -5.652284      -153.8065
  37   2.0000      -4.649477      -126.5187
  38   2.0000      -4.648792      -126.5001
  39   2.0000      -4.647108      -126.4542
  40   2.0000      -4.646877      -126.4480
  41   2.0000      -4.646725      -126.4438
  42   2.0000      -4.645509      -126.4107
  43   2.0000      -0.992151       -26.9978
  44   2.0000      -0.988372       -26.8950
  45   2.0000      -0.948123       -25.7997
  46   2.0000      -0.943756       -25.6809
  47   2.0000      -0.766174       -20.8486
  48   2.0000      -0.723403       -19.6848
  49   2.0000      -0.713655       -19.4195
  50   2.0000      -0.693160       -18.8618
  51   2.0000      -0.684227       -18.6188
  52   2.0000      -0.678908       -18.4740
  53   2.0000      -0.652474       -17.7547
  54   2.0000      -0.639420       -17.3995
  55   2.0000      -0.603043       -16.4096
  56   2.0000      -0.592425       -16.1207
  57   2.0000      -0.575037       -15.6476
  58   2.0000      -0.565751       -15.3949
  59   2.0000      -0.564245       -15.3539
  60   2.0000      -0.509360       -13.8604
  61   2.0000      -0.495498       -13.4832
  62   2.0000      -0.477387       -12.9904
  63   2.0000      -0.468746       -12.7552
  64   2.0000      -0.460475       -12.5302
  65   2.0000      -0.450668       -12.2633
  66   2.0000      -0.440138       -11.9768
  67   2.0000      -0.438101       -11.9213
  68   2.0000      -0.430809       -11.7229
  69   2.0000      -0.420254       -11.4357
  70   2.0000      -0.416692       -11.3388
  71   2.0000      -0.399505       -10.8711
  72   2.0000      -0.392969       -10.6932
  73   2.0000      -0.389709       -10.6045
  74   2.0000      -0.388756       -10.5786
  75   2.0000      -0.377176       -10.2635
  76   2.0000      -0.360362        -9.8059
  77   2.0000      -0.355285        -9.6678
  78   2.0000      -0.354492        -9.6462
  79   2.0000      -0.351475        -9.5641
  80   2.0000      -0.347200        -9.4478
  81   2.0000      -0.345702        -9.4070
  82   2.0000      -0.343963        -9.3597
  83   2.0000      -0.338571        -9.2130
  84   2.0000      -0.330954        -9.0057
  85   2.0000      -0.321595        -8.7510
  86   2.0000      -0.313887        -8.5413
  87   2.0000      -0.300719        -8.1830
  88   2.0000      -0.299412        -8.1474
  89   2.0000      -0.296925        -8.0798
  90   2.0000      -0.287558        -7.8249
  91   2.0000      -0.280816        -7.6414
  92   2.0000      -0.269163        -7.3243
  93   2.0000      -0.267152        -7.2696
  94   2.0000      -0.258499        -7.0341
  95   2.0000      -0.234647        -6.3851
  96   2.0000      -0.223318        -6.0768
  97   2.0000      -0.212176        -5.7736
  98   2.0000      -0.211066        -5.7434
  99   2.0000      -0.204985        -5.5779
 100   2.0000      -0.199376        -5.4253
 101   0.0000      -0.045934        -1.2499
 102   0.0000      -0.037064        -1.0086
 103   0.0000      -0.014308        -0.3894
 104   0.0000       0.001766         0.0481
 105   0.0000       0.009960         0.2710

MULLIKEN ATOMIC CHARGES
-----------------------
   0 C :   -0.317431
   1 C :   -0.000149
   2 O :   -0.357941
   3 P :    0.606056
   4 S :   -0.332772
   5 O :   -0.353728
   6 C :   -0.008841
   7 C :   -0.311099
   8 S :   -0.094188
   9 C :   -0.366358
  10 S :   -0.109670
  11 P :    0.583622
  12 S :   -0.295412
  13 O :   -0.349519
  14 C :   -0.007490
  15 C :   -0.297121
  16 O :   -0.380041
  17 C :   -0.009711
  18 C :   -0.310488
  19 H :    0.121690
  20 H :    0.112749
  21 H :    0.123125
  22 H :    0.113176
  23 H :    0.109025
  24 H :    0.106526
  25 H :    0.104586
  26 H :    0.109005
  27 H :    0.135703
  28 H :    0.117788
  29 H :    0.191250
  30 H :    0.201718
  31 H :    0.110655
  32 H :    0.098142
  33 H :    0.108169
  34 H :    0.135654
  35 H :    0.122155
  36 H :    0.112306
  37 H :    0.110718
  38 H :    0.128807
  39 H :    0.126348
  40 H :    0.112986
Sum of atomic charges:   -0.0000000

LOEWDIN ATOMIC CHARGES
----------------------
   0 C :   -0.368903
   1 C :   -0.115076
   2 O :   -0.234972
   3 P :    0.569178
   4 S :   -0.310535
   5 O :   -0.236120
   6 C :   -0.118652
   7 C :   -0.364342
   8 S :    0.083732
   9 C :   -0.488859
  10 S :    0.074057
  11 P :    0.564090
  12 S :   -0.294382
  13 O :   -0.233105
  14 C :   -0.114266
  15 C :   -0.356160
  16 O :   -0.247406
  17 C :   -0.114036
  18 C :   -0.368731
  19 H :    0.119591
  20 H :    0.130673
  21 H :    0.125009
  22 H :    0.111909
  23 H :    0.120848
  24 H :    0.119349
  25 H :    0.106259
  26 H :    0.129729
  27 H :    0.122010
  28 H :    0.128495
  29 H :    0.124659
  30 H :    0.120330
  31 H :    0.118135
  32 H :    0.101539
  33 H :    0.128898
  34 H :    0.122273
  35 H :    0.130627
  36 H :    0.108024
  37 H :    0.122105
  38 H :    0.131472
  39 H :    0.121621
  40 H :    0.130933

  Mayer bond orders larger than 0.100000
B(  0-C ,  1-C ) :   1.1643 B(  0-C , 19-H ) :   0.9385 B(  0-C , 20-H ) :   0.9370
B(  0-C , 21-H ) :   0.9426 B(  1-C ,  2-O ) :   0.9124 B(  1-C , 22-H ) :   0.9178
B(  1-C , 23-H ) :   0.9345 B(  2-O ,  3-P ) :   1.1329 B(  3-P ,  4-S ) :   1.5912
B(  3-P ,  5-O ) :   1.1306 B(  3-P ,  8-S ) :   0.9549 B(  4-S ,  8-S ) :   0.1228
B(  5-O ,  6-C ) :   0.9152 B(  6-C ,  7-C ) :   1.1624 B(  6-C , 24-H ) :   0.9344
B(  6-C , 25-H ) :   0.9105 B(  7-C , 26-H ) :   0.9390 B(  7-C , 27-H ) :   0.9321
B(  7-C , 28-H ) :   0.9461 B(  8-S ,  9-C ) :   0.9888 B(  9-C , 10-S ) :   1.0107
B(  9-C , 29-H ) :   0.8599 B(  9-C , 30-H ) :   0.8625 B( 10-S , 11-P ) :   0.9265
B( 10-S , 12-S ) :   0.1134 B( 11-P , 12-S ) :   1.6479 B( 11-P , 13-O ) :   1.1420
B( 11-P , 16-O ) :   1.0917 B( 13-O , 14-C ) :   0.8849 B( 14-C , 15-C ) :   1.1658
B( 14-C , 31-H ) :   0.9326 B( 14-C , 32-H ) :   0.9113 B( 15-C , 33-H ) :   0.9404
B( 15-C , 34-H ) :   0.9365 B( 15-C , 35-H ) :   0.9476 B( 16-O , 17-C ) :   0.9123
B( 17-C , 18-C ) :   1.1668 B( 17-C , 36-H ) :   0.9269 B( 17-C , 37-H ) :   0.9333
B( 18-C , 38-H ) :   0.9430 B( 18-C , 39-H ) :   0.9330 B( 18-C , 40-H ) :   0.9350

Dispersion correction           -0.063324242
FINAL SINGLE POINT ENERGY     -2929.519626485181

DIPOLE MOMENT
-------------

Method             : SCF
Type of density    : Electron Density
Multiplicity       :   1
Irrep              :   0
Energy             : -2929.6396919127787442 Eh
Relativity type    :
Basis              : AO
                                X                 Y                 Z
Electronic contribution:      4.237313088      -5.920536363      -1.883323672
Nuclear contribution   :     -4.960686453       6.862786167       2.769419966
                        -----------------------------------------
Total Dipole Moment    :     -0.723373365       0.942249805       0.886096294
                        -----------------------------------------
Magnitude (a.u.)       :      1.481981903
Magnitude (Debye)      :      3.766898638

Rotational constants in cm-1:             0.011736             0.004642             0.004211
Rotational constants in MHz :           351.844455           139.156760           126.243347

                             ****ORCA TERMINATED NORMALLY****
TOTAL RUN TIME: 0 days 0 hours 0 minutes 20 seconds 784 msec
