                         Program Version 6.0.0  -   RELEASE  -
|  1> ! pbe def2-sv(p) def2/J RI DEFGRID1 loosescf d4 GCP(DFT/SV(P)) printgap
|  2> %output
|  3>     printlevel normal
|  4> end
|  5> * xyz 0 1
|  6> C 4.5910543897 0.5418540559 -2.1650942158
|  7> C 4.4711807633 1.1763426045 -0.7948494364
|  8> O 3.7098044989 0.3596659229 0.111475599
|  9> P 2.1481162254 0.1107192871 -0.0666529543
| 10> S 1.1656459519 1.7187860036 -0.6293448819
| 11> O 1.767552896 -0.4880866526 1.3482296455
| 12> C 1.7247575806 0.3403520744 2.531490829
| 13> C 0.9624760091 -0.4182407114 3.5976703272
| 14> S 2.0218206904 -1.6311209315 -1.2306388202
| 15> C 0.2407121404 -1.6539137462 -1.5622660647
| 16> S -0.7668304043 -1.9176798577 -0.0710124168
| 17> P -1.8944379153 -0.1331468634 -0.046038912
| 18> S -2.0874483027 0.7375279192 -1.7998141542
| 19> O -1.2516792494 0.6357066597 1.1789839273
| 20> C -1.9387782281 1.6599230925 1.9347673647
| 21> C -2.2450463783 2.8812124144 1.0937441043
| 22> O -3.2808726446 -0.5808120983 0.59233353
| 23> C -4.3159330998 -1.2068538114 -0.1901624487
| 24> C -5.6442002857 -0.9490951033 0.49271538
| 25> H 4.9654775202 -0.4750188457 -2.0791322261
| 26> H 3.6150768517 0.5157567572 -2.6485397761
| 27> H 5.2701341269 1.1286048064 -2.7753071935
| 28> H 3.9878707416 2.1563060615 -0.8646762168
| 29> H 5.4418480172 1.2729729701 -0.3068472317
| 30> H 2.7541892755 0.5428416909 2.8372208561
| 31> H 1.2350801309 1.2854269283 2.2725981575
| 32> H 1.456863603 -1.3637674357 3.8003631256
| 33> H 0.9287103457 0.1752014756 4.5056664527
| 34> H -0.0496455799 -0.620656015 3.2570271118
| 35> H 0.0802432504 -2.4946408679 -2.2324379458
| 36> H -0.0718751054 -0.7151593544 -2.0301883486
| 37> H -2.8510483999 1.2260394086 2.3495932323
| 38> H -1.2389273709 1.8962260753 2.7384122996
| 39> H -2.9704313771 2.6351796993 0.3195383983
| 40> H -2.6494340814 3.6657815016 1.7252253671
| 41> H -1.3383085278 3.2384148962 0.60816771
| 42> H -4.2939725428 -0.7829465028 -1.1999324676
| 43> H -4.0948835036 -2.2755297913 -0.2440688536
| 44> H -5.8475433295 0.117560924 0.5298539151
| 45> H -6.4315379146 -1.4423820212 -0.0674927689
| 46> H -5.623534088 -1.3410272674 1.5054875168
| 47> *
| 48>
| 49>                          ****END OF INPUT****

CARTESIAN COORDINATES (ANGSTROEM)
---------------------------------
  C      4.591054    0.541854   -2.165094
  C      4.471181    1.176343   -0.794849
  O      3.709804    0.359666    0.111476
  P      2.148116    0.110719   -0.066653
  S      1.165646    1.718786   -0.629345
  O      1.767553   -0.488087    1.348230
  C      1.724758    0.340352    2.531491
  C      0.962476   -0.418241    3.597670
  S      2.021821   -1.631121   -1.230639
  C      0.240712   -1.653914   -1.562266
  S     -0.766830   -1.917680   -0.071012
  P     -1.894438   -0.133147   -0.046039
  S     -2.087448    0.737528   -1.799814
  O     -1.251679    0.635707    1.178984
  C     -1.938778    1.659923    1.934767
  C     -2.245046    2.881212    1.093744
  O     -3.280873   -0.580812    0.592334
  C     -4.315933   -1.206854   -0.190162
  C     -5.644200   -0.949095    0.492715
  H      4.965478   -0.475019   -2.079132
  H      3.615077    0.515757   -2.648540
  H      5.270134    1.128605   -2.775307
  H      3.987871    2.156306   -0.864676
  H      5.441848    1.272973   -0.306847
  H      2.754189    0.542842    2.837221
  H      1.235080    1.285427    2.272598
  H      1.456864   -1.363767    3.800363
  H      0.928710    0.175201    4.505666
  H     -0.049646   -0.620656    3.257027
  H      0.080243   -2.494641   -2.232438
  H     -0.071875   -0.715159   -2.030188
  H     -2.851048    1.226039    2.349593
  H     -1.238927    1.896226    2.738412
  H     -2.970431    2.635180    0.319538
  H     -2.649434    3.665782    1.725225
  H     -1.338309    3.238415    0.608168
  H     -4.293973   -0.782947   -1.199932
  H     -4.094884   -2.275530   -0.244069
  H     -5.847543    0.117561    0.529854
  H     -6.431538   -1.442382   -0.067493
  H     -5.623534   -1.341027    1.505488

 Total Charge           Charge          ....    0
 Multiplicity           Mult            ....    1
 Number of Electrons    NEL             ....  202
 Basis Dimension        Dim             ....  334

ORBITAL ENERGIES
----------------

  NO   OCC          E(Eh)            E(eV)
   0   2.0000     -88.040631     -2395.7074
   1   2.0000     -88.039098     -2395.6657
   2   2.0000     -87.981629     -2394.1018
   3   2.0000     -87.978378     -2394.0134
   4   2.0000     -76.424412     -2079.6140
   5   2.0000     -76.419824     -2079.4891
   6   2.0000     -18.793354      -511.3932
   7   2.0000     -18.788833      -511.2701
   8   2.0000     -18.788797      -511.2692
   9   2.0000     -18.781969      -511.0834
  10   2.0000      -9.953529      -270.8493
  11   2.0000      -9.952173      -270.8124
  12   2.0000      -9.950621      -270.7702
  13   2.0000      -9.948197      -270.7042
  14   2.0000      -9.946170      -270.6490
  15   2.0000      -9.888801      -269.0880
  16   2.0000      -9.881050      -268.8771
  17   2.0000      -9.880998      -268.8756
  18   2.0000      -9.877720      -268.7864
  19   2.0000      -7.686316      -209.1553
  20   2.0000      -7.684389      -209.1029
  21   2.0000      -7.626577      -207.5297
  22   2.0000      -7.623219      -207.4383
  23   2.0000      -6.421692      -174.7431
  24   2.0000      -6.417535      -174.6300
  25   2.0000      -5.714333      -155.4949
  26   2.0000      -5.712256      -155.4384
  27   2.0000      -5.710698      -155.3960
  28   2.0000      -5.708919      -155.3476
  29   2.0000      -5.703160      -155.1909
  30   2.0000      -5.701300      -155.1403
  31   2.0000      -5.655460      -153.8929
  32   2.0000      -5.651939      -153.7971
  33   2.0000      -5.647437      -153.6746
  34   2.0000      -5.646503      -153.6492
  35   2.0000      -5.643962      -153.5800
  36   2.0000      -5.643452      -153.5661
  37   2.0000      -4.644495      -126.3831
  38   2.0000      -4.643266      -126.3497
  39   2.0000      -4.642115      -126.3184
  40   2.0000      -4.640131      -126.2644
  41   2.0000      -4.639247      -126.2403
  42   2.0000      -4.637977      -126.2058
  43   2.0000      -0.987219       -26.8636
  44   2.0000      -0.981246       -26.7011
  45   2.0000      -0.942382       -25.6435
  46   2.0000      -0.938606       -25.5408
  47   2.0000      -0.760882       -20.7046
  48   2.0000      -0.720360       -19.6020
  49   2.0000      -0.706725       -19.2310
  50   2.0000      -0.688339       -18.7307
  51   2.0000      -0.683329       -18.5943
  52   2.0000      -0.672237       -18.2925
  53   2.0000      -0.647246       -17.6124
  54   2.0000      -0.629645       -17.1335
  55   2.0000      -0.596068       -16.2198
  56   2.0000      -0.587489       -15.9864
  57   2.0000      -0.571308       -15.5461
  58   2.0000      -0.568797       -15.4778
  59   2.0000      -0.554525       -15.0894
  60   2.0000      -0.504414       -13.7258
  61   2.0000      -0.498279       -13.5589
  62   2.0000      -0.471919       -12.8416
  63   2.0000      -0.468861       -12.7584
  64   2.0000      -0.452189       -12.3047
  65   2.0000      -0.442208       -12.0331
  66   2.0000      -0.438168       -11.9232
  67   2.0000      -0.435365       -11.8469
  68   2.0000      -0.423157       -11.5147
  69   2.0000      -0.414752       -11.2860
  70   2.0000      -0.408586       -11.1182
  71   2.0000      -0.403742       -10.9864
  72   2.0000      -0.386306       -10.5119
  73   2.0000      -0.384486       -10.4624
  74   2.0000      -0.377647       -10.2763
  75   2.0000      -0.368090       -10.0162
  76   2.0000      -0.366880        -9.9833
  77   2.0000      -0.354215        -9.6387
  78   2.0000      -0.351637        -9.5685
  79   2.0000      -0.348060        -9.4712
  80   2.0000      -0.342905        -9.3309
  81   2.0000      -0.338937        -9.2229
  82   2.0000      -0.335274        -9.1233
  83   2.0000      -0.334727        -9.1084
  84   2.0000      -0.331334        -9.0160
  85   2.0000      -0.313903        -8.5417
  86   2.0000      -0.310899        -8.4600
  87   2.0000      -0.299791        -8.1577
  88   2.0000      -0.292721        -7.9654
  89   2.0000      -0.289128        -7.8676
  90   2.0000      -0.283913        -7.7257
  91   2.0000      -0.272157        -7.4058
  92   2.0000      -0.268078        -7.2948
  93   2.0000      -0.259089        -7.0502
  94   2.0000      -0.257642        -7.0108
  95   2.0000      -0.233707        -6.3595
  96   2.0000      -0.220439        -5.9984
  97   2.0000      -0.212693        -5.7877
  98   2.0000      -0.197871        -5.3843
  99   2.0000      -0.190714        -5.1896
 100   2.0000      -0.182000        -4.9525
 101   0.0000      -0.037992        -1.0338
 102   0.0000      -0.031235        -0.8500
 103   0.0000      -0.008466        -0.2304
 104   0.0000       0.012139         0.3303
 105   0.0000       0.020207         0.5499

MULLIKEN ATOMIC CHARGES
-----------------------
   0 C :   -0.319523
   1 C :   -0.001446
   2 O :   -0.380888
   3 P :    0.604688
   4 S :   -0.316070
   5 O :   -0.361435
   6 C :   -0.005264
   7 C :   -0.287161
   8 S :   -0.081412
   9 C :   -0.362910
  10 S :   -0.086121
  11 P :    0.629767
  12 S :   -0.308556
  13 O :   -0.361416
  14 C :   -0.009459
  15 C :   -0.313876
  16 O :   -0.389650
  17 C :   -0.006329
  18 C :   -0.284374
  19 H :    0.117539
  20 H :    0.129233
  21 H :    0.112842
  22 H :    0.109007
  23 H :    0.102363
  24 H :    0.099876
  25 H :    0.103512
  26 H :    0.115678
  27 H :    0.102997
  28 H :    0.127268
  29 H :    0.181442
  30 H :    0.207651
  31 H :    0.108480
  32 H :    0.105985
  33 H :    0.124842
  34 H :    0.106080
  35 H :    0.136453
  36 H :    0.105454
  37 H :    0.099820
  38 H :    0.116940
  39 H :    0.112736
  40 H :    0.115236
Sum of atomic charges:    0.0000000

LOEWDIN ATOMIC CHARGES
----------------------
   0 C :   -0.370072
   1 C :   -0.120754
   2 O :   -0.249234
   3 P :    0.560736
   4 S :   -0.309643
   5 O :   -0.240773
   6 C :   -0.114849
   7 C :   -0.353375
   8 S :    0.092464
   9 C :   -0.481395
  10 S :    0.082454
  11 P :    0.570052
  12 S :   -0.297343
  13 O :   -0.233903
  14 C :   -0.110090
  15 C :   -0.367953
  16 O :   -0.251809
  17 C :   -0.122765
  18 C :   -0.351309
  19 H :    0.123867
  20 H :    0.122258
  21 H :    0.130993
  22 H :    0.109326
  23 H :    0.117276
  24 H :    0.110710
  25 H :    0.105539
  26 H :    0.127511
  27 H :    0.126073
  28 H :    0.126277
  29 H :    0.137389
  30 H :    0.125700
  31 H :    0.111257
  32 H :    0.115395
  33 H :    0.120799
  34 H :    0.127305
  35 H :    0.131778
  36 H :    0.106071
  37 H :    0.110539
  38 H :    0.126562
  39 H :    0.131283
  40 H :    0.125655

  Mayer bond orders larger than 0.100000
B(  0-C ,  1-C ) :   1.1650 B(  0-C , 19-H ) :   0.9449 B(  0-C , 20-H ) :   0.9348
B(  0-C , 21-H ) :   0.9382 B(  1-C ,  2-O ) :   0.9111 B(  1-C , 22-H ) :   0.9126
B(  1-C , 23-H ) :   0.9335 B(  2-O ,  3-P ) :   1.0919 B(  3-P ,  4-S ) :   1.6324
B(  3-P ,  5-O ) :   1.1317 B(  3-P ,  8-S ) :   0.9632 B(  4-S ,  8-S ) :   0.1140
B(  5-O ,  6-C ) :   0.8993 B(  6-C ,  7-C ) :   1.1651 B(  6-C , 24-H ) :   0.9298
B(  6-C , 25-H ) :   0.9067 B(  7-C , 26-H ) :   0.9484 B(  7-C , 27-H ) :   0.9413
B(  7-C , 28-H ) :   0.9433 B(  8-S ,  9-C ) :   0.9968 B(  9-C , 10-S ) :   1.0034
B(  9-C , 29-H ) :   0.9117 B(  9-C , 30-H ) :   0.8458 B( 10-S , 11-P ) :   0.9726
B( 10-S , 12-S ) :   0.1257 B( 11-P , 12-S ) :   1.6128 B( 11-P , 13-O ) :   1.1227
B( 11-P , 16-O ) :   1.0782 B( 12-S , 30-H ) :   0.1009 B( 13-O , 14-C ) :   0.9007
B( 14-C , 15-C ) :   1.1708 B( 14-C , 31-H ) :   0.9285 B( 14-C , 32-H ) :   0.9263
B( 15-C , 33-H ) :   0.9339 B( 15-C , 34-H ) :   0.9362 B( 15-C , 35-H ) :   0.9408
B( 16-O , 17-C ) :   0.9062 B( 17-C , 18-C ) :   1.1593 B( 17-C , 36-H ) :   0.9024
B( 17-C , 37-H ) :   0.9298 B( 18-C , 38-H ) :   0.9514 B( 18-C , 39-H ) :   0.9422
B( 18-C , 40-H ) :   0.9510

Dispersion correction           -0.067073760
FINAL SINGLE POINT ENERGY     -2929.518699662218

DIPOLE MOMENT
-------------

Method             : SCF
Type of density    : Electron Density
Multiplicity       :   1
Irrep              :   0
Energy             : -2929.6372075837011835 Eh
Relativity type    :
Basis              : AO
                                X                 Y                 Z
Electronic contribution:      7.271558931      -8.053049765     -10.566120153
Nuclear contribution   :     -7.470299991       7.879792062      11.515099371
                        -----------------------------------------
Total Dipole Moment    :     -0.198741060      -0.173257703       0.948979218
                        -----------------------------------------
Magnitude (a.u.)       :      0.984925275
Magnitude (Debye)      :      2.503481094

Rotational constants in cm-1:             0.012884             0.005290             0.004982
Rotational constants in MHz :           386.264210           158.587642           149.357875

                             ****ORCA TERMINATED NORMALLY****
TOTAL RUN TIME: 0 days 0 hours 0 minutes 21 seconds 131 msec
