                         Program Version 6.0.0  -   RELEASE  -
|  1> ! pbe def2-sv(p) def2/J RI DEFGRID1 loosescf d4 GCP(DFT/SV(P)) printgap
|  2> %output
|  3>     printlevel normal
|  4> end
|  5> * xyz 0 1
|  6> C 2.7664428593 -0.2822970141 -2.9573323693
|  7> C 3.4282942296 -0.2320090202 -1.5961039744
|  8> O 2.577087218 0.5143267018 -0.6854054873
|  9> P 2.30150011 0.0365599664 0.7925010801
| 10> S 1.2465927398 1.3279143301 1.8101767286
| 11> O 3.7779189196 -0.2233723422 1.3252694831
| 12> C 4.1008952541 -0.3184933085 2.7251539765
| 13> C 3.4486127112 -1.5123309191 3.3911152437
| 14> S 1.4860941156 -1.926454337 0.6221018355
| 15> C -0.2319514609 -1.4378605493 0.4122108001
| 16> S -0.4989223166 -0.7064037271 -1.2526621208
| 17> P -2.2011108751 0.454203779 -0.8478105502
| 18> S -2.9475116887 1.3520326842 -2.4209400999
| 19> O -1.6180032475 1.3379013973 0.3299134715
| 20> C -2.4050808814 1.9845975793 1.3515346215
| 21> C -3.326483869 3.0410994943 0.7808304144
| 22> O -3.2282091032 -0.4845847553 -0.0605453938
| 23> C -4.2562413479 -1.2134058764 -0.7521910354
| 24> C -3.6917133088 -2.3914171176 -1.5201277931
| 25> H 1.8282431288 -0.8299183649 -2.9040687914
| 26> H 2.5581006603 0.7246639111 -3.3080527003
| 27> H 3.4321312363 -0.7770722355 -3.6570529182
| 28> H 4.3812630461 0.2985102238 -1.6315893291
| 29> H 3.5855118828 -1.2362215034 -1.1929998229
| 30> H 5.1889842926 -0.3965939072 2.7320585023
| 31> H 3.7912016498 0.6110143014 3.2124880341
| 32> H 3.8326210385 -1.6099504837 4.4014848091
| 33> H 2.3701772514 -1.3702286237 3.436501594
| 34> H 3.6607931329 -2.4210255543 2.8335937823
| 35> H -0.4863632625 -0.6900847424 1.1639355828
| 36> H -0.8299144661 -2.3393944986 0.5105377814
| 37> H -2.970756841 1.2184920149 1.8867314601
| 38> H -1.6484372733 2.4160886667 2.0110109609
| 39> H -3.8439812667 3.5430442892 1.592188768
| 40> H -2.7560415819 3.77085898 0.2109972969
| 41> H -4.0588318465 2.5820206732 0.1176656462
| 42> H -4.9354207341 -1.5321392891 0.0396026267
| 43> H -4.7690055073 -0.5256377622 -1.4322320371
| 44> H -3.1463031265 -3.0570054363 -0.856370206
| 45> H -4.5057245499 -2.9385032507 -1.9845819655
| 46> H -3.0177096163 -2.0355553795 -2.2988780963
| 47> *
| 48>
| 49>                          ****END OF INPUT****

CARTESIAN COORDINATES (ANGSTROEM)
---------------------------------
  C      2.766443   -0.282297   -2.957332
  C      3.428294   -0.232009   -1.596104
  O      2.577087    0.514327   -0.685405
  P      2.301500    0.036560    0.792501
  S      1.246593    1.327914    1.810177
  O      3.777919   -0.223372    1.325269
  C      4.100895   -0.318493    2.725154
  C      3.448613   -1.512331    3.391115
  S      1.486094   -1.926454    0.622102
  C     -0.231951   -1.437861    0.412211
  S     -0.498922   -0.706404   -1.252662
  P     -2.201111    0.454204   -0.847811
  S     -2.947512    1.352033   -2.420940
  O     -1.618003    1.337901    0.329913
  C     -2.405081    1.984598    1.351535
  C     -3.326484    3.041099    0.780830
  O     -3.228209   -0.484585   -0.060545
  C     -4.256241   -1.213406   -0.752191
  C     -3.691713   -2.391417   -1.520128
  H      1.828243   -0.829918   -2.904069
  H      2.558101    0.724664   -3.308053
  H      3.432131   -0.777072   -3.657053
  H      4.381263    0.298510   -1.631589
  H      3.585512   -1.236222   -1.193000
  H      5.188984   -0.396594    2.732059
  H      3.791202    0.611014    3.212488
  H      3.832621   -1.609950    4.401485
  H      2.370177   -1.370229    3.436502
  H      3.660793   -2.421026    2.833594
  H     -0.486363   -0.690085    1.163936
  H     -0.829914   -2.339394    0.510538
  H     -2.970757    1.218492    1.886731
  H     -1.648437    2.416089    2.011011
  H     -3.843981    3.543044    1.592189
  H     -2.756042    3.770859    0.210997
  H     -4.058832    2.582021    0.117666
  H     -4.935421   -1.532139    0.039603
  H     -4.769006   -0.525638   -1.432232
  H     -3.146303   -3.057005   -0.856370
  H     -4.505725   -2.938503   -1.984582
  H     -3.017710   -2.035555   -2.298878

 Total Charge           Charge          ....    0
 Multiplicity           Mult            ....    1
 Number of Electrons    NEL             ....  202
 Basis Dimension        Dim             ....  334

ORBITAL ENERGIES
----------------

  NO   OCC          E(Eh)            E(eV)
   0   2.0000     -88.050732     -2395.9822
   1   2.0000     -88.038769     -2395.6567
   2   2.0000     -87.987378     -2394.2583
   3   2.0000     -87.981371     -2394.0948
   4   2.0000     -76.427653     -2079.7022
   5   2.0000     -76.422081     -2079.5506
   6   2.0000     -18.796677      -511.4836
   7   2.0000     -18.792707      -511.3756
   8   2.0000     -18.788640      -511.2649
   9   2.0000     -18.782659      -511.1021
  10   2.0000      -9.956978      -270.9431
  11   2.0000      -9.956860      -270.9399
  12   2.0000      -9.954110      -270.8651
  13   2.0000      -9.951734      -270.8004
  14   2.0000      -9.947397      -270.6824
  15   2.0000      -9.888304      -269.0744
  16   2.0000      -9.885475      -268.9974
  17   2.0000      -9.882021      -268.9034
  18   2.0000      -9.877161      -268.7712
  19   2.0000      -7.695569      -209.4071
  20   2.0000      -7.683691      -209.0839
  21   2.0000      -7.632503      -207.6910
  22   2.0000      -7.626586      -207.5299
  23   2.0000      -6.425193      -174.8384
  24   2.0000      -6.419491      -174.6832
  25   2.0000      -5.723333      -155.7398
  26   2.0000      -5.720029      -155.6499
  27   2.0000      -5.712752      -155.4519
  28   2.0000      -5.712054      -155.4329
  29   2.0000      -5.708018      -155.3231
  30   2.0000      -5.700385      -155.1154
  31   2.0000      -5.661450      -154.0559
  32   2.0000      -5.655579      -153.8961
  33   2.0000      -5.652927      -153.8240
  34   2.0000      -5.652791      -153.8203
  35   2.0000      -5.647138      -153.6664
  36   2.0000      -5.646749      -153.6559
  37   2.0000      -4.648028      -126.4793
  38   2.0000      -4.646892      -126.4484
  39   2.0000      -4.645490      -126.4102
  40   2.0000      -4.642385      -126.3257
  41   2.0000      -4.641260      -126.2951
  42   2.0000      -4.639714      -126.2530
  43   2.0000      -0.989137       -26.9158
  44   2.0000      -0.983740       -26.7689
  45   2.0000      -0.944758       -25.7082
  46   2.0000      -0.939964       -25.5777
  47   2.0000      -0.764489       -20.8028
  48   2.0000      -0.721213       -19.6252
  49   2.0000      -0.709261       -19.3000
  50   2.0000      -0.690805       -18.7978
  51   2.0000      -0.686723       -18.6867
  52   2.0000      -0.673397       -18.3241
  53   2.0000      -0.652111       -17.7448
  54   2.0000      -0.637318       -17.3423
  55   2.0000      -0.597089       -16.2476
  56   2.0000      -0.588322       -16.0091
  57   2.0000      -0.573998       -15.6193
  58   2.0000      -0.571167       -15.5422
  59   2.0000      -0.561657       -15.2835
  60   2.0000      -0.505329       -13.7507
  61   2.0000      -0.494897       -13.4668
  62   2.0000      -0.474758       -12.9188
  63   2.0000      -0.467773       -12.7288
  64   2.0000      -0.453811       -12.3488
  65   2.0000      -0.451001       -12.2724
  66   2.0000      -0.441542       -12.0150
  67   2.0000      -0.434729       -11.8296
  68   2.0000      -0.428751       -11.6669
  69   2.0000      -0.419985       -11.4284
  70   2.0000      -0.411649       -11.2016
  71   2.0000      -0.403873       -10.9899
  72   2.0000      -0.393896       -10.7185
  73   2.0000      -0.387812       -10.5529
  74   2.0000      -0.380829       -10.3629
  75   2.0000      -0.367885       -10.0107
  76   2.0000      -0.366976        -9.9859
  77   2.0000      -0.355982        -9.6868
  78   2.0000      -0.353498        -9.6192
  79   2.0000      -0.350218        -9.5299
  80   2.0000      -0.344775        -9.3818
  81   2.0000      -0.341789        -9.3006
  82   2.0000      -0.339585        -9.2406
  83   2.0000      -0.333757        -9.0820
  84   2.0000      -0.329326        -8.9614
  85   2.0000      -0.323539        -8.8039
  86   2.0000      -0.311407        -8.4738
  87   2.0000      -0.300450        -8.1757
  88   2.0000      -0.297202        -8.0873
  89   2.0000      -0.292919        -7.9707
  90   2.0000      -0.284405        -7.7391
  91   2.0000      -0.272443        -7.4135
  92   2.0000      -0.270089        -7.3495
  93   2.0000      -0.264287        -7.1916
  94   2.0000      -0.257900        -7.0178
  95   2.0000      -0.236398        -6.4327
  96   2.0000      -0.219073        -5.9613
  97   2.0000      -0.206138        -5.6093
  98   2.0000      -0.205179        -5.5832
  99   2.0000      -0.199208        -5.4207
 100   2.0000      -0.195361        -5.3160
 101   0.0000      -0.042702        -1.1620
 102   0.0000      -0.022199        -0.6041
 103   0.0000      -0.016484        -0.4485
 104   0.0000       0.005862         0.1595
 105   0.0000       0.011262         0.3065

MULLIKEN ATOMIC CHARGES
-----------------------
   0 C :   -0.284571
   1 C :   -0.012803
   2 O :   -0.348313
   3 P :    0.600900
   4 S :   -0.301812
   5 O :   -0.382272
   6 C :    0.000866
   7 C :   -0.320095
   8 S :   -0.103097
   9 C :   -0.361447
  10 S :   -0.076531
  11 P :    0.620047
  12 S :   -0.318058
  13 O :   -0.361457
  14 C :   -0.003693
  15 C :   -0.308718
  16 O :   -0.394404
  17 C :   -0.007767
  18 C :   -0.315598
  19 H :    0.129355
  20 H :    0.125022
  21 H :    0.106578
  22 H :    0.109959
  23 H :    0.099984
  24 H :    0.106113
  25 H :    0.113184
  26 H :    0.115494
  27 H :    0.127560
  28 H :    0.117981
  29 H :    0.202762
  30 H :    0.183083
  31 H :    0.101382
  32 H :    0.112776
  33 H :    0.107214
  34 H :    0.126852
  35 H :    0.123063
  36 H :    0.101899
  37 H :    0.112534
  38 H :    0.112426
  39 H :    0.113316
  40 H :    0.130287
Sum of atomic charges:    0.0000000

LOEWDIN ATOMIC CHARGES
----------------------
   0 C :   -0.354634
   1 C :   -0.113337
   2 O :   -0.233729
   3 P :    0.572268
   4 S :   -0.295168
   5 O :   -0.249846
   6 C :   -0.115472
   7 C :   -0.371820
   8 S :    0.080706
   9 C :   -0.476912
  10 S :    0.091774
  11 P :    0.563264
  12 S :   -0.319086
  13 O :   -0.232775
  14 C :   -0.111952
  15 C :   -0.365917
  16 O :   -0.253933
  17 C :   -0.123268
  18 C :   -0.366855
  19 H :    0.120942
  20 H :    0.132345
  21 H :    0.128301
  22 H :    0.118439
  23 H :    0.102426
  24 H :    0.119437
  25 H :    0.113656
  26 H :    0.132312
  27 H :    0.121259
  28 H :    0.122962
  29 H :    0.125596
  30 H :    0.130206
  31 H :    0.108853
  32 H :    0.118187
  33 H :    0.127982
  34 H :    0.131603
  35 H :    0.120114
  36 H :    0.116359
  37 H :    0.109769
  38 H :    0.120902
  39 H :    0.131541
  40 H :    0.123499

  Mayer bond orders larger than 0.100000
B(  0-C ,  1-C ) :   1.1651 B(  0-C , 19-H ) :   0.9394 B(  0-C , 20-H ) :   0.9473
B(  0-C , 21-H ) :   0.9393 B(  1-C ,  2-O ) :   0.8871 B(  1-C , 22-H ) :   0.9332
B(  1-C , 23-H ) :   0.9129 B(  2-O ,  3-P ) :   1.1487 B(  3-P ,  4-S ) :   1.6526
B(  3-P ,  5-O ) :   1.0873 B(  3-P ,  8-S ) :   0.9280 B(  4-S ,  8-S ) :   0.1094
B(  5-O ,  6-C ) :   0.9062 B(  6-C ,  7-C ) :   1.1660 B(  6-C , 24-H ) :   0.9343
B(  6-C , 25-H ) :   0.9191 B(  7-C , 26-H ) :   0.9370 B(  7-C , 27-H ) :   0.9347
B(  7-C , 28-H ) :   0.9432 B(  8-S ,  9-C ) :   1.0195 B(  9-C , 10-S ) :   0.9597
B(  9-C , 29-H ) :   0.8620 B(  9-C , 30-H ) :   0.9044 B( 10-S , 11-P ) :   0.9841
B( 11-P , 12-S ) :   1.6502 B( 11-P , 13-O ) :   1.1251 B( 11-P , 16-O ) :   1.0412
B( 13-O , 14-C ) :   0.9051 B( 14-C , 15-C ) :   1.1696 B( 14-C , 31-H ) :   0.9291
B( 14-C , 32-H ) :   0.9267 B( 15-C , 33-H ) :   0.9372 B( 15-C , 34-H ) :   0.9455
B( 15-C , 35-H ) :   0.9365 B( 16-O , 17-C ) :   0.9149 B( 17-C , 18-C ) :   1.1637
B( 17-C , 36-H ) :   0.9330 B( 17-C , 37-H ) :   0.9100 B( 18-C , 38-H ) :   0.9447
B( 18-C , 39-H ) :   0.9387 B( 18-C , 40-H ) :   0.9344

Dispersion correction           -0.064410143
FINAL SINGLE POINT ENERGY     -2929.517202958109

DIPOLE MOMENT
-------------

Method             : SCF
Type of density    : Electron Density
Multiplicity       :   1
Irrep              :   0
Energy             : -2929.6382139350807847 Eh
Relativity type    :
Basis              : AO
                                X                 Y                 Z
Electronic contribution:      2.691429986       5.242634072      -3.678591000
Nuclear contribution   :     -2.241509725      -6.609819576       4.679883752
                        -----------------------------------------
Total Dipole Moment    :      0.449920261      -1.367185504       1.001292753
                        -----------------------------------------
Magnitude (a.u.)       :      1.753342984
Magnitude (Debye)      :      4.456643691

Rotational constants in cm-1:             0.012195             0.004758             0.004448
Rotational constants in MHz :           365.582813           142.629797           133.346577

                             ****ORCA TERMINATED NORMALLY****
TOTAL RUN TIME: 0 days 0 hours 0 minutes 21 seconds 33 msec
