                         Program Version 6.0.0  -   RELEASE  -
|  1> ! pbe def2-sv(p) def2/J RI DEFGRID1 loosescf d4 GCP(DFT/SV(P)) printgap
|  2> %output
|  3>     printlevel normal
|  4> end
|  5> * xyz 0 1
|  6> C 2.8834297594 -0.7205605833 -2.6907409255
|  7> C 1.7190134358 0.0580535056 -2.1191170651
|  8> O 1.188327559 -0.5834071289 -0.9447743927
|  9> P 1.9900076367 -0.571567278 0.4342787289
| 10> S 3.1421841422 0.9997984674 0.6930168717
| 11> O 2.7180574928 -1.9804194585 0.343937626
| 12> C 3.2181927396 -2.7463897709 1.4569144585
| 13> C 4.0986657279 -1.9386806606 2.3874442025
| 14> S 0.4721104444 -0.9532819784 1.8416108267
| 15> C -0.2418442023 0.7145187445 2.015726853
| 16> S -0.2927670729 1.6944915406 0.4899610734
| 17> P -1.8135592544 0.6843592968 -0.5897847219
| 18> S -1.8432524725 1.0637387484 -2.5099834203
| 19> O -3.1506928104 1.064832401 0.1927082469
| 20> C -3.7400578996 2.3696731131 0.0446737879
| 21> C -5.0591639753 2.3712150625 0.7900114576
| 22> O -1.6372782583 -0.8165171374 -0.1398443245
| 23> C -2.0003347372 -1.9199863059 -0.9936490555
| 24> C -3.5037203636 -2.0712664243 -1.0767936497
| 25> H 2.5855154821 -1.7455796084 -2.8942536173
| 26> H 3.2156609108 -0.2474513883 -3.6093176076
| 27> H 3.7036218031 -0.7267531821 -1.973381059
| 28> H 0.8751580674 0.1043842626 -2.8109382651
| 29> H 2.0224139638 1.0772489921 -1.8532868828
| 30> H 2.3602966539 -3.1571497507 1.9965926323
| 31> H 3.7770124259 -3.5535480351 0.9796404644
| 32> H 4.9147798672 -1.4780651077 1.835732379
| 33> H 3.5183010581 -1.1499029191 2.8640583538
| 34> H 4.5054240858 -2.5913266267 3.1531850537
| 35> H 0.372369786 1.2945256388 2.7021583858
| 36> H -1.2482226145 0.573150753 2.4033711193
| 37> H -3.0469881791 3.1136225414 0.4509744435
| 38> H -3.8786074733 2.5675585912 -1.0233499397
| 39> H -5.7248606055 1.6223504249 0.3711270779
| 40> H -4.8943475114 2.1484232565 1.8400285204
| 41> H -5.5176884087 3.3502226269 0.6980653871
| 42> H -1.56862021 -1.7527033535 -1.9853903976
| 43> H -1.5243466648 -2.781321905 -0.5225683983
| 44> H -3.92655351 -2.1682201642 -0.080587827
| 45> H -3.9328014057 -1.1941470468 -1.5599724534
| 46> H -3.7461663495 -2.9522921589 -1.6625158825
| 47> *
| 48>
| 49>                          ****END OF INPUT****

CARTESIAN COORDINATES (ANGSTROEM)
---------------------------------
  C      2.883430   -0.720561   -2.690741
  C      1.719013    0.058054   -2.119117
  O      1.188328   -0.583407   -0.944774
  P      1.990008   -0.571567    0.434279
  S      3.142184    0.999798    0.693017
  O      2.718057   -1.980419    0.343938
  C      3.218193   -2.746390    1.456914
  C      4.098666   -1.938681    2.387444
  S      0.472110   -0.953282    1.841611
  C     -0.241844    0.714519    2.015727
  S     -0.292767    1.694492    0.489961
  P     -1.813559    0.684359   -0.589785
  S     -1.843252    1.063739   -2.509983
  O     -3.150693    1.064832    0.192708
  C     -3.740058    2.369673    0.044674
  C     -5.059164    2.371215    0.790011
  O     -1.637278   -0.816517   -0.139844
  C     -2.000335   -1.919986   -0.993649
  C     -3.503720   -2.071266   -1.076794
  H      2.585515   -1.745580   -2.894254
  H      3.215661   -0.247451   -3.609318
  H      3.703622   -0.726753   -1.973381
  H      0.875158    0.104384   -2.810938
  H      2.022414    1.077249   -1.853287
  H      2.360297   -3.157150    1.996593
  H      3.777012   -3.553548    0.979640
  H      4.914780   -1.478065    1.835732
  H      3.518301   -1.149903    2.864058
  H      4.505424   -2.591327    3.153185
  H      0.372370    1.294526    2.702158
  H     -1.248223    0.573151    2.403371
  H     -3.046988    3.113623    0.450974
  H     -3.878607    2.567559   -1.023350
  H     -5.724861    1.622350    0.371127
  H     -4.894348    2.148423    1.840029
  H     -5.517688    3.350223    0.698065
  H     -1.568620   -1.752703   -1.985390
  H     -1.524347   -2.781322   -0.522568
  H     -3.926554   -2.168220   -0.080588
  H     -3.932801   -1.194147   -1.559972
  H     -3.746166   -2.952292   -1.662516

 Total Charge           Charge          ....    0
 Multiplicity           Mult            ....    1
 Number of Electrons    NEL             ....  202
 Basis Dimension        Dim             ....  334

ORBITAL ENERGIES
----------------

  NO   OCC          E(Eh)            E(eV)
   0   2.0000     -88.044848     -2395.8221
   1   2.0000     -88.042047     -2395.7459
   2   2.0000     -87.990759     -2394.3503
   3   2.0000     -87.979616     -2394.0471
   4   2.0000     -76.427105     -2079.6873
   5   2.0000     -76.424287     -2079.6106
   6   2.0000     -18.793190      -511.3887
   7   2.0000     -18.791862      -511.3525
   8   2.0000     -18.790741      -511.3220
   9   2.0000     -18.780425      -511.0414
  10   2.0000      -9.963911      -271.1318
  11   2.0000      -9.957594      -270.9599
  12   2.0000      -9.953101      -270.8376
  13   2.0000      -9.952035      -270.8086
  14   2.0000      -9.933195      -270.2960
  15   2.0000      -9.890584      -269.1365
  16   2.0000      -9.884241      -268.9639
  17   2.0000      -9.881994      -268.9027
  18   2.0000      -9.872073      -268.6328
  19   2.0000      -7.689455      -209.2407
  20   2.0000      -7.687257      -209.1809
  21   2.0000      -7.635759      -207.7796
  22   2.0000      -7.624659      -207.4775
  23   2.0000      -6.424858      -174.8293
  24   2.0000      -6.420997      -174.7242
  25   2.0000      -5.717766      -155.5883
  26   2.0000      -5.715300      -155.5212
  27   2.0000      -5.713726      -155.4784
  28   2.0000      -5.711746      -155.4245
  29   2.0000      -5.706224      -155.2743
  30   2.0000      -5.704014      -155.2141
  31   2.0000      -5.664587      -154.1412
  32   2.0000      -5.656456      -153.9200
  33   2.0000      -5.655934      -153.9058
  34   2.0000      -5.653633      -153.8432
  35   2.0000      -5.645373      -153.6184
  36   2.0000      -5.644720      -153.6006
  37   2.0000      -4.647241      -126.4579
  38   2.0000      -4.646803      -126.4459
  39   2.0000      -4.645308      -126.4053
  40   2.0000      -4.643537      -126.3571
  41   2.0000      -4.642988      -126.3421
  42   2.0000      -4.641432      -126.2998
  43   2.0000      -0.989168       -26.9166
  44   2.0000      -0.980828       -26.6897
  45   2.0000      -0.947286       -25.7769
  46   2.0000      -0.938077       -25.5264
  47   2.0000      -0.765101       -20.8194
  48   2.0000      -0.721160       -19.6238
  49   2.0000      -0.706555       -19.2263
  50   2.0000      -0.689234       -18.7550
  51   2.0000      -0.682078       -18.5603
  52   2.0000      -0.671459       -18.2713
  53   2.0000      -0.653264       -17.7762
  54   2.0000      -0.638873       -17.3846
  55   2.0000      -0.598523       -16.2867
  56   2.0000      -0.590589       -16.0708
  57   2.0000      -0.575740       -15.6667
  58   2.0000      -0.564994       -15.3743
  59   2.0000      -0.560687       -15.2571
  60   2.0000      -0.506985       -13.7958
  61   2.0000      -0.489862       -13.3298
  62   2.0000      -0.478282       -13.0147
  63   2.0000      -0.463306       -12.6072
  64   2.0000      -0.461217       -12.5504
  65   2.0000      -0.445108       -12.1120
  66   2.0000      -0.436655       -11.8820
  67   2.0000      -0.431087       -11.7305
  68   2.0000      -0.424775       -11.5587
  69   2.0000      -0.418246       -11.3810
  70   2.0000      -0.414500       -11.2791
  71   2.0000      -0.398285       -10.8379
  72   2.0000      -0.390932       -10.6378
  73   2.0000      -0.382473       -10.4076
  74   2.0000      -0.380528       -10.3547
  75   2.0000      -0.372996       -10.1497
  76   2.0000      -0.368527       -10.0281
  77   2.0000      -0.359068        -9.7707
  78   2.0000      -0.354470        -9.6456
  79   2.0000      -0.346885        -9.4392
  80   2.0000      -0.345417        -9.3993
  81   2.0000      -0.344639        -9.3781
  82   2.0000      -0.339092        -9.2272
  83   2.0000      -0.337954        -9.1962
  84   2.0000      -0.330884        -9.0038
  85   2.0000      -0.317985        -8.6528
  86   2.0000      -0.311521        -8.4769
  87   2.0000      -0.300879        -8.1873
  88   2.0000      -0.294986        -8.0270
  89   2.0000      -0.292569        -7.9612
  90   2.0000      -0.282025        -7.6743
  91   2.0000      -0.272875        -7.4253
  92   2.0000      -0.265835        -7.2337
  93   2.0000      -0.261971        -7.1286
  94   2.0000      -0.254787        -6.9331
  95   2.0000      -0.227902        -6.2015
  96   2.0000      -0.222872        -6.0646
  97   2.0000      -0.212764        -5.7896
  98   2.0000      -0.204983        -5.5779
  99   2.0000      -0.194714        -5.2984
 100   2.0000      -0.190245        -5.1768
 101   0.0000      -0.047418        -1.2903
 102   0.0000      -0.023512        -0.6398
 103   0.0000      -0.009944        -0.2706
 104   0.0000      -0.003307        -0.0900
 105   0.0000       0.016000         0.4354

MULLIKEN ATOMIC CHARGES
-----------------------
   0 C :   -0.295834
   1 C :   -0.023885
   2 O :   -0.366128
   3 P :    0.610565
   4 S :   -0.328802
   5 O :   -0.372978
   6 C :   -0.013100
   7 C :   -0.307873
   8 S :   -0.106886
   9 C :   -0.315286
  10 S :   -0.074780
  11 P :    0.624632
  12 S :   -0.325237
  13 O :   -0.378481
  14 C :   -0.015898
  15 C :   -0.276398
  16 O :   -0.363023
  17 C :    0.000894
  18 C :   -0.302576
  19 H :    0.108261
  20 H :    0.108602
  21 H :    0.117553
  22 H :    0.114595
  23 H :    0.112486
  24 H :    0.112561
  25 H :    0.109343
  26 H :    0.127265
  27 H :    0.123987
  28 H :    0.109631
  29 H :    0.191701
  30 H :    0.179820
  31 H :    0.098324
  32 H :    0.107391
  33 H :    0.118407
  34 H :    0.113240
  35 H :    0.113065
  36 H :    0.114357
  37 H :    0.103056
  38 H :    0.114144
  39 H :    0.121300
  40 H :    0.111986
Sum of atomic charges:   -0.0000000

LOEWDIN ATOMIC CHARGES
----------------------
   0 C :   -0.363643
   1 C :   -0.131693
   2 O :   -0.242791
   3 P :    0.567977
   4 S :   -0.327132
   5 O :   -0.245399
   6 C :   -0.113936
   7 C :   -0.370494
   8 S :    0.080573
   9 C :   -0.465535
  10 S :    0.108249
  11 P :    0.572675
  12 S :   -0.310633
  13 O :   -0.254350
  14 C :   -0.124676
  15 C :   -0.349760
  16 O :   -0.232218
  17 C :   -0.112963
  18 C :   -0.363835
  19 H :    0.122429
  20 H :    0.128925
  21 H :    0.119809
  22 H :    0.110093
  23 H :    0.107963
  24 H :    0.108493
  25 H :    0.121534
  26 H :    0.129908
  27 H :    0.120503
  28 H :    0.129043
  29 H :    0.139563
  30 H :    0.134211
  31 H :    0.105472
  32 H :    0.109489
  33 H :    0.127789
  34 H :    0.125282
  35 H :    0.131381
  36 H :    0.111975
  37 H :    0.117751
  38 H :    0.125467
  39 H :    0.122155
  40 H :    0.130349

  Mayer bond orders larger than 0.100000
B(  0-C ,  1-C ) :   1.1627 B(  0-C , 19-H ) :   0.9470 B(  0-C , 20-H ) :   0.9407
B(  0-C , 21-H ) :   0.9355 B(  1-C ,  2-O ) :   0.8953 B(  1-C , 22-H ) :   0.9153
B(  1-C , 23-H ) :   0.9125 B(  2-O ,  3-P ) :   1.1071 B(  3-P ,  4-S ) :   1.6056
B(  3-P ,  5-O ) :   1.1056 B(  3-P ,  8-S ) :   0.9678 B(  4-S ,  8-S ) :   0.1129
B(  5-O ,  6-C ) :   0.9171 B(  6-C ,  7-C ) :   1.1648 B(  6-C , 24-H ) :   0.9278
B(  6-C , 25-H ) :   0.9342 B(  7-C , 26-H ) :   0.9420 B(  7-C , 27-H ) :   0.9326
B(  7-C , 28-H ) :   0.9343 B(  8-S ,  9-C ) :   0.9807 B(  9-C , 10-S ) :   1.0038
B(  9-C , 29-H ) :   0.9043 B(  9-C , 30-H ) :   0.9062 B( 10-S , 11-P ) :   0.9555
B( 11-P , 12-S ) :   1.6299 B( 11-P , 13-O ) :   1.0771 B( 11-P , 16-O ) :   1.1352
B( 13-O , 14-C ) :   0.9091 B( 14-C , 15-C ) :   1.1597 B( 14-C , 31-H ) :   0.9209
B( 14-C , 32-H ) :   0.9157 B( 15-C , 33-H ) :   0.9516 B( 15-C , 34-H ) :   0.9511
B( 15-C , 35-H ) :   0.9422 B( 16-O , 17-C ) :   0.8938 B( 17-C , 18-C ) :   1.1627
B( 17-C , 36-H ) :   0.9175 B( 17-C , 37-H ) :   0.9321 B( 18-C , 38-H ) :   0.9462
B( 18-C , 39-H ) :   0.9362 B( 18-C , 40-H ) :   0.9398

Dispersion correction           -0.067417402
FINAL SINGLE POINT ENERGY     -2929.516474278003

DIPOLE MOMENT
-------------

Method             : SCF
Type of density    : Electron Density
Multiplicity       :   1
Irrep              :   0
Energy             : -2929.6345140487364915 Eh
Relativity type    :
Basis              : AO
                                X                 Y                 Z
Electronic contribution:      6.031200868       8.315478687       1.323804385
Nuclear contribution   :     -6.929548373      -9.266782204      -0.522613113
                        -----------------------------------------
Total Dipole Moment    :     -0.898347506      -0.951303517       0.801191271
                        -----------------------------------------
Magnitude (a.u.)       :      1.534247071
Magnitude (Debye)      :      3.899746137

Rotational constants in cm-1:             0.013082             0.005154             0.004958
Rotational constants in MHz :           392.184160           154.513300           148.625518

                             ****ORCA TERMINATED NORMALLY****
TOTAL RUN TIME: 0 days 0 hours 0 minutes 21 seconds 675 msec
