                         Program Version 6.0.1  -  RELEASE   -
|  1> ! pbe def2-sv(p) def2/J RI DEFGRID1 loosescf d4 GCP(DFT/SV(P)) printgap
|  2> %output
|  3>     printlevel normal
|  4> end
|  5> * xyz 0 1
|  6> C 5.2699576453 -2.0533640619 -1.4083461816
|  7> C 4.5570374744 -0.7345029892 -1.1548245753
|  8> O 3.1282638334 -0.8909605496 -1.249415361
|  9> C 2.4729909483 -1.3049481568 -0.1811616851
| 10> O 2.9854027856 -1.5635723008 0.8831915775
| 11> C 0.9846851838 -1.431629281 -0.4587253461
| 12> C 0.4245984408 -0.1201652447 -1.0104026624
| 13> H 0.9553964198 0.1482591141 -1.9283316607
| 14> C 0.5613775907 1.0122564225 -0.0121265143
| 15> O -0.3908117493 1.6477328959 0.3941148901
| 16> O 1.8029051575 1.2020509448 0.3454492555
| 17> C 2.0841431848 2.2284242365 1.32310407
| 18> C 2.244844657 3.583305523 0.6548440667
| 19> S -1.3253295102 -0.2597863605 -1.4867640163
| 20> P -2.3499256449 -0.0061838714 0.3643530083
| 21> S -1.5211753155 -0.6024534354 2.039805517
| 22> O -3.0371329312 1.4141827803 0.437993898
| 23> C -3.8187809243 1.9556410533 -0.6442995148
| 24> O -3.6592297764 -0.8800049248 0.0187359638
| 25> C -3.6107989827 -2.3055497788 -0.0650049579
| 26> H 4.9784020138 -2.4577875917 -2.3736211674
| 27> H 6.3424343636 -1.8894951708 -1.3977753224
| 28> H 5.0154920225 -2.7703722796 -0.6311285612
| 29> H 4.8008055809 0.0024072103 -1.9199399264
| 30> H 4.7988983676 -0.3491927814 -0.1605774589
| 31> H 0.4843459047 -1.7104473624 0.4713138017
| 32> H 0.8350922266 -2.2159861465 -1.2022649873
| 33> H 1.2695592121 2.2414201694 2.0528341793
| 34> H 3.0079587395 1.8977041589 1.7981701373
| 35> H 1.3073089944 3.8876188935 0.1951189697
| 36> H 2.5221779822 4.3165287456 1.4048168727
| 37> H 3.0186197216 3.5376449015 -0.1062163649
| 38> H -3.212967548 2.014468285 -1.5485106861
| 39> H -4.1081472575 2.948825271 -0.3108219588
| 40> H -4.6937778166 1.3319119361 -0.8183930198
| 41> H -3.0726848858 -2.7130484133 0.7928131845
| 42> H -3.1213263908 -2.6058266666 -0.9913109533
| 43> H -4.6462056118 -2.63625653 -0.0537003259
| 44> *
| 45>
| 46>                          ****END OF INPUT****

CARTESIAN COORDINATES (ANGSTROEM)
---------------------------------
  C      5.269958   -2.053364   -1.408346
  C      4.557037   -0.734503   -1.154825
  O      3.128264   -0.890961   -1.249415
  C      2.472991   -1.304948   -0.181162
  O      2.985403   -1.563572    0.883192
  C      0.984685   -1.431629   -0.458725
  C      0.424598   -0.120165   -1.010403
  H      0.955396    0.148259   -1.928332
  C      0.561378    1.012256   -0.012127
  O     -0.390812    1.647733    0.394115
  O      1.802905    1.202051    0.345449
  C      2.084143    2.228424    1.323104
  C      2.244845    3.583306    0.654844
  S     -1.325330   -0.259786   -1.486764
  P     -2.349926   -0.006184    0.364353
  S     -1.521175   -0.602453    2.039806
  O     -3.037133    1.414183    0.437994
  C     -3.818781    1.955641   -0.644300
  O     -3.659230   -0.880005    0.018736
  C     -3.610799   -2.305550   -0.065005
  H      4.978402   -2.457788   -2.373621
  H      6.342434   -1.889495   -1.397775
  H      5.015492   -2.770372   -0.631129
  H      4.800806    0.002407   -1.919940
  H      4.798898   -0.349193   -0.160577
  H      0.484346   -1.710447    0.471314
  H      0.835092   -2.215986   -1.202265
  H      1.269559    2.241420    2.052834
  H      3.007959    1.897704    1.798170
  H      1.307309    3.887619    0.195119
  H      2.522178    4.316529    1.404817
  H      3.018620    3.537645   -0.106216
  H     -3.212968    2.014468   -1.548511
  H     -4.108147    2.948825   -0.310822
  H     -4.693778    1.331912   -0.818393
  H     -3.072685   -2.713048    0.792813
  H     -3.121326   -2.605827   -0.991311
  H     -4.646206   -2.636257   -0.053700

 Total Charge           Charge          ....    0
 Multiplicity           Mult            ....    1
 Number of Electrons    NEL             ....  174
 Basis Dimension        Dim             ....  316

ORBITAL ENERGIES
----------------

  NO   OCC          E(Eh)            E(eV)
   0   2.0000     -88.037926     -2395.6337
   1   2.0000     -87.971741     -2393.8328
   2   2.0000     -76.419698     -2079.4857
   3   2.0000     -18.821904      -512.1700
   4   2.0000     -18.803159      -511.6600
   5   2.0000     -18.780888      -511.0539
   6   2.0000     -18.779192      -511.0078
   7   2.0000     -18.752937      -510.2934
   8   2.0000     -18.736991      -509.8594
   9   2.0000     -10.026100      -272.8240
  10   2.0000     -10.009365      -272.3687
  11   2.0000      -9.955574      -270.9049
  12   2.0000      -9.953255      -270.8418
  13   2.0000      -9.951534      -270.7950
  14   2.0000      -9.941758      -270.5290
  15   2.0000      -9.934626      -270.3349
  16   2.0000      -9.906580      -269.5717
  17   2.0000      -9.893900      -269.2267
  18   2.0000      -9.889558      -269.1086
  19   2.0000      -7.682803      -209.0597
  20   2.0000      -7.616891      -207.2661
  21   2.0000      -6.415559      -174.5762
  22   2.0000      -5.710730      -155.3969
  23   2.0000      -5.707203      -155.3009
  24   2.0000      -5.699825      -155.1001
  25   2.0000      -5.646184      -153.6405
  26   2.0000      -5.637581      -153.4064
  27   2.0000      -5.636564      -153.3787
  28   2.0000      -4.638418      -126.2178
  29   2.0000      -4.637637      -126.1965
  30   2.0000      -4.635853      -126.1480
  31   2.0000      -1.030744       -28.0480
  32   2.0000      -1.010510       -27.4974
  33   2.0000      -0.975637       -26.5484
  34   2.0000      -0.934604       -25.4319
  35   2.0000      -0.928799       -25.2739
  36   2.0000      -0.914221       -24.8772
  37   2.0000      -0.768451       -20.9106
  38   2.0000      -0.713177       -19.4065
  39   2.0000      -0.711219       -19.3533
  40   2.0000      -0.687025       -18.6949
  41   2.0000      -0.657269       -17.8852
  42   2.0000      -0.627567       -17.0770
  43   2.0000      -0.625529       -17.0215
  44   2.0000      -0.611683       -16.6448
  45   2.0000      -0.596740       -16.2381
  46   2.0000      -0.570455       -15.5229
  47   2.0000      -0.514089       -13.9891
  48   2.0000      -0.505384       -13.7522
  49   2.0000      -0.499920       -13.6035
  50   2.0000      -0.485573       -13.2131
  51   2.0000      -0.466056       -12.6820
  52   2.0000      -0.463738       -12.6190
  53   2.0000      -0.448931       -12.2160
  54   2.0000      -0.437600       -11.9077
  55   2.0000      -0.430578       -11.7166
  56   2.0000      -0.422937       -11.5087
  57   2.0000      -0.418229       -11.3806
  58   2.0000      -0.417155       -11.3514
  59   2.0000      -0.406421       -11.0593
  60   2.0000      -0.402912       -10.9638
  61   2.0000      -0.394817       -10.7435
  62   2.0000      -0.390875       -10.6363
  63   2.0000      -0.389281       -10.5929
  64   2.0000      -0.379160       -10.3175
  65   2.0000      -0.369513       -10.0550
  66   2.0000      -0.360572        -9.8117
  67   2.0000      -0.355367        -9.6700
  68   2.0000      -0.349918        -9.5218
  69   2.0000      -0.340032        -9.2528
  70   2.0000      -0.338367        -9.2074
  71   2.0000      -0.328887        -8.9495
  72   2.0000      -0.326886        -8.8950
  73   2.0000      -0.315410        -8.5827
  74   2.0000      -0.304076        -8.2743
  75   2.0000      -0.298800        -8.1308
  76   2.0000      -0.291842        -7.9414
  77   2.0000      -0.287817        -7.8319
  78   2.0000      -0.275481        -7.4962
  79   2.0000      -0.264062        -7.1855
  80   2.0000      -0.260456        -7.0874
  81   2.0000      -0.250897        -6.8273
  82   2.0000      -0.240272        -6.5381
  83   2.0000      -0.229161        -6.2358
  84   2.0000      -0.214564        -5.8386
  85   2.0000      -0.190976        -5.1967
  86   2.0000      -0.184947        -5.0327
  87   0.0000      -0.043437        -1.1820
  88   0.0000      -0.034821        -0.9475
  89   0.0000      -0.018188        -0.4949
  90   0.0000       0.006812         0.1854
  91   0.0000       0.028666         0.7800

MULLIKEN ATOMIC CHARGES
-----------------------
   0 C :   -0.305492
   1 C :   -0.009209
   2 O :   -0.245647
   3 C :    0.108077
   4 O :   -0.192010
   5 C :   -0.045018
   6 C :   -0.319856
   7 H :    0.157152
   8 C :    0.215074
   9 O :   -0.183367
  10 O :   -0.222032
  11 C :   -0.008114
  12 C :   -0.309257
  13 S :   -0.097718
  14 P :    0.619187
  15 S :   -0.317843
  16 O :   -0.356184
  17 C :   -0.101668
  18 O :   -0.398197
  19 C :   -0.099157
  20 H :    0.112973
  21 H :    0.112947
  22 H :    0.130257
  23 H :    0.099309
  24 H :    0.106249
  25 H :    0.120634
  26 H :    0.116637
  27 H :    0.126742
  28 H :    0.114321
  29 H :    0.129553
  30 H :    0.119665
  31 H :    0.112920
  32 H :    0.114565
  33 H :    0.128829
  34 H :    0.122161
  35 H :    0.114751
  36 H :    0.108413
  37 H :    0.120353
Sum of atomic charges:    0.0000000

LOEWDIN ATOMIC CHARGES
----------------------
   0 C :   -0.356479
   1 C :   -0.110109
   2 O :   -0.066810
   3 C :    0.022826
   4 O :   -0.159274
   5 C :   -0.249875
   6 C :   -0.268126
   7 H :    0.150387
   8 C :    0.022685
   9 O :   -0.150844
  10 O :   -0.030764
  11 C :   -0.103983
  12 C :   -0.355817
  13 S :    0.094404
  14 P :    0.587454
  15 S :   -0.317498
  16 O :   -0.233001
  17 C :   -0.208725
  18 O :   -0.268897
  19 C :   -0.220810
  20 H :    0.124406
  21 H :    0.130690
  22 H :    0.132001
  23 H :    0.116063
  24 H :    0.119016
  25 H :    0.135208
  26 H :    0.141890
  27 H :    0.129605
  28 H :    0.123368
  29 H :    0.131420
  30 H :    0.134396
  31 H :    0.124379
  32 H :    0.108429
  33 H :    0.125113
  34 H :    0.114508
  35 H :    0.108565
  36 H :    0.104214
  37 H :    0.119986

  Mayer bond orders larger than 0.100000
B(  0-C ,  1-C ) :   1.1748 B(  0-C , 20-H ) :   0.9487 B(  0-C , 21-H ) :   0.9441
B(  0-C , 22-H ) :   0.9453 B(  1-C ,  2-O ) :   0.9181 B(  1-C , 23-H ) :   0.9373
B(  1-C , 24-H ) :   0.9141 B(  2-O ,  3-C ) :   1.1901 B(  3-C ,  4-O ) :   2.0695
B(  3-C ,  5-C ) :   1.0191 B(  5-C ,  6-C ) :   1.0289 B(  5-C , 25-H ) :   0.8758
B(  5-C , 26-H ) :   0.8864 B(  6-C ,  7-H ) :   0.8639 B(  6-C ,  8-C ) :   0.8975
B(  6-C , 13-S ) :   1.0248 B(  8-C ,  9-O ) :   1.9789 B(  8-C , 10-O ) :   1.2625
B(  9-O , 14-P ) :   0.1039 B( 10-O , 11-C ) :   0.8932 B( 11-C , 12-C ) :   1.1735
B( 11-C , 27-H ) :   0.9145 B( 11-C , 28-H ) :   0.9344 B( 12-C , 29-H ) :   0.9452
B( 12-C , 30-H ) :   0.9439 B( 12-C , 31-H ) :   0.9481 B( 13-S , 14-P ) :   0.9353
B( 13-S , 15-S ) :   0.1121 B( 14-P , 15-S ) :   1.6082 B( 14-P , 16-O ) :   1.1280
B( 14-P , 18-O ) :   1.0397 B( 16-O , 17-C ) :   0.9243 B( 17-C , 32-H ) :   0.9402
B( 17-C , 33-H ) :   0.9597 B( 17-C , 34-H ) :   0.9463 B( 18-O , 19-C ) :   0.9410
B( 19-C , 35-H ) :   0.9320 B( 19-C , 36-H ) :   0.9463 B( 19-C , 37-H ) :   0.9589

Dispersion correction           -0.051681343
FINAL SINGLE POINT ENERGY     -1979.012640664339

DIPOLE MOMENT
-------------

Method             : SCF
Type of density    : Electron Density
Multiplicity       :   1
Irrep              :   0
Energy             : -1979.1435483544150884 Eh
Relativity type    :
Basis              : AO
                                X                 Y                 Z
Electronic contribution:    -16.840525804      -2.210359992       4.959978264
Nuclear contribution   :     17.656719855       2.838477812      -6.640839588
                        -----------------------------------------
Total Dipole Moment    :      0.816194051       0.628117820      -1.680861324
                        -----------------------------------------
Magnitude (a.u.)       :      1.971293868
Magnitude (Debye)      :      5.010630811

Rotational constants in cm-1:             0.015732             0.006139             0.005310
Rotational constants in MHz :           471.640877           184.057037           159.175030

                             ****ORCA TERMINATED NORMALLY****
TOTAL RUN TIME: 0 days 0 hours 0 minutes 49 seconds 998 msec
