                         Program Version 6.0.0  -   RELEASE  -
|  1> ! pbe def2-sv(p) def2/J RI DEFGRID1 loosescf d4 GCP(DFT/SV(P)) printgap
|  2> %output
|  3>     printlevel normal
|  4> end
|  5> * xyz 0 1
|  6> C 3.6798231563 -2.6238906287 -1.5051865437
|  7> C 4.1196226046 -1.2335989605 -1.9075739344
|  8> O 4.0110621316 -0.2707071168 -0.8298268067
|  9> P 2.7406903441 0.0379719851 0.0402483522
| 10> S 2.8842389141 1.7761717198 0.9287213096
| 11> O 2.6693163632 -1.2284045346 1.000820033
| 12> C 1.7857495335 -1.3151825045 2.1350274885
| 13> C 2.5168239021 -0.9383429385 3.4089967778
| 14> S 1.083365154 -0.1583503382 -1.307340721
| 15> C 0.0755897448 1.2193384102 -0.7121962205
| 16> S -1.0034157289 0.76881058 0.6695818818
| 17> P -2.791059116 0.3128288833 -0.4230925876
| 18> S -2.6653723919 0.3333805801 -2.3724649823
| 19> O -3.8488842798 1.3523066402 0.1081609095
| 20> C -4.1087815019 1.5682936011 1.5207482689
| 21> C -3.6728758462 2.9654632674 1.9137352008
| 22> O -3.328334219 -1.0388727531 0.2256710865
| 23> C -2.9367861693 -2.3426290542 -0.2387631994
| 24> C -1.5013774441 -2.6717821963 0.1186604853
| 25> H 4.213321091 -2.9449202733 -0.6146323178
| 26> H 2.6107872242 -2.6349189208 -1.3027958592
| 27> H 3.8906581244 -3.3101730054 -2.3196152161
| 28> H 3.5276219347 -0.8660396931 -2.7496468855
| 29> H 5.1808070375 -1.2018135826 -2.1592991636
| 30> H 0.9198876788 -0.6643739309 1.9814656613
| 31> H 1.4642987115 -2.3584323815 2.1558380974
| 32> H 2.8285954896 0.1030252576 3.3672569098
| 33> H 1.8540377547 -1.0752703604 4.2571429844
| 34> H 3.3973310693 -1.5623548802 3.5332618998
| 35> H -0.5379372863 1.5442857242 -1.5521373556
| 36> H 0.7372115514 2.0112547677 -0.3572176496
| 37> H -5.1860122652 1.4397444145 1.6353011476
| 38> H -3.5837004798 0.8082472024 2.1032329389
| 39> H -2.59437676 3.0692632469 1.8207851585
| 40> H -4.1530132736 3.6985929908 1.271566841
| 41> H -3.9582302398 3.1499069226 2.9444681583
| 42> H -3.6383342002 -3.0147926333 0.2577873944
| 43> H -3.0856049721 -2.3838105157 -1.3222441487
| 44> H -1.3050427219 -3.7121668086 -0.1195388006
| 45> H -0.8189368534 -2.047922098 -0.4567286556
| 46> H -1.3305662349 -2.5051382511 1.1794223693
| 47> *
| 48>
| 49>                          ****END OF INPUT****

CARTESIAN COORDINATES (ANGSTROEM)
---------------------------------
  C      3.679823   -2.623891   -1.505187
  C      4.119623   -1.233599   -1.907574
  O      4.011062   -0.270707   -0.829827
  P      2.740690    0.037972    0.040248
  S      2.884239    1.776172    0.928721
  O      2.669316   -1.228405    1.000820
  C      1.785750   -1.315183    2.135027
  C      2.516824   -0.938343    3.408997
  S      1.083365   -0.158350   -1.307341
  C      0.075590    1.219338   -0.712196
  S     -1.003416    0.768811    0.669582
  P     -2.791059    0.312829   -0.423093
  S     -2.665372    0.333381   -2.372465
  O     -3.848884    1.352307    0.108161
  C     -4.108782    1.568294    1.520748
  C     -3.672876    2.965463    1.913735
  O     -3.328334   -1.038873    0.225671
  C     -2.936786   -2.342629   -0.238763
  C     -1.501377   -2.671782    0.118660
  H      4.213321   -2.944920   -0.614632
  H      2.610787   -2.634919   -1.302796
  H      3.890658   -3.310173   -2.319615
  H      3.527622   -0.866040   -2.749647
  H      5.180807   -1.201814   -2.159299
  H      0.919888   -0.664374    1.981466
  H      1.464299   -2.358432    2.155838
  H      2.828595    0.103025    3.367257
  H      1.854038   -1.075270    4.257143
  H      3.397331   -1.562355    3.533262
  H     -0.537937    1.544286   -1.552137
  H      0.737212    2.011255   -0.357218
  H     -5.186012    1.439744    1.635301
  H     -3.583700    0.808247    2.103233
  H     -2.594377    3.069263    1.820785
  H     -4.153013    3.698593    1.271567
  H     -3.958230    3.149907    2.944468
  H     -3.638334   -3.014793    0.257787
  H     -3.085605   -2.383811   -1.322244
  H     -1.305043   -3.712167   -0.119539
  H     -0.818937   -2.047922   -0.456729
  H     -1.330566   -2.505138    1.179422

 Total Charge           Charge          ....    0
 Multiplicity           Mult            ....    1
 Number of Electrons    NEL             ....  202
 Basis Dimension        Dim             ....  334

ORBITAL ENERGIES
----------------

  NO   OCC          E(Eh)            E(eV)
   0   2.0000     -88.046917     -2395.8784
   1   2.0000     -88.045744     -2395.8465
   2   2.0000     -87.993046     -2394.4125
   3   2.0000     -87.988012     -2394.2755
   4   2.0000     -76.430049     -2079.7674
   5   2.0000     -76.428937     -2079.7371
   6   2.0000     -18.795541      -511.4527
   7   2.0000     -18.795317      -511.4466
   8   2.0000     -18.793093      -511.3861
   9   2.0000     -18.790900      -511.3264
  10   2.0000      -9.962351      -271.0894
  11   2.0000      -9.961228      -271.0588
  12   2.0000      -9.955962      -270.9155
  13   2.0000      -9.953807      -270.8569
  14   2.0000      -9.952543      -270.8225
  15   2.0000      -9.892940      -269.2006
  16   2.0000      -9.887879      -269.0629
  17   2.0000      -9.885792      -269.0061
  18   2.0000      -9.881006      -268.8758
  19   2.0000      -7.691152      -209.2869
  20   2.0000      -7.689991      -209.2553
  21   2.0000      -7.638257      -207.8475
  22   2.0000      -7.633176      -207.7093
  23   2.0000      -6.427737      -174.9076
  24   2.0000      -6.426374      -174.8705
  25   2.0000      -5.718890      -155.6189
  26   2.0000      -5.717732      -155.5874
  27   2.0000      -5.715720      -155.5326
  28   2.0000      -5.714400      -155.4967
  29   2.0000      -5.708302      -155.3308
  30   2.0000      -5.707341      -155.3047
  31   2.0000      -5.667251      -154.2137
  32   2.0000      -5.662128      -154.0743
  33   2.0000      -5.658735      -153.9820
  34   2.0000      -5.658450      -153.9742
  35   2.0000      -5.653815      -153.8481
  36   2.0000      -5.653236      -153.8324
  37   2.0000      -4.650399      -126.5438
  38   2.0000      -4.649371      -126.5158
  39   2.0000      -4.649056      -126.5072
  40   2.0000      -4.648234      -126.4849
  41   2.0000      -4.648140      -126.4823
  42   2.0000      -4.646770      -126.4450
  43   2.0000      -0.990899       -26.9637
  44   2.0000      -0.989193       -26.9173
  45   2.0000      -0.947172       -25.7739
  46   2.0000      -0.947065       -25.7709
  47   2.0000      -0.763466       -20.7750
  48   2.0000      -0.724717       -19.7206
  49   2.0000      -0.716043       -19.4845
  50   2.0000      -0.693558       -18.8727
  51   2.0000      -0.691678       -18.8215
  52   2.0000      -0.679132       -18.4801
  53   2.0000      -0.653108       -17.7720
  54   2.0000      -0.641364       -17.4524
  55   2.0000      -0.600098       -16.3295
  56   2.0000      -0.595774       -16.2118
  57   2.0000      -0.578337       -15.7373
  58   2.0000      -0.573947       -15.6179
  59   2.0000      -0.563970       -15.3464
  60   2.0000      -0.509291       -13.8585
  61   2.0000      -0.499211       -13.5842
  62   2.0000      -0.480398       -13.0723
  63   2.0000      -0.476583       -12.9685
  64   2.0000      -0.460957       -12.5433
  65   2.0000      -0.451403       -12.2833
  66   2.0000      -0.444952       -12.1078
  67   2.0000      -0.439280       -11.9534
  68   2.0000      -0.436226       -11.8703
  69   2.0000      -0.424595       -11.5538
  70   2.0000      -0.406222       -11.0539
  71   2.0000      -0.403091       -10.9687
  72   2.0000      -0.395271       -10.7559
  73   2.0000      -0.389276       -10.5927
  74   2.0000      -0.379875       -10.3369
  75   2.0000      -0.373189       -10.1550
  76   2.0000      -0.368321       -10.0225
  77   2.0000      -0.358958        -9.7678
  78   2.0000      -0.358866        -9.7652
  79   2.0000      -0.355170        -9.6647
  80   2.0000      -0.353297        -9.6137
  81   2.0000      -0.350441        -9.5360
  82   2.0000      -0.346920        -9.4402
  83   2.0000      -0.341762        -9.2998
  84   2.0000      -0.333581        -9.0772
  85   2.0000      -0.320093        -8.7102
  86   2.0000      -0.314408        -8.5555
  87   2.0000      -0.304569        -8.2877
  88   2.0000      -0.299244        -8.1428
  89   2.0000      -0.295442        -8.0394
  90   2.0000      -0.294260        -8.0072
  91   2.0000      -0.279004        -7.5921
  92   2.0000      -0.275159        -7.4875
  93   2.0000      -0.265371        -7.2211
  94   2.0000      -0.261183        -7.1071
  95   2.0000      -0.234272        -6.3749
  96   2.0000      -0.219383        -5.9697
  97   2.0000      -0.215674        -5.8688
  98   2.0000      -0.210142        -5.7183
  99   2.0000      -0.205392        -5.5890
 100   2.0000      -0.201242        -5.4761
 101   0.0000      -0.049029        -1.3342
 102   0.0000      -0.034415        -0.9365
 103   0.0000      -0.017576        -0.4783
 104   0.0000       0.003215         0.0875
 105   0.0000       0.007478         0.2035

MULLIKEN ATOMIC CHARGES
-----------------------
   0 C :   -0.315323
   1 C :   -0.008198
   2 O :   -0.358506
   3 P :    0.593649
   4 S :   -0.308573
   5 O :   -0.372431
   6 C :   -0.028871
   7 C :   -0.285986
   8 S :   -0.110976
   9 C :   -0.336592
  10 S :   -0.116721
  11 P :    0.595842
  12 S :   -0.302517
  13 O :   -0.355260
  14 C :   -0.017355
  15 C :   -0.283732
  16 O :   -0.378941
  17 C :    0.002902
  18 C :   -0.341587
  19 H :    0.126362
  20 H :    0.126118
  21 H :    0.117208
  22 H :    0.118828
  23 H :    0.115582
  24 H :    0.118532
  25 H :    0.105839
  26 H :    0.128664
  27 H :    0.105211
  28 H :    0.111186
  29 H :    0.193370
  30 H :    0.197278
  31 H :    0.114844
  32 H :    0.106737
  33 H :    0.122040
  34 H :    0.122083
  35 H :    0.109808
  36 H :    0.104302
  37 H :    0.111942
  38 H :    0.110439
  39 H :    0.149561
  40 H :    0.113244
Sum of atomic charges:   -0.0000000

LOEWDIN ATOMIC CHARGES
----------------------
   0 C :   -0.367336
   1 C :   -0.111434
   2 O :   -0.232468
   3 P :    0.567645
   4 S :   -0.301339
   5 O :   -0.246437
   6 C :   -0.119718
   7 C :   -0.360842
   8 S :    0.077811
   9 C :   -0.486557
  10 S :    0.077180
  11 P :    0.568326
  12 S :   -0.295789
  13 O :   -0.239111
  14 C :   -0.112112
  15 C :   -0.358334
  16 O :   -0.250109
  17 C :   -0.115168
  18 C :   -0.375158
  19 H :    0.130790
  20 H :    0.119473
  21 H :    0.133210
  22 H :    0.113334
  23 H :    0.125262
  24 H :    0.098540
  25 H :    0.116469
  26 H :    0.126072
  27 H :    0.127652
  28 H :    0.124612
  29 H :    0.129008
  30 H :    0.127163
  31 H :    0.123238
  32 H :    0.106855
  33 H :    0.123244
  34 H :    0.130459
  35 H :    0.129802
  36 H :    0.118232
  37 H :    0.112292
  38 H :    0.130053
  39 H :    0.113801
  40 H :    0.121388

  Mayer bond orders larger than 0.100000
B(  0-C ,  1-C ) :   1.1696 B(  0-C , 19-H ) :   0.9419 B(  0-C , 20-H ) :   0.9380
B(  0-C , 21-H ) :   0.9343 B(  1-C ,  2-O ) :   0.8986 B(  1-C , 22-H ) :   0.9233
B(  1-C , 23-H ) :   0.9341 B(  2-O ,  3-P ) :   1.1571 B(  3-P ,  4-S ) :   1.6319
B(  3-P ,  5-O ) :   1.0874 B(  3-P ,  8-S ) :   0.9316 B(  4-S ,  8-S ) :   0.1113
B(  4-S , 30-H ) :   0.1026 B(  5-O ,  6-C ) :   0.9010 B(  6-C ,  7-C ) :   1.1654
B(  6-C , 24-H ) :   0.8980 B(  6-C , 25-H ) :   0.9336 B(  7-C , 26-H ) :   0.9332
B(  7-C , 27-H ) :   0.9403 B(  7-C , 28-H ) :   0.9474 B(  8-S ,  9-C ) :   1.0223
B(  9-C , 10-S ) :   1.0114 B(  9-C , 29-H ) :   0.8650 B(  9-C , 30-H ) :   0.8555
B( 10-S , 11-P ) :   0.9297 B( 10-S , 12-S ) :   0.1109 B( 11-P , 12-S ) :   1.6426
B( 11-P , 13-O ) :   1.1467 B( 11-P , 16-O ) :   1.0916 B( 13-O , 14-C ) :   0.8857
B( 14-C , 15-C ) :   1.1634 B( 14-C , 31-H ) :   0.9336 B( 14-C , 32-H ) :   0.9186
B( 15-C , 33-H ) :   0.9401 B( 15-C , 34-H ) :   0.9460 B( 15-C , 35-H ) :   0.9397
B( 16-O , 17-C ) :   0.9115 B( 17-C , 18-C ) :   1.1632 B( 17-C , 36-H ) :   0.9345
B( 17-C , 37-H ) :   0.9171 B( 18-C , 38-H ) :   0.9368 B( 18-C , 39-H ) :   0.9222
B( 18-C , 40-H ) :   0.9421

Dispersion correction           -0.063402735
FINAL SINGLE POINT ENERGY     -2929.517495529365

DIPOLE MOMENT
-------------

Method             : SCF
Type of density    : Electron Density
Multiplicity       :   1
Irrep              :   0
Energy             : -2929.6387700776876954 Eh
Relativity type    :
Basis              : AO
                                X                 Y                 Z
Electronic contribution:     -0.734465122      12.470122533     -12.301835069
Nuclear contribution   :      0.435039516     -13.973646122      13.125477889
                        -----------------------------------------
Total Dipole Moment    :     -0.299425606      -1.503523589       0.823642820
                        -----------------------------------------
Magnitude (a.u.)       :      1.740294909
Magnitude (Debye)      :      4.423478119

Rotational constants in cm-1:             0.011692             0.004617             0.004263
Rotational constants in MHz :           350.511462           138.415819           127.810933

                             ****ORCA TERMINATED NORMALLY****
TOTAL RUN TIME: 0 days 0 hours 0 minutes 20 seconds 811 msec
