                         Program Version 6.0.0  -   RELEASE  -
|  1> ! pbe def2-sv(p) def2/J RI DEFGRID1 loosescf d4 GCP(DFT/SV(P)) printgap
|  2> %output
|  3>     printlevel normal
|  4> end
|  5> * xyz 0 1
|  6> C 2.8084217774 -0.4386106157 -2.7388707283
|  7> C 1.6260780234 0.2519382292 -2.0948320607
|  8> O 1.1386242778 -0.4730955518 -0.9479156132
|  9> P 1.99935976 -0.5616618997 0.3906620483
| 10> S 3.1357765648 0.985565948 0.8069771467
| 11> O 2.7938338948 -1.917470996 0.1536384123
| 12> C 3.9560606178 -2.2761893715 0.9220169339
| 13> C 3.6095805625 -2.6053498129 2.3596975839
| 14> S 0.5181249283 -1.1479506691 1.7612442227
| 15> C -0.2405765647 0.4690078607 2.1389513572
| 16> S -0.3427725427 1.6111497133 0.7357001443
| 17> P -1.879017308 0.6920770195 -0.4084149907
| 18> S -1.9149434025 1.2477122606 -2.2847544437
| 19> O -3.1916047142 0.9618352319 0.4589802874
| 20> C -3.7587815201 2.2785286445 0.5854051339
| 21> C -4.8272549065 2.5141527568 -0.4646894135
| 22> O -1.6886828605 -0.8456614396 -0.1171959749
| 23> C -1.9693257401 -1.8578490507 -1.102575366
| 24> C -3.4613109333 -2.0658240684 -1.2480589051
| 25> H 3.0657088246 0.0791378522 -3.657528234
| 26> H 3.6640244503 -0.4128524613 -2.0650505831
| 27> H 2.5628667388 -1.4738898385 -2.9605160304
| 28> H 0.7668060962 0.3031494019 -2.7669761918
| 29> H 1.8917035402 1.2658148362 -1.7747731715
| 30> H 4.3608471788 -3.1413534539 0.3953162769
| 31> H 4.6679248978 -1.4454179056 0.8795931533
| 32> H 2.8199009559 -3.3514572556 2.3970150581
| 33> H 4.4922578621 -2.9865261613 2.863076609
| 34> H 3.2686049651 -1.7082326719 2.8744894608
| 35> H 0.3688619931 0.9829205206 2.8798658404
| 36> H -1.2364069492 0.2560586172 2.5211177316
| 37> H -4.1817396587 2.3028566764 1.5915950112
| 38> H -2.9596034946 3.0237060181 0.5071614739
| 39> H -5.5966367749 1.7507286004 -0.3911580847
| 40> H -5.2735582078 3.4908479971 -0.3081208071
| 41> H -4.3920408761 2.4796015357 -1.4610838109
| 42> H -1.5224725279 -1.5570375423 -2.0553761715
| 43> H -1.4629892121 -2.7454061753 -0.7201166141
| 44> H -3.9197241644 -1.1549123952 -1.6315443584
| 45> H -3.6477029247 -2.8773914829 -1.9440760544
| 46> H -3.9022570345 -2.3036908845 -0.2840009712
| 47> *
| 48>
| 49>                          ****END OF INPUT****

CARTESIAN COORDINATES (ANGSTROEM)
---------------------------------
  C      2.808422   -0.438611   -2.738871
  C      1.626078    0.251938   -2.094832
  O      1.138624   -0.473096   -0.947916
  P      1.999360   -0.561662    0.390662
  S      3.135777    0.985566    0.806977
  O      2.793834   -1.917471    0.153638
  C      3.956061   -2.276189    0.922017
  C      3.609581   -2.605350    2.359698
  S      0.518125   -1.147951    1.761244
  C     -0.240577    0.469008    2.138951
  S     -0.342773    1.611150    0.735700
  P     -1.879017    0.692077   -0.408415
  S     -1.914943    1.247712   -2.284754
  O     -3.191605    0.961835    0.458980
  C     -3.758782    2.278529    0.585405
  C     -4.827255    2.514153   -0.464689
  O     -1.688683   -0.845661   -0.117196
  C     -1.969326   -1.857849   -1.102575
  C     -3.461311   -2.065824   -1.248059
  H      3.065709    0.079138   -3.657528
  H      3.664024   -0.412852   -2.065051
  H      2.562867   -1.473890   -2.960516
  H      0.766806    0.303149   -2.766976
  H      1.891704    1.265815   -1.774773
  H      4.360847   -3.141353    0.395316
  H      4.667925   -1.445418    0.879593
  H      2.819901   -3.351457    2.397015
  H      4.492258   -2.986526    2.863077
  H      3.268605   -1.708233    2.874489
  H      0.368862    0.982921    2.879866
  H     -1.236407    0.256059    2.521118
  H     -4.181740    2.302857    1.591595
  H     -2.959603    3.023706    0.507161
  H     -5.596637    1.750729   -0.391158
  H     -5.273558    3.490848   -0.308121
  H     -4.392041    2.479602   -1.461084
  H     -1.522473   -1.557038   -2.055376
  H     -1.462989   -2.745406   -0.720117
  H     -3.919724   -1.154912   -1.631544
  H     -3.647703   -2.877391   -1.944076
  H     -3.902257   -2.303691   -0.284001

 Total Charge           Charge          ....    0
 Multiplicity           Mult            ....    1
 Number of Electrons    NEL             ....  202
 Basis Dimension        Dim             ....  334

ORBITAL ENERGIES
----------------

  NO   OCC          E(Eh)            E(eV)
   0   2.0000     -88.044590     -2395.8151
   1   2.0000     -88.040049     -2395.6915
   2   2.0000     -87.992248     -2394.3908
   3   2.0000     -87.983952     -2394.1651
   4   2.0000     -76.428379     -2079.7219
   5   2.0000     -76.424396     -2079.6135
   6   2.0000     -18.793121      -511.3868
   7   2.0000     -18.792038      -511.3573
   8   2.0000     -18.791496      -511.3426
   9   2.0000     -18.783623      -511.1284
  10   2.0000      -9.962041      -271.0809
  11   2.0000      -9.955403      -270.9003
  12   2.0000      -9.951039      -270.7815
  13   2.0000      -9.951033      -270.7814
  14   2.0000      -9.936579      -270.3881
  15   2.0000      -9.883484      -268.9433
  16   2.0000      -9.883313      -268.9386
  17   2.0000      -9.881981      -268.9024
  18   2.0000      -9.875374      -268.7226
  19   2.0000      -7.689166      -209.2328
  20   2.0000      -7.685324      -209.1283
  21   2.0000      -7.637221      -207.8193
  22   2.0000      -7.628926      -207.5936
  23   2.0000      -6.425942      -174.8588
  24   2.0000      -6.421485      -174.7375
  25   2.0000      -5.717470      -155.5803
  26   2.0000      -5.713458      -155.4711
  27   2.0000      -5.713435      -155.4705
  28   2.0000      -5.709899      -155.3742
  29   2.0000      -5.705927      -155.2662
  30   2.0000      -5.701896      -155.1565
  31   2.0000      -5.666063      -154.1814
  32   2.0000      -5.658014      -153.9624
  33   2.0000      -5.657775      -153.9559
  34   2.0000      -5.657271      -153.9422
  35   2.0000      -5.649570      -153.7326
  36   2.0000      -5.649195      -153.7224
  37   2.0000      -4.648330      -126.4875
  38   2.0000      -4.647913      -126.4761
  39   2.0000      -4.646424      -126.4356
  40   2.0000      -4.643895      -126.3668
  41   2.0000      -4.643279      -126.3500
  42   2.0000      -4.642156      -126.3195
  43   2.0000      -0.989251       -26.9189
  44   2.0000      -0.982513       -26.7355
  45   2.0000      -0.946917       -25.7669
  46   2.0000      -0.940450       -25.5910
  47   2.0000      -0.764231       -20.7958
  48   2.0000      -0.720041       -19.5933
  49   2.0000      -0.705241       -19.1906
  50   2.0000      -0.685888       -18.6640
  51   2.0000      -0.682409       -18.5693
  52   2.0000      -0.672600       -18.3024
  53   2.0000      -0.655479       -17.8365
  54   2.0000      -0.639230       -17.3943
  55   2.0000      -0.599204       -16.3052
  56   2.0000      -0.594620       -16.1804
  57   2.0000      -0.570943       -15.5361
  58   2.0000      -0.566501       -15.4153
  59   2.0000      -0.563095       -15.3226
  60   2.0000      -0.503203       -13.6928
  61   2.0000      -0.487967       -13.2783
  62   2.0000      -0.477050       -12.9812
  63   2.0000      -0.467201       -12.7132
  64   2.0000      -0.457252       -12.4425
  65   2.0000      -0.441331       -12.0092
  66   2.0000      -0.437997       -11.9185
  67   2.0000      -0.434991       -11.8367
  68   2.0000      -0.425845       -11.5878
  69   2.0000      -0.411762       -11.2046
  70   2.0000      -0.410436       -11.1685
  71   2.0000      -0.401016       -10.9122
  72   2.0000      -0.388673       -10.5763
  73   2.0000      -0.385336       -10.4855
  74   2.0000      -0.384574       -10.4648
  75   2.0000      -0.375022       -10.2049
  76   2.0000      -0.366596        -9.9756
  77   2.0000      -0.359402        -9.7798
  78   2.0000      -0.353309        -9.6140
  79   2.0000      -0.350330        -9.5330
  80   2.0000      -0.345447        -9.4001
  81   2.0000      -0.344238        -9.3672
  82   2.0000      -0.337579        -9.1860
  83   2.0000      -0.336603        -9.1594
  84   2.0000      -0.332212        -9.0400
  85   2.0000      -0.321069        -8.7367
  86   2.0000      -0.308855        -8.4044
  87   2.0000      -0.296925        -8.0797
  88   2.0000      -0.293449        -7.9852
  89   2.0000      -0.291829        -7.9411
  90   2.0000      -0.281244        -7.6530
  91   2.0000      -0.274132        -7.4595
  92   2.0000      -0.266439        -7.2502
  93   2.0000      -0.261570        -7.1177
  94   2.0000      -0.259151        -7.0519
  95   2.0000      -0.229300        -6.2396
  96   2.0000      -0.221832        -6.0364
  97   2.0000      -0.214469        -5.8360
  98   2.0000      -0.205549        -5.5933
  99   2.0000      -0.197461        -5.3732
 100   2.0000      -0.195126        -5.3097
 101   0.0000      -0.045963        -1.2507
 102   0.0000      -0.025222        -0.6863
 103   0.0000      -0.009825        -0.2674
 104   0.0000       0.000491         0.0134
 105   0.0000       0.016273         0.4428

MULLIKEN ATOMIC CHARGES
-----------------------
   0 C :   -0.299527
   1 C :   -0.019506
   2 O :   -0.368259
   3 P :    0.608686
   4 S :   -0.332357
   5 O :   -0.371449
   6 C :   -0.004670
   7 C :   -0.314515
   8 S :   -0.085697
   9 C :   -0.321967
  10 S :   -0.073633
  11 P :    0.618283
  12 S :   -0.322583
  13 O :   -0.372679
  14 C :   -0.012263
  15 C :   -0.291853
  16 O :   -0.362689
  17 C :   -0.001304
  18 C :   -0.301996
  19 H :    0.110277
  20 H :    0.116852
  21 H :    0.110605
  22 H :    0.116595
  23 H :    0.111736
  24 H :    0.104697
  25 H :    0.111326
  26 H :    0.116894
  27 H :    0.112737
  28 H :    0.126239
  29 H :    0.190655
  30 H :    0.180139
  31 H :    0.104398
  32 H :    0.100441
  33 H :    0.112416
  34 H :    0.107893
  35 H :    0.129593
  36 H :    0.114164
  37 H :    0.104282
  38 H :    0.121855
  39 H :    0.111618
  40 H :    0.114567
Sum of atomic charges:    0.0000000

LOEWDIN ATOMIC CHARGES
----------------------
   0 C :   -0.364743
   1 C :   -0.128878
   2 O :   -0.242957
   3 P :    0.567703
   4 S :   -0.331068
   5 O :   -0.243928
   6 C :   -0.120269
   7 C :   -0.369803
   8 S :    0.093576
   9 C :   -0.468004
  10 S :    0.105844
  11 P :    0.573301
  12 S :   -0.305179
  13 O :   -0.251673
  14 C :   -0.119494
  15 C :   -0.363864
  16 O :   -0.230659
  17 C :   -0.114133
  18 C :   -0.363434
  19 H :    0.129694
  20 H :    0.119178
  21 H :    0.123531
  22 H :    0.110665
  23 H :    0.109778
  24 H :    0.118352
  25 H :    0.110161
  26 H :    0.123609
  27 H :    0.130904
  28 H :    0.121231
  29 H :    0.138890
  30 H :    0.134406
  31 H :    0.117205
  32 H :    0.105178
  33 H :    0.124873
  34 H :    0.128819
  35 H :    0.124023
  36 H :    0.110843
  37 H :    0.118059
  38 H :    0.122376
  39 H :    0.130190
  40 H :    0.125695

  Mayer bond orders larger than 0.100000
B(  0-C ,  1-C ) :   1.1615 B(  0-C , 19-H ) :   0.9401 B(  0-C , 20-H ) :   0.9364
B(  0-C , 21-H ) :   0.9462 B(  1-C ,  2-O ) :   0.8965 B(  1-C , 22-H ) :   0.9160
B(  1-C , 23-H ) :   0.9171 B(  2-O ,  3-P ) :   1.1090 B(  3-P ,  4-S ) :   1.5945
B(  3-P ,  5-O ) :   1.1059 B(  3-P ,  8-S ) :   0.9820 B(  4-S ,  8-S ) :   0.1125
B(  5-O ,  6-C ) :   0.9080 B(  6-C ,  7-C ) :   1.1671 B(  6-C , 24-H ) :   0.9338
B(  6-C , 25-H ) :   0.9139 B(  7-C , 26-H ) :   0.9445 B(  7-C , 27-H ) :   0.9379
B(  7-C , 28-H ) :   0.9354 B(  8-S ,  9-C ) :   0.9764 B(  9-C , 10-S ) :   1.0028
B(  9-C , 29-H ) :   0.9048 B(  9-C , 30-H ) :   0.9059 B( 10-S , 11-P ) :   0.9549
B( 11-P , 12-S ) :   1.6213 B( 11-P , 13-O ) :   1.0837 B( 11-P , 16-O ) :   1.1337
B( 13-O , 14-C ) :   0.9094 B( 14-C , 15-C ) :   1.1669 B( 14-C , 31-H ) :   0.9362
B( 14-C , 32-H ) :   0.9128 B( 15-C , 33-H ) :   0.9469 B( 15-C , 34-H ) :   0.9398
B( 15-C , 35-H ) :   0.9316 B( 16-O , 17-C ) :   0.8938 B( 17-C , 18-C ) :   1.1620
B( 17-C , 36-H ) :   0.9162 B( 17-C , 37-H ) :   0.9315 B( 18-C , 38-H ) :   0.9364
B( 18-C , 39-H ) :   0.9400 B( 18-C , 40-H ) :   0.9465

Dispersion correction           -0.068214653
FINAL SINGLE POINT ENERGY     -2929.520460600139

DIPOLE MOMENT
-------------

Method             : SCF
Type of density    : Electron Density
Multiplicity       :   1
Irrep              :   0
Energy             : -2929.6380734139456763 Eh
Relativity type    :
Basis              : AO
                                X                 Y                 Z
Electronic contribution:      5.319216720       8.033910696       5.341541834
Nuclear contribution   :     -5.946394652      -8.881349586      -4.815422235
                        -----------------------------------------
Total Dipole Moment    :     -0.627177931      -0.847438890       0.526119599
                        -----------------------------------------
Magnitude (a.u.)       :      1.178264258
Magnitude (Debye)      :      2.994909735

Rotational constants in cm-1:             0.013564             0.005121             0.004990
Rotational constants in MHz :           406.632446           153.513911           149.605077

                             ****ORCA TERMINATED NORMALLY****
TOTAL RUN TIME: 0 days 0 hours 0 minutes 21 seconds 918 msec
