                         Program Version 6.0.0  -   RELEASE  -
|  1> ! pbe def2-sv(p) def2/J RI DEFGRID1 loosescf d4 GCP(DFT/SV(P)) printgap
|  2> %output
|  3>     printlevel normal
|  4> end
|  5> * xyz 0 1
|  6> C 4.7019089924 -1.5533403146 -0.581948464
|  7> C 4.6695852817 -0.0681994981 -0.2849583217
|  8> O 3.4964002672 0.3080315561 0.4562171828
|  9> P 2.0433385289 0.319771559 -0.1926570663
| 10> S 2.0262714051 0.8603158887 -2.0828871919
| 11> O 1.2433966441 1.1387862874 0.9013126184
| 12> C 1.619985196 2.4311325045 1.4196010782
| 13> C 1.766872983 3.4741715262 0.3319829241
| 14> S 1.271438728 -1.6009667418 0.1943003641
| 15> C 0.0710266867 -1.7676695867 -1.170560633
| 16> S -1.6153518245 -2.0134398139 -0.5790136056
| 17> P -1.9739833502 -0.0633638243 0.1968071796
| 18> S -1.3453359554 1.4099313301 -0.9302217448
| 19> O -1.3624864437 0.0197722647 1.6428085001
| 20> C -1.3285669035 -1.0282556709 2.6463604222
| 21> C -2.6864711854 -1.6285309691 2.9363178689
| 22> O -3.5352142424 -0.096365158 0.4849541821
| 23> C -4.5289793981 -0.1927244234 -0.5541537396
| 24> C -4.9971690711 1.180680509 -0.9945255881
| 25> H 4.556967705 -2.1250502633 0.3311157148
| 26> H 3.9113642908 -1.8078097276 -1.2862753392
| 27> H 5.6602345913 -1.8096326932 -1.0218744533
| 28> H 4.6906584984 0.5094580535 -1.2147494339
| 29> H 5.4950424615 0.2331706548 0.3613461295
| 30> H 0.7993410003 2.6775580605 2.0962685203
| 31> H 2.5496978632 2.3127552364 1.9813977023
| 32> H 0.8610822439 3.5144892949 -0.2712263618
| 33> H 1.9427942007 4.4460327593 0.7819472559
| 34> H 2.603082381 3.2252660755 -0.3205846093
| 35> H 0.3241602079 -2.6588754642 -1.7387828659
| 36> H 0.1264246051 -0.8707494194 -1.7947421395
| 37> H -0.6239360545 -1.7947632082 2.310576505
| 38> H -0.9204624808 -0.5150507475 3.5185104236
| 39> H -2.5954938096 -2.3011228333 3.7838452645
| 40> H -3.4023727469 -0.8456721078 3.1726306301
| 41> H -3.0461980662 -2.1904113943 2.0771101801
| 42> H -4.1178481804 -0.7561902175 -1.3959611682
| 43> H -5.343116362 -0.7602698691 -0.0992356245
| 44> H -5.7866554733 1.0708221627 -1.7309373057
| 45> H -5.37416722 1.7383109156 -0.1417231425
| 46> H -4.1731284271 1.7363792513 -1.4371219755
| 47> *
| 48>
| 49>                          ****END OF INPUT****

CARTESIAN COORDINATES (ANGSTROEM)
---------------------------------
  C      4.701909   -1.553340   -0.581948
  C      4.669585   -0.068199   -0.284958
  O      3.496400    0.308032    0.456217
  P      2.043339    0.319772   -0.192657
  S      2.026271    0.860316   -2.082887
  O      1.243397    1.138786    0.901313
  C      1.619985    2.431133    1.419601
  C      1.766873    3.474172    0.331983
  S      1.271439   -1.600967    0.194300
  C      0.071027   -1.767670   -1.170561
  S     -1.615352   -2.013440   -0.579014
  P     -1.973983   -0.063364    0.196807
  S     -1.345336    1.409931   -0.930222
  O     -1.362486    0.019772    1.642809
  C     -1.328567   -1.028256    2.646360
  C     -2.686471   -1.628531    2.936318
  O     -3.535214   -0.096365    0.484954
  C     -4.528979   -0.192724   -0.554154
  C     -4.997169    1.180681   -0.994526
  H      4.556968   -2.125050    0.331116
  H      3.911364   -1.807810   -1.286275
  H      5.660235   -1.809633   -1.021874
  H      4.690658    0.509458   -1.214749
  H      5.495042    0.233171    0.361346
  H      0.799341    2.677558    2.096269
  H      2.549698    2.312755    1.981398
  H      0.861082    3.514489   -0.271226
  H      1.942794    4.446033    0.781947
  H      2.603082    3.225266   -0.320585
  H      0.324160   -2.658875   -1.738783
  H      0.126425   -0.870749   -1.794742
  H     -0.623936   -1.794763    2.310577
  H     -0.920462   -0.515051    3.518510
  H     -2.595494   -2.301123    3.783845
  H     -3.402373   -0.845672    3.172631
  H     -3.046198   -2.190411    2.077110
  H     -4.117848   -0.756190   -1.395961
  H     -5.343116   -0.760270   -0.099236
  H     -5.786655    1.070822   -1.730937
  H     -5.374167    1.738311   -0.141723
  H     -4.173128    1.736379   -1.437122

 Total Charge           Charge          ....    0
 Multiplicity           Mult            ....    1
 Number of Electrons    NEL             ....  202
 Basis Dimension        Dim             ....  334

ORBITAL ENERGIES
----------------

  NO   OCC          E(Eh)            E(eV)
   0   2.0000     -88.043934     -2395.7972
   1   2.0000     -88.040861     -2395.7136
   2   2.0000     -87.980947     -2394.0833
   3   2.0000     -87.975111     -2393.9245
   4   2.0000     -76.422266     -2079.5556
   5   2.0000     -76.422178     -2079.5532
   6   2.0000     -18.791829      -511.3517
   7   2.0000     -18.790785      -511.3233
   8   2.0000     -18.786946      -511.2188
   9   2.0000     -18.778498      -510.9889
  10   2.0000      -9.953933      -270.8603
  11   2.0000      -9.953726      -270.8547
  12   2.0000      -9.951304      -270.7888
  13   2.0000      -9.949512      -270.7400
  14   2.0000      -9.945282      -270.6249
  15   2.0000      -9.885323      -268.9933
  16   2.0000      -9.882058      -268.9045
  17   2.0000      -9.877806      -268.7888
  18   2.0000      -9.871983      -268.6303
  19   2.0000      -7.688912      -209.2259
  20   2.0000      -7.685879      -209.1434
  21   2.0000      -7.625872      -207.5105
  22   2.0000      -7.620153      -207.3549
  23   2.0000      -6.419399      -174.6807
  24   2.0000      -6.419334      -174.6789
  25   2.0000      -5.716693      -155.5591
  26   2.0000      -5.713723      -155.4783
  27   2.0000      -5.713155      -155.4629
  28   2.0000      -5.710398      -155.3878
  29   2.0000      -5.706282      -155.2758
  30   2.0000      -5.702806      -155.1812
  31   2.0000      -5.654767      -153.8740
  32   2.0000      -5.649125      -153.7205
  33   2.0000      -5.646664      -153.6535
  34   2.0000      -5.645897      -153.6327
  35   2.0000      -5.640711      -153.4916
  36   2.0000      -5.640249      -153.4790
  37   2.0000      -4.642141      -126.3191
  38   2.0000      -4.642103      -126.3180
  39   2.0000      -4.641509      -126.3019
  40   2.0000      -4.640853      -126.2840
  41   2.0000      -4.639916      -126.2585
  42   2.0000      -4.639436      -126.2455
  43   2.0000      -0.983987       -26.7756
  44   2.0000      -0.982128       -26.7251
  45   2.0000      -0.941816       -25.6281
  46   2.0000      -0.936839       -25.4927
  47   2.0000      -0.761591       -20.7239
  48   2.0000      -0.717844       -19.5335
  49   2.0000      -0.706699       -19.2303
  50   2.0000      -0.688192       -18.7267
  51   2.0000      -0.683619       -18.6022
  52   2.0000      -0.671502       -18.2725
  53   2.0000      -0.647781       -17.6270
  54   2.0000      -0.630610       -17.1598
  55   2.0000      -0.594046       -16.1648
  56   2.0000      -0.587370       -15.9831
  57   2.0000      -0.571389       -15.5483
  58   2.0000      -0.570621       -15.5274
  59   2.0000      -0.562981       -15.3195
  60   2.0000      -0.496959       -13.5229
  61   2.0000      -0.490310       -13.3420
  62   2.0000      -0.472433       -12.8556
  63   2.0000      -0.464336       -12.6352
  64   2.0000      -0.449331       -12.2269
  65   2.0000      -0.444178       -12.0867
  66   2.0000      -0.439252       -11.9527
  67   2.0000      -0.431252       -11.7350
  68   2.0000      -0.425621       -11.5817
  69   2.0000      -0.412760       -11.2318
  70   2.0000      -0.404595       -11.0096
  71   2.0000      -0.401023       -10.9124
  72   2.0000      -0.395932       -10.7739
  73   2.0000      -0.388801       -10.5798
  74   2.0000      -0.384027       -10.4499
  75   2.0000      -0.366754        -9.9799
  76   2.0000      -0.356938        -9.7128
  77   2.0000      -0.352645        -9.5960
  78   2.0000      -0.350220        -9.5300
  79   2.0000      -0.348716        -9.4891
  80   2.0000      -0.344699        -9.3797
  81   2.0000      -0.338979        -9.2241
  82   2.0000      -0.335799        -9.1376
  83   2.0000      -0.329399        -8.9634
  84   2.0000      -0.327324        -8.9069
  85   2.0000      -0.315223        -8.5777
  86   2.0000      -0.311669        -8.4810
  87   2.0000      -0.293272        -7.9803
  88   2.0000      -0.292723        -7.9654
  89   2.0000      -0.289068        -7.8660
  90   2.0000      -0.275938        -7.5087
  91   2.0000      -0.270877        -7.3709
  92   2.0000      -0.268731        -7.3125
  93   2.0000      -0.260292        -7.0829
  94   2.0000      -0.255713        -6.9583
  95   2.0000      -0.238099        -6.4790
  96   2.0000      -0.220376        -5.9967
  97   2.0000      -0.210632        -5.7316
  98   2.0000      -0.196362        -5.3433
  99   2.0000      -0.188454        -5.1281
 100   2.0000      -0.180285        -4.9058
 101   0.0000      -0.039462        -1.0738
 102   0.0000      -0.030518        -0.8304
 103   0.0000      -0.009190        -0.2501
 104   0.0000       0.015751         0.4286
 105   0.0000       0.018563         0.5051

MULLIKEN ATOMIC CHARGES
-----------------------
   0 C :   -0.308436
   1 C :   -0.004687
   2 O :   -0.381965
   3 P :    0.627090
   4 S :   -0.312246
   5 O :   -0.352984
   6 C :    0.009739
   7 C :   -0.323809
   8 S :   -0.100017
   9 C :   -0.350445
  10 S :   -0.117586
  11 P :    0.591091
  12 S :   -0.293797
  13 O :   -0.349106
  14 C :    0.000818
  15 C :   -0.306629
  16 O :   -0.373484
  17 C :   -0.013821
  18 C :   -0.289373
  19 H :    0.114835
  20 H :    0.121388
  21 H :    0.111477
  22 H :    0.110523
  23 H :    0.101564
  24 H :    0.105469
  25 H :    0.101098
  26 H :    0.139021
  27 H :    0.104990
  28 H :    0.121359
  29 H :    0.181111
  30 H :    0.211751
  31 H :    0.114100
  32 H :    0.105296
  33 H :    0.111612
  34 H :    0.121201
  35 H :    0.115870
  36 H :    0.104549
  37 H :    0.103863
  38 H :    0.105646
  39 H :    0.111936
  40 H :    0.130988
Sum of atomic charges:   -0.0000000

LOEWDIN ATOMIC CHARGES
----------------------
   0 C :   -0.368314
   1 C :   -0.121822
   2 O :   -0.247665
   3 P :    0.572691
   4 S :   -0.302246
   5 O :   -0.231943
   6 C :   -0.108029
   7 C :   -0.370155
   8 S :    0.087449
   9 C :   -0.479003
  10 S :    0.062984
  11 P :    0.560944
  12 S :   -0.294676
  13 O :   -0.226956
  14 C :   -0.113251
  15 C :   -0.367378
  16 O :   -0.244524
  17 C :   -0.116688
  18 C :   -0.363407
  19 H :    0.123480
  20 H :    0.120070
  21 H :    0.130114
  22 H :    0.109195
  23 H :    0.116592
  24 H :    0.120766
  25 H :    0.109112
  26 H :    0.131415
  27 H :    0.126692
  28 H :    0.118758
  29 H :    0.136488
  30 H :    0.127105
  31 H :    0.103151
  32 H :    0.121010
  33 H :    0.130430
  34 H :    0.127676
  35 H :    0.117319
  36 H :    0.106692
  37 H :    0.116968
  38 H :    0.127987
  39 H :    0.125522
  40 H :    0.125445

  Mayer bond orders larger than 0.100000
B(  0-C ,  1-C ) :   1.1673 B(  0-C , 19-H ) :   0.9453 B(  0-C , 20-H ) :   0.9363
B(  0-C , 21-H ) :   0.9386 B(  1-C ,  2-O ) :   0.9111 B(  1-C , 22-H ) :   0.9115
B(  1-C , 23-H ) :   0.9331 B(  2-O ,  3-P ) :   1.0837 B(  3-P ,  4-S ) :   1.6009
B(  3-P ,  5-O ) :   1.1432 B(  3-P ,  8-S ) :   0.9535 B(  4-S ,  8-S ) :   0.1179
B(  5-O ,  6-C ) :   0.9070 B(  6-C ,  7-C ) :   1.1668 B(  6-C , 24-H ) :   0.9321
B(  6-C , 25-H ) :   0.9323 B(  7-C , 26-H ) :   0.9392 B(  7-C , 27-H ) :   0.9359
B(  7-C , 28-H ) :   0.9362 B(  8-S ,  9-C ) :   0.9959 B(  9-C , 10-S ) :   1.0055
B(  9-C , 29-H ) :   0.9109 B(  9-C , 30-H ) :   0.8442 B( 10-S , 11-P ) :   0.9310
B( 10-S , 12-S ) :   0.1076 B( 11-P , 12-S ) :   1.6572 B( 11-P , 13-O ) :   1.1501
B( 11-P , 16-O ) :   1.0855 B( 13-O , 14-C ) :   0.8989 B( 14-C , 15-C ) :   1.1691
B( 14-C , 31-H ) :   0.9107 B( 14-C , 32-H ) :   0.9358 B( 15-C , 33-H ) :   0.9357
B( 15-C , 34-H ) :   0.9425 B( 15-C , 35-H ) :   0.9398 B( 16-O , 17-C ) :   0.9067
B( 17-C , 18-C ) :   1.1686 B( 17-C , 36-H ) :   0.9153 B( 17-C , 37-H ) :   0.9358
B( 18-C , 38-H ) :   0.9389 B( 18-C , 39-H ) :   0.9475 B( 18-C , 40-H ) :   0.9293

Dispersion correction           -0.068311148
FINAL SINGLE POINT ENERGY     -2929.515078772102

DIPOLE MOMENT
-------------

Method             : SCF
Type of density    : Electron Density
Multiplicity       :   1
Irrep              :   0
Energy             : -2929.6325730457242571 Eh
Relativity type    :
Basis              : AO
                                X                 Y                 Z
Electronic contribution:      1.809312839      -3.424213442      -6.510888558
Nuclear contribution   :     -1.821435625       2.671490194       7.615553914
                        -----------------------------------------
Total Dipole Moment    :     -0.012122786      -0.752723248       1.104665356
                        -----------------------------------------
Magnitude (a.u.)       :      1.336796469
Magnitude (Debye)      :      3.397866591

Rotational constants in cm-1:             0.012894             0.005375             0.005002
Rotational constants in MHz :           386.543854           161.147998           149.956336

                             ****ORCA TERMINATED NORMALLY****
TOTAL RUN TIME: 0 days 0 hours 0 minutes 21 seconds 202 msec
