                         Program Version 6.0.0  -   RELEASE  -
|  1> ! pbe def2-sv(p) def2/J RI DEFGRID1 loosescf d4 GCP(DFT/SV(P)) printgap
|  2> %output
|  3>     printlevel normal
|  4> end
|  5> * xyz 0 1
|  6> C -2.6062920707 0.5413875778 -0.0548937274
|  7> C -1.2248902726 -0.0476039658 0.0034813381
|  8> C -1.1355287243 -1.4368920455 0.0126414644
|  9> C 0.0868291537 -2.0771160064 0.0279568651
| 10> C 1.2470034224 -1.3292655621 0.0083560213
| 11> C 1.1754064174 0.0574622546 -0.0070492464
| 12> C -0.0595517611 0.7207924455 0.020593699
| 13> C -0.0822180285 2.2263062291 0.0669435669
| 14> O 2.3690498006 0.7217726191 -0.050980131
| 15> H -3.0612352361 0.2913866315 -1.0124739874
| 16> H -3.2261936132 0.1100322578 0.7289014999
| 17> H -2.6168258178 1.6197276582 0.0488721217
| 18> H -2.0457205006 -2.0182615065 0.0066551291
| 19> H 0.1403444769 -3.1549882932 0.0419649532
| 20> H 2.2211807459 -1.7923593391 -0.0012667878
| 21> H -0.0495133083 2.6481725222 -0.9378207472
| 22> H -0.9822943792 2.5862092844 0.5544230721
| 23> H 0.7604779608 2.6102499683 0.6399957184
| 24> H 2.2282871085 1.6697427615 -0.1898647166
| 25> *
| 26>
| 27>                          ****END OF INPUT****

CARTESIAN COORDINATES (ANGSTROEM)
---------------------------------
  C     -2.606292    0.541388   -0.054894
  C     -1.224890   -0.047604    0.003481
  C     -1.135529   -1.436892    0.012641
  C      0.086829   -2.077116    0.027957
  C      1.247003   -1.329266    0.008356
  C      1.175406    0.057462   -0.007049
  C     -0.059552    0.720792    0.020594
  C     -0.082218    2.226306    0.066944
  O      2.369050    0.721773   -0.050980
  H     -3.061235    0.291387   -1.012474
  H     -3.226194    0.110032    0.728901
  H     -2.616826    1.619728    0.048872
  H     -2.045721   -2.018262    0.006655
  H      0.140344   -3.154988    0.041965
  H      2.221181   -1.792359   -0.001267
  H     -0.049513    2.648173   -0.937821
  H     -0.982294    2.586209    0.554423
  H      0.760478    2.610250    0.639996
  H      2.228287    1.669743   -0.189865

 Total Charge           Charge          ....    0
 Multiplicity           Mult            ....    1
 Number of Electrons    NEL             ....   66
 Basis Dimension        Dim             ....  146

ORBITAL ENERGIES
----------------

  NO   OCC          E(Eh)            E(eV)
   0   2.0000     -18.775381      -510.9041
   1   2.0000      -9.942682      -270.5541
   2   2.0000      -9.898401      -269.3492
   3   2.0000      -9.896748      -269.3042
   4   2.0000      -9.895915      -269.2815
   5   2.0000      -9.883588      -268.9461
   6   2.0000      -9.882780      -268.9241
   7   2.0000      -9.875949      -268.7382
   8   2.0000      -9.875475      -268.7253
   9   2.0000      -0.956070       -26.0160
  10   2.0000      -0.771444       -20.9921
  11   2.0000      -0.701127       -19.0786
  12   2.0000      -0.679791       -18.4980
  13   2.0000      -0.629602       -17.1323
  14   2.0000      -0.603713       -16.4279
  15   2.0000      -0.542903       -14.7731
  16   2.0000      -0.515062       -14.0155
  17   2.0000      -0.482642       -13.1334
  18   2.0000      -0.440914       -11.9979
  19   2.0000      -0.413383       -11.2487
  20   2.0000      -0.396943       -10.8014
  21   2.0000      -0.371532       -10.1099
  22   2.0000      -0.369858       -10.0643
  23   2.0000      -0.359306        -9.7772
  24   2.0000      -0.356682        -9.7058
  25   2.0000      -0.351604        -9.5676
  26   2.0000      -0.342129        -9.3098
  27   2.0000      -0.319395        -8.6912
  28   2.0000      -0.303701        -8.2641
  29   2.0000      -0.286564        -7.7978
  30   2.0000      -0.280101        -7.6219
  31   2.0000      -0.211287        -5.7494
  32   2.0000      -0.186070        -5.0632
  33   0.0000      -0.024886        -0.6772
  34   0.0000      -0.014895        -0.4053
  35   0.0000       0.018688         0.5085
  36   0.0000       0.055063         1.4983
  37   0.0000       0.066610         1.8126

MULLIKEN ATOMIC CHARGES
-----------------------
   0 C :   -0.234616
   1 C :   -0.026572
   2 C :   -0.124800
   3 C :   -0.037302
   4 C :   -0.129493
   5 C :    0.132052
   6 C :   -0.044430
   7 C :   -0.295316
   8 O :   -0.337849
   9 H :    0.117401
  10 H :    0.114404
  11 H :    0.094102
  12 H :    0.026399
  13 H :    0.048130
  14 H :    0.038346
  15 H :    0.123634
  16 H :    0.124057
  17 H :    0.101374
  18 H :    0.310479
Sum of atomic charges:    0.0000000

LOEWDIN ATOMIC CHARGES
----------------------
   0 C :   -0.324793
   1 C :   -0.042767
   2 C :   -0.148262
   3 C :   -0.119301
   4 C :   -0.154787
   5 C :    0.027496
   6 C :   -0.095189
   7 C :   -0.335768
   8 O :   -0.239487
   9 H :    0.135132
  10 H :    0.132047
  11 H :    0.119208
  12 H :    0.117709
  13 H :    0.122872
  14 H :    0.128311
  15 H :    0.131964
  16 H :    0.134286
  17 H :    0.119555
  18 H :    0.291776

  Mayer bond orders larger than 0.100000
B(  0-C ,  1-C ) :   1.1125 B(  0-C ,  9-H ) :   0.9332 B(  0-C , 10-H ) :   0.9371
B(  0-C , 11-H ) :   0.9316 B(  1-C ,  2-C ) :   1.3735 B(  1-C ,  6-C ) :   1.4394
B(  2-C ,  3-C ) :   1.3557 B(  2-C , 12-H ) :   0.9682 B(  3-C ,  4-C ) :   1.3449
B(  3-C , 13-H ) :   0.9674 B(  4-C ,  5-C ) :   1.3814 B(  4-C , 14-H ) :   0.9632
B(  5-C ,  6-C ) :   1.2982 B(  5-C ,  8-O ) :   1.2111 B(  6-C ,  7-C ) :   1.1015
B(  7-C , 15-H ) :   0.9312 B(  7-C , 16-H ) :   0.9196 B(  7-C , 17-H ) :   0.9246
B(  8-O , 18-H ) :   0.8288

Dispersion correction           -0.019467647
FINAL SINGLE POINT ENERGY      -385.235673050178

DIPOLE MOMENT
-------------

Method             : SCF
Type of density    : Electron Density
Multiplicity       :   1
Irrep              :   0
Energy             :  -385.2949125846895413 Eh
Relativity type    :
Basis              : AO
                                X                 Y                 Z
Electronic contribution:      5.825316497      -3.613846914       0.014405258
Nuclear contribution   :     -6.186349451       4.298045178      -0.113911572
                        -----------------------------------------
Total Dipole Moment    :     -0.361032954       0.684198264      -0.099506314
                        -----------------------------------------
Magnitude (a.u.)       :      0.779983054
Magnitude (Debye)      :      1.982559368

Rotational constants in cm-1:             0.075844             0.058819             0.033572
Rotational constants in MHz :          2273.735025          1763.348575          1006.462115

                             ****ORCA TERMINATED NORMALLY****
TOTAL RUN TIME: 0 days 0 hours 0 minutes 7 seconds 718 msec
