                         Program Version 6.0.0  -   RELEASE  -
|  1> ! pbe def2-sv(p) def2/J RI DEFGRID1 loosescf d4 GCP(DFT/SV(P)) printgap
|  2> %output
|  3>     printlevel normal
|  4> end
|  5> * xyz 0 1
|  6> C 5.6245896 -1.2713546423 -0.0191233863
|  7> C 4.8539113777 -0.959201022 -1.2850210424
|  8> O 3.4342911407 -1.1586695337 -1.1224135465
|  9> P 2.5529453559 -0.2423156383 -0.1782145286
| 10> S 3.0345764459 1.661376852 -0.1381166225
| 11> O 2.6695417861 -1.0044293826 1.2130301069
| 12> C 2.3348010593 -0.3936200074 2.470488345
| 13> C 0.8565477721 -0.082003883 2.5817868803
| 14> S 0.6623263394 -0.783082365 -0.9710372922
| 15> C 0.0720979246 0.8569881016 -1.4801328392
| 16> S -0.9467181561 1.6792234855 -0.2289036133
| 17> P -2.5840594226 0.3470842591 -0.37432711
| 18> S -3.0781794059 -0.2554061821 -2.1670888404
| 19> O -3.7762740877 1.1227620419 0.3186395141
| 20> C -3.6587521906 2.0104974223 1.4561097656
| 21> C -3.2148138485 1.2872526761 2.7099855108
| 22> O -2.1196646265 -0.8182924298 0.6179265431
| 23> C -2.439457583 -2.1989082048 0.3872937608
| 24> C -3.8711782214 -2.494550217 0.7859205748
| 25> H 5.384267546 -0.541696901 0.7527695784
| 26> H 5.3669056989 -2.2636911151 0.3414846398
| 27> H 6.6891317218 -1.2264438039 -0.2270857438
| 28> H 5.1187587708 -1.6370326868 -2.0975962638
| 29> H 5.0232248862 0.0770822425 -1.5948571726
| 30> H 2.6492908619 -1.130948899 3.2104786304
| 31> H 2.9253161866 0.5216616763 2.57941018
| 32> H 0.5912455929 0.7092743102 1.8808529139
| 33> H 0.2630852825 -0.9651820275 2.3566038342
| 34> H 0.6341903815 0.2554118933 3.5892612415
| 35> H -0.5247130292 0.7139083852 -2.3804705876
| 36> H 0.9231315088 1.5134658238 -1.661318671
| 37> H -2.9582002771 2.8089165541 1.1971717739
| 38> H -4.6649238695 2.4200556151 1.5590112384
| 39> H -3.2036795147 1.989513764 3.5375814787
| 40> H -3.8994358916 0.4748265317 2.9385874455
| 41> H -2.2148610938 0.8815731461 2.5741720464
| 42> H -2.2748257553 -2.4286585388 -0.6703088219
| 43> H -1.7227202441 -2.7521269282 0.9956552382
| 44> H -4.548012352 -1.8910464801 0.1813353245
| 45> H -4.0858942519 -3.5447686368 0.6162469354
| 46> H -4.0287148185 -2.2580667476 1.8346648135
| 47> *
| 48>
| 49>                          ****END OF INPUT****

CARTESIAN COORDINATES (ANGSTROEM)
---------------------------------
  C      5.624590   -1.271355   -0.019123
  C      4.853911   -0.959201   -1.285021
  O      3.434291   -1.158670   -1.122414
  P      2.552945   -0.242316   -0.178215
  S      3.034576    1.661377   -0.138117
  O      2.669542   -1.004429    1.213030
  C      2.334801   -0.393620    2.470488
  C      0.856548   -0.082004    2.581787
  S      0.662326   -0.783082   -0.971037
  C      0.072098    0.856988   -1.480133
  S     -0.946718    1.679223   -0.228904
  P     -2.584059    0.347084   -0.374327
  S     -3.078179   -0.255406   -2.167089
  O     -3.776274    1.122762    0.318640
  C     -3.658752    2.010497    1.456110
  C     -3.214814    1.287253    2.709986
  O     -2.119665   -0.818292    0.617927
  C     -2.439458   -2.198908    0.387294
  C     -3.871178   -2.494550    0.785921
  H      5.384268   -0.541697    0.752770
  H      5.366906   -2.263691    0.341485
  H      6.689132   -1.226444   -0.227086
  H      5.118759   -1.637033   -2.097596
  H      5.023225    0.077082   -1.594857
  H      2.649291   -1.130949    3.210479
  H      2.925316    0.521662    2.579410
  H      0.591246    0.709274    1.880853
  H      0.263085   -0.965182    2.356604
  H      0.634190    0.255412    3.589261
  H     -0.524713    0.713908   -2.380471
  H      0.923132    1.513466   -1.661319
  H     -2.958200    2.808917    1.197172
  H     -4.664924    2.420056    1.559011
  H     -3.203680    1.989514    3.537581
  H     -3.899436    0.474827    2.938587
  H     -2.214861    0.881573    2.574172
  H     -2.274826   -2.428659   -0.670309
  H     -1.722720   -2.752127    0.995655
  H     -4.548012   -1.891046    0.181335
  H     -4.085894   -3.544769    0.616247
  H     -4.028715   -2.258067    1.834665

 Total Charge           Charge          ....    0
 Multiplicity           Mult            ....    1
 Number of Electrons    NEL             ....  202
 Basis Dimension        Dim             ....  334

ORBITAL ENERGIES
----------------

  NO   OCC          E(Eh)            E(eV)
   0   2.0000     -88.043891     -2395.7961
   1   2.0000     -88.041253     -2395.7243
   2   2.0000     -87.995542     -2394.4804
   3   2.0000     -87.986159     -2394.2251
   4   2.0000     -76.428723     -2079.7313
   5   2.0000     -76.426685     -2079.6758
   6   2.0000     -18.796472      -511.4780
   7   2.0000     -18.793930      -511.4088
   8   2.0000     -18.790619      -511.3187
   9   2.0000     -18.790183      -511.3069
  10   2.0000      -9.963409      -271.1181
  11   2.0000      -9.953897      -270.8593
  12   2.0000      -9.953700      -270.8539
  13   2.0000      -9.953389      -270.8455
  14   2.0000      -9.948723      -270.7185
  15   2.0000      -9.893191      -269.2074
  16   2.0000      -9.885980      -269.0112
  17   2.0000      -9.883812      -268.9522
  18   2.0000      -9.881189      -268.8808
  19   2.0000      -7.688713      -209.2205
  20   2.0000      -7.686424      -209.1582
  21   2.0000      -7.640335      -207.9041
  22   2.0000      -7.631369      -207.6601
  23   2.0000      -6.426492      -174.8737
  24   2.0000      -6.424495      -174.8194
  25   2.0000      -5.716399      -155.5511
  26   2.0000      -5.714340      -155.4951
  27   2.0000      -5.713329      -155.4676
  28   2.0000      -5.711083      -155.4065
  29   2.0000      -5.705769      -155.2619
  30   2.0000      -5.703147      -155.1905
  31   2.0000      -5.669068      -154.2632
  32   2.0000      -5.661115      -154.0468
  33   2.0000      -5.660565      -154.0318
  34   2.0000      -5.660422      -154.0279
  35   2.0000      -5.652137      -153.8025
  36   2.0000      -5.651194      -153.7768
  37   2.0000      -4.648761      -126.4992
  38   2.0000      -4.648154      -126.4827
  39   2.0000      -4.647297      -126.4594
  40   2.0000      -4.647293      -126.4593
  41   2.0000      -4.646034      -126.4250
  42   2.0000      -4.644953      -126.3956
  43   2.0000      -0.987977       -26.8842
  44   2.0000      -0.985919       -26.8282
  45   2.0000      -0.947574       -25.7848
  46   2.0000      -0.946733       -25.7619
  47   2.0000      -0.764039       -20.7906
  48   2.0000      -0.724104       -19.7039
  49   2.0000      -0.711546       -19.3622
  50   2.0000      -0.693013       -18.8578
  51   2.0000      -0.687890       -18.7184
  52   2.0000      -0.674993       -18.3675
  53   2.0000      -0.654027       -17.7970
  54   2.0000      -0.641280       -17.4501
  55   2.0000      -0.605196       -16.4682
  56   2.0000      -0.596212       -16.2238
  57   2.0000      -0.578003       -15.7283
  58   2.0000      -0.573824       -15.6146
  59   2.0000      -0.560790       -15.2599
  60   2.0000      -0.499235       -13.5849
  61   2.0000      -0.492928       -13.4133
  62   2.0000      -0.480085       -13.0638
  63   2.0000      -0.473620       -12.8878
  64   2.0000      -0.459714       -12.5094
  65   2.0000      -0.449691       -12.2367
  66   2.0000      -0.441219       -12.0062
  67   2.0000      -0.436955       -11.8902
  68   2.0000      -0.431397       -11.7389
  69   2.0000      -0.413802       -11.2601
  70   2.0000      -0.412627       -11.2281
  71   2.0000      -0.397645       -10.8205
  72   2.0000      -0.395206       -10.7541
  73   2.0000      -0.388417       -10.5694
  74   2.0000      -0.386489       -10.5169
  75   2.0000      -0.378721       -10.3055
  76   2.0000      -0.371257       -10.1024
  77   2.0000      -0.357801        -9.7362
  78   2.0000      -0.353548        -9.6205
  79   2.0000      -0.350670        -9.5422
  80   2.0000      -0.350141        -9.5278
  81   2.0000      -0.348741        -9.4897
  82   2.0000      -0.345141        -9.3918
  83   2.0000      -0.341262        -9.2862
  84   2.0000      -0.338071        -9.1994
  85   2.0000      -0.319593        -8.6966
  86   2.0000      -0.312433        -8.5017
  87   2.0000      -0.308046        -8.3824
  88   2.0000      -0.297669        -8.1000
  89   2.0000      -0.286959        -7.8086
  90   2.0000      -0.281513        -7.6604
  91   2.0000      -0.276883        -7.5344
  92   2.0000      -0.274739        -7.4760
  93   2.0000      -0.270284        -7.3548
  94   2.0000      -0.259044        -7.0489
  95   2.0000      -0.228159        -6.2085
  96   2.0000      -0.220485        -5.9997
  97   2.0000      -0.216010        -5.8779
  98   2.0000      -0.209272        -5.6946
  99   2.0000      -0.205776        -5.5995
 100   2.0000      -0.200140        -5.4461
 101   0.0000      -0.045905        -1.2491
 102   0.0000      -0.028269        -0.7692
 103   0.0000      -0.010028        -0.2729
 104   0.0000       0.005860         0.1595
 105   0.0000       0.012554         0.3416

MULLIKEN ATOMIC CHARGES
-----------------------
   0 C :   -0.309215
   1 C :   -0.002054
   2 O :   -0.366342
   3 P :    0.614244
   4 S :   -0.335338
   5 O :   -0.372479
   6 C :    0.015418
   7 C :   -0.362834
   8 S :   -0.070196
   9 C :   -0.352813
  10 S :   -0.102787
  11 P :    0.615804
  12 S :   -0.312161
  13 O :   -0.368246
  14 C :   -0.025108
  15 C :   -0.330067
  16 O :   -0.377103
  17 C :   -0.011668
  18 C :   -0.306025
  19 H :    0.122585
  20 H :    0.118867
  21 H :    0.112597
  22 H :    0.108110
  23 H :    0.111709
  24 H :    0.102403
  25 H :    0.107849
  26 H :    0.149415
  27 H :    0.127718
  28 H :    0.108968
  29 H :    0.197244
  30 H :    0.192688
  31 H :    0.124934
  32 H :    0.116814
  33 H :    0.114654
  34 H :    0.122419
  35 H :    0.149986
  36 H :    0.114763
  37 H :    0.104237
  38 H :    0.126143
  39 H :    0.112185
  40 H :    0.112682
Sum of atomic charges:   -0.0000000

LOEWDIN ATOMIC CHARGES
----------------------
   0 C :   -0.364839
   1 C :   -0.114984
   2 O :   -0.244023
   3 P :    0.573259
   4 S :   -0.317025
   5 O :   -0.243833
   6 C :   -0.116854
   7 C :   -0.377423
   8 S :    0.098238
   9 C :   -0.480879
  10 S :    0.091849
  11 P :    0.570417
  12 S :   -0.306259
  13 O :   -0.241713
  14 C :   -0.114337
  15 C :   -0.367809
  16 O :   -0.246883
  17 C :   -0.125013
  18 C :   -0.363203
  19 H :    0.122586
  20 H :    0.127398
  21 H :    0.130606
  22 H :    0.120529
  23 H :    0.111429
  24 H :    0.117789
  25 H :    0.109691
  26 H :    0.113375
  27 H :    0.125476
  28 H :    0.128428
  29 H :    0.131337
  30 H :    0.128770
  31 H :    0.110400
  32 H :    0.125213
  33 H :    0.132154
  34 H :    0.127567
  35 H :    0.127717
  36 H :    0.107939
  37 H :    0.115362
  38 H :    0.125251
  39 H :    0.130719
  40 H :    0.121576

  Mayer bond orders larger than 0.100000
B(  0-C ,  1-C ) :   1.1626 B(  0-C , 19-H ) :   0.9386 B(  0-C , 20-H ) :   0.9458
B(  0-C , 21-H ) :   0.9382 B(  1-C ,  2-O ) :   0.9113 B(  1-C , 22-H ) :   0.9354
B(  1-C , 23-H ) :   0.9192 B(  2-O ,  3-P ) :   1.1365 B(  3-P ,  4-S ) :   1.5847
B(  3-P ,  5-O ) :   1.1059 B(  3-P ,  8-S ) :   0.9608 B(  4-S ,  8-S ) :   0.1139
B(  5-O ,  6-C ) :   0.9097 B(  6-C ,  7-C ) :   1.1610 B(  6-C , 24-H ) :   0.9326
B(  6-C , 25-H ) :   0.9174 B(  7-C , 26-H ) :   0.9191 B(  7-C , 27-H ) :   0.9404
B(  7-C , 28-H ) :   0.9360 B(  8-S ,  9-C ) :   1.0147 B(  9-C , 10-S ) :   1.0081
B(  9-C , 29-H ) :   0.8750 B(  9-C , 30-H ) :   0.8687 B( 10-S , 11-P ) :   0.9579
B( 11-P , 12-S ) :   1.6275 B( 11-P , 13-O ) :   1.1302 B( 11-P , 16-O ) :   1.0744
B( 13-O , 14-C ) :   0.9059 B( 14-C , 15-C ) :   1.1630 B( 14-C , 31-H ) :   0.9180
B( 14-C , 32-H ) :   0.9344 B( 15-C , 33-H ) :   0.9356 B( 15-C , 34-H ) :   0.9427
B( 15-C , 35-H ) :   0.9316 B( 16-O , 17-C ) :   0.9044 B( 17-C , 18-C ) :   1.1635
B( 17-C , 36-H ) :   0.9083 B( 17-C , 37-H ) :   0.9302 B( 18-C , 38-H ) :   0.9374
B( 18-C , 39-H ) :   0.9405 B( 18-C , 40-H ) :   0.9454

Dispersion correction           -0.065497513
FINAL SINGLE POINT ENERGY     -2929.520854249456

DIPOLE MOMENT
-------------

Method             : SCF
Type of density    : Electron Density
Multiplicity       :   1
Irrep              :   0
Energy             : -2929.6410882447735275 Eh
Relativity type    :
Basis              : AO
                                X                 Y                 Z
Electronic contribution:     -0.994067220       7.491056284     -19.145510704
Nuclear contribution   :      1.393750080      -7.950185680      20.793875775
                        -----------------------------------------
Total Dipole Moment    :      0.399682860      -0.459129396       1.648365071
                        -----------------------------------------
Magnitude (a.u.)       :      1.757172046
Magnitude (Debye)      :      4.466376391

Rotational constants in cm-1:             0.013791             0.004445             0.004306
Rotational constants in MHz :           413.435775           133.264778           129.080468

                             ****ORCA TERMINATED NORMALLY****
TOTAL RUN TIME: 0 days 0 hours 0 minutes 21 seconds 116 msec
