                         Program Version 6.0.0  -   RELEASE  -
|  1> ! pbe def2-sv(p) def2/J RI DEFGRID1 loosescf d4 GCP(DFT/SV(P)) printgap
|  2> %output
|  3>     printlevel normal
|  4> end
|  5> * xyz 0 1
|  6> C 5.1424692492 1.3490127353 -0.4387860992
|  7> C 4.8031852508 -0.1224939222 -0.5653751719
|  8> O 3.567187052 -0.4406372056 0.1007453634
|  9> P 2.1476498381 -0.0313606106 -0.5137477366
| 10> S 2.0840991249 0.0787511082 -2.4594851572
| 11> O 1.7456517843 1.3342640479 0.1881478355
| 12> C 1.7559912824 1.495450091 1.6270803472
| 13> C 2.2079252188 2.9059858425 1.9444898752
| 14> S 1.0635993381 -1.5745005176 0.4476484963
| 15> C -0.0607004667 -2.0699802289 -0.9027730586
| 16> S -1.7878347331 -2.0932428853 -0.384162544
| 17> P -1.9749702553 -0.0201670604 0.0741359957
| 18> S -1.1485884533 1.2047208771 -1.2101397228
| 19> O -1.4192253866 0.1767968974 1.5340958456
| 20> C -1.8982831837 -0.5872596155 2.6747316137
| 21> C -2.9150895582 0.2141545017 3.4597938278
| 22> O -3.5406446105 0.1382051622 0.2695454936
| 23> C -4.4435132771 0.0725834329 -0.8546694752
| 24> C -5.7853831773 0.6115660949 -0.4025687753
| 25> H 6.0879401051 1.5448732977 -0.9347095642
| 26> H 4.3635672107 1.9463457539 -0.9135641375
| 27> H 5.2202260927 1.631266027 0.6081791425
| 28> H 5.5410434669 -0.7552787557 -0.070355796
| 29> H 4.7129622937 -0.4073667233 -1.6182562299
| 30> H 0.7337720458 1.3205737227 1.9723883482
| 31> H 2.423284328 0.7463012801 2.0637693235
| 32> H 2.1646139093 3.0595549339 3.0179552618
| 33> H 3.2246041695 3.0674962654 1.5968621667
| 34> H 1.5537170746 3.6189765165 1.4501466702
| 35> H 0.1822904833 -3.0874380096 -1.1983528643
| 36> H 0.0699190587 -1.3749810337 -1.737101115
| 37> H -2.3239336697 -1.5277683222 2.3153385302
| 38> H -1.0015345146 -0.7922765742 3.2625623854
| 39> H -3.787845312 0.4169917274 2.8451208649
| 40> H -3.2151994634 -0.3559158129 4.3333641411
| 41> H -2.483997069 1.1590989159 3.7785047624
| 42> H -4.0238286348 0.6675398119 -1.672350858
| 43> H -4.5162171709 -0.9710701981 -1.1716531233
| 44> H -6.1677283827 0.0147735418 0.4202631779
| 45> H -5.6829448702 1.6424927407 -0.0756309541
| 46> H -6.48318386 0.5675935274 -1.2321910849
| 47> *
| 48>
| 49>                          ****END OF INPUT****

CARTESIAN COORDINATES (ANGSTROEM)
---------------------------------
  C      5.142469    1.349013   -0.438786
  C      4.803185   -0.122494   -0.565375
  O      3.567187   -0.440637    0.100745
  P      2.147650   -0.031361   -0.513748
  S      2.084099    0.078751   -2.459485
  O      1.745652    1.334264    0.188148
  C      1.755991    1.495450    1.627080
  C      2.207925    2.905986    1.944490
  S      1.063599   -1.574501    0.447648
  C     -0.060700   -2.069980   -0.902773
  S     -1.787835   -2.093243   -0.384163
  P     -1.974970   -0.020167    0.074136
  S     -1.148588    1.204721   -1.210140
  O     -1.419225    0.176797    1.534096
  C     -1.898283   -0.587260    2.674732
  C     -2.915090    0.214155    3.459794
  O     -3.540645    0.138205    0.269545
  C     -4.443513    0.072583   -0.854669
  C     -5.785383    0.611566   -0.402569
  H      6.087940    1.544873   -0.934710
  H      4.363567    1.946346   -0.913564
  H      5.220226    1.631266    0.608179
  H      5.541043   -0.755279   -0.070356
  H      4.712962   -0.407367   -1.618256
  H      0.733772    1.320574    1.972388
  H      2.423284    0.746301    2.063769
  H      2.164614    3.059555    3.017955
  H      3.224604    3.067496    1.596862
  H      1.553717    3.618977    1.450147
  H      0.182290   -3.087438   -1.198353
  H      0.069919   -1.374981   -1.737101
  H     -2.323934   -1.527768    2.315339
  H     -1.001535   -0.792277    3.262562
  H     -3.787845    0.416992    2.845121
  H     -3.215199   -0.355916    4.333364
  H     -2.483997    1.159099    3.778505
  H     -4.023829    0.667540   -1.672351
  H     -4.516217   -0.971070   -1.171653
  H     -6.167728    0.014774    0.420263
  H     -5.682945    1.642493   -0.075631
  H     -6.483184    0.567594   -1.232191

 Total Charge           Charge          ....    0
 Multiplicity           Mult            ....    1
 Number of Electrons    NEL             ....  202
 Basis Dimension        Dim             ....  334

ORBITAL ENERGIES
----------------

  NO   OCC          E(Eh)            E(eV)
   0   2.0000     -88.041612     -2395.7340
   1   2.0000     -88.035039     -2395.5552
   2   2.0000     -87.980120     -2394.0608
   3   2.0000     -87.978294     -2394.0111
   4   2.0000     -76.423254     -2079.5825
   5   2.0000     -76.417723     -2079.4319
   6   2.0000     -18.795454      -511.4503
   7   2.0000     -18.794110      -511.4137
   8   2.0000     -18.783431      -511.1231
   9   2.0000     -18.781382      -511.0674
  10   2.0000      -9.957636      -270.9610
  11   2.0000      -9.955429      -270.9010
  12   2.0000      -9.951339      -270.7897
  13   2.0000      -9.947062      -270.6733
  14   2.0000      -9.946314      -270.6530
  15   2.0000      -9.891241      -269.1544
  16   2.0000      -9.889401      -269.1043
  17   2.0000      -9.884018      -268.9578
  18   2.0000      -9.882492      -268.9163
  19   2.0000      -7.686816      -209.1689
  20   2.0000      -7.680222      -208.9895
  21   2.0000      -7.625446      -207.4989
  22   2.0000      -7.623274      -207.4398
  23   2.0000      -6.420862      -174.7205
  24   2.0000      -6.415669      -174.5792
  25   2.0000      -5.714578      -155.5016
  26   2.0000      -5.711161      -155.4086
  27   2.0000      -5.708116      -155.3257
  28   2.0000      -5.704968      -155.2401
  29   2.0000      -5.704094      -155.2163
  30   2.0000      -5.696871      -155.0197
  31   2.0000      -5.654514      -153.8671
  32   2.0000      -5.652348      -153.8082
  33   2.0000      -5.646305      -153.6438
  34   2.0000      -5.645127      -153.6117
  35   2.0000      -5.643793      -153.5754
  36   2.0000      -5.643392      -153.5645
  37   2.0000      -4.643761      -126.3632
  38   2.0000      -4.642760      -126.3359
  39   2.0000      -4.640819      -126.2831
  40   2.0000      -4.638461      -126.2189
  41   2.0000      -4.637060      -126.1808
  42   2.0000      -4.636293      -126.1599
  43   2.0000      -0.990798       -26.9610
  44   2.0000      -0.976458       -26.5708
  45   2.0000      -0.947863       -25.7927
  46   2.0000      -0.934874       -25.4392
  47   2.0000      -0.759141       -20.6573
  48   2.0000      -0.720394       -19.6029
  49   2.0000      -0.709141       -19.2967
  50   2.0000      -0.695192       -18.9171
  51   2.0000      -0.686545       -18.6818
  52   2.0000      -0.670004       -18.2317
  53   2.0000      -0.646246       -17.5853
  54   2.0000      -0.632003       -17.1977
  55   2.0000      -0.591176       -16.0867
  56   2.0000      -0.586780       -15.9671
  57   2.0000      -0.571773       -15.5587
  58   2.0000      -0.565608       -15.3910
  59   2.0000      -0.560566       -15.2538
  60   2.0000      -0.510563       -13.8931
  61   2.0000      -0.496452       -13.5092
  62   2.0000      -0.483975       -13.1696
  63   2.0000      -0.473072       -12.8729
  64   2.0000      -0.448309       -12.1991
  65   2.0000      -0.445181       -12.1140
  66   2.0000      -0.442257       -12.0344
  67   2.0000      -0.433897       -11.8069
  68   2.0000      -0.431808       -11.7501
  69   2.0000      -0.411555       -11.1990
  70   2.0000      -0.398536       -10.8447
  71   2.0000      -0.392736       -10.6869
  72   2.0000      -0.392011       -10.6672
  73   2.0000      -0.386785       -10.5250
  74   2.0000      -0.382785       -10.4161
  75   2.0000      -0.366866        -9.9829
  76   2.0000      -0.362585        -9.8664
  77   2.0000      -0.357988        -9.7414
  78   2.0000      -0.354893        -9.6571
  79   2.0000      -0.353326        -9.6145
  80   2.0000      -0.348176        -9.4744
  81   2.0000      -0.345285        -9.3957
  82   2.0000      -0.338698        -9.2164
  83   2.0000      -0.336375        -9.1532
  84   2.0000      -0.332186        -9.0393
  85   2.0000      -0.318599        -8.6695
  86   2.0000      -0.311402        -8.4737
  87   2.0000      -0.303695        -8.2640
  88   2.0000      -0.301566        -8.2060
  89   2.0000      -0.294879        -8.0241
  90   2.0000      -0.277309        -7.5460
  91   2.0000      -0.274674        -7.4743
  92   2.0000      -0.263372        -7.1667
  93   2.0000      -0.260017        -7.0754
  94   2.0000      -0.258992        -7.0475
  95   2.0000      -0.232935        -6.3385
  96   2.0000      -0.212851        -5.7920
  97   2.0000      -0.211549        -5.7565
  98   2.0000      -0.198160        -5.3922
  99   2.0000      -0.190407        -5.1812
 100   2.0000      -0.183665        -4.9978
 101   0.0000      -0.039384        -1.0717
 102   0.0000      -0.030056        -0.8179
 103   0.0000      -0.003694        -0.1005
 104   0.0000       0.013745         0.3740
 105   0.0000       0.023107         0.6288

MULLIKEN ATOMIC CHARGES
-----------------------
   0 C :   -0.320455
   1 C :   -0.006529
   2 O :   -0.392325
   3 P :    0.624329
   4 S :   -0.296574
   5 O :   -0.356179
   6 C :   -0.040816
   7 C :   -0.286350
   8 S :   -0.112228
   9 C :   -0.348962
  10 S :   -0.115484
  11 P :    0.580400
  12 S :   -0.277999
  13 O :   -0.349749
  14 C :   -0.007589
  15 C :   -0.289007
  16 O :   -0.383256
  17 C :   -0.011790
  18 C :   -0.283643
  19 H :    0.111846
  20 H :    0.134984
  21 H :    0.117154
  22 H :    0.102434
  23 H :    0.112147
  24 H :    0.128975
  25 H :    0.098977
  26 H :    0.105455
  27 H :    0.115328
  28 H :    0.127461
  29 H :    0.181830
  30 H :    0.209166
  31 H :    0.103214
  32 H :    0.107770
  33 H :    0.123367
  34 H :    0.110269
  35 H :    0.116321
  36 H :    0.108653
  37 H :    0.105705
  38 H :    0.115407
  39 H :    0.122932
  40 H :    0.114813
Sum of atomic charges:   -0.0000000

LOEWDIN ATOMIC CHARGES
----------------------
   0 C :   -0.365866
   1 C :   -0.119292
   2 O :   -0.262038
   3 P :    0.573823
   4 S :   -0.290807
   5 O :   -0.236002
   6 C :   -0.124734
   7 C :   -0.350779
   8 S :    0.065171
   9 C :   -0.476542
  10 S :    0.058127
  11 P :    0.555811
  12 S :   -0.286976
  13 O :   -0.229814
  14 C :   -0.115899
  15 C :   -0.359032
  16 O :   -0.250602
  17 C :   -0.119823
  18 C :   -0.350824
  19 H :    0.130732
  20 H :    0.127409
  21 H :    0.121352
  22 H :    0.117042
  23 H :    0.109503
  24 H :    0.116683
  25 H :    0.103196
  26 H :    0.127818
  27 H :    0.123486
  28 H :    0.133094
  29 H :    0.136065
  30 H :    0.125667
  31 H :    0.104437
  32 H :    0.117558
  33 H :    0.126737
  34 H :    0.129804
  35 H :    0.126991
  36 H :    0.111757
  37 H :    0.109301
  38 H :    0.125358
  39 H :    0.129799
  40 H :    0.132312

  Mayer bond orders larger than 0.100000
B(  0-C ,  1-C ) :   1.1604 B(  0-C , 19-H ) :   0.9378 B(  0-C , 20-H ) :   0.9355
B(  0-C , 21-H ) :   0.9413 B(  1-C ,  2-O ) :   0.9157 B(  1-C , 22-H ) :   0.9347
B(  1-C , 23-H ) :   0.9118 B(  2-O ,  3-P ) :   1.0654 B(  3-P ,  4-S ) :   1.6356
B(  3-P ,  5-O ) :   1.1177 B(  3-P ,  8-S ) :   0.9473 B(  4-S ,  8-S ) :   0.1094
B(  5-O ,  6-C ) :   0.8991 B(  6-C ,  7-C ) :   1.1656 B(  6-C , 24-H ) :   0.9117
B(  6-C , 25-H ) :   0.9150 B(  7-C , 26-H ) :   0.9409 B(  7-C , 27-H ) :   0.9466
B(  7-C , 28-H ) :   0.9474 B(  8-S ,  9-C ) :   1.0029 B(  9-C , 10-S ) :   0.9990
B(  9-C , 29-H ) :   0.9116 B(  9-C , 30-H ) :   0.8489 B( 10-S , 11-P ) :   0.9414
B( 10-S , 12-S ) :   0.1091 B( 11-P , 12-S ) :   1.6894 B( 11-P , 13-O ) :   1.1192
B( 11-P , 16-O ) :   1.0759 B( 13-O , 14-C ) :   0.8797 B( 14-C , 15-C ) :   1.1663
B( 14-C , 31-H ) :   0.9108 B( 14-C , 32-H ) :   0.9331 B( 15-C , 33-H ) :   0.9409
B( 15-C , 34-H ) :   0.9400 B( 15-C , 35-H ) :   0.9481 B( 16-O , 17-C ) :   0.9028
B( 17-C , 18-C ) :   1.1596 B( 17-C , 36-H ) :   0.9100 B( 17-C , 37-H ) :   0.9281
B( 18-C , 38-H ) :   0.9507 B( 18-C , 39-H ) :   0.9508 B( 18-C , 40-H ) :   0.9417

Dispersion correction           -0.065426113
FINAL SINGLE POINT ENERGY     -2929.517323650242

DIPOLE MOMENT
-------------

Method             : SCF
Type of density    : Electron Density
Multiplicity       :   1
Irrep              :   0
Energy             : -2929.6371862337950915 Eh
Relativity type    :
Basis              : AO
                                X                 Y                 Z
Electronic contribution:      2.872150880     -11.850662841     -14.907785380
Nuclear contribution   :     -3.352911419      11.514654615      16.514892656
                        -----------------------------------------
Total Dipole Moment    :     -0.480760540      -0.336008226       1.607107276
                        -----------------------------------------
Magnitude (a.u.)       :      1.710796896
Magnitude (Debye)      :      4.348500130

Rotational constants in cm-1:             0.013423             0.004900             0.004561
Rotational constants in MHz :           402.420592           146.885303           136.726312

                             ****ORCA TERMINATED NORMALLY****
TOTAL RUN TIME: 0 days 0 hours 0 minutes 21 seconds 12 msec
