                         Program Version 6.0.0  -   RELEASE  -
|  1> ! pbe def2-sv(p) def2/J RI DEFGRID1 loosescf d4 GCP(DFT/SV(P)) printgap
|  2> %output
|  3>     printlevel normal
|  4> end
|  5> * xyz 0 1
|  6> C 0.1107024999 -1.7713081265 2.8569401134
|  7> C 1.4225883772 -1.7020896352 2.103128393
|  8> O 1.582198384 -0.3705173592 1.5673379727
|  9> P 2.3686543343 -0.0308125462 0.2355811553
| 10> S 3.1838996322 -1.5873484905 -0.6431525758
| 11> O 3.3295554263 1.0763547086 0.8364221001
| 12> C 3.9973564379 2.1044276392 0.0810000781
| 13> C 4.8236346814 1.551184432 -1.0618242721
| 14> S 1.0409172569 1.1136092959 -0.9668430667
| 15> C 0.3458735351 -0.2818027548 -1.8867290172
| 16> S -0.5832401648 -1.419153474 -0.826822362
| 17> P -2.0507721902 -0.0151636905 -0.2137106513
| 18> S -2.6577649283 1.223902324 -1.6116721575
| 19> O -1.3910395377 0.6436155862 1.0620772915
| 20> C -1.6048916687 2.0209887111 1.4213359534
| 21> C -2.9833830235 2.2165029244 2.0158342462
| 22> O -3.1375792244 -0.9414526403 0.4797023513
| 23> C -3.9807763196 -1.8499283733 -0.2571259052
| 24> C -5.2709163368 -1.1764705577 -0.6834822403
| 25> H 0.0086914252 -2.7590983183 3.294256779
| 26> H 0.0952208472 -1.0227034329 3.6435511046
| 27> H -0.7253353767 -1.5899273616 2.1858783155
| 28> H 1.4536472507 -2.4268193855 1.2825702562
| 29> H 2.269298347 -1.8857178104 2.7690437249
| 30> H 3.2418831171 2.8033085065 -0.289360858
| 31> H 4.6252701291 2.5990310283 0.8242998183
| 32> H 4.1763727675 1.0872805943 -1.8048410495
| 33> H 5.376917421 2.35879535 -1.5302080029
| 34> H 5.5209272753 0.8009030623 -0.6964895693
| 35> H 1.1510139038 -0.8636048227 -2.3354201577
| 36> H -0.315593729 0.1413691707 -2.6423020268
| 37> H -0.8117335357 2.2344209764 2.1393678363
| 38> H -1.4721342361 2.6430638057 0.5296403124
| 39> H -3.7389548556 1.9901114623 1.2641699508
| 40> H -3.1241897245 1.5541854229 2.8655976984
| 41> H -3.0981553558 3.2476348507 2.3345460197
| 42> H -3.4303038986 -2.2315908944 -1.12201697
| 43> H -4.1719127094 -2.6673663104 0.4406300012
| 44> H -5.9039198088 -1.9021524199 -1.1838605037
| 45> H -5.7920955939 -0.7837051811 0.1851068019
| 46> H -5.0627265106 -0.3570345351 -1.367864526
| 47> *
| 48>
| 49>                          ****END OF INPUT****

CARTESIAN COORDINATES (ANGSTROEM)
---------------------------------
  C      0.110702   -1.771308    2.856940
  C      1.422588   -1.702090    2.103128
  O      1.582198   -0.370517    1.567338
  P      2.368654   -0.030813    0.235581
  S      3.183900   -1.587348   -0.643153
  O      3.329555    1.076355    0.836422
  C      3.997356    2.104428    0.081000
  C      4.823635    1.551184   -1.061824
  S      1.040917    1.113609   -0.966843
  C      0.345874   -0.281803   -1.886729
  S     -0.583240   -1.419153   -0.826822
  P     -2.050772   -0.015164   -0.213711
  S     -2.657765    1.223902   -1.611672
  O     -1.391040    0.643616    1.062077
  C     -1.604892    2.020989    1.421336
  C     -2.983383    2.216503    2.015834
  O     -3.137579   -0.941453    0.479702
  C     -3.980776   -1.849928   -0.257126
  C     -5.270916   -1.176471   -0.683482
  H      0.008691   -2.759098    3.294257
  H      0.095221   -1.022703    3.643551
  H     -0.725335   -1.589927    2.185878
  H      1.453647   -2.426819    1.282570
  H      2.269298   -1.885718    2.769044
  H      3.241883    2.803309   -0.289361
  H      4.625270    2.599031    0.824300
  H      4.176373    1.087281   -1.804841
  H      5.376917    2.358795   -1.530208
  H      5.520927    0.800903   -0.696490
  H      1.151014   -0.863605   -2.335420
  H     -0.315594    0.141369   -2.642302
  H     -0.811734    2.234421    2.139368
  H     -1.472134    2.643064    0.529640
  H     -3.738955    1.990111    1.264170
  H     -3.124190    1.554185    2.865598
  H     -3.098155    3.247635    2.334546
  H     -3.430304   -2.231591   -1.122017
  H     -4.171913   -2.667366    0.440630
  H     -5.903920   -1.902152   -1.183861
  H     -5.792096   -0.783705    0.185107
  H     -5.062727   -0.357035   -1.367865

 Total Charge           Charge          ....    0
 Multiplicity           Mult            ....    1
 Number of Electrons    NEL             ....  202
 Basis Dimension        Dim             ....  334

ORBITAL ENERGIES
----------------

  NO   OCC          E(Eh)            E(eV)
   0   2.0000     -88.046048     -2395.8548
   1   2.0000     -88.043993     -2395.7989
   2   2.0000     -87.992960     -2394.4102
   3   2.0000     -87.984962     -2394.1925
   4   2.0000     -76.431068     -2079.7951
   5   2.0000     -76.425657     -2079.6479
   6   2.0000     -18.799970      -511.5732
   7   2.0000     -18.791758      -511.3497
   8   2.0000     -18.791536      -511.3437
   9   2.0000     -18.783384      -511.1219
  10   2.0000      -9.959432      -271.0099
  11   2.0000      -9.957404      -270.9547
  12   2.0000      -9.955442      -270.9014
  13   2.0000      -9.950035      -270.7542
  14   2.0000      -9.943034      -270.5637
  15   2.0000      -9.884594      -268.9735
  16   2.0000      -9.883282      -268.9378
  17   2.0000      -9.882530      -268.9173
  18   2.0000      -9.876101      -268.7424
  19   2.0000      -7.690798      -209.2773
  20   2.0000      -7.688693      -209.2200
  21   2.0000      -7.637785      -207.8347
  22   2.0000      -7.629983      -207.6224
  23   2.0000      -6.428265      -174.9220
  24   2.0000      -6.422682      -174.7701
  25   2.0000      -5.718554      -155.6098
  26   2.0000      -5.716460      -155.5528
  27   2.0000      -5.715381      -155.5234
  28   2.0000      -5.713219      -155.4646
  29   2.0000      -5.707854      -155.3186
  30   2.0000      -5.705805      -155.2628
  31   2.0000      -5.666615      -154.1964
  32   2.0000      -5.658866      -153.9856
  33   2.0000      -5.658321      -153.9707
  34   2.0000      -5.658138      -153.9658
  35   2.0000      -5.650597      -153.7606
  36   2.0000      -5.650199      -153.7497
  37   2.0000      -4.650646      -126.5505
  38   2.0000      -4.650143      -126.5368
  39   2.0000      -4.648835      -126.5012
  40   2.0000      -4.644995      -126.3967
  41   2.0000      -4.644676      -126.3881
  42   2.0000      -4.643218      -126.3484
  43   2.0000      -0.991675       -26.9848
  44   2.0000      -0.983851       -26.7720
  45   2.0000      -0.949749       -25.8440
  46   2.0000      -0.939749       -25.5719
  47   2.0000      -0.767496       -20.8846
  48   2.0000      -0.722176       -19.6514
  49   2.0000      -0.710061       -19.3217
  50   2.0000      -0.687841       -18.7171
  51   2.0000      -0.683133       -18.5890
  52   2.0000      -0.674241       -18.3470
  53   2.0000      -0.652221       -17.7478
  54   2.0000      -0.640329       -17.4242
  55   2.0000      -0.600816       -16.3490
  56   2.0000      -0.593873       -16.1601
  57   2.0000      -0.574210       -15.6250
  58   2.0000      -0.568416       -15.4674
  59   2.0000      -0.558279       -15.1915
  60   2.0000      -0.505053       -13.7432
  61   2.0000      -0.496629       -13.5140
  62   2.0000      -0.478549       -13.0220
  63   2.0000      -0.468729       -12.7548
  64   2.0000      -0.459424       -12.5016
  65   2.0000      -0.442968       -12.0538
  66   2.0000      -0.441151       -12.0043
  67   2.0000      -0.432108       -11.7583
  68   2.0000      -0.423065       -11.5122
  69   2.0000      -0.415964       -11.3190
  70   2.0000      -0.407949       -11.1009
  71   2.0000      -0.401527       -10.9261
  72   2.0000      -0.395200       -10.7539
  73   2.0000      -0.390699       -10.6314
  74   2.0000      -0.382005       -10.3949
  75   2.0000      -0.378602       -10.3023
  76   2.0000      -0.366574        -9.9750
  77   2.0000      -0.354044        -9.6340
  78   2.0000      -0.349788        -9.5182
  79   2.0000      -0.348044        -9.4708
  80   2.0000      -0.347566        -9.4578
  81   2.0000      -0.345102        -9.3907
  82   2.0000      -0.339190        -9.2298
  83   2.0000      -0.337803        -9.1921
  84   2.0000      -0.327626        -8.9152
  85   2.0000      -0.324874        -8.8403
  86   2.0000      -0.312532        -8.5044
  87   2.0000      -0.301549        -8.2056
  88   2.0000      -0.295697        -8.0463
  89   2.0000      -0.288634        -7.8541
  90   2.0000      -0.283339        -7.7100
  91   2.0000      -0.278088        -7.5672
  92   2.0000      -0.271380        -7.3846
  93   2.0000      -0.269021        -7.3204
  94   2.0000      -0.253596        -6.9007
  95   2.0000      -0.234324        -6.3763
  96   2.0000      -0.220668        -6.0047
  97   2.0000      -0.214586        -5.8392
  98   2.0000      -0.209246        -5.6939
  99   2.0000      -0.199926        -5.4403
 100   2.0000      -0.198746        -5.4082
 101   0.0000      -0.048857        -1.3295
 102   0.0000      -0.025587        -0.6963
 103   0.0000      -0.005678        -0.1545
 104   0.0000      -0.001577        -0.0429
 105   0.0000       0.008037         0.2187

MULLIKEN ATOMIC CHARGES
-----------------------
   0 C :   -0.288790
   1 C :   -0.003754
   2 O :   -0.359218
   3 P :    0.610418
   4 S :   -0.336688
   5 O :   -0.363679
   6 C :   -0.012746
   7 C :   -0.307996
   8 S :   -0.102371
   9 C :   -0.355524
  10 S :   -0.082456
  11 P :    0.614945
  12 S :   -0.325512
  13 O :   -0.355753
  14 C :   -0.004218
  15 C :   -0.301513
  16 O :   -0.372870
  17 C :   -0.013910
  18 C :   -0.296169
  19 H :    0.102507
  20 H :    0.107560
  21 H :    0.125220
  22 H :    0.112338
  23 H :    0.100956
  24 H :    0.114364
  25 H :    0.109721
  26 H :    0.124446
  27 H :    0.110710
  28 H :    0.126352
  29 H :    0.193298
  30 H :    0.191889
  31 H :    0.107141
  32 H :    0.113020
  33 H :    0.121056
  34 H :    0.115224
  35 H :    0.111500
  36 H :    0.105294
  37 H :    0.109662
  38 H :    0.109552
  39 H :    0.114911
  40 H :    0.131085
Sum of atomic charges:   -0.0000000

LOEWDIN ATOMIC CHARGES
----------------------
   0 C :   -0.355605
   1 C :   -0.117797
   2 O :   -0.238180
   3 P :    0.571494
   4 S :   -0.318944
   5 O :   -0.240316
   6 C :   -0.114996
   7 C :   -0.368927
   8 S :    0.080594
   9 C :   -0.482022
  10 S :    0.093089
  11 P :    0.570600
  12 S :   -0.316000
  13 O :   -0.224674
  14 C :   -0.119144
  15 C :   -0.363400
  16 O :   -0.242331
  17 C :   -0.115969
  18 C :   -0.364047
  19 H :    0.126701
  20 H :    0.123447
  21 H :    0.116852
  22 H :    0.103095
  23 H :    0.112044
  24 H :    0.108166
  25 H :    0.121677
  26 H :    0.120717
  27 H :    0.129646
  28 H :    0.130120
  29 H :    0.129992
  30 H :    0.130232
  31 H :    0.119564
  32 H :    0.108089
  33 H :    0.121903
  34 H :    0.125720
  35 H :    0.130163
  36 H :    0.107693
  37 H :    0.120176
  38 H :    0.129829
  39 H :    0.126133
  40 H :    0.124616

  Mayer bond orders larger than 0.100000
B(  0-C ,  1-C ) :   1.1632 B(  0-C , 19-H ) :   0.9400 B(  0-C , 20-H ) :   0.9487
B(  0-C , 21-H ) :   0.9372 B(  1-C ,  2-O ) :   0.8953 B(  1-C , 22-H ) :   0.9045
B(  1-C , 23-H ) :   0.9348 B(  2-O ,  3-P ) :   1.1410 B(  3-P ,  4-S ) :   1.6013
B(  3-P ,  5-O ) :   1.1307 B(  3-P ,  8-S ) :   0.9292 B(  4-S ,  8-S ) :   0.1098
B(  5-O ,  6-C ) :   0.9160 B(  6-C ,  7-C ) :   1.1635 B(  6-C , 24-H ) :   0.9257
B(  6-C , 25-H ) :   0.9340 B(  7-C , 26-H ) :   0.9336 B(  7-C , 27-H ) :   0.9355
B(  7-C , 28-H ) :   0.9432 B(  8-S ,  9-C ) :   1.0117 B(  9-C , 10-S ) :   1.0026
B(  9-C , 29-H ) :   0.8779 B(  9-C , 30-H ) :   0.8811 B( 10-S , 11-P ) :   0.9553
B( 10-S , 12-S ) :   0.1065 B( 11-P , 12-S ) :   1.5913 B( 11-P , 13-O ) :   1.1209
B( 11-P , 16-O ) :   1.0995 B( 13-O , 14-C ) :   0.8972 B( 14-C , 15-C ) :   1.1645
B( 14-C , 31-H ) :   0.9324 B( 14-C , 32-H ) :   0.9120 B( 15-C , 33-H ) :   0.9358
B( 15-C , 34-H ) :   0.9471 B( 15-C , 35-H ) :   0.9402 B( 16-O , 17-C ) :   0.9051
B( 17-C , 18-C ) :   1.1678 B( 17-C , 36-H ) :   0.9161 B( 17-C , 37-H ) :   0.9354
B( 18-C , 38-H ) :   0.9391 B( 18-C , 39-H ) :   0.9470 B( 18-C , 40-H ) :   0.9316

Dispersion correction           -0.067332646
FINAL SINGLE POINT ENERGY     -2929.524441541726

DIPOLE MOMENT
-------------

Method             : SCF
Type of density    : Electron Density
Multiplicity       :   1
Irrep              :   0
Energy             : -2929.6423144182731448 Eh
Relativity type    :
Basis              : AO
                                X                 Y                 Z
Electronic contribution:      8.968818874      -2.555251374      -9.608997575
Nuclear contribution   :     -9.433193349       2.853218286      10.275483126
                        -----------------------------------------
Total Dipole Moment    :     -0.464374475       0.297966912       0.666485551
                        -----------------------------------------
Magnitude (a.u.)       :      0.865234606
Magnitude (Debye)      :      2.199251592

Rotational constants in cm-1:             0.013258             0.005056             0.004894
Rotational constants in MHz :           397.452216           151.576766           146.724241

                             ****ORCA TERMINATED NORMALLY****
TOTAL RUN TIME: 0 days 0 hours 0 minutes 21 seconds 485 msec
