                         Program Version 6.0.0  -   RELEASE  -
|  1> ! pbe def2-sv(p) def2/J RI DEFGRID1 loosescf d4 GCP(DFT/SV(P)) printgap
|  2> %output
|  3>     printlevel normal
|  4> end
|  5> * xyz 0 1
|  6> C 2.7951399715 -0.6167034976 -2.9109263057
|  7> C 3.5697264958 -0.8743676367 -1.6340382787
|  8> O 2.6668745032 -1.1594818417 -0.5399575761
|  9> P 2.2404487136 -0.0524494346 0.5064803461
| 10> S 1.9322990637 1.7741520853 -0.1680519752
| 11> O 3.4487839381 -0.1082292347 1.5422923757
| 12> C 3.6557072992 0.9080460303 2.536629394
| 13> C 2.557436459 0.8957520447 3.5798651246
| 14> S 0.6805789819 -1.0915334501 1.4774002779
| 15> C -0.1781477303 -1.7973747969 0.0355390996
| 16> S -0.5005788809 -0.6126367679 -1.3026072692
| 17> P -2.3502771523 0.1565578814 -0.5804259905
| 18> S -3.1253801721 1.607951787 -1.639786961
| 19> O -2.0939070822 0.4559605133 0.9537376759
| 20> C -1.5472775285 1.7091386624 1.4042859721
| 21> C -1.5888948354 1.6986444929 2.9182381399
| 22> O -3.256060295 -1.124885644 -0.3500782865
| 23> C -4.1707867146 -1.5830174473 -1.3619291671
| 24> C -3.4479960839 -2.2019623644 -2.5420014038
| 25> H 2.1414111387 -1.4556356287 -3.1322552946
| 26> H 2.1830816663 0.2770397087 -2.8070076736
| 27> H 3.4925203153 -0.4746930514 -3.730156019
| 28> H 4.1929080125 -0.0146322637 -1.3734586357
| 29> H 4.1916255135 -1.7672358428 -1.7150655875
| 30> H 4.6287136231 0.6652830691 2.9651933958
| 31> H 3.6999619223 1.8804334811 2.0347802418
| 32> H 2.7845305087 1.6189917438 4.3562633861
| 33> H 1.6090247329 1.1628416287 3.1133648016
| 34> H 2.4644678962 -0.0938445782 4.0197431985
| 35> H -1.1218208986 -2.1868834678 0.4131245017
| 36> H 0.4390020982 -2.5829093328 -0.3918623312
| 37> H -0.5217486795 1.8122679135 1.0321730508
| 38> H -2.1455892225 2.5238239157 0.9839023952
| 39> H -1.0213871134 0.8514332038 3.2949576692
| 40> H -1.1587995827 2.6218197045 3.2925057302
| 41> H -2.6163293496 1.6129236952 3.2590253506
| 42> H -4.7944204213 -2.3111315383 -0.8414011798
| 43> H -4.7815783148 -0.7355071648 -1.6883779273
| 44> H -2.8491434332 -1.4447063238 -3.0474871062
| 45> H -2.7952565086 -3.0059082077 -2.2119897461
| 46> H -4.1779382512 -2.5965439819 -3.2415387825
| 47> *
| 48>
| 49>                          ****END OF INPUT****

CARTESIAN COORDINATES (ANGSTROEM)
---------------------------------
  C      2.795140   -0.616703   -2.910926
  C      3.569726   -0.874368   -1.634038
  O      2.666875   -1.159482   -0.539958
  P      2.240449   -0.052449    0.506480
  S      1.932299    1.774152   -0.168052
  O      3.448784   -0.108229    1.542292
  C      3.655707    0.908046    2.536629
  C      2.557436    0.895752    3.579865
  S      0.680579   -1.091533    1.477400
  C     -0.178148   -1.797375    0.035539
  S     -0.500579   -0.612637   -1.302607
  P     -2.350277    0.156558   -0.580426
  S     -3.125380    1.607952   -1.639787
  O     -2.093907    0.455961    0.953738
  C     -1.547278    1.709139    1.404286
  C     -1.588895    1.698644    2.918238
  O     -3.256060   -1.124886   -0.350078
  C     -4.170787   -1.583017   -1.361929
  C     -3.447996   -2.201962   -2.542001
  H      2.141411   -1.455636   -3.132255
  H      2.183082    0.277040   -2.807008
  H      3.492520   -0.474693   -3.730156
  H      4.192908   -0.014632   -1.373459
  H      4.191626   -1.767236   -1.715066
  H      4.628714    0.665283    2.965193
  H      3.699962    1.880433    2.034780
  H      2.784531    1.618992    4.356263
  H      1.609025    1.162842    3.113365
  H      2.464468   -0.093845    4.019743
  H     -1.121821   -2.186883    0.413125
  H      0.439002   -2.582909   -0.391862
  H     -0.521749    1.812268    1.032173
  H     -2.145589    2.523824    0.983902
  H     -1.021387    0.851433    3.294958
  H     -1.158800    2.621820    3.292506
  H     -2.616329    1.612924    3.259025
  H     -4.794420   -2.311132   -0.841401
  H     -4.781578   -0.735507   -1.688378
  H     -2.849143   -1.444706   -3.047487
  H     -2.795257   -3.005908   -2.211990
  H     -4.177938   -2.596544   -3.241539

 Total Charge           Charge          ....    0
 Multiplicity           Mult            ....    1
 Number of Electrons    NEL             ....  202
 Basis Dimension        Dim             ....  334

ORBITAL ENERGIES
----------------

  NO   OCC          E(Eh)            E(eV)
   0   2.0000     -88.045033     -2395.8272
   1   2.0000     -88.042473     -2395.7575
   2   2.0000     -87.988700     -2394.2942
   3   2.0000     -87.985145     -2394.1975
   4   2.0000     -76.431633     -2079.8105
   5   2.0000     -76.423625     -2079.5926
   6   2.0000     -18.799247      -511.5535
   7   2.0000     -18.794987      -511.4376
   8   2.0000     -18.791396      -511.3399
   9   2.0000     -18.785049      -511.1672
  10   2.0000      -9.961294      -271.0606
  11   2.0000      -9.958790      -270.9925
  12   2.0000      -9.954707      -270.8813
  13   2.0000      -9.952662      -270.8257
  14   2.0000      -9.938005      -270.4269
  15   2.0000      -9.890366      -269.1305
  16   2.0000      -9.884775      -268.9784
  17   2.0000      -9.883576      -268.9458
  18   2.0000      -9.877657      -268.7847
  19   2.0000      -7.690203      -209.2611
  20   2.0000      -7.687033      -209.1748
  21   2.0000      -7.633174      -207.7092
  22   2.0000      -7.630353      -207.6325
  23   2.0000      -6.428932      -174.9401
  24   2.0000      -6.421213      -174.7301
  25   2.0000      -5.718317      -155.6033
  26   2.0000      -5.715181      -155.5180
  27   2.0000      -5.714731      -155.5057
  28   2.0000      -5.711330      -155.4132
  29   2.0000      -5.706855      -155.2914
  30   2.0000      -5.704008      -155.2139
  31   2.0000      -5.662067      -154.0727
  32   2.0000      -5.659335      -153.9983
  33   2.0000      -5.654019      -153.8537
  34   2.0000      -5.653214      -153.8318
  35   2.0000      -5.650880      -153.7683
  36   2.0000      -5.650571      -153.7598
  37   2.0000      -4.651684      -126.5788
  38   2.0000      -4.650727      -126.5527
  39   2.0000      -4.649237      -126.5122
  40   2.0000      -4.643547      -126.3573
  41   2.0000      -4.643374      -126.3526
  42   2.0000      -4.641508      -126.3019
  43   2.0000      -0.992136       -26.9974
  44   2.0000      -0.986593       -26.8466
  45   2.0000      -0.950965       -25.8771
  46   2.0000      -0.942063       -25.6348
  47   2.0000      -0.764641       -20.8069
  48   2.0000      -0.722590       -19.6627
  49   2.0000      -0.709909       -19.3176
  50   2.0000      -0.690447       -18.7880
  51   2.0000      -0.682006       -18.5583
  52   2.0000      -0.673376       -18.3235
  53   2.0000      -0.655658       -17.8414
  54   2.0000      -0.638513       -17.3748
  55   2.0000      -0.599345       -16.3090
  56   2.0000      -0.593632       -16.1536
  57   2.0000      -0.579214       -15.7612
  58   2.0000      -0.565279       -15.3820
  59   2.0000      -0.556484       -15.1427
  60   2.0000      -0.505631       -13.7589
  61   2.0000      -0.498821       -13.5736
  62   2.0000      -0.473845       -12.8940
  63   2.0000      -0.469050       -12.7635
  64   2.0000      -0.465350       -12.6628
  65   2.0000      -0.444151       -12.0860
  66   2.0000      -0.440788       -11.9945
  67   2.0000      -0.437660       -11.9093
  68   2.0000      -0.423366       -11.5204
  69   2.0000      -0.423019       -11.5109
  70   2.0000      -0.412417       -11.2224
  71   2.0000      -0.401434       -10.9236
  72   2.0000      -0.394145       -10.7252
  73   2.0000      -0.384503       -10.4628
  74   2.0000      -0.380017       -10.3408
  75   2.0000      -0.375965       -10.2305
  76   2.0000      -0.367180        -9.9915
  77   2.0000      -0.362795        -9.8722
  78   2.0000      -0.355925        -9.6852
  79   2.0000      -0.349639        -9.5142
  80   2.0000      -0.347574        -9.4580
  81   2.0000      -0.345901        -9.4125
  82   2.0000      -0.342931        -9.3316
  83   2.0000      -0.338376        -9.2077
  84   2.0000      -0.331926        -9.0322
  85   2.0000      -0.314554        -8.5594
  86   2.0000      -0.311097        -8.4654
  87   2.0000      -0.302301        -8.2260
  88   2.0000      -0.299636        -8.1535
  89   2.0000      -0.292780        -7.9669
  90   2.0000      -0.287936        -7.8351
  91   2.0000      -0.282438        -7.6855
  92   2.0000      -0.267614        -7.2822
  93   2.0000      -0.264679        -7.2023
  94   2.0000      -0.254340        -6.9209
  95   2.0000      -0.239107        -6.5064
  96   2.0000      -0.222427        -6.0526
  97   2.0000      -0.206643        -5.6230
  98   2.0000      -0.204328        -5.5600
  99   2.0000      -0.200863        -5.4658
 100   2.0000      -0.193552        -5.2668
 101   0.0000      -0.049613        -1.3500
 102   0.0000      -0.025902        -0.7048
 103   0.0000      -0.023755        -0.6464
 104   0.0000      -0.002111        -0.0575
 105   0.0000       0.011446         0.3115

MULLIKEN ATOMIC CHARGES
-----------------------
   0 C :   -0.297849
   1 C :   -0.003358
   2 O :   -0.377548
   3 P :    0.606558
   4 S :   -0.309065
   5 O :   -0.368879
   6 C :   -0.000465
   7 C :   -0.343294
   8 S :   -0.094661
   9 C :   -0.337151
  10 S :   -0.076901
  11 P :    0.585148
  12 S :   -0.314482
  13 O :   -0.368853
  14 C :   -0.031660
  15 C :   -0.285799
  16 O :   -0.367575
  17 C :   -0.003987
  18 C :   -0.310178
  19 H :    0.112092
  20 H :    0.139981
  21 H :    0.110957
  22 H :    0.106832
  23 H :    0.109098
  24 H :    0.106769
  25 H :    0.111169
  26 H :    0.117922
  27 H :    0.139082
  28 H :    0.123757
  29 H :    0.190680
  30 H :    0.188346
  31 H :    0.122589
  32 H :    0.105779
  33 H :    0.122757
  34 H :    0.108272
  35 H :    0.112509
  36 H :    0.106090
  37 H :    0.114537
  38 H :    0.128166
  39 H :    0.109837
  40 H :    0.112775
Sum of atomic charges:    0.0000000

LOEWDIN ATOMIC CHARGES
----------------------
   0 C :   -0.363285
   1 C :   -0.110832
   2 O :   -0.244884
   3 P :    0.568762
   4 S :   -0.306218
   5 O :   -0.245643
   6 C :   -0.121780
   7 C :   -0.371550
   8 S :    0.090323
   9 C :   -0.474116
  10 S :    0.093052
  11 P :    0.567591
  12 S :   -0.314271
  13 O :   -0.239411
  14 C :   -0.129676
  15 C :   -0.353640
  16 O :   -0.240812
  17 C :   -0.118800
  18 C :   -0.367320
  19 H :    0.122502
  20 H :    0.128499
  21 H :    0.130316
  22 H :    0.112079
  23 H :    0.119880
  24 H :    0.119645
  25 H :    0.109381
  26 H :    0.133812
  27 H :    0.121186
  28 H :    0.126501
  29 H :    0.135296
  30 H :    0.134876
  31 H :    0.099206
  32 H :    0.109329
  33 H :    0.120722
  34 H :    0.128926
  35 H :    0.125171
  36 H :    0.118638
  37 H :    0.111977
  38 H :    0.122098
  39 H :    0.121732
  40 H :    0.130740

  Mayer bond orders larger than 0.100000
B(  0-C ,  1-C ) :   1.1726 B(  0-C , 19-H ) :   0.9449 B(  0-C , 20-H ) :   0.9342
B(  0-C , 21-H ) :   0.9389 B(  1-C ,  2-O ) :   0.8834 B(  1-C , 22-H ) :   0.9144
B(  1-C , 23-H ) :   0.9339 B(  2-O ,  3-P ) :   1.1168 B(  3-P ,  4-S ) :   1.5973
B(  3-P ,  5-O ) :   1.1057 B(  3-P ,  8-S ) :   0.9725 B(  4-S ,  8-S ) :   0.1075
B(  5-O ,  6-C ) :   0.9108 B(  6-C ,  7-C ) :   1.1614 B(  6-C , 24-H ) :   0.9319
B(  6-C , 25-H ) :   0.9112 B(  7-C , 26-H ) :   0.9375 B(  7-C , 27-H ) :   0.9266
B(  7-C , 28-H ) :   0.9437 B(  8-S ,  9-C ) :   0.9867 B(  9-C , 10-S ) :   0.9958
B(  9-C , 29-H ) :   0.8925 B(  9-C , 30-H ) :   0.9033 B( 10-S , 11-P ) :   0.9631
B( 11-P , 12-S ) :   1.6608 B( 11-P , 13-O ) :   1.1221 B( 11-P , 16-O ) :   1.0884
B( 13-O , 14-C ) :   0.8873 B( 14-C , 15-C ) :   1.1672 B( 14-C , 31-H ) :   0.8962
B( 14-C , 32-H ) :   0.9182 B( 15-C , 33-H ) :   0.9393 B( 15-C , 34-H ) :   0.9420
B( 15-C , 35-H ) :   0.9479 B( 16-O , 17-C ) :   0.9097 B( 17-C , 18-C ) :   1.1632
B( 17-C , 36-H ) :   0.9347 B( 17-C , 37-H ) :   0.9144 B( 18-C , 38-H ) :   0.9357
B( 18-C , 39-H ) :   0.9471 B( 18-C , 40-H ) :   0.9385

Dispersion correction           -0.066534446
FINAL SINGLE POINT ENERGY     -2929.520461510246

DIPOLE MOMENT
-------------

Method             : SCF
Type of density    : Electron Density
Multiplicity       :   1
Irrep              :   0
Energy             : -2929.6391609485995104 Eh
Relativity type    :
Basis              : AO
                                X                 Y                 Z
Electronic contribution:     -2.922872161       2.330509155      -3.927234991
Nuclear contribution   :      3.744413542      -3.587821993       4.438114178
                        -----------------------------------------
Total Dipole Moment    :      0.821541381      -1.257312838       0.510879187
                        -----------------------------------------
Magnitude (a.u.)       :      1.586431012
Magnitude (Debye)      :      4.032387175

Rotational constants in cm-1:             0.011687             0.005514             0.004693
Rotational constants in MHz :           350.355879           165.300917           140.702291

                             ****ORCA TERMINATED NORMALLY****
TOTAL RUN TIME: 0 days 0 hours 0 minutes 21 seconds 483 msec
