                         Program Version 6.0.0  -   RELEASE  -
|  1> ! r2scan-3c def2/J RI DEFGRID2 scfconv6 printgap
|  2> %output
|  3>     printlevel normal
|  4> end
|  5> * xyz 0 1
|  6> C -2.7343761848 -0.2589889998 -0.0034663967
|  7> C -2.3498618793 1.0886395445 0.0090613893
|  8> C -1.0244694275 1.4286899192 0.0092554747
|  9> C -0.0147096854 0.4449387085 -0.0035827836
| 10> C -0.4064886185 -0.9215751624 -0.0056431553
| 11> C -1.781965646 -1.2380132301 -0.0085899914
| 12> C 0.5731802169 -1.9345243544 0.000711319
| 13> C 1.9009255361 -1.6049974036 0.0101093285
| 14> C 2.3017495069 -0.2690166223 -0.0002066182
| 15> C 1.3795224947 0.7617824148 -0.0120937245
| 16> N 1.8114898811 2.0641483646 0.0350284932
| 17> H -3.7837402916 -0.5149639618 -0.0052890575
| 18> H -3.1076875513 1.8579906184 0.0205719958
| 19> H -0.7575533725 2.4743673461 0.033136176
| 20> H -2.0669261824 -2.2807919578 -0.0123939929
| 21> H 0.257445177 -2.9674207916 0.0005862903
| 22> H 2.6547718276 -2.3791303628 0.0172126376
| 23> H 3.3561164619 -0.0318981132 -0.0001965356
| 24> H 2.7834193709 2.209509094 -0.1819465939
| 25> H 1.1886613128 2.7757145022 -0.3054965761
| 26> *
| 27>
| 28>                          ****END OF INPUT****

CARTESIAN COORDINATES (ANGSTROEM)
---------------------------------
  C     -2.734376   -0.258989   -0.003466
  C     -2.349862    1.088640    0.009061
  C     -1.024469    1.428690    0.009255
  C     -0.014710    0.444939   -0.003583
  C     -0.406489   -0.921575   -0.005643
  C     -1.781966   -1.238013   -0.008590
  C      0.573180   -1.934524    0.000711
  C      1.900926   -1.604997    0.010109
  C      2.301750   -0.269017   -0.000207
  C      1.379522    0.761782   -0.012094
  N      1.811490    2.064148    0.035028
  H     -3.783740   -0.514964   -0.005289
  H     -3.107688    1.857991    0.020572
  H     -0.757553    2.474367    0.033136
  H     -2.066926   -2.280792   -0.012394
  H      0.257445   -2.967421    0.000586
  H      2.654772   -2.379130    0.017213
  H      3.356116   -0.031898   -0.000197
  H      2.783419    2.209509   -0.181947
  H      1.188661    2.775715   -0.305497

 Total Charge           Charge          ....    0
 Multiplicity           Mult            ....    1
 Number of Electrons    NEL             ....   76
 Basis Dimension        Dim             ....  259

ORBITAL ENERGIES
----------------

  NO   OCC          E(Eh)            E(eV)
   0   2.0000     -14.173165      -385.6714
   1   2.0000     -10.077875      -274.2329
   2   2.0000     -10.041909      -273.2542
   3   2.0000     -10.040297      -273.2104
   4   2.0000     -10.037609      -273.1372
   5   2.0000     -10.033160      -273.0162
   6   2.0000     -10.032545      -272.9994
   7   2.0000     -10.031908      -272.9821
   8   2.0000     -10.029592      -272.9191
   9   2.0000     -10.023754      -272.7602
  10   2.0000     -10.018922      -272.6287
  11   2.0000      -0.898749       -24.4562
  12   2.0000      -0.832151       -22.6440
  13   2.0000      -0.783891       -21.3308
  14   2.0000      -0.729797       -19.8588
  15   2.0000      -0.709746       -19.3132
  16   2.0000      -0.678412       -18.4605
  17   2.0000      -0.594588       -16.1796
  18   2.0000      -0.586945       -15.9716
  19   2.0000      -0.561554       -15.2807
  20   2.0000      -0.506579       -13.7847
  21   2.0000      -0.493820       -13.4375
  22   2.0000      -0.469521       -12.7763
  23   2.0000      -0.451735       -12.2923
  24   2.0000      -0.433227       -11.7887
  25   2.0000      -0.402479       -10.9520
  26   2.0000      -0.396219       -10.7817
  27   2.0000      -0.380184       -10.3453
  28   2.0000      -0.375700       -10.2233
  29   2.0000      -0.364431        -9.9167
  30   2.0000      -0.341492        -9.2925
  31   2.0000      -0.323926        -8.8145
  32   2.0000      -0.305182        -8.3044
  33   2.0000      -0.301948        -8.2164
  34   2.0000      -0.288973        -7.8634
  35   2.0000      -0.237463        -6.4617
  36   2.0000      -0.228442        -6.2162
  37   2.0000      -0.174081        -4.7370
  38   0.0000      -0.057498        -1.5646
  39   0.0000      -0.032193        -0.8760
  40   0.0000       0.013934         0.3792
  41   0.0000       0.058259         1.5853
  42   0.0000       0.072260         1.9663

MULLIKEN ATOMIC CHARGES
-----------------------
   0 C :   -0.152224
   1 C :   -0.150989
   2 C :   -0.294963
   3 C :   -0.073936
   4 C :    0.209847
   5 C :   -0.214773
   6 C :   -0.321814
   7 C :   -0.125047
   8 C :   -0.408819
   9 C :    0.578402
  10 N :   -0.527244
  11 H :    0.144392
  12 H :    0.143413
  13 H :    0.116186
  14 H :    0.143210
  15 H :    0.142245
  16 H :    0.144038
  17 H :    0.134117
  18 H :    0.256129
  19 H :    0.257830
Sum of atomic charges:    0.0000000

LOEWDIN ATOMIC CHARGES
----------------------
   0 C :   -0.166167
   1 C :   -0.169232
   2 C :   -0.144050
   3 C :   -0.041183
   4 C :   -0.050108
   5 C :   -0.141684
   6 C :   -0.184767
   7 C :   -0.153259
   8 C :   -0.172675
   9 C :    0.147576
  10 N :   -0.602026
  11 H :    0.167348
  12 H :    0.166895
  13 H :    0.164750
  14 H :    0.170665
  15 H :    0.168667
  16 H :    0.167633
  17 H :    0.167272
  18 H :    0.253517
  19 H :    0.250828

  Mayer bond orders larger than 0.100000
B(  0-C ,  1-C ) :   1.2803 B(  0-C ,  5-C ) :   1.5115 B(  0-C , 11-H ) :   0.9494
B(  1-C ,  2-C ) :   1.5204 B(  1-C , 12-H ) :   0.9465 B(  2-C ,  3-C ) :   1.2391
B(  2-C ,  9-C ) :  -0.1198 B(  2-C , 13-H ) :   0.9664 B(  3-C ,  4-C ) :   1.4371
B(  3-C ,  9-C ) :   1.2226 B(  4-C ,  5-C ) :   1.1926 B(  4-C ,  6-C ) :   1.1781
B(  5-C , 14-H ) :   0.9519 B(  6-C ,  7-C ) :   1.4979 B(  6-C , 15-H ) :   0.9509
B(  7-C ,  8-C ) :   1.2762 B(  7-C , 16-H ) :   0.9462 B(  8-C ,  9-C ) :   1.3086
B(  8-C , 17-H ) :   0.9618 B(  9-C , 10-N ) :   0.9712 B( 10-N , 18-H ) :   0.9241
B( 10-N , 19-H ) :   0.9149

Dispersion correction           -0.007999684
FINAL SINGLE POINT ENERGY      -441.131595563937

DIPOLE MOMENT
-------------

Method             : SCF
Type of density    : Electron Density
Multiplicity       :   1
Irrep              :   0
Energy             :  -441.1304778460269063 Eh
Relativity type    :
Basis              : AO
                                X                 Y                 Z
Electronic contribution:     -0.223740558      -0.506092756       0.124228285
Nuclear contribution   :      0.502019950       1.084012012      -0.406800788
                        -----------------------------------------
Total Dipole Moment    :      0.278279392       0.577919257      -0.282572503
                        -----------------------------------------
Magnitude (a.u.)       :      0.700911768
Magnitude (Debye)      :      1.781576130

Rotational constants in cm-1:             0.065712             0.037829             0.024019
Rotational constants in MHz :          1969.990875          1134.085925           720.057690

                             ****ORCA TERMINATED NORMALLY****
TOTAL RUN TIME: 0 days 0 hours 0 minutes 34 seconds 469 msec
