                         Program Version 6.0.0  -   RELEASE  -
|  1> ! r2scan-3c def2/J RI DEFGRID2 scfconv6 printgap
|  2> %output
|  3>     printlevel normal
|  4> end
|  5> %cpcm
|  6>     smd true
|  7>     smdsolvent "water"
|  8> end
|  9> * xyz 0 1
| 10> C -2.7343761848 -0.2589889998 -0.0034663967
| 11> C -2.3498618793 1.0886395445 0.0090613893
| 12> C -1.0244694275 1.4286899192 0.0092554747
| 13> C -0.0147096854 0.4449387085 -0.0035827836
| 14> C -0.4064886185 -0.9215751624 -0.0056431553
| 15> C -1.781965646 -1.2380132301 -0.0085899914
| 16> C 0.5731802169 -1.9345243544 0.000711319
| 17> C 1.9009255361 -1.6049974036 0.0101093285
| 18> C 2.3017495069 -0.2690166223 -0.0002066182
| 19> C 1.3795224947 0.7617824148 -0.0120937245
| 20> N 1.8114898811 2.0641483646 0.0350284932
| 21> H -3.7837402916 -0.5149639618 -0.0052890575
| 22> H -3.1076875513 1.8579906184 0.0205719958
| 23> H -0.7575533725 2.4743673461 0.033136176
| 24> H -2.0669261824 -2.2807919578 -0.0123939929
| 25> H 0.257445177 -2.9674207916 0.0005862903
| 26> H 2.6547718276 -2.3791303628 0.0172126376
| 27> H 3.3561164619 -0.0318981132 -0.0001965356
| 28> H 2.7834193709 2.209509094 -0.1819465939
| 29> H 1.1886613128 2.7757145022 -0.3054965761
| 30> *
| 31>
| 32>                          ****END OF INPUT****

CARTESIAN COORDINATES (ANGSTROEM)
---------------------------------
  C     -2.734376   -0.258989   -0.003466
  C     -2.349862    1.088640    0.009061
  C     -1.024469    1.428690    0.009255
  C     -0.014710    0.444939   -0.003583
  C     -0.406489   -0.921575   -0.005643
  C     -1.781966   -1.238013   -0.008590
  C      0.573180   -1.934524    0.000711
  C      1.900926   -1.604997    0.010109
  C      2.301750   -0.269017   -0.000207
  C      1.379522    0.761782   -0.012094
  N      1.811490    2.064148    0.035028
  H     -3.783740   -0.514964   -0.005289
  H     -3.107688    1.857991    0.020572
  H     -0.757553    2.474367    0.033136
  H     -2.066926   -2.280792   -0.012394
  H      0.257445   -2.967421    0.000586
  H      2.654772   -2.379130    0.017213
  H      3.356116   -0.031898   -0.000197
  H      2.783419    2.209509   -0.181947
  H      1.188661    2.775715   -0.305497

 Total Charge           Charge          ....    0
 Multiplicity           Mult            ....    1
 Number of Electrons    NEL             ....   76
 Basis Dimension        Dim             ....  259

ORBITAL ENERGIES
----------------

  NO   OCC          E(Eh)            E(eV)
   0   2.0000     -14.162707      -385.3868
   1   2.0000     -10.077731      -274.2290
   2   2.0000     -10.044444      -273.3232
   3   2.0000     -10.044098      -273.3138
   4   2.0000     -10.036142      -273.0973
   5   2.0000     -10.033209      -273.0175
   6   2.0000     -10.032546      -272.9994
   7   2.0000     -10.031970      -272.9838
   8   2.0000     -10.030946      -272.9559
   9   2.0000     -10.022193      -272.7177
  10   2.0000     -10.020758      -272.6787
  11   2.0000      -0.892028       -24.2733
  12   2.0000      -0.833931       -22.6924
  13   2.0000      -0.785699       -21.3800
  14   2.0000      -0.730403       -19.8753
  15   2.0000      -0.711443       -19.3594
  16   2.0000      -0.678195       -18.4546
  17   2.0000      -0.594162       -16.1680
  18   2.0000      -0.586305       -15.9542
  19   2.0000      -0.559303       -15.2194
  20   2.0000      -0.500238       -13.6122
  21   2.0000      -0.489262       -13.3135
  22   2.0000      -0.466866       -12.7041
  23   2.0000      -0.446259       -12.1433
  24   2.0000      -0.430226       -11.7071
  25   2.0000      -0.401134       -10.9154
  26   2.0000      -0.393268       -10.7014
  27   2.0000      -0.380908       -10.3650
  28   2.0000      -0.379223       -10.3192
  29   2.0000      -0.361499        -9.8369
  30   2.0000      -0.339756        -9.2452
  31   2.0000      -0.326209        -8.8766
  32   2.0000      -0.303500        -8.2587
  33   2.0000      -0.300985        -8.1902
  34   2.0000      -0.293002        -7.9730
  35   2.0000      -0.239782        -6.5248
  36   2.0000      -0.233965        -6.3665
  37   2.0000      -0.176085        -4.7915
  38   0.0000      -0.060757        -1.6533
  39   0.0000      -0.036779        -1.0008
  40   0.0000       0.009911         0.2697
  41   0.0000       0.068108         1.8533
  42   0.0000       0.076619         2.0849

MULLIKEN ATOMIC CHARGES
-----------------------
   0 C :   -0.180422
   1 C :   -0.187974
   2 C :   -0.297438
   3 C :   -0.106280
   4 C :    0.150741
   5 C :   -0.233814
   6 C :   -0.356249
   7 C :   -0.153538
   8 C :   -0.416603
   9 C :    0.525072
  10 N :   -0.593038
  11 H :    0.177188
  12 H :    0.176560
  13 H :    0.163505
  14 H :    0.177011
  15 H :    0.173854
  16 H :    0.175472
  17 H :    0.174779
  18 H :    0.312959
  19 H :    0.318215
Sum of atomic charges:    0.0000000

LOEWDIN ATOMIC CHARGES
----------------------
   0 C :   -0.173659
   1 C :   -0.178901
   2 C :   -0.146577
   3 C :   -0.057908
   4 C :   -0.068921
   5 C :   -0.155115
   6 C :   -0.207928
   7 C :   -0.166693
   8 C :   -0.184049
   9 C :    0.140174
  10 N :   -0.593381
  11 H :    0.178424
  12 H :    0.178240
  13 H :    0.182402
  14 H :    0.182064
  15 H :    0.178745
  16 H :    0.178058
  17 H :    0.182121
  18 H :    0.268013
  19 H :    0.264890

  Mayer bond orders larger than 0.100000
B(  0-C ,  1-C ) :   1.2386 B(  0-C ,  5-C ) :   1.4747 B(  0-C , 11-H ) :   0.9611
B(  1-C ,  2-C ) :   1.4776 B(  1-C , 12-H ) :   0.9614 B(  2-C ,  3-C ) :   1.2520
B(  2-C ,  9-C ) :  -0.1250 B(  2-C , 13-H ) :   0.9757 B(  3-C ,  4-C ) :   1.3488
B(  3-C ,  9-C ) :   1.1932 B(  4-C ,  5-C ) :   1.1927 B(  4-C ,  6-C ) :   1.1648
B(  5-C , 14-H ) :   0.9604 B(  6-C ,  7-C ) :   1.4430 B(  6-C , 15-H ) :   0.9695
B(  7-C ,  8-C ) :   1.2370 B(  7-C , 16-H ) :   0.9649 B(  8-C ,  9-C ) :   1.3110
B(  8-C , 17-H ) :   0.9763 B(  9-C , 10-N ) :   0.9893 B( 10-N , 18-H ) :   0.8986
B( 10-N , 19-H ) :   0.8907

Dispersion correction           -0.007999684
FINAL SINGLE POINT ENERGY      -441.142460522663

DIPOLE MOMENT
-------------

Method             : SCF
Type of density    : Electron Density
Multiplicity       :   1
Irrep              :   0
Energy             :  -441.1413428047519574 Eh
Relativity type    :
Basis              : AO
                                X                 Y                 Z
Electronic contribution:     -0.117594844      -0.160763278       0.008310487
Nuclear contribution   :      0.502019950       1.084012012      -0.406800788
                        -----------------------------------------
Total Dipole Moment    :      0.384425106       0.923248734      -0.398490301
                        -----------------------------------------
Magnitude (a.u.)       :      1.076552556
Magnitude (Debye)      :      2.736379135

Rotational constants in cm-1:             0.065712             0.037829             0.024019
Rotational constants in MHz :          1969.990875          1134.085925           720.057690

                             ****ORCA TERMINATED NORMALLY****
TOTAL RUN TIME: 0 days 0 hours 0 minutes 35 seconds 743 msec
