                         Program Version 6.0.0  -   RELEASE  -
|  1> ! wb97x-v def2-tzvp def2/J RIJCOSX DEFGRID2 scfconv7 GCP(DFT/TZ) printgap
|  2> %output
|  3>     printlevel normal
|  4> end
|  5> * xyz 0 1
|  6> C 5.151075501087525 -2.330678686589868 -1.720736773452385
|  7> C 4.443364878064059 -1.0492309862580178 -1.3663905554676385
|  8> O 3.322866441806539 -1.4051771395734132 -0.4830864606350718
|  9> P 2.3023057851413045 -0.2746048364118627 0.04528185940905521
| 10> S 3.0720430636662877 1.3938188165632734 0.6892393488695547
| 11> O 1.4291536648046783 -1.1288824750732627 1.0845567420002036
| 12> C 1.7400944284371822 -1.1627989795110008 2.5223408485562646
| 13> C 2.9622766533372378 -1.9982632660327477 2.8123595759449973
| 14> S 0.992733698016901 -0.12465208427557764 -1.6147430802488774
| 15> C 0.176514402767521 1.481632900782851 -1.265945820274599
| 16> S -0.925796492127368 1.553888107174666 0.19774126181419463
| 17> P -2.543533850565318 0.33075814862324543 -0.44827099355342775
| 18> S -2.988738496602851 0.45208166463347926 -2.335586242364873
| 19> O -3.6571472657337876 0.7453264870232709 0.636369468743362
| 20> C -4.394025542889137 2.013147326184557 0.5208695185386673
| 21> C -5.317386973710834 2.0968860946459777 1.707270133435798
| 22> O -2.2337132766271317 -1.1810633155659136 -0.016191939686427775
| 23> C -1.97914300945974 -1.547788157130012 1.389798041765439
| 24> C -1.4668222551061665 -2.963828706588478 1.3931353161005506
| 25> H 5.528317921148479 -2.8282018633893093 -0.822800620489098
| 26> H 4.484385964679666 -3.01299219442441 -2.2552818098913083
| 27> H 6.000929757778236 -2.098066987270828 -2.369442111112997
| 28> H 4.042940731462464 -0.5477662947786718 -2.2538006311822123
| 29> H 5.0953927383138 -0.35806819207750346 -0.8244593838798356
| 30> H 1.8509580772667358 -0.1320900236957064 2.872959201445775
| 31> H 0.8409113842557514 -1.596366960139289 2.9650387497470945
| 32> H 2.8530616509264157 -3.006239819803321 2.4017637448144846
| 33> H 3.8701138195328344 -1.5426747720754246 2.4055592959107805
| 34> H 3.0796306014425654 -2.0785631950526455 3.8981840276011535
| 35> H -0.39569054570187606 1.7229504223002603 -2.1666283312024204
| 36> H 0.9386970847496846 2.2481318891505997 -1.0984943864431034
| 37> H -3.672185064667257 2.8361423499002183 0.5094995467610508
| 38> H -4.942394368693312 1.9992341899088653 -0.4255964924665155
| 39> H -6.026935758043912 1.2648953422320417 1.7092586738925954
| 40> H -4.753287573765448 2.0903928052952803 2.64400794618183
| 41> H -5.88187273855759 3.032543914988245 1.6501653408433976
| 42> H -1.2463698478804366 -0.8481229008240893 1.8057615221725962
| 43> H -2.9220286377615237 -1.453925947045068 1.9352043519443003
| 44> H -0.5328202757876832 -3.04611041210844 0.83082298867673
| 45> H -1.2788635844836986 -3.2693104043814167 2.427060471435195
| 46> H -2.2056494524067563 -3.64589532130809 0.9628264502911293
| 47> *
| 48>
| 49>                          ****END OF INPUT****

CARTESIAN COORDINATES (ANGSTROEM)
---------------------------------
  C      5.151076   -2.330679   -1.720737
  C      4.443365   -1.049231   -1.366391
  O      3.322866   -1.405177   -0.483086
  P      2.302306   -0.274605    0.045282
  S      3.072043    1.393819    0.689239
  O      1.429154   -1.128882    1.084557
  C      1.740094   -1.162799    2.522341
  C      2.962277   -1.998263    2.812360
  S      0.992734   -0.124652   -1.614743
  C      0.176514    1.481633   -1.265946
  S     -0.925796    1.553888    0.197741
  P     -2.543534    0.330758   -0.448271
  S     -2.988738    0.452082   -2.335586
  O     -3.657147    0.745326    0.636369
  C     -4.394026    2.013147    0.520870
  C     -5.317387    2.096886    1.707270
  O     -2.233713   -1.181063   -0.016192
  C     -1.979143   -1.547788    1.389798
  C     -1.466822   -2.963829    1.393135
  H      5.528318   -2.828202   -0.822801
  H      4.484386   -3.012992   -2.255282
  H      6.000930   -2.098067   -2.369442
  H      4.042941   -0.547766   -2.253801
  H      5.095393   -0.358068   -0.824459
  H      1.850958   -0.132090    2.872959
  H      0.840911   -1.596367    2.965039
  H      2.853062   -3.006240    2.401764
  H      3.870114   -1.542675    2.405559
  H      3.079631   -2.078563    3.898184
  H     -0.395691    1.722950   -2.166628
  H      0.938697    2.248132   -1.098494
  H     -3.672185    2.836142    0.509500
  H     -4.942394    1.999234   -0.425596
  H     -6.026936    1.264895    1.709259
  H     -4.753288    2.090393    2.644008
  H     -5.881873    3.032544    1.650165
  H     -1.246370   -0.848123    1.805762
  H     -2.922029   -1.453926    1.935204
  H     -0.532820   -3.046110    0.830823
  H     -1.278864   -3.269310    2.427060
  H     -2.205649   -3.645895    0.962826

 Total Charge           Charge          ....    0
 Multiplicity           Mult            ....    1
 Number of Electrons    NEL             ....  202
 Basis Dimension        Dim             ....  757

ORBITAL ENERGIES
----------------

  NO   OCC          E(Eh)            E(eV)
   0   2.0000     -94.143439     -2561.7732
   1   2.0000     -94.142918     -2561.7590
   2   2.0000     -94.087422     -2560.2489
   3   2.0000     -94.077828     -2559.9878
   4   2.0000     -82.122333     -2234.6623
   5   2.0000     -82.116823     -2234.5124
   6   2.0000     -21.713463      -590.8534
   7   2.0000     -21.713008      -590.8410
   8   2.0000     -21.712737      -590.8336
   9   2.0000     -21.705841      -590.6460
  10   2.0000     -12.122884      -329.8805
  11   2.0000     -12.120430      -329.8137
  12   2.0000     -12.117888      -329.7445
  13   2.0000     -12.117792      -329.7419
  14   2.0000     -12.112985      -329.6111
  15   2.0000     -12.052094      -327.9542
  16   2.0000     -12.051743      -327.9446
  17   2.0000     -12.051492      -327.9378
  18   2.0000     -12.044915      -327.7588
  19   2.0000      -9.654697      -262.7177
  20   2.0000      -9.654340      -262.7079
  21   2.0000      -9.600332      -261.2383
  22   2.0000      -9.590613      -260.9738
  23   2.0000      -8.235640      -224.1032
  24   2.0000      -8.230011      -223.9500
  25   2.0000      -7.632390      -207.6879
  26   2.0000      -7.632066      -207.6791
  27   2.0000      -7.631537      -207.6647
  28   2.0000      -7.630903      -207.6474
  29   2.0000      -7.630116      -207.6260
  30   2.0000      -7.629282      -207.6033
  31   2.0000      -7.577949      -206.2065
  32   2.0000      -7.576182      -206.1584
  33   2.0000      -7.576085      -206.1558
  34   2.0000      -7.568195      -205.9411
  35   2.0000      -7.566530      -205.8958
  36   2.0000      -7.566358      -205.8911
  37   2.0000      -6.399819      -174.1479
  38   2.0000      -6.399726      -174.1454
  39   2.0000      -6.399260      -174.1327
  40   2.0000      -6.394369      -173.9996
  41   2.0000      -6.394020      -173.9901
  42   2.0000      -6.393477      -173.9754
  43   2.0000      -1.724127       -46.9159
  44   2.0000      -1.721057       -46.8323
  45   2.0000      -1.700999       -46.2865
  46   2.0000      -1.695324       -46.1321
  47   2.0000      -1.330219       -36.1971
  48   2.0000      -1.316629       -35.8273
  49   2.0000      -1.305599       -35.5272
  50   2.0000      -1.292968       -35.1835
  51   2.0000      -1.291737       -35.1500
  52   2.0000      -1.252813       -34.0908
  53   2.0000      -1.228879       -33.4395
  54   2.0000      -1.207199       -32.8495
  55   2.0000      -1.178523       -32.0692
  56   2.0000      -1.163636       -31.6641
  57   2.0000      -1.152176       -31.3523
  58   2.0000      -1.146440       -31.1962
  59   2.0000      -1.119318       -30.4582
  60   2.0000      -1.082961       -29.4689
  61   2.0000      -1.074764       -29.2458
  62   2.0000      -1.054197       -28.6862
  63   2.0000      -1.050809       -28.5940
  64   2.0000      -1.002258       -27.2728
  65   2.0000      -0.993895       -27.0453
  66   2.0000      -0.983629       -26.7659
  67   2.0000      -0.981498       -26.7079
  68   2.0000      -0.981217       -26.7003
  69   2.0000      -0.972306       -26.4578
  70   2.0000      -0.963822       -26.2269
  71   2.0000      -0.959023       -26.0963
  72   2.0000      -0.921184       -25.0667
  73   2.0000      -0.892558       -24.2877
  74   2.0000      -0.882331       -24.0094
  75   2.0000      -0.876764       -23.8580
  76   2.0000      -0.873652       -23.7733
  77   2.0000      -0.867990       -23.6192
  78   2.0000      -0.865338       -23.5471
  79   2.0000      -0.848806       -23.0972
  80   2.0000      -0.846667       -23.0390
  81   2.0000      -0.845351       -23.0032
  82   2.0000      -0.842420       -22.9234
  83   2.0000      -0.835112       -22.7246
  84   2.0000      -0.828768       -22.5519
  85   2.0000      -0.826581       -22.4924
  86   2.0000      -0.825360       -22.4592
  87   2.0000      -0.824778       -22.4434
  88   2.0000      -0.820142       -22.3172
  89   2.0000      -0.793316       -21.5872
  90   2.0000      -0.792231       -21.5577
  91   2.0000      -0.790368       -21.5070
  92   2.0000      -0.784893       -21.3580
  93   2.0000      -0.775182       -21.0938
  94   2.0000      -0.751535       -20.4503
  95   2.0000      -0.689488       -18.7619
  96   2.0000      -0.675247       -18.3744
  97   2.0000      -0.650854       -17.7106
  98   2.0000      -0.644713       -17.5435
  99   2.0000      -0.640729       -17.4351
 100   2.0000      -0.633519       -17.2389
 101   0.0000      -0.317146        -8.6300
 102   0.0000      -0.312970        -8.5163
 103   0.0000      -0.270353        -7.3567
 104   0.0000      -0.241967        -6.5843
 105   0.0000      -0.233421        -6.3517

MULLIKEN ATOMIC CHARGES
-----------------------
   0 C :   -0.313651
   1 C :   -0.054507
   2 O :   -0.310823
   3 P :    0.604758
   4 S :   -0.420305
   5 O :   -0.298452
   6 C :   -0.052936
   7 C :   -0.316078
   8 S :   -0.104304
   9 C :   -0.196324
  10 S :   -0.150610
  11 P :    0.620218
  12 S :   -0.405027
  13 O :   -0.309597
  14 C :   -0.061736
  15 C :   -0.315641
  16 O :   -0.278147
  17 C :   -0.045154
  18 C :   -0.338732
  19 H :    0.117296
  20 H :    0.121940
  21 H :    0.114262
  22 H :    0.115539
  23 H :    0.126211
  24 H :    0.136028
  25 H :    0.104960
  26 H :    0.119026
  27 H :    0.126463
  28 H :    0.117304
  29 H :    0.177692
  30 H :    0.174109
  31 H :    0.115695
  32 H :    0.129309
  33 H :    0.121472
  34 H :    0.115924
  35 H :    0.114997
  36 H :    0.107300
  37 H :    0.120192
  38 H :    0.139932
  39 H :    0.104686
  40 H :    0.126711
Sum of atomic charges:   -0.0000000

LOEWDIN ATOMIC CHARGES
----------------------
   0 C :   -0.303354
   1 C :   -0.323410
   2 O :    0.025917
   3 P :   -0.029826
   4 S :   -0.115995
   5 O :    0.030662
   6 C :   -0.320686
   7 C :   -0.309131
   8 S :    0.362545
   9 C :   -0.706114
  10 S :    0.339054
  11 P :   -0.034695
  12 S :   -0.109174
  13 O :    0.025971
  14 C :   -0.319525
  15 C :   -0.304038
  16 O :    0.037822
  17 C :   -0.318492
  18 C :   -0.307997
  19 H :    0.121964
  20 H :    0.122962
  21 H :    0.126089
  22 H :    0.120140
  23 H :    0.121830
  24 H :    0.122924
  25 H :    0.123009
  26 H :    0.123103
  27 H :    0.121723
  28 H :    0.126675
  29 H :    0.115472
  30 H :    0.114438
  31 H :    0.118735
  32 H :    0.124239
  33 H :    0.122964
  34 H :    0.121164
  35 H :    0.126522
  36 H :    0.114828
  37 H :    0.120951
  38 H :    0.125109
  39 H :    0.122085
  40 H :    0.123540

  Mayer bond orders larger than 0.100000
B(  0-C ,  1-C ) :   1.0058 B(  0-C , 19-H ) :   0.9754 B(  0-C , 20-H ) :   0.9746
B(  0-C , 21-H ) :   0.9704 B(  1-C ,  2-O ) :   0.8813 B(  1-C , 22-H ) :   0.9630
B(  1-C , 23-H ) :   0.9662 B(  2-O ,  3-P ) :   1.1816 B(  3-P ,  4-S ) :   1.7945
B(  3-P ,  5-O ) :   1.2070 B(  3-P ,  8-S ) :   1.0988 B(  5-O ,  6-C ) :   0.8676
B(  6-C ,  7-C ) :   1.0081 B(  6-C , 24-H ) :   0.9701 B(  6-C , 25-H ) :   0.9648
B(  7-C , 26-H ) :   0.9700 B(  7-C , 27-H ) :   0.9701 B(  7-C , 28-H ) :   0.9675
B(  8-S ,  9-C ) :   1.0222 B(  9-C , 10-S ) :   1.0075 B(  9-C , 29-H ) :   0.9317
B(  9-C , 30-H ) :   0.9333 B( 10-S , 11-P ) :   1.0485 B( 11-P , 12-S ) :   1.8664
B( 11-P , 13-O ) :   1.1545 B( 11-P , 16-O ) :   1.2444 B( 13-O , 14-C ) :   0.8900
B( 14-C , 15-C ) :   1.0053 B( 14-C , 31-H ) :   0.9649 B( 14-C , 32-H ) :   0.9652
B( 15-C , 33-H ) :   0.9747 B( 15-C , 34-H ) :   0.9752 B( 15-C , 35-H ) :   0.9700
B( 16-O , 17-C ) :   0.8905 B( 17-C , 18-C ) :   0.9992 B( 17-C , 36-H ) :   0.9629
B( 17-C , 37-H ) :   0.9669 B( 18-C , 38-H ) :   0.9746 B( 18-C , 39-H ) :   0.9709
B( 18-C , 40-H ) :   0.9709

FINAL SINGLE POINT ENERGY     -2932.538443695264

DIPOLE MOMENT
-------------

Method             : SCF
Type of density    : Electron Density
Multiplicity       :   1
Irrep              :   0
Energy             : -2932.5682918041634366 Eh
Relativity type    :
Basis              : AO
                                X                 Y                 Z
Electronic contribution:     -4.204988154      12.192091470     -14.943336252
Nuclear contribution   :      4.644214853     -12.562360095      16.338894026
                        -----------------------------------------
Total Dipole Moment    :      0.439226700      -0.370268625       1.395557774
                        -----------------------------------------
Magnitude (a.u.)       :      1.509172107
Magnitude (Debye)      :      3.836010643

Rotational constants in cm-1:             0.012708             0.004347             0.004084
Rotational constants in MHz :           380.988417           130.312478           122.428366

                             ****ORCA TERMINATED NORMALLY****
TOTAL RUN TIME: 0 days 0 hours 15 minutes 16 seconds 660 msec
