                         Program Version 6.0.0  -   RELEASE  -
|  1> ! wb97x-v def2-tzvp def2/J RIJCOSX DEFGRID2 scfconv7 GCP(DFT/TZ) printgap
|  2> %output
|  3>     printlevel normal
|  4> end
|  5> %cpcm
|  6>     smd true
|  7>     smdsolvent "water"
|  8> end
|  9> * xyz 0 1
| 10> C 5.151075501087525 -2.330678686589868 -1.720736773452385
| 11> C 4.443364878064059 -1.0492309862580178 -1.3663905554676385
| 12> O 3.322866441806539 -1.4051771395734132 -0.4830864606350718
| 13> P 2.3023057851413045 -0.2746048364118627 0.04528185940905521
| 14> S 3.0720430636662877 1.3938188165632734 0.6892393488695547
| 15> O 1.4291536648046783 -1.1288824750732627 1.0845567420002036
| 16> C 1.7400944284371822 -1.1627989795110008 2.5223408485562646
| 17> C 2.9622766533372378 -1.9982632660327477 2.8123595759449973
| 18> S 0.992733698016901 -0.12465208427557764 -1.6147430802488774
| 19> C 0.176514402767521 1.481632900782851 -1.265945820274599
| 20> S -0.925796492127368 1.553888107174666 0.19774126181419463
| 21> P -2.543533850565318 0.33075814862324543 -0.44827099355342775
| 22> S -2.988738496602851 0.45208166463347926 -2.335586242364873
| 23> O -3.6571472657337876 0.7453264870232709 0.636369468743362
| 24> C -4.394025542889137 2.013147326184557 0.5208695185386673
| 25> C -5.317386973710834 2.0968860946459777 1.707270133435798
| 26> O -2.2337132766271317 -1.1810633155659136 -0.016191939686427775
| 27> C -1.97914300945974 -1.547788157130012 1.389798041765439
| 28> C -1.4668222551061665 -2.963828706588478 1.3931353161005506
| 29> H 5.528317921148479 -2.8282018633893093 -0.822800620489098
| 30> H 4.484385964679666 -3.01299219442441 -2.2552818098913083
| 31> H 6.000929757778236 -2.098066987270828 -2.369442111112997
| 32> H 4.042940731462464 -0.5477662947786718 -2.2538006311822123
| 33> H 5.0953927383138 -0.35806819207750346 -0.8244593838798356
| 34> H 1.8509580772667358 -0.1320900236957064 2.872959201445775
| 35> H 0.8409113842557514 -1.596366960139289 2.9650387497470945
| 36> H 2.8530616509264157 -3.006239819803321 2.4017637448144846
| 37> H 3.8701138195328344 -1.5426747720754246 2.4055592959107805
| 38> H 3.0796306014425654 -2.0785631950526455 3.8981840276011535
| 39> H -0.39569054570187606 1.7229504223002603 -2.1666283312024204
| 40> H 0.9386970847496846 2.2481318891505997 -1.0984943864431034
| 41> H -3.672185064667257 2.8361423499002183 0.5094995467610508
| 42> H -4.942394368693312 1.9992341899088653 -0.4255964924665155
| 43> H -6.026935758043912 1.2648953422320417 1.7092586738925954
| 44> H -4.753287573765448 2.0903928052952803 2.64400794618183
| 45> H -5.88187273855759 3.032543914988245 1.6501653408433976
| 46> H -1.2463698478804366 -0.8481229008240893 1.8057615221725962
| 47> H -2.9220286377615237 -1.453925947045068 1.9352043519443003
| 48> H -0.5328202757876832 -3.04611041210844 0.83082298867673
| 49> H -1.2788635844836986 -3.2693104043814167 2.427060471435195
| 50> H -2.2056494524067563 -3.64589532130809 0.9628264502911293
| 51> *
| 52>
| 53>                          ****END OF INPUT****

CARTESIAN COORDINATES (ANGSTROEM)
---------------------------------
  C      5.151076   -2.330679   -1.720737
  C      4.443365   -1.049231   -1.366391
  O      3.322866   -1.405177   -0.483086
  P      2.302306   -0.274605    0.045282
  S      3.072043    1.393819    0.689239
  O      1.429154   -1.128882    1.084557
  C      1.740094   -1.162799    2.522341
  C      2.962277   -1.998263    2.812360
  S      0.992734   -0.124652   -1.614743
  C      0.176514    1.481633   -1.265946
  S     -0.925796    1.553888    0.197741
  P     -2.543534    0.330758   -0.448271
  S     -2.988738    0.452082   -2.335586
  O     -3.657147    0.745326    0.636369
  C     -4.394026    2.013147    0.520870
  C     -5.317387    2.096886    1.707270
  O     -2.233713   -1.181063   -0.016192
  C     -1.979143   -1.547788    1.389798
  C     -1.466822   -2.963829    1.393135
  H      5.528318   -2.828202   -0.822801
  H      4.484386   -3.012992   -2.255282
  H      6.000930   -2.098067   -2.369442
  H      4.042941   -0.547766   -2.253801
  H      5.095393   -0.358068   -0.824459
  H      1.850958   -0.132090    2.872959
  H      0.840911   -1.596367    2.965039
  H      2.853062   -3.006240    2.401764
  H      3.870114   -1.542675    2.405559
  H      3.079631   -2.078563    3.898184
  H     -0.395691    1.722950   -2.166628
  H      0.938697    2.248132   -1.098494
  H     -3.672185    2.836142    0.509500
  H     -4.942394    1.999234   -0.425596
  H     -6.026936    1.264895    1.709259
  H     -4.753288    2.090393    2.644008
  H     -5.881873    3.032544    1.650165
  H     -1.246370   -0.848123    1.805762
  H     -2.922029   -1.453926    1.935204
  H     -0.532820   -3.046110    0.830823
  H     -1.278864   -3.269310    2.427060
  H     -2.205649   -3.645895    0.962826

 Total Charge           Charge          ....    0
 Multiplicity           Mult            ....    1
 Number of Electrons    NEL             ....  202
 Basis Dimension        Dim             ....  757

ORBITAL ENERGIES
----------------

  NO   OCC          E(Eh)            E(eV)
   0   2.0000     -94.148656     -2561.9152
   1   2.0000     -94.148371     -2561.9074
   2   2.0000     -94.093106     -2560.4036
   3   2.0000     -94.092256     -2560.3804
   4   2.0000     -82.126353     -2234.7717
   5   2.0000     -82.126078     -2234.7642
   6   2.0000     -21.715164      -590.8996
   7   2.0000     -21.713642      -590.8582
   8   2.0000     -21.713533      -590.8553
   9   2.0000     -21.712205      -590.8191
  10   2.0000     -12.123788      -329.9051
  11   2.0000     -12.107662      -329.4662
  12   2.0000     -12.106329      -329.4300
  13   2.0000     -12.105863      -329.4173
  14   2.0000     -12.105713      -329.4132
  15   2.0000     -12.035770      -327.5100
  16   2.0000     -12.035429      -327.5007
  17   2.0000     -12.035191      -327.4942
  18   2.0000     -12.034532      -327.4763
  19   2.0000      -9.660019      -262.8625
  20   2.0000      -9.659732      -262.8547
  21   2.0000      -9.606243      -261.3992
  22   2.0000      -9.605398      -261.3762
  23   2.0000      -8.239613      -224.2113
  24   2.0000      -8.239416      -224.2059
  25   2.0000      -7.637748      -207.8337
  26   2.0000      -7.637452      -207.8256
  27   2.0000      -7.636907      -207.8108
  28   2.0000      -7.636268      -207.7934
  29   2.0000      -7.635504      -207.7726
  30   2.0000      -7.634648      -207.7493
  31   2.0000      -7.583870      -206.3676
  32   2.0000      -7.582999      -206.3439
  33   2.0000      -7.582167      -206.3213
  34   2.0000      -7.582079      -206.3189
  35   2.0000      -7.581394      -206.3002
  36   2.0000      -7.581222      -206.2955
  37   2.0000      -6.403942      -174.2601
  38   2.0000      -6.403638      -174.2518
  39   2.0000      -6.403574      -174.2501
  40   2.0000      -6.403502      -174.2481
  41   2.0000      -6.403143      -174.2384
  42   2.0000      -6.403059      -174.2361
  43   2.0000      -1.725988       -46.9665
  44   2.0000      -1.724006       -46.9126
  45   2.0000      -1.701187       -46.2916
  46   2.0000      -1.700508       -46.2732
  47   2.0000      -1.332180       -36.2505
  48   2.0000      -1.313069       -35.7304
  49   2.0000      -1.301234       -35.4084
  50   2.0000      -1.284437       -34.9513
  51   2.0000      -1.280960       -34.8567
  52   2.0000      -1.253352       -34.1055
  53   2.0000      -1.232251       -33.5313
  54   2.0000      -1.214261       -33.0417
  55   2.0000      -1.173643       -31.9365
  56   2.0000      -1.161832       -31.6151
  57   2.0000      -1.143908       -31.1273
  58   2.0000      -1.142771       -31.0964
  59   2.0000      -1.119993       -30.4766
  60   2.0000      -1.080299       -29.3964
  61   2.0000      -1.071202       -29.1489
  62   2.0000      -1.054885       -28.7049
  63   2.0000      -1.045251       -28.4427
  64   2.0000      -1.000383       -27.2218
  65   2.0000      -0.995155       -27.0795
  66   2.0000      -0.981840       -26.7172
  67   2.0000      -0.980302       -26.6754
  68   2.0000      -0.977545       -26.6004
  69   2.0000      -0.973860       -26.5001
  70   2.0000      -0.961331       -26.1592
  71   2.0000      -0.959628       -26.1128
  72   2.0000      -0.923067       -25.1179
  73   2.0000      -0.890947       -24.2439
  74   2.0000      -0.874344       -23.7921
  75   2.0000      -0.867844       -23.6152
  76   2.0000      -0.865498       -23.5514
  77   2.0000      -0.861992       -23.4560
  78   2.0000      -0.860388       -23.4123
  79   2.0000      -0.843198       -22.9446
  80   2.0000      -0.839264       -22.8375
  81   2.0000      -0.835714       -22.7409
  82   2.0000      -0.835105       -22.7244
  83   2.0000      -0.830966       -22.6117
  84   2.0000      -0.827991       -22.5308
  85   2.0000      -0.811333       -22.0775
  86   2.0000      -0.810969       -22.0676
  87   2.0000      -0.810323       -22.0500
  88   2.0000      -0.809841       -22.0369
  89   2.0000      -0.787795       -21.4370
  90   2.0000      -0.777960       -21.1694
  91   2.0000      -0.777526       -21.1576
  92   2.0000      -0.776120       -21.1193
  93   2.0000      -0.773604       -21.0508
  94   2.0000      -0.757376       -20.6093
  95   2.0000      -0.695210       -18.9176
  96   2.0000      -0.681227       -18.5371
  97   2.0000      -0.657594       -17.8940
  98   2.0000      -0.656543       -17.8654
  99   2.0000      -0.651294       -17.7226
 100   2.0000      -0.648941       -17.6586
 101   0.0000      -0.322989        -8.7890
 102   0.0000      -0.318642        -8.6707
 103   0.0000      -0.274006        -7.4561
 104   0.0000      -0.246106        -6.6969
 105   0.0000      -0.236945        -6.4476

MULLIKEN ATOMIC CHARGES
-----------------------
   0 C :   -0.366160
   1 C :   -0.043673
   2 O :   -0.342318
   3 P :    0.642909
   4 S :   -0.463610
   5 O :   -0.325957
   6 C :   -0.050775
   7 C :   -0.366226
   8 S :   -0.136293
   9 C :   -0.199456
  10 S :   -0.151153
  11 P :    0.635289
  12 S :   -0.458937
  13 O :   -0.325803
  14 C :   -0.050112
  15 C :   -0.364477
  16 O :   -0.328726
  17 C :   -0.055743
  18 C :   -0.372966
  19 H :    0.133962
  20 H :    0.133199
  21 H :    0.137397
  22 H :    0.132836
  23 H :    0.135163
  24 H :    0.137137
  25 H :    0.146036
  26 H :    0.133469
  27 H :    0.132247
  28 H :    0.143947
  29 H :    0.198156
  30 H :    0.198998
  31 H :    0.133754
  32 H :    0.134989
  33 H :    0.133464
  34 H :    0.133506
  35 H :    0.137982
  36 H :    0.136234
  37 H :    0.143161
  38 H :    0.129301
  39 H :    0.140152
  40 H :    0.139097
Sum of atomic charges:   -0.0000000

LOEWDIN ATOMIC CHARGES
----------------------
   0 C :   -0.305884
   1 C :   -0.318333
   2 O :    0.014283
   3 P :   -0.023777
   4 S :   -0.140685
   5 O :    0.020765
   6 C :   -0.313119
   7 C :   -0.312715
   8 S :    0.345866
   9 C :   -0.699569
  10 S :    0.343406
  11 P :   -0.033231
  12 S :   -0.149781
  13 O :    0.020834
  14 C :   -0.314214
  15 C :   -0.305153
  16 O :    0.014458
  17 C :   -0.312047
  18 C :   -0.309989
  19 H :    0.124906
  20 H :    0.124504
  21 H :    0.133125
  22 H :    0.125052
  23 H :    0.124947
  24 H :    0.123683
  25 H :    0.135241
  26 H :    0.125334
  27 H :    0.120768
  28 H :    0.134451
  29 H :    0.121326
  30 H :    0.121878
  31 H :    0.124335
  32 H :    0.126157
  33 H :    0.124995
  34 H :    0.124877
  35 H :    0.133599
  36 H :    0.121376
  37 H :    0.128644
  38 H :    0.120889
  39 H :    0.133972
  40 H :    0.124830

  Mayer bond orders larger than 0.100000
B(  0-C ,  1-C ) :   1.0115 B(  0-C , 19-H ) :   0.9724 B(  0-C , 20-H ) :   0.9724
B(  0-C , 21-H ) :   0.9660 B(  1-C ,  2-O ) :   0.8546 B(  1-C , 22-H ) :   0.9585
B(  1-C , 23-H ) :   0.9631 B(  2-O ,  3-P ) :   1.1861 B(  3-P ,  4-S ) :   1.7648
B(  3-P ,  5-O ) :   1.2183 B(  3-P ,  8-S ) :   1.0950 B(  5-O ,  6-C ) :   0.8382
B(  6-C ,  7-C ) :   1.0030 B(  6-C , 24-H ) :   0.9698 B(  6-C , 25-H ) :   0.9587
B(  7-C , 26-H ) :   0.9683 B(  7-C , 27-H ) :   0.9684 B(  7-C , 28-H ) :   0.9639
B(  8-S ,  9-C ) :   1.0065 B(  9-C , 10-S ) :   0.9985 B(  9-C , 29-H ) :   0.9279
B(  9-C , 30-H ) :   0.9290 B( 10-S , 11-P ) :   1.0653 B( 11-P , 12-S ) :   1.8364
B( 11-P , 13-O ) :   1.1743 B( 11-P , 16-O ) :   1.2401 B( 13-O , 14-C ) :   0.8626
B( 14-C , 15-C ) :   1.0130 B( 14-C , 31-H ) :   0.9601 B( 14-C , 32-H ) :   0.9620
B( 15-C , 33-H ) :   0.9718 B( 15-C , 34-H ) :   0.9722 B( 15-C , 35-H ) :   0.9651
B( 16-O , 17-C ) :   0.8516 B( 17-C , 18-C ) :   1.0039 B( 17-C , 36-H ) :   0.9619
B( 17-C , 37-H ) :   0.9629 B( 18-C , 38-H ) :   0.9739 B( 18-C , 39-H ) :   0.9663
B( 18-C , 40-H ) :   0.9671

FINAL SINGLE POINT ENERGY     -2932.551679577672

DIPOLE MOMENT
-------------

Method             : SCF
Type of density    : Electron Density
Multiplicity       :   1
Irrep              :   0
Energy             : -2932.5815276865719170 Eh
Relativity type    :
Basis              : AO
                                X                 Y                 Z
Electronic contribution:     -4.074566175      12.369542898     -14.327170103
Nuclear contribution   :      4.644214853     -12.562360095      16.338894026
                        -----------------------------------------
Total Dipole Moment    :      0.569648679      -0.192817197       2.011723923
                        -----------------------------------------
Magnitude (a.u.)       :      2.099693128
Magnitude (Debye)      :      5.336995794

Rotational constants in cm-1:             0.012708             0.004347             0.004084
Rotational constants in MHz :           380.988417           130.312478           122.428366

                             ****ORCA TERMINATED NORMALLY****
TOTAL RUN TIME: 0 days 0 hours 14 minutes 44 seconds 176 msec
