                         Program Version 6.0.0  -   RELEASE  -
|  1> ! pbe def2-sv(p) def2/J RI DEFGRID1 loosescf d4 GCP(DFT/SV(P)) printgap
|  2> %output
|  3>     printlevel normal
|  4> end
|  5> * xyz 0 1
|  6> C 4.6108355031 -1.6933751604 -0.6445107047
|  7> C 4.6423714528 -0.2099518438 -0.3391748215
|  8> O 3.5006182919 0.2072537728 0.4286109356
|  9> P 2.0359368811 0.2804642703 -0.1896702538
| 10> S 2.0013975143 0.8363195117 -2.0752500996
| 11> O 1.2921761803 1.1247764996 0.9246331328
| 12> C 1.7369496525 2.3932447086 1.4476241194
| 13> C 1.9188459588 3.4374639938 0.366385034
| 14> S 1.1961593926 -1.6107544564 0.1985550507
| 15> C -0.029395123 -1.72366094 -1.1498620358
| 16> S -1.7234874725 -1.8823655084 -0.5464218921
| 17> P -1.9785190824 0.0777658472 0.238918541
| 18> S -1.3159385667 1.556647868 -0.8599388673
| 19> O -1.3344396316 0.0769098251 1.6779167772
| 20> C -1.3600283431 -1.0040404901 2.6442872597
| 21> C -2.7600583871 -1.4754362804 2.9700217337
| 22> O -3.5349076385 0.1576375595 0.5525989916
| 23> C -4.5027520116 0.5911260611 -0.4172652636
| 24> C -4.649731589 -0.3882293558 -1.5640448101
| 25> H 5.5491436291 -1.9836859554 -1.1059291404
| 26> H 4.4631273401 -2.2644741432 0.2684642526
| 27> H 3.7964124518 -1.9129410693 -1.3331510048
| 28> H 4.6665252312 0.3720811252 -1.2661754044
| 29> H 5.4923291338 0.0553922277 0.2909790452
| 30> H 0.9386153834 2.672648261 2.1379811456
| 31> H 2.66751926 2.2258729085 1.9952838121
| 32> H 1.0073738605 3.5275879079 -0.222759815
| 33> H 2.1491102619 4.3956050723 0.8212624832
| 34> H 2.7320499874 3.1533459772 -0.3007711513
| 35> H 0.1727836741 -2.6296813371 -1.7150204645
| 36> H 0.067184582 -0.8349182434 -1.7803892435
| 37> H -0.7502161505 -1.8251031326 2.2558268939
| 38> H -0.8680621061 -0.5653030904 3.5137381402
| 39> H -3.3784684536 -0.6371137512 3.2797474752
| 40> H -3.2131498682 -1.9452544741 2.0997359192
| 41> H -2.7062083986 -2.2009957224 3.7758976663
| 42> H -5.4250078318 0.6776241362 0.1589723238
| 43> H -4.2027643277 1.575965461 -0.7895367678
| 44> H -3.7445905325 -0.3927024457 -2.1692614701
| 45> H -4.8248359913 -1.3921465028 -1.1860496836
| 46> H -5.4852345308 -0.0857244678 -2.1871412238
| 47> *
| 48>
| 49>                          ****END OF INPUT****

CARTESIAN COORDINATES (ANGSTROEM)
---------------------------------
  C      4.610836   -1.693375   -0.644511
  C      4.642371   -0.209952   -0.339175
  O      3.500618    0.207254    0.428611
  P      2.035937    0.280464   -0.189670
  S      2.001398    0.836320   -2.075250
  O      1.292176    1.124776    0.924633
  C      1.736950    2.393245    1.447624
  C      1.918846    3.437464    0.366385
  S      1.196159   -1.610754    0.198555
  C     -0.029395   -1.723661   -1.149862
  S     -1.723487   -1.882366   -0.546422
  P     -1.978519    0.077766    0.238919
  S     -1.315939    1.556648   -0.859939
  O     -1.334440    0.076910    1.677917
  C     -1.360028   -1.004040    2.644287
  C     -2.760058   -1.475436    2.970022
  O     -3.534908    0.157638    0.552599
  C     -4.502752    0.591126   -0.417265
  C     -4.649732   -0.388229   -1.564045
  H      5.549144   -1.983686   -1.105929
  H      4.463127   -2.264474    0.268464
  H      3.796412   -1.912941   -1.333151
  H      4.666525    0.372081   -1.266175
  H      5.492329    0.055392    0.290979
  H      0.938615    2.672648    2.137981
  H      2.667519    2.225873    1.995284
  H      1.007374    3.527588   -0.222760
  H      2.149110    4.395605    0.821262
  H      2.732050    3.153346   -0.300771
  H      0.172784   -2.629681   -1.715020
  H      0.067185   -0.834918   -1.780389
  H     -0.750216   -1.825103    2.255827
  H     -0.868062   -0.565303    3.513738
  H     -3.378468   -0.637114    3.279747
  H     -3.213150   -1.945254    2.099736
  H     -2.706208   -2.200996    3.775898
  H     -5.425008    0.677624    0.158972
  H     -4.202764    1.575965   -0.789537
  H     -3.744591   -0.392702   -2.169261
  H     -4.824836   -1.392147   -1.186050
  H     -5.485235   -0.085724   -2.187141

 Total Charge           Charge          ....    0
 Multiplicity           Mult            ....    1
 Number of Electrons    NEL             ....  202
 Basis Dimension        Dim             ....  334

ORBITAL ENERGIES
----------------

  NO   OCC          E(Eh)            E(eV)
   0   2.0000     -88.043666     -2395.7900
   1   2.0000     -88.040800     -2395.7120
   2   2.0000     -87.981076     -2394.0868
   3   2.0000     -87.976564     -2393.9640
   4   2.0000     -76.422152     -2079.5525
   5   2.0000     -76.421898     -2079.5456
   6   2.0000     -18.791827      -511.3516
   7   2.0000     -18.790187      -511.3070
   8   2.0000     -18.785536      -511.1804
   9   2.0000     -18.778497      -510.9889
  10   2.0000      -9.954092      -270.8646
  11   2.0000      -9.950179      -270.7581
  12   2.0000      -9.949743      -270.7463
  13   2.0000      -9.949537      -270.7407
  14   2.0000      -9.945314      -270.6257
  15   2.0000      -9.884198      -268.9627
  16   2.0000      -9.882077      -268.9050
  17   2.0000      -9.881920      -268.9007
  18   2.0000      -9.872187      -268.6359
  19   2.0000      -7.688533      -209.2156
  20   2.0000      -7.685822      -209.1419
  21   2.0000      -7.625991      -207.5138
  22   2.0000      -7.621578      -207.3937
  23   2.0000      -6.419328      -174.6788
  24   2.0000      -6.419085      -174.6722
  25   2.0000      -5.716375      -155.5505
  26   2.0000      -5.713666      -155.4768
  27   2.0000      -5.712856      -155.4547
  28   2.0000      -5.710344      -155.3864
  29   2.0000      -5.705755      -155.2615
  30   2.0000      -5.702748      -155.1796
  31   2.0000      -5.654887      -153.8773
  32   2.0000      -5.650528      -153.7587
  33   2.0000      -5.646791      -153.6570
  34   2.0000      -5.646008      -153.6357
  35   2.0000      -5.642158      -153.5309
  36   2.0000      -5.641697      -153.5184
  37   2.0000      -4.642105      -126.3181
  38   2.0000      -4.641871      -126.3117
  39   2.0000      -4.640989      -126.2877
  40   2.0000      -4.640831      -126.2834
  41   2.0000      -4.639908      -126.2583
  42   2.0000      -4.639268      -126.2409
  43   2.0000      -0.982938       -26.7471
  44   2.0000      -0.981857       -26.7177
  45   2.0000      -0.940951       -25.6046
  46   2.0000      -0.936811       -25.4919
  47   2.0000      -0.761275       -20.7154
  48   2.0000      -0.717106       -19.5134
  49   2.0000      -0.706087       -19.2136
  50   2.0000      -0.687451       -18.7065
  51   2.0000      -0.683884       -18.6094
  52   2.0000      -0.672346       -18.2955
  53   2.0000      -0.648617       -17.6498
  54   2.0000      -0.630252       -17.1500
  55   2.0000      -0.596929       -16.2433
  56   2.0000      -0.589321       -16.0363
  57   2.0000      -0.573449       -15.6043
  58   2.0000      -0.571069       -15.5396
  59   2.0000      -0.558908       -15.2087
  60   2.0000      -0.491846       -13.3838
  61   2.0000      -0.488567       -13.2946
  62   2.0000      -0.467896       -12.7321
  63   2.0000      -0.464429       -12.6378
  64   2.0000      -0.449401       -12.2288
  65   2.0000      -0.446009       -12.1365
  66   2.0000      -0.439418       -11.9572
  67   2.0000      -0.431083       -11.7304
  68   2.0000      -0.425700       -11.5839
  69   2.0000      -0.412944       -11.2368
  70   2.0000      -0.411064       -11.1856
  71   2.0000      -0.404389       -11.0040
  72   2.0000      -0.392828       -10.6894
  73   2.0000      -0.384898       -10.4736
  74   2.0000      -0.378170       -10.2905
  75   2.0000      -0.367189        -9.9917
  76   2.0000      -0.362592        -9.8666
  77   2.0000      -0.356641        -9.7047
  78   2.0000      -0.350347        -9.5334
  79   2.0000      -0.349252        -9.5036
  80   2.0000      -0.343892        -9.3578
  81   2.0000      -0.339521        -9.2388
  82   2.0000      -0.336084        -9.1453
  83   2.0000      -0.332506        -9.0479
  84   2.0000      -0.327387        -8.9086
  85   2.0000      -0.313473        -8.5300
  86   2.0000      -0.309267        -8.4156
  87   2.0000      -0.292769        -7.9666
  88   2.0000      -0.291320        -7.9272
  89   2.0000      -0.288051        -7.8383
  90   2.0000      -0.276101        -7.5131
  91   2.0000      -0.271735        -7.3943
  92   2.0000      -0.267372        -7.2756
  93   2.0000      -0.257679        -7.0118
  94   2.0000      -0.255729        -6.9587
  95   2.0000      -0.236691        -6.4407
  96   2.0000      -0.219726        -5.9790
  97   2.0000      -0.211611        -5.7582
  98   2.0000      -0.196959        -5.3595
  99   2.0000      -0.189740        -5.1631
 100   2.0000      -0.182050        -4.9538
 101   0.0000      -0.039682        -1.0798
 102   0.0000      -0.030361        -0.8262
 103   0.0000      -0.009305        -0.2532
 104   0.0000       0.013980         0.3804
 105   0.0000       0.018000         0.4898

MULLIKEN ATOMIC CHARGES
-----------------------
   0 C :   -0.308541
   1 C :   -0.004359
   2 O :   -0.382175
   3 P :    0.626752
   4 S :   -0.311932
   5 O :   -0.352934
   6 C :    0.010116
   7 C :   -0.324000
   8 S :   -0.100347
   9 C :   -0.347581
  10 S :   -0.114345
  11 P :    0.595346
  12 S :   -0.296941
  13 O :   -0.349691
  14 C :   -0.002218
  15 C :   -0.303604
  16 O :   -0.375424
  17 C :   -0.000662
  18 C :   -0.318926
  19 H :    0.111466
  20 H :    0.114895
  21 H :    0.121337
  22 H :    0.110362
  23 H :    0.101567
  24 H :    0.105567
  25 H :    0.101173
  26 H :    0.138946
  27 H :    0.105053
  28 H :    0.121382
  29 H :    0.181353
  30 H :    0.209140
  31 H :    0.113424
  32 H :    0.105106
  33 H :    0.119624
  34 H :    0.117057
  35 H :    0.110743
  36 H :    0.102600
  37 H :    0.112271
  38 H :    0.130387
  39 H :    0.114806
  40 H :    0.113207
Sum of atomic charges:    0.0000000

LOEWDIN ATOMIC CHARGES
----------------------
   0 C :   -0.368315
   1 C :   -0.121812
   2 O :   -0.247691
   3 P :    0.572459
   4 S :   -0.301886
   5 O :   -0.231736
   6 C :   -0.108036
   7 C :   -0.370112
   8 S :    0.087858
   9 C :   -0.479185
  10 S :    0.073875
  11 P :    0.566743
  12 S :   -0.297745
  13 O :   -0.229349
  14 C :   -0.115997
  15 C :   -0.366686
  16 O :   -0.244054
  17 C :   -0.119180
  18 C :   -0.371443
  19 H :    0.130121
  20 H :    0.123543
  21 H :    0.120041
  22 H :    0.109126
  23 H :    0.116589
  24 H :    0.120848
  25 H :    0.109207
  26 H :    0.131243
  27 H :    0.126715
  28 H :    0.118786
  29 H :    0.136946
  30 H :    0.126781
  31 H :    0.101340
  32 H :    0.120907
  33 H :    0.127430
  34 H :    0.117396
  35 H :    0.130047
  36 H :    0.117533
  37 H :    0.111815
  38 H :    0.122615
  39 H :    0.122014
  40 H :    0.131248

  Mayer bond orders larger than 0.100000
B(  0-C ,  1-C ) :   1.1675 B(  0-C , 19-H ) :   0.9386 B(  0-C , 20-H ) :   0.9453
B(  0-C , 21-H ) :   0.9364 B(  1-C ,  2-O ) :   0.9111 B(  1-C , 22-H ) :   0.9115
B(  1-C , 23-H ) :   0.9331 B(  2-O ,  3-P ) :   1.0831 B(  3-P ,  4-S ) :   1.6009
B(  3-P ,  5-O ) :   1.1434 B(  3-P ,  8-S ) :   0.9550 B(  4-S ,  8-S ) :   0.1181
B(  5-O ,  6-C ) :   0.9070 B(  6-C ,  7-C ) :   1.1666 B(  6-C , 24-H ) :   0.9321
B(  6-C , 25-H ) :   0.9323 B(  7-C , 26-H ) :   0.9394 B(  7-C , 27-H ) :   0.9359
B(  7-C , 28-H ) :   0.9362 B(  8-S ,  9-C ) :   0.9965 B(  9-C , 10-S ) :   1.0036
B(  9-C , 29-H ) :   0.9111 B(  9-C , 30-H ) :   0.8462 B( 10-S , 11-P ) :   0.9313
B( 10-S , 12-S ) :   0.1054 B( 11-P , 12-S ) :   1.6432 B( 11-P , 13-O ) :   1.1476
B( 11-P , 16-O ) :   1.0853 B( 13-O , 14-C ) :   0.9006 B( 14-C , 15-C ) :   1.1692
B( 14-C , 31-H ) :   0.9084 B( 14-C , 32-H ) :   0.9352 B( 15-C , 33-H ) :   0.9434
B( 15-C , 34-H ) :   0.9383 B( 15-C , 35-H ) :   0.9361 B( 16-O , 17-C ) :   0.9077
B( 17-C , 18-C ) :   1.1662 B( 17-C , 36-H ) :   0.9338 B( 17-C , 37-H ) :   0.9138
B( 18-C , 38-H ) :   0.9342 B( 18-C , 39-H ) :   0.9448 B( 18-C , 40-H ) :   0.9376

Dispersion correction           -0.068934404
FINAL SINGLE POINT ENERGY     -2929.515535957037

DIPOLE MOMENT
-------------

Method             : SCF
Type of density    : Electron Density
Multiplicity       :   1
Irrep              :   0
Energy             : -2929.6328387190055764 Eh
Relativity type    :
Basis              : AO
                                X                 Y                 Z
Electronic contribution:      0.882906388      -0.407921344      -5.197460466
Nuclear contribution   :     -0.897957172      -0.278093314       6.241350039
                        -----------------------------------------
Total Dipole Moment    :     -0.015050784      -0.686014658       1.043889573
                        -----------------------------------------
Magnitude (a.u.)       :      1.249218987
Magnitude (Debye)      :      3.175262324

Rotational constants in cm-1:             0.012957             0.005392             0.005139
Rotational constants in MHz :           388.430269           161.661293           154.058579

                             ****ORCA TERMINATED NORMALLY****
TOTAL RUN TIME: 0 days 0 hours 0 minutes 22 seconds 796 msec
