                         Program Version 6.0.1  -  RELEASE   -
|  1> ! r2scan-3c def2/J RI DEFGRID2 scfconv6 printgap
|  2> %output
|  3>     printlevel normal
|  4> end
|  5> * xyz 0 1
|  6> C 4.3111045108 -3.7234339416 -1.0019428954
|  7> C 2.7949893721 -3.7255599541 -0.8872318428
|  8> O 2.321206852 -2.5091199885 -0.2765120489
|  9> C 2.1353838544 -1.4542443518 -1.043238457
| 10> O 2.2890110276 -1.4356114445 -2.2443062129
| 11> C 1.6902290847 -0.2529076076 -0.2308117466
| 12> C 0.6387972147 0.5326918066 -1.0015176315
| 13> H 1.0023935394 0.7108237491 -2.020537336
| 14> C 0.2777420764 1.8695369335 -0.3838308936
| 15> O -0.8520184044 2.3183892743 -0.4188940997
| 16> O 1.3077800124 2.4774431659 0.1337851945
| 17> C 1.0800989982 3.749706473 0.7776809911
| 18> C 2.3469716311 4.1315538458 1.5152334352
| 19> S -0.8999475096 -0.4173751568 -1.235834395
| 20> P -1.8933699864 0.0182270819 0.597796799
| 21> S -0.8154900148 0.5043570005 2.1567676331
| 22> O -3.1090547243 0.9934786555 0.357098119
| 23> C -4.0082738449 0.8653971607 -0.7606905361
| 24> O -2.7003765048 -1.3550807003 0.8063433668
| 25> C -2.023275004 -2.5674807324 1.149638405
| 26> H 4.6422374137 -4.6795131271 -1.3936200004
| 27> H 4.6341676091 -2.9347772928 -1.677575255
| 28> H 4.7599556448 -3.5607983066 -0.0259232055
| 29> H 2.4479767735 -4.5159704102 -0.2218887818
| 30> H 2.3317796459 -3.8225941861 -1.8732233347
| 31> H 2.5571783476 0.3918579824 -0.0693308603
| 32> H 1.3185122219 -0.5816687166 0.7405687868
| 33> H 0.8180058914 4.4795413731 0.0060992859
| 34> H 0.2283517978 3.6370609682 1.4560010786
| 35> H 2.5734221974 3.3867515802 2.2722462836
| 36> H 3.1781686825 4.1965589807 0.8198705385
| 37> H 2.2028389223 5.0941235245 1.9941000964
| 38> H -4.7729453405 1.6193127107 -0.5933915661
| 39> H -4.4413218014 -0.1331709553 -0.7805787938
| 40> H -3.46980935 1.0651012716 -1.6868796161
| 41> H -2.8052492074 -3.2753768131 1.411634028
| 42> H -1.3609084849 -2.3983065607 2.0002578337
| 43> H -1.4488816954 -2.9270779183 0.2957268231
| 44> *
| 45>
| 46>                          ****END OF INPUT****

CARTESIAN COORDINATES (ANGSTROEM)
---------------------------------
  C      4.311105   -3.723434   -1.001943
  C      2.794989   -3.725560   -0.887232
  O      2.321207   -2.509120   -0.276512
  C      2.135384   -1.454244   -1.043238
  O      2.289011   -1.435611   -2.244306
  C      1.690229   -0.252908   -0.230812
  C      0.638797    0.532692   -1.001518
  H      1.002394    0.710824   -2.020537
  C      0.277742    1.869537   -0.383831
  O     -0.852018    2.318389   -0.418894
  O      1.307780    2.477443    0.133785
  C      1.080099    3.749706    0.777681
  C      2.346972    4.131554    1.515233
  S     -0.899948   -0.417375   -1.235834
  P     -1.893370    0.018227    0.597797
  S     -0.815490    0.504357    2.156768
  O     -3.109055    0.993479    0.357098
  C     -4.008274    0.865397   -0.760691
  O     -2.700377   -1.355081    0.806343
  C     -2.023275   -2.567481    1.149638
  H      4.642237   -4.679513   -1.393620
  H      4.634168   -2.934777   -1.677575
  H      4.759956   -3.560798   -0.025923
  H      2.447977   -4.515970   -0.221889
  H      2.331780   -3.822594   -1.873223
  H      2.557178    0.391858   -0.069331
  H      1.318512   -0.581669    0.740569
  H      0.818006    4.479541    0.006099
  H      0.228352    3.637061    1.456001
  H      2.573422    3.386752    2.272246
  H      3.178169    4.196559    0.819871
  H      2.202839    5.094124    1.994100
  H     -4.772945    1.619313   -0.593392
  H     -4.441322   -0.133171   -0.780579
  H     -3.469809    1.065101   -1.686880
  H     -2.805249   -3.275377    1.411634
  H     -1.360908   -2.398307    2.000258
  H     -1.448882   -2.927078    0.295727

 Total Charge           Charge          ....    0
 Multiplicity           Mult            ....    1
 Number of Electrons    NEL             ....  174
 Basis Dimension        Dim             ....  510

ORBITAL ENERGIES
----------------

  NO   OCC          E(Eh)            E(eV)
   0   2.0000     -88.572710     -2410.1860
   1   2.0000     -88.513387     -2408.5717
   2   2.0000     -76.910059     -2092.8291
   3   2.0000     -19.010477      -517.3014
   4   2.0000     -19.005484      -517.1655
   5   2.0000     -18.984408      -516.5920
   6   2.0000     -18.984136      -516.5846
   7   2.0000     -18.936720      -515.2943
   8   2.0000     -18.934657      -515.2382
   9   2.0000     -10.166608      -276.6475
  10   2.0000     -10.161049      -276.4962
  11   2.0000     -10.097213      -274.7591
  12   2.0000     -10.097048      -274.7547
  13   2.0000     -10.096134      -274.7298
  14   2.0000     -10.089234      -274.5420
  15   2.0000     -10.086124      -274.4574
  16   2.0000     -10.052298      -273.5369
  17   2.0000     -10.034141      -273.0429
  18   2.0000     -10.033496      -273.0253
  19   2.0000      -7.866848      -214.0678
  20   2.0000      -7.808537      -212.4811
  21   2.0000      -6.588001      -179.2686
  22   2.0000      -5.813872      -158.2035
  23   2.0000      -5.810662      -158.1161
  24   2.0000      -5.803883      -157.9317
  25   2.0000      -5.756412      -156.6399
  26   2.0000      -5.748822      -156.4334
  27   2.0000      -5.748235      -156.4174
  28   2.0000      -4.733667      -128.8096
  29   2.0000      -4.733139      -128.7953
  30   2.0000      -4.731534      -128.7516
  31   2.0000      -1.088941       -29.6316
  32   2.0000      -1.081604       -29.4319
  33   2.0000      -1.042914       -28.3791
  34   2.0000      -1.000941       -27.2370
  35   2.0000      -0.987589       -26.8737
  36   2.0000      -0.986524       -26.8447
  37   2.0000      -0.809204       -22.0196
  38   2.0000      -0.755943       -20.5702
  39   2.0000      -0.750698       -20.4275
  40   2.0000      -0.727267       -19.7899
  41   2.0000      -0.695133       -18.9155
  42   2.0000      -0.669133       -18.2080
  43   2.0000      -0.660190       -17.9647
  44   2.0000      -0.650513       -17.7014
  45   2.0000      -0.628023       -17.0894
  46   2.0000      -0.595143       -16.1947
  47   2.0000      -0.543763       -14.7965
  48   2.0000      -0.532661       -14.4945
  49   2.0000      -0.525923       -14.3111
  50   2.0000      -0.503406       -13.6984
  51   2.0000      -0.487135       -13.2556
  52   2.0000      -0.475773       -12.9464
  53   2.0000      -0.470728       -12.8092
  54   2.0000      -0.461210       -12.5502
  55   2.0000      -0.454622       -12.3709
  56   2.0000      -0.444541       -12.0966
  57   2.0000      -0.442738       -12.0475
  58   2.0000      -0.435347       -11.8464
  59   2.0000      -0.426461       -11.6046
  60   2.0000      -0.419844       -11.4245
  61   2.0000      -0.412908       -11.2358
  62   2.0000      -0.407357       -11.0848
  63   2.0000      -0.405439       -11.0326
  64   2.0000      -0.395549       -10.7634
  65   2.0000      -0.381374       -10.3777
  66   2.0000      -0.377298       -10.2668
  67   2.0000      -0.374460       -10.1896
  68   2.0000      -0.359664        -9.7870
  69   2.0000      -0.357548        -9.7294
  70   2.0000      -0.349882        -9.5208
  71   2.0000      -0.343790        -9.3550
  72   2.0000      -0.335944        -9.1415
  73   2.0000      -0.324527        -8.8308
  74   2.0000      -0.321021        -8.7354
  75   2.0000      -0.314404        -8.5554
  76   2.0000      -0.312771        -8.5109
  77   2.0000      -0.306335        -8.3358
  78   2.0000      -0.286419        -7.7939
  79   2.0000      -0.280300        -7.6274
  80   2.0000      -0.276883        -7.5344
  81   2.0000      -0.270822        -7.3694
  82   2.0000      -0.253110        -6.8875
  83   2.0000      -0.245506        -6.6806
  84   2.0000      -0.232804        -6.3349
  85   2.0000      -0.211489        -5.7549
  86   2.0000      -0.210219        -5.7204
  87   0.0000      -0.043292        -1.1780
  88   0.0000      -0.028651        -0.7796
  89   0.0000      -0.013469        -0.3665
  90   0.0000       0.004800         0.1306
  91   0.0000       0.022910         0.6234

MULLIKEN ATOMIC CHARGES
-----------------------
   0 C :   -0.471743
   1 C :   -0.138158
   2 O :   -0.172537
   3 C :    0.401839
   4 O :   -0.437042
   5 C :   -0.432501
   6 C :    0.021099
   7 H :    0.215428
   8 C :    0.263306
   9 O :   -0.387686
  10 O :   -0.132070
  11 C :   -0.148667
  12 C :   -0.452545
  13 S :   -0.169140
  14 P :    0.779534
  15 S :   -0.463199
  16 O :   -0.297620
  17 C :   -0.300179
  18 O :   -0.355132
  19 C :   -0.302513
  20 H :    0.148842
  21 H :    0.173246
  22 H :    0.154081
  23 H :    0.150089
  24 H :    0.169709
  25 H :    0.198010
  26 H :    0.213788
  27 H :    0.152236
  28 H :    0.181675
  29 H :    0.160395
  30 H :    0.151501
  31 H :    0.150323
  32 H :    0.155160
  33 H :    0.164014
  34 H :    0.174305
  35 H :    0.150610
  36 H :    0.174862
  37 H :    0.156676
Sum of atomic charges:   -0.0000000

LOEWDIN ATOMIC CHARGES
----------------------
   0 C :   -0.388974
   1 C :    0.029428
   2 O :   -0.580813
   3 C :    0.350719
   4 O :   -0.441759
   5 C :   -0.210819
   6 C :   -0.191740
   7 H :    0.216758
   8 C :    0.335856
   9 O :   -0.453376
  10 O :   -0.582137
  11 C :    0.038719
  12 C :   -0.384736
  13 S :    0.216553
  14 P :    0.412010
  15 S :   -0.075991
  16 O :   -0.638485
  17 C :   -0.050117
  18 O :   -0.688500
  19 C :   -0.065329
  20 H :    0.160051
  21 H :    0.165308
  22 H :    0.158253
  23 H :    0.179022
  24 H :    0.188587
  25 H :    0.200548
  26 H :    0.199784
  27 H :    0.178026
  28 H :    0.192503
  29 H :    0.162192
  30 H :    0.158896
  31 H :    0.161509
  32 H :    0.181062
  33 H :    0.170996
  34 H :    0.176054
  35 H :    0.176182
  36 H :    0.175702
  37 H :    0.168059

  Mayer bond orders larger than 0.100000
B(  0-C ,  1-C ) :   0.9375 B(  0-C , 20-H ) :   0.9640 B(  0-C , 21-H ) :   0.9712
B(  0-C , 22-H ) :   0.9731 B(  1-C ,  2-O ) :   0.8096 B(  1-C , 23-H ) :   0.9611
B(  1-C , 24-H ) :   0.9683 B(  2-O ,  3-C ) :   1.0773 B(  3-C ,  4-O ) :   1.8217
B(  3-C ,  5-C ) :   0.9328 B(  5-C ,  6-C ) :   0.9332 B(  5-C , 25-H ) :   0.9342
B(  5-C , 26-H ) :   0.9461 B(  6-C ,  7-H ) :   0.8979 B(  6-C ,  8-C ) :   0.9279
B(  6-C , 13-S ) :   0.8370 B(  8-C ,  9-O ) :   1.7800 B(  8-C , 10-O ) :   1.1822
B( 10-O , 11-C ) :   0.7799 B( 11-C , 12-C ) :   0.9430 B( 11-C , 27-H ) :   0.9459
B( 11-C , 28-H ) :   0.9532 B( 12-C , 29-H ) :   0.9740 B( 12-C , 30-H ) :   0.9723
B( 12-C , 31-H ) :   0.9667 B( 13-S , 14-P ) :   0.9938 B( 14-P , 15-S ) :   1.7492
B( 14-P , 16-O ) :   1.1995 B( 14-P , 18-O ) :   1.0127 B( 16-O , 17-C ) :   0.7968
B( 17-C , 32-H ) :   0.9648 B( 17-C , 33-H ) :   0.9640 B( 17-C , 34-H ) :   0.9568
B( 18-O , 19-C ) :   0.8369 B( 19-C , 35-H ) :   0.9685 B( 19-C , 36-H ) :   0.9590
B( 19-C , 37-H ) :   0.9545

Dispersion correction           -0.017060124
FINAL SINGLE POINT ENERGY     -1981.452118113047

DIPOLE MOMENT
-------------

Method             : SCF
Type of density    : Electron Density
Multiplicity       :   1
Irrep              :   0
Energy             : -1981.4724683723643466 Eh
Relativity type    :
Basis              : AO
                                X                 Y                 Z
Electronic contribution:    -14.635860521       3.497429867      -0.229426987
Nuclear contribution   :     15.236182480      -3.997020869       0.028027056
                        -----------------------------------------
Total Dipole Moment    :      0.600321959      -0.499591002      -0.201399931
                        -----------------------------------------
Magnitude (a.u.)       :      0.806560324
Magnitude (Debye)      :      2.050113419

Rotational constants in cm-1:             0.011005             0.007471             0.005455
Rotational constants in MHz :           329.923864           223.968143           163.542963

                             ****ORCA TERMINATED NORMALLY****
TOTAL RUN TIME: 0 days 0 hours 1 minutes 18 seconds 347 msec
