                         Program Version 6.0.1  -  RELEASE   -
|  1> ! r2scan-3c def2/J RI DEFGRID2 scfconv6 printgap
|  2> %output
|  3>     printlevel normal
|  4> end
|  5> %cpcm
|  6>     smd true
|  7>     smdsolvent "water"
|  8> end
|  9> * xyz 0 1
| 10> C 4.3111045108 -3.7234339416 -1.0019428954
| 11> C 2.7949893721 -3.7255599541 -0.8872318428
| 12> O 2.321206852 -2.5091199885 -0.2765120489
| 13> C 2.1353838544 -1.4542443518 -1.043238457
| 14> O 2.2890110276 -1.4356114445 -2.2443062129
| 15> C 1.6902290847 -0.2529076076 -0.2308117466
| 16> C 0.6387972147 0.5326918066 -1.0015176315
| 17> H 1.0023935394 0.7108237491 -2.020537336
| 18> C 0.2777420764 1.8695369335 -0.3838308936
| 19> O -0.8520184044 2.3183892743 -0.4188940997
| 20> O 1.3077800124 2.4774431659 0.1337851945
| 21> C 1.0800989982 3.749706473 0.7776809911
| 22> C 2.3469716311 4.1315538458 1.5152334352
| 23> S -0.8999475096 -0.4173751568 -1.235834395
| 24> P -1.8933699864 0.0182270819 0.597796799
| 25> S -0.8154900148 0.5043570005 2.1567676331
| 26> O -3.1090547243 0.9934786555 0.357098119
| 27> C -4.0082738449 0.8653971607 -0.7606905361
| 28> O -2.7003765048 -1.3550807003 0.8063433668
| 29> C -2.023275004 -2.5674807324 1.149638405
| 30> H 4.6422374137 -4.6795131271 -1.3936200004
| 31> H 4.6341676091 -2.9347772928 -1.677575255
| 32> H 4.7599556448 -3.5607983066 -0.0259232055
| 33> H 2.4479767735 -4.5159704102 -0.2218887818
| 34> H 2.3317796459 -3.8225941861 -1.8732233347
| 35> H 2.5571783476 0.3918579824 -0.0693308603
| 36> H 1.3185122219 -0.5816687166 0.7405687868
| 37> H 0.8180058914 4.4795413731 0.0060992859
| 38> H 0.2283517978 3.6370609682 1.4560010786
| 39> H 2.5734221974 3.3867515802 2.2722462836
| 40> H 3.1781686825 4.1965589807 0.8198705385
| 41> H 2.2028389223 5.0941235245 1.9941000964
| 42> H -4.7729453405 1.6193127107 -0.5933915661
| 43> H -4.4413218014 -0.1331709553 -0.7805787938
| 44> H -3.46980935 1.0651012716 -1.6868796161
| 45> H -2.8052492074 -3.2753768131 1.411634028
| 46> H -1.3609084849 -2.3983065607 2.0002578337
| 47> H -1.4488816954 -2.9270779183 0.2957268231
| 48> *
| 49>
| 50>                          ****END OF INPUT****

CARTESIAN COORDINATES (ANGSTROEM)
---------------------------------
  C      4.311105   -3.723434   -1.001943
  C      2.794989   -3.725560   -0.887232
  O      2.321207   -2.509120   -0.276512
  C      2.135384   -1.454244   -1.043238
  O      2.289011   -1.435611   -2.244306
  C      1.690229   -0.252908   -0.230812
  C      0.638797    0.532692   -1.001518
  H      1.002394    0.710824   -2.020537
  C      0.277742    1.869537   -0.383831
  O     -0.852018    2.318389   -0.418894
  O      1.307780    2.477443    0.133785
  C      1.080099    3.749706    0.777681
  C      2.346972    4.131554    1.515233
  S     -0.899948   -0.417375   -1.235834
  P     -1.893370    0.018227    0.597797
  S     -0.815490    0.504357    2.156768
  O     -3.109055    0.993479    0.357098
  C     -4.008274    0.865397   -0.760691
  O     -2.700377   -1.355081    0.806343
  C     -2.023275   -2.567481    1.149638
  H      4.642237   -4.679513   -1.393620
  H      4.634168   -2.934777   -1.677575
  H      4.759956   -3.560798   -0.025923
  H      2.447977   -4.515970   -0.221889
  H      2.331780   -3.822594   -1.873223
  H      2.557178    0.391858   -0.069331
  H      1.318512   -0.581669    0.740569
  H      0.818006    4.479541    0.006099
  H      0.228352    3.637061    1.456001
  H      2.573422    3.386752    2.272246
  H      3.178169    4.196559    0.819871
  H      2.202839    5.094124    1.994100
  H     -4.772945    1.619313   -0.593392
  H     -4.441322   -0.133171   -0.780579
  H     -3.469809    1.065101   -1.686880
  H     -2.805249   -3.275377    1.411634
  H     -1.360908   -2.398307    2.000258
  H     -1.448882   -2.927078    0.295727

 Total Charge           Charge          ....    0
 Multiplicity           Mult            ....    1
 Number of Electrons    NEL             ....  174
 Basis Dimension        Dim             ....  510

ORBITAL ENERGIES
----------------

  NO   OCC          E(Eh)            E(eV)
   0   2.0000     -88.580654     -2410.4021
   1   2.0000     -88.528049     -2408.9707
   2   2.0000     -76.921693     -2093.1457
   3   2.0000     -19.015399      -517.4353
   4   2.0000     -19.009282      -517.2689
   5   2.0000     -18.996624      -516.9244
   6   2.0000     -18.991609      -516.7880
   7   2.0000     -18.949691      -515.6473
   8   2.0000     -18.949382      -515.6389
   9   2.0000     -10.178198      -276.9628
  10   2.0000     -10.170669      -276.7580
  11   2.0000     -10.100245      -274.8416
  12   2.0000     -10.089372      -274.5458
  13   2.0000     -10.086052      -274.4554
  14   2.0000     -10.084676      -274.4180
  15   2.0000     -10.080162      -274.2952
  16   2.0000     -10.053188      -273.5612
  17   2.0000     -10.020480      -272.6711
  18   2.0000     -10.019433      -272.6426
  19   2.0000      -7.874808      -214.2844
  20   2.0000      -7.823447      -212.8868
  21   2.0000      -6.599768      -179.5888
  22   2.0000      -5.821836      -158.4202
  23   2.0000      -5.818636      -158.3331
  24   2.0000      -5.811825      -158.1478
  25   2.0000      -5.771235      -157.0433
  26   2.0000      -5.763774      -156.8403
  27   2.0000      -5.763138      -156.8230
  28   2.0000      -4.745394      -129.1287
  29   2.0000      -4.744860      -129.1142
  30   2.0000      -4.743389      -129.0742
  31   2.0000      -1.095753       -29.8170
  32   2.0000      -1.086841       -29.5745
  33   2.0000      -1.052869       -28.6500
  34   2.0000      -1.009747       -27.4766
  35   2.0000      -1.000490       -27.2247
  36   2.0000      -0.997077       -27.1319
  37   2.0000      -0.813475       -22.1358
  38   2.0000      -0.749810       -20.4034
  39   2.0000      -0.748088       -20.3565
  40   2.0000      -0.730037       -19.8653
  41   2.0000      -0.696637       -18.9564
  42   2.0000      -0.668413       -18.1884
  43   2.0000      -0.662584       -18.0298
  44   2.0000      -0.654447       -17.8084
  45   2.0000      -0.622053       -16.9269
  46   2.0000      -0.593160       -16.1407
  47   2.0000      -0.543696       -14.7947
  48   2.0000      -0.533557       -14.5188
  49   2.0000      -0.524162       -14.2632
  50   2.0000      -0.507888       -13.8203
  51   2.0000      -0.491371       -13.3709
  52   2.0000      -0.478180       -13.0119
  53   2.0000      -0.474487       -12.9115
  54   2.0000      -0.466436       -12.6924
  55   2.0000      -0.461103       -12.5473
  56   2.0000      -0.450341       -12.2544
  57   2.0000      -0.447585       -12.1794
  58   2.0000      -0.441709       -12.0195
  59   2.0000      -0.427150       -11.6233
  60   2.0000      -0.418351       -11.3839
  61   2.0000      -0.411423       -11.1954
  62   2.0000      -0.408572       -11.1178
  63   2.0000      -0.403636       -10.9835
  64   2.0000      -0.394952       -10.7472
  65   2.0000      -0.380989       -10.3673
  66   2.0000      -0.370084       -10.0705
  67   2.0000      -0.367977       -10.0132
  68   2.0000      -0.360718        -9.8156
  69   2.0000      -0.355092        -9.6625
  70   2.0000      -0.347850        -9.4655
  71   2.0000      -0.341249        -9.2859
  72   2.0000      -0.335338        -9.1250
  73   2.0000      -0.326518        -8.8850
  74   2.0000      -0.322182        -8.7670
  75   2.0000      -0.316113        -8.6019
  76   2.0000      -0.312436        -8.5018
  77   2.0000      -0.308422        -8.3926
  78   2.0000      -0.292476        -7.9587
  79   2.0000      -0.285423        -7.7668
  80   2.0000      -0.284060        -7.7297
  81   2.0000      -0.277370        -7.5476
  82   2.0000      -0.266840        -7.2611
  83   2.0000      -0.258379        -7.0309
  84   2.0000      -0.244151        -6.6437
  85   2.0000      -0.226470        -6.1625
  86   2.0000      -0.224987        -6.1222
  87   0.0000      -0.052617        -1.4318
  88   0.0000      -0.039289        -1.0691
  89   0.0000      -0.021925        -0.5966
  90   0.0000      -0.001699        -0.0462
  91   0.0000       0.013568         0.3692

MULLIKEN ATOMIC CHARGES
-----------------------
   0 C :   -0.497187
   1 C :   -0.141231
   2 O :   -0.188057
   3 C :    0.425524
   4 O :   -0.500012
   5 C :   -0.434539
   6 C :    0.025518
   7 H :    0.246422
   8 C :    0.281135
   9 O :   -0.446595
  10 O :   -0.140310
  11 C :   -0.145210
  12 C :   -0.493695
  13 S :   -0.177266
  14 P :    0.782912
  15 S :   -0.495716
  16 O :   -0.346982
  17 C :   -0.305754
  18 O :   -0.385815
  19 C :   -0.308708
  20 H :    0.172008
  21 H :    0.170795
  22 H :    0.166944
  23 H :    0.177188
  24 H :    0.175026
  25 H :    0.230458
  26 H :    0.212478
  27 H :    0.178103
  28 H :    0.176399
  29 H :    0.168235
  30 H :    0.166943
  31 H :    0.172358
  32 H :    0.182272
  33 H :    0.185470
  34 H :    0.180990
  35 H :    0.179123
  36 H :    0.177566
  37 H :    0.173211
Sum of atomic charges:   -0.0000000

LOEWDIN ATOMIC CHARGES
----------------------
   0 C :   -0.391279
   1 C :    0.035570
   2 O :   -0.582987
   3 C :    0.360326
   4 O :   -0.486544
   5 C :   -0.206642
   6 C :   -0.187890
   7 H :    0.228711
   8 C :    0.344654
   9 O :   -0.499372
  10 O :   -0.577753
  11 C :    0.042094
  12 C :   -0.386721
  13 S :    0.217699
  14 P :    0.408188
  15 S :   -0.103401
  16 O :   -0.669913
  17 C :   -0.043745
  18 O :   -0.701241
  19 C :   -0.059208
  20 H :    0.168641
  21 H :    0.163023
  22 H :    0.162802
  23 H :    0.190843
  24 H :    0.190758
  25 H :    0.213840
  26 H :    0.199824
  27 H :    0.187364
  28 H :    0.190283
  29 H :    0.163816
  30 H :    0.164173
  31 H :    0.170051
  32 H :    0.192153
  33 H :    0.181089
  34 H :    0.180061
  35 H :    0.188406
  36 H :    0.177070
  37 H :    0.175259

  Mayer bond orders larger than 0.100000
B(  0-C ,  1-C ) :   0.9356 B(  0-C , 20-H ) :   0.9590 B(  0-C , 21-H ) :   0.9688
B(  0-C , 22-H ) :   0.9692 B(  1-C ,  2-O ) :   0.7917 B(  1-C , 23-H ) :   0.9514
B(  1-C , 24-H ) :   0.9630 B(  2-O ,  3-C ) :   1.0964 B(  3-C ,  4-O ) :   1.7778
B(  3-C ,  5-C ) :   0.9488 B(  5-C ,  6-C ) :   0.9261 B(  5-C , 25-H ) :   0.9184
B(  5-C , 26-H ) :   0.9438 B(  6-C ,  7-H ) :   0.8731 B(  6-C ,  8-C ) :   0.9513
B(  6-C , 13-S ) :   0.8161 B(  8-C ,  9-O ) :   1.7403 B(  8-C , 10-O ) :   1.2001
B( 10-O , 11-C ) :   0.7664 B( 11-C , 12-C ) :   0.9431 B( 11-C , 27-H ) :   0.9379
B( 11-C , 28-H ) :   0.9489 B( 12-C , 29-H ) :   0.9720 B( 12-C , 30-H ) :   0.9684
B( 12-C , 31-H ) :   0.9607 B( 13-S , 14-P ) :   1.0086 B( 14-P , 15-S ) :   1.7543
B( 14-P , 16-O ) :   1.1881 B( 14-P , 18-O ) :   1.0158 B( 16-O , 17-C ) :   0.7909
B( 17-C , 32-H ) :   0.9541 B( 17-C , 33-H ) :   0.9539 B( 17-C , 34-H ) :   0.9483
B( 18-O , 19-C ) :   0.8284 B( 19-C , 35-H ) :   0.9581 B( 19-C , 36-H ) :   0.9547
B( 19-C , 37-H ) :   0.9481

Dispersion correction           -0.017060124
FINAL SINGLE POINT ENERGY     -1981.465944028516

DIPOLE MOMENT
-------------

Method             : SCF
Type of density    : Electron Density
Multiplicity       :   1
Irrep              :   0
Energy             : -1981.4862942878335161 Eh
Relativity type    :
Basis              : AO
                                X                 Y                 Z
Electronic contribution:    -14.253643298       3.134646539      -0.341357511
Nuclear contribution   :     15.236182480      -3.997020869       0.028027056
                        -----------------------------------------
Total Dipole Moment    :      0.982539183      -0.862374330      -0.313330455
                        -----------------------------------------
Magnitude (a.u.)       :      1.344339505
Magnitude (Debye)      :      3.417039465

Rotational constants in cm-1:             0.011005             0.007471             0.005455
Rotational constants in MHz :           329.923864           223.968143           163.542963

                             ****ORCA TERMINATED NORMALLY****
TOTAL RUN TIME: 0 days 0 hours 1 minutes 44 seconds 65 msec
