                         Program Version 6.0.0  -   RELEASE  -
|  1> ! pbe def2-sv(p) def2/J RI DEFGRID1 loosescf d4 GCP(DFT/SV(P)) printgap
|  2> %output
|  3>     printlevel normal
|  4> end
|  5> * xyz 0 1
|  6> C 0.7214388586 0.5579652741 3.5837823384
|  7> C 2.0134474688 0.5431844701 2.792956608
|  8> O 1.6977009367 0.6548426575 1.3831882342
|  9> P 2.4483659243 -0.1883418278 0.2735802761
| 10> S 2.9745810415 -2.0086189729 0.7919235748
| 11> O 3.6593430633 0.7754228919 -0.0903715818
| 12> C 4.811041558 0.3229375381 -0.8236985489
| 13> C 4.4700754344 -0.02826906 -2.2574009377
| 14> S 1.0836163928 0.0031211691 -1.3236559163
| 15> C 0.0044496711 -1.3624752704 -0.8049212948
| 16> S -1.1208038628 -0.9019539496 0.529035085
| 17> P -2.38908542 0.3311711406 -0.6675254986
| 18> S -2.6468645549 -0.2550949077 -2.5165746771
| 19> O -1.777061985 1.7825002344 -0.620117671
| 20> C -1.1938191166 2.4618651491 0.5168882069
| 21> C -2.1275666175 2.5242199577 1.7063174045
| 22> O -3.7245393943 0.4725594039 0.1815555455
| 23> C -4.818426469 -0.4530524133 0.0583916423
| 24> C -4.466624771 -1.8330033491 0.5756515032
| 25> H 0.9530916468 0.4548771741 4.6388880969
| 26> H 0.1920609281 1.4917070541 3.4212744546
| 27> H 0.0858529636 -0.2680253825 3.2737920184
| 28> H 2.5644739013 -0.3892494203 2.9550820225
| 29> H 2.6528995377 1.3910164442 3.0460108817
| 30> H 5.5045542038 1.1628612742 -0.7672364613
| 31> H 5.2311503369 -0.544620548 -0.304861628
| 32> H 3.9569765348 0.8007577225 -2.7387728303
| 33> H 5.3823947505 -0.2525390235 -2.8007135804
| 34> H 3.8205875947 -0.9027303708 -2.2827503803
| 35> H 0.6168265804 -2.189517204 -0.4439319256
| 36> H -0.5778137624 -1.6483520725 -1.6817545172
| 37> H -0.2583301696 1.9575524742 0.77534344
| 38> H -0.97419357 3.4553312722 0.1222460419
| 39> H -2.2904533887 1.5278117688 2.1118154479
| 40> H -1.685613968 3.1549264357 2.4720057842
| 41> H -3.0852652797 2.9431004184 1.4084080529
| 42> H -5.6140194568 0.00664068 0.6463306222
| 43> H -5.1135540771 -0.5014981383 -0.9944292917
| 44> H -5.3590134013 -2.4505822252 0.5822851239
| 45> H -3.7243498441 -2.2962752294 -0.0724148011
| 46> H -4.0635735286 -1.7699867926 1.5831129558
| 47> *
| 48>
| 49>                          ****END OF INPUT****

CARTESIAN COORDINATES (ANGSTROEM)
---------------------------------
  C      0.721439    0.557965    3.583782
  C      2.013447    0.543184    2.792957
  O      1.697701    0.654843    1.383188
  P      2.448366   -0.188342    0.273580
  S      2.974581   -2.008619    0.791924
  O      3.659343    0.775423   -0.090372
  C      4.811042    0.322938   -0.823699
  C      4.470075   -0.028269   -2.257401
  S      1.083616    0.003121   -1.323656
  C      0.004450   -1.362475   -0.804921
  S     -1.120804   -0.901954    0.529035
  P     -2.389085    0.331171   -0.667525
  S     -2.646865   -0.255095   -2.516575
  O     -1.777062    1.782500   -0.620118
  C     -1.193819    2.461865    0.516888
  C     -2.127567    2.524220    1.706317
  O     -3.724539    0.472559    0.181556
  C     -4.818426   -0.453052    0.058392
  C     -4.466625   -1.833003    0.575652
  H      0.953092    0.454877    4.638888
  H      0.192061    1.491707    3.421274
  H      0.085853   -0.268025    3.273792
  H      2.564474   -0.389249    2.955082
  H      2.652900    1.391016    3.046011
  H      5.504554    1.162861   -0.767236
  H      5.231150   -0.544621   -0.304862
  H      3.956977    0.800758   -2.738773
  H      5.382395   -0.252539   -2.800714
  H      3.820588   -0.902730   -2.282750
  H      0.616827   -2.189517   -0.443932
  H     -0.577814   -1.648352   -1.681755
  H     -0.258330    1.957552    0.775343
  H     -0.974194    3.455331    0.122246
  H     -2.290453    1.527812    2.111815
  H     -1.685614    3.154926    2.472006
  H     -3.085265    2.943100    1.408408
  H     -5.614019    0.006641    0.646331
  H     -5.113554   -0.501498   -0.994429
  H     -5.359013   -2.450582    0.582285
  H     -3.724350   -2.296275   -0.072415
  H     -4.063574   -1.769987    1.583113

 Total Charge           Charge          ....    0
 Multiplicity           Mult            ....    1
 Number of Electrons    NEL             ....  202
 Basis Dimension        Dim             ....  334

ORBITAL ENERGIES
----------------

  NO   OCC          E(Eh)            E(eV)
   0   2.0000     -88.045421     -2395.8377
   1   2.0000     -88.043591     -2395.7879
   2   2.0000     -87.993011     -2394.4116
   3   2.0000     -87.984120     -2394.1696
   4   2.0000     -76.430150     -2079.7701
   5   2.0000     -76.426555     -2079.6723
   6   2.0000     -18.796977      -511.4918
   7   2.0000     -18.796275      -511.4726
   8   2.0000     -18.794979      -511.4374
   9   2.0000     -18.788719      -511.2670
  10   2.0000      -9.956077      -270.9186
  11   2.0000      -9.955183      -270.8943
  12   2.0000      -9.953517      -270.8490
  13   2.0000      -9.952763      -270.8284
  14   2.0000      -9.950217      -270.7592
  15   2.0000      -9.890092      -269.1231
  16   2.0000      -9.887001      -269.0390
  17   2.0000      -9.885752      -269.0050
  18   2.0000      -9.884499      -268.9709
  19   2.0000      -7.690481      -209.2686
  20   2.0000      -7.688268      -209.2084
  21   2.0000      -7.637910      -207.8381
  22   2.0000      -7.629426      -207.6072
  23   2.0000      -6.428041      -174.9159
  24   2.0000      -6.423841      -174.8016
  25   2.0000      -5.718291      -155.6026
  26   2.0000      -5.715976      -155.5396
  27   2.0000      -5.715152      -155.5172
  28   2.0000      -5.712873      -155.4552
  29   2.0000      -5.707341      -155.3047
  30   2.0000      -5.705354      -155.2506
  31   2.0000      -5.666650      -154.1974
  32   2.0000      -5.658592      -153.9781
  33   2.0000      -5.658366      -153.9720
  34   2.0000      -5.658205      -153.9676
  35   2.0000      -5.650004      -153.7444
  36   2.0000      -5.649550      -153.7321
  37   2.0000      -4.650547      -126.5478
  38   2.0000      -4.649737      -126.5258
  39   2.0000      -4.648534      -126.4930
  40   2.0000      -4.646621      -126.4410
  41   2.0000      -4.645647      -126.4145
  42   2.0000      -4.644126      -126.3731
  43   2.0000      -0.991189       -26.9716
  44   2.0000      -0.986406       -26.8415
  45   2.0000      -0.950089       -25.8532
  46   2.0000      -0.944779       -25.7087
  47   2.0000      -0.766503       -20.8576
  48   2.0000      -0.724152       -19.7052
  49   2.0000      -0.711609       -19.3639
  50   2.0000      -0.690496       -18.7894
  51   2.0000      -0.689982       -18.7754
  52   2.0000      -0.679011       -18.4768
  53   2.0000      -0.652495       -17.7553
  54   2.0000      -0.639059       -17.3897
  55   2.0000      -0.604037       -16.4367
  56   2.0000      -0.595304       -16.1991
  57   2.0000      -0.576506       -15.6875
  58   2.0000      -0.575501       -15.6602
  59   2.0000      -0.558605       -15.2004
  60   2.0000      -0.508014       -13.8238
  61   2.0000      -0.491870       -13.3845
  62   2.0000      -0.476982       -12.9793
  63   2.0000      -0.471148       -12.8206
  64   2.0000      -0.460042       -12.5184
  65   2.0000      -0.445747       -12.1294
  66   2.0000      -0.443826       -12.0771
  67   2.0000      -0.438270       -11.9259
  68   2.0000      -0.432711       -11.7747
  69   2.0000      -0.423729       -11.5303
  70   2.0000      -0.411304       -11.1921
  71   2.0000      -0.397380       -10.8133
  72   2.0000      -0.395912       -10.7733
  73   2.0000      -0.389958       -10.6113
  74   2.0000      -0.381142       -10.3714
  75   2.0000      -0.377744       -10.2789
  76   2.0000      -0.367337        -9.9958
  77   2.0000      -0.362369        -9.8605
  78   2.0000      -0.358111        -9.7447
  79   2.0000      -0.354316        -9.6414
  80   2.0000      -0.351919        -9.5762
  81   2.0000      -0.346169        -9.4197
  82   2.0000      -0.344363        -9.3706
  83   2.0000      -0.340778        -9.2730
  84   2.0000      -0.337533        -9.1848
  85   2.0000      -0.321394        -8.7456
  86   2.0000      -0.312220        -8.4959
  87   2.0000      -0.299410        -8.1474
  88   2.0000      -0.293797        -7.9946
  89   2.0000      -0.291232        -7.9248
  90   2.0000      -0.290621        -7.9082
  91   2.0000      -0.281848        -7.6695
  92   2.0000      -0.269042        -7.3210
  93   2.0000      -0.264802        -7.2056
  94   2.0000      -0.261958        -7.1282
  95   2.0000      -0.237416        -6.4604
  96   2.0000      -0.220611        -6.0031
  97   2.0000      -0.214272        -5.8306
  98   2.0000      -0.207066        -5.6346
  99   2.0000      -0.203179        -5.5288
 100   2.0000      -0.200515        -5.4563
 101   0.0000      -0.045363        -1.2344
 102   0.0000      -0.028095        -0.7645
 103   0.0000      -0.007318        -0.1991
 104   0.0000      -0.000444        -0.0121
 105   0.0000       0.013906         0.3784

MULLIKEN ATOMIC CHARGES
-----------------------
   0 C :   -0.300588
   1 C :   -0.009605
   2 O :   -0.361636
   3 P :    0.610260
   4 S :   -0.335985
   5 O :   -0.373394
   6 C :   -0.003684
   7 C :   -0.320369
   8 S :   -0.056727
   9 C :   -0.375493
  10 S :   -0.100258
  11 P :    0.606395
  12 S :   -0.318410
  13 O :   -0.353567
  14 C :   -0.036077
  15 C :   -0.312262
  16 O :   -0.375965
  17 C :   -0.002074
  18 C :   -0.315380
  19 H :    0.111815
  20 H :    0.120218
  21 H :    0.129717
  22 H :    0.109085
  23 H :    0.105373
  24 H :    0.106466
  25 H :    0.112352
  26 H :    0.121181
  27 H :    0.115229
  28 H :    0.129645
  29 H :    0.191882
  30 H :    0.197707
  31 H :    0.144238
  32 H :    0.106820
  33 H :    0.118258
  34 H :    0.116658
  35 H :    0.121686
  36 H :    0.104713
  37 H :    0.115162
  38 H :    0.113873
  39 H :    0.127818
  40 H :    0.114924
Sum of atomic charges:    0.0000000

LOEWDIN ATOMIC CHARGES
----------------------
   0 C :   -0.355083
   1 C :   -0.116236
   2 O :   -0.240409
   3 P :    0.572956
   4 S :   -0.322591
   5 O :   -0.245708
   6 C :   -0.118791
   7 C :   -0.369630
   8 S :    0.106486
   9 C :   -0.489987
  10 S :    0.080099
  11 P :    0.573947
  12 S :   -0.312416
  13 O :   -0.231737
  14 C :   -0.120642
  15 C :   -0.366526
  16 O :   -0.242157
  17 C :   -0.117480
  18 C :   -0.370320
  19 H :    0.130858
  20 H :    0.123813
  21 H :    0.125477
  22 H :    0.107712
  23 H :    0.115256
  24 H :    0.119337
  25 H :    0.111162
  26 H :    0.125912
  27 H :    0.132282
  28 H :    0.122344
  29 H :    0.128031
  30 H :    0.129343
  31 H :    0.110118
  32 H :    0.122147
  33 H :    0.117959
  34 H :    0.128501
  35 H :    0.128260
  36 H :    0.118578
  37 H :    0.113342
  38 H :    0.131507
  39 H :    0.121625
  40 H :    0.122660

  Mayer bond orders larger than 0.100000
B(  0-C ,  1-C ) :   1.1653 B(  0-C , 19-H ) :   0.9392 B(  0-C , 20-H ) :   0.9433
B(  0-C , 21-H ) :   0.9432 B(  1-C ,  2-O ) :   0.8930 B(  1-C , 22-H ) :   0.9025
B(  1-C , 23-H ) :   0.9330 B(  2-O ,  3-P ) :   1.1186 B(  3-P ,  4-S ) :   1.5920
B(  3-P ,  5-O ) :   1.1178 B(  3-P ,  8-S ) :   0.9746 B(  4-S ,  8-S ) :   0.1077
B(  5-O ,  6-C ) :   0.9068 B(  6-C ,  7-C ) :   1.1644 B(  6-C , 24-H ) :   0.9336
B(  6-C , 25-H ) :   0.9164 B(  7-C , 26-H ) :   0.9447 B(  7-C , 27-H ) :   0.9377
B(  7-C , 28-H ) :   0.9349 B(  8-S ,  9-C ) :   1.0016 B(  9-C , 10-S ) :   1.0076
B(  9-C , 29-H ) :   0.8671 B(  9-C , 30-H ) :   0.8670 B( 10-S , 11-P ) :   0.9353
B( 10-S , 12-S ) :   0.1082 B( 11-P , 12-S ) :   1.6200 B( 11-P , 13-O ) :   1.1561
B( 11-P , 16-O ) :   1.0929 B( 13-O , 14-C ) :   0.8942 B( 14-C , 15-C ) :   1.1729
B( 14-C , 31-H ) :   0.8988 B( 14-C , 32-H ) :   0.9332 B( 15-C , 33-H ) :   0.9369
B( 15-C , 34-H ) :   0.9302 B( 15-C , 35-H ) :   0.9409 B( 16-O , 17-C ) :   0.9053
B( 17-C , 18-C ) :   1.1656 B( 17-C , 36-H ) :   0.9340 B( 17-C , 37-H ) :   0.9161
B( 18-C , 38-H ) :   0.9373 B( 18-C , 39-H ) :   0.9347 B( 18-C , 40-H ) :   0.9450

Dispersion correction           -0.066080332
FINAL SINGLE POINT ENERGY     -2929.523381447470

DIPOLE MOMENT
-------------

Method             : SCF
Type of density    : Electron Density
Multiplicity       :   1
Irrep              :   0
Energy             : -2929.6432557322955290 Eh
Relativity type    :
Basis              : AO
                                X                 Y                 Z
Electronic contribution:      1.973352493      -4.138617332     -13.135412782
Nuclear contribution   :     -1.738447179       4.834338056      14.462984440
                        -----------------------------------------
Total Dipole Moment    :      0.234905314       0.695720724       1.327571658
                        -----------------------------------------
Magnitude (a.u.)       :      1.517120411
Magnitude (Debye)      :      3.856213625

Rotational constants in cm-1:             0.012747             0.004924             0.004489
Rotational constants in MHz :           382.137929           147.626351           134.563673

                             ****ORCA TERMINATED NORMALLY****
TOTAL RUN TIME: 0 days 0 hours 0 minutes 21 seconds 304 msec
