                         Program Version 6.0.0  -   RELEASE  -
|  1> ! pbe def2-sv(p) def2/J RI DEFGRID1 loosescf d4 GCP(DFT/SV(P)) printgap
|  2> %output
|  3>     printlevel normal
|  4> end
|  5> * xyz 0 1
|  6> C 5.1643024394 -1.3966860033 -2.016201417
|  7> C 3.6810713909 -1.3634443293 -1.7082978994
|  8> O 3.4302872327 -0.2240258915 -0.8630931267
|  9> P 1.9410263036 0.2558381815 -0.5489184273
| 10> S 0.878553197 0.6337356129 -2.1496962551
| 11> O 2.2188510515 1.5404231096 0.3077995042
| 12> C 3.2454006969 1.6849078248 1.3206217993
| 13> C 3.0289637591 0.7561937737 2.4956730521
| 14> S 1.1919702933 -1.3328226809 0.6637740248
| 15> C -0.2320556434 -1.8767861243 -0.3262004663
| 16> S -1.8295225072 -1.6905036757 0.509279386
| 17> P -2.0742880728 0.4163261995 0.4047868803
| 18> S -0.7378017308 1.5458231015 1.2810985499
| 19> O -3.5560260639 0.6016608473 0.9548735309
| 20> C -3.8485315844 0.7794069153 2.3527019302
| 21> C -3.5175792699 -0.4521091368 3.170004405
| 22> O -2.2323961981 0.7848265298 -1.1188944501
| 23> C -3.2850184245 0.2932945136 -1.9897853469
| 24> C -2.7820902426 -0.8401335647 -2.8622391851
| 25> H 5.4591942014 -0.4850877288 -2.5283872652
| 26> H 5.7339514007 -1.4841327049 -1.0956874995
| 27> H 5.3755776836 -2.2495327099 -2.6526263644
| 28> H 3.364255349 -2.2629770974 -1.1723958401
| 29> H 3.082918021 -1.2571225175 -2.6193876891
| 30> H 4.2150416236 1.5135140901 0.8492898884
| 31> H 3.1484773013 2.7310074167 1.6153358292
| 32> H 3.1781473324 -0.2803755089 2.1967270997
| 33> H 3.7365092085 1.0042145337 3.280510745
| 34> H 2.0157591149 0.8706957333 2.8756284347
| 35> H -0.1224017632 -2.9431258176 -0.5046560088
| 36> H -0.2331328537 -1.3081830864 -1.2611624622
| 37> H -3.2841892478 1.6447251216 2.7139829279
| 38> H -4.9168758342 0.9998478176 2.3657701397
| 39> H -3.8721408269 -0.3123466659 4.1861009149
| 40> H -3.9885974608 -1.332023869 2.7389951852
| 41> H -2.4393842217 -0.6046336693 3.1912318764
| 42> H -4.1374339493 -0.0104490309 -1.3798309106
| 43> H -3.5509995963 1.1632312392 -2.5923241428
| 44> H -2.632512107 -1.7446246144 -2.2780775646
| 45> H -3.5150964193 -1.0385029907 -3.6376296362
| 46> H -1.8408455471 -0.5533548781 -3.3271000938
| 47> *
| 48>
| 49>                          ****END OF INPUT****

CARTESIAN COORDINATES (ANGSTROEM)
---------------------------------
  C      5.164302   -1.396686   -2.016201
  C      3.681071   -1.363444   -1.708298
  O      3.430287   -0.224026   -0.863093
  P      1.941026    0.255838   -0.548918
  S      0.878553    0.633736   -2.149696
  O      2.218851    1.540423    0.307800
  C      3.245401    1.684908    1.320622
  C      3.028964    0.756194    2.495673
  S      1.191970   -1.332823    0.663774
  C     -0.232056   -1.876786   -0.326200
  S     -1.829523   -1.690504    0.509279
  P     -2.074288    0.416326    0.404787
  S     -0.737802    1.545823    1.281099
  O     -3.556026    0.601661    0.954874
  C     -3.848532    0.779407    2.352702
  C     -3.517579   -0.452109    3.170004
  O     -2.232396    0.784827   -1.118894
  C     -3.285018    0.293295   -1.989785
  C     -2.782090   -0.840134   -2.862239
  H      5.459194   -0.485088   -2.528387
  H      5.733951   -1.484133   -1.095687
  H      5.375578   -2.249533   -2.652626
  H      3.364255   -2.262977   -1.172396
  H      3.082918   -1.257123   -2.619388
  H      4.215042    1.513514    0.849290
  H      3.148477    2.731007    1.615336
  H      3.178147   -0.280376    2.196727
  H      3.736509    1.004215    3.280511
  H      2.015759    0.870696    2.875628
  H     -0.122402   -2.943126   -0.504656
  H     -0.233133   -1.308183   -1.261162
  H     -3.284189    1.644725    2.713983
  H     -4.916876    0.999848    2.365770
  H     -3.872141   -0.312347    4.186101
  H     -3.988597   -1.332024    2.738995
  H     -2.439384   -0.604634    3.191232
  H     -4.137434   -0.010449   -1.379831
  H     -3.551000    1.163231   -2.592324
  H     -2.632512   -1.744625   -2.278078
  H     -3.515096   -1.038503   -3.637630
  H     -1.840846   -0.553355   -3.327100

 Total Charge           Charge          ....    0
 Multiplicity           Mult            ....    1
 Number of Electrons    NEL             ....  202
 Basis Dimension        Dim             ....  334

ORBITAL ENERGIES
----------------

  NO   OCC          E(Eh)            E(eV)
   0   2.0000     -88.039093     -2395.6655
   1   2.0000     -88.036791     -2395.6029
   2   2.0000     -87.977974     -2394.0024
   3   2.0000     -87.974678     -2393.9127
   4   2.0000     -76.420121     -2079.4972
   5   2.0000     -76.418546     -2079.4543
   6   2.0000     -18.786934      -511.2185
   7   2.0000     -18.785631      -511.1830
   8   2.0000     -18.784673      -511.1569
   9   2.0000     -18.780889      -511.0540
  10   2.0000      -9.952748      -270.8280
  11   2.0000      -9.951695      -270.7994
  12   2.0000      -9.950121      -270.7566
  13   2.0000      -9.949756      -270.7466
  14   2.0000      -9.948914      -270.7237
  15   2.0000      -9.887087      -269.0413
  16   2.0000      -9.884486      -268.9705
  17   2.0000      -9.882049      -268.9042
  18   2.0000      -9.880605      -268.8649
  19   2.0000      -7.684125      -209.0957
  20   2.0000      -7.681361      -209.0205
  21   2.0000      -7.623151      -207.4365
  22   2.0000      -7.619672      -207.3418
  23   2.0000      -6.417294      -174.6235
  24   2.0000      -6.415954      -174.5870
  25   2.0000      -5.711767      -155.4251
  26   2.0000      -5.709290      -155.3577
  27   2.0000      -5.708647      -155.3402
  28   2.0000      -5.705863      -155.2644
  29   2.0000      -5.701308      -155.1405
  30   2.0000      -5.698395      -155.0612
  31   2.0000      -5.652089      -153.8012
  32   2.0000      -5.648653      -153.7077
  33   2.0000      -5.643738      -153.5739
  34   2.0000      -5.643233      -153.5602
  35   2.0000      -5.640297      -153.4803
  36   2.0000      -5.639743      -153.4652
  37   2.0000      -4.640145      -126.2648
  38   2.0000      -4.639004      -126.2337
  39   2.0000      -4.638889      -126.2306
  40   2.0000      -4.637698      -126.1982
  41   2.0000      -4.637694      -126.1981
  42   2.0000      -4.636020      -126.1525
  43   2.0000      -0.982703       -26.7407
  44   2.0000      -0.980665       -26.6852
  45   2.0000      -0.937624       -25.5140
  46   2.0000      -0.937284       -25.5048
  47   2.0000      -0.756573       -20.5874
  48   2.0000      -0.716254       -19.4903
  49   2.0000      -0.707882       -19.2624
  50   2.0000      -0.689217       -18.7545
  51   2.0000      -0.685422       -18.6513
  52   2.0000      -0.673980       -18.3399
  53   2.0000      -0.645723       -17.5710
  54   2.0000      -0.628333       -17.0978
  55   2.0000      -0.591987       -16.1088
  56   2.0000      -0.585498       -15.9322
  57   2.0000      -0.571674       -15.5560
  58   2.0000      -0.568806       -15.4780
  59   2.0000      -0.557817       -15.1790
  60   2.0000      -0.501906       -13.6576
  61   2.0000      -0.495492       -13.4830
  62   2.0000      -0.469260       -12.7692
  63   2.0000      -0.466449       -12.6927
  64   2.0000      -0.449093       -12.2204
  65   2.0000      -0.442767       -12.0483
  66   2.0000      -0.441239       -12.0067
  67   2.0000      -0.436784       -11.8855
  68   2.0000      -0.427039       -11.6203
  69   2.0000      -0.424454       -11.5500
  70   2.0000      -0.409602       -11.1458
  71   2.0000      -0.394389       -10.7319
  72   2.0000      -0.387727       -10.5506
  73   2.0000      -0.379633       -10.3303
  74   2.0000      -0.372881       -10.1466
  75   2.0000      -0.365222        -9.9382
  76   2.0000      -0.362500        -9.8641
  77   2.0000      -0.353226        -9.6118
  78   2.0000      -0.351451        -9.5635
  79   2.0000      -0.349815        -9.5189
  80   2.0000      -0.345278        -9.3955
  81   2.0000      -0.342662        -9.3243
  82   2.0000      -0.338449        -9.2097
  83   2.0000      -0.335125        -9.1192
  84   2.0000      -0.330898        -9.0042
  85   2.0000      -0.312572        -8.5055
  86   2.0000      -0.309663        -8.4263
  87   2.0000      -0.299447        -8.1484
  88   2.0000      -0.293534        -7.9875
  89   2.0000      -0.289362        -7.8740
  90   2.0000      -0.285786        -7.7766
  91   2.0000      -0.269097        -7.3225
  92   2.0000      -0.262369        -7.1394
  93   2.0000      -0.256166        -6.9706
  94   2.0000      -0.252612        -6.8739
  95   2.0000      -0.234922        -6.3926
  96   2.0000      -0.218880        -5.9560
  97   2.0000      -0.198685        -5.4065
  98   2.0000      -0.195668        -5.3244
  99   2.0000      -0.185631        -5.0513
 100   2.0000      -0.183345        -4.9891
 101   0.0000      -0.034257        -0.9322
 102   0.0000      -0.029041        -0.7903
 103   0.0000      -0.008906        -0.2424
 104   0.0000       0.005463         0.1487
 105   0.0000       0.020462         0.5568

MULLIKEN ATOMIC CHARGES
-----------------------
   0 C :   -0.280088
   1 C :   -0.003329
   2 O :   -0.389513
   3 P :    0.617289
   4 S :   -0.302525
   5 O :   -0.345183
   6 C :    0.004370
   7 C :   -0.334632
   8 S :   -0.107708
   9 C :   -0.351416
  10 S :   -0.115477
  11 P :    0.603167
  12 S :   -0.300288
  13 O :   -0.385335
  14 C :    0.002739
  15 C :   -0.324932
  16 O :   -0.347532
  17 C :   -0.008658
  18 C :   -0.308451
  19 H :    0.120867
  20 H :    0.112807
  21 H :    0.110136
  22 H :    0.092960
  23 H :    0.098431
  24 H :    0.110119
  25 H :    0.112641
  26 H :    0.124964
  27 H :    0.114178
  28 H :    0.142571
  29 H :    0.176580
  30 H :    0.201506
  31 H :    0.111674
  32 H :    0.102991
  33 H :    0.113521
  34 H :    0.117617
  35 H :    0.132488
  36 H :    0.106872
  37 H :    0.111109
  38 H :    0.117736
  39 H :    0.108253
  40 H :    0.137478
Sum of atomic charges:   -0.0000000

LOEWDIN ATOMIC CHARGES
----------------------
   0 C :   -0.350530
   1 C :   -0.124652
   2 O :   -0.257450
   3 P :    0.572875
   4 S :   -0.293921
   5 O :   -0.220413
   6 C :   -0.106508
   7 C :   -0.370948
   8 S :    0.073270
   9 C :   -0.488164
  10 S :    0.069424
  11 P :    0.563985
  12 S :   -0.303452
  13 O :   -0.251048
  14 C :   -0.117317
  15 C :   -0.373449
  16 O :   -0.229715
  17 C :   -0.109079
  18 C :   -0.366958
  19 H :    0.128802
  20 H :    0.124863
  21 H :    0.129945
  22 H :    0.102080
  23 H :    0.106143
  24 H :    0.113702
  25 H :    0.124476
  26 H :    0.115344
  27 H :    0.131933
  28 H :    0.133153
  29 H :    0.135520
  30 H :    0.120378
  31 H :    0.112181
  32 H :    0.117659
  33 H :    0.131500
  34 H :    0.122591
  35 H :    0.123281
  36 H :    0.110474
  37 H :    0.123097
  38 H :    0.117201
  39 H :    0.128855
  40 H :    0.130874

  Mayer bond orders larger than 0.100000
B(  0-C ,  1-C ) :   1.1604 B(  0-C , 19-H ) :   0.9513 B(  0-C , 20-H ) :   0.9515
B(  0-C , 21-H ) :   0.9424 B(  1-C ,  2-O ) :   0.9138 B(  1-C , 22-H ) :   0.9201
B(  1-C , 23-H ) :   0.9109 B(  2-O ,  3-P ) :   1.0535 B(  3-P ,  4-S ) :   1.6315
B(  3-P ,  5-O ) :   1.1565 B(  3-P ,  8-S ) :   0.9350 B(  4-S ,  8-S ) :   0.1195
B(  4-S , 30-H ) :   0.1232 B(  5-O ,  6-C ) :   0.8965 B(  6-C ,  7-C ) :   1.1695
B(  6-C , 24-H ) :   0.9267 B(  6-C , 25-H ) :   0.9327 B(  7-C , 26-H ) :   0.9330
B(  7-C , 27-H ) :   0.9355 B(  7-C , 28-H ) :   0.9379 B(  8-S ,  9-C ) :   1.0071
B(  9-C , 10-S ) :   0.9853 B(  9-C , 29-H ) :   0.9116 B(  9-C , 30-H ) :   0.8357
B( 10-S , 11-P ) :   0.9472 B( 10-S , 12-S ) :   0.1132 B( 11-P , 12-S ) :   1.6565
B( 11-P , 13-O ) :   1.0758 B( 11-P , 16-O ) :   1.1409 B( 13-O , 14-C ) :   0.9082
B( 14-C , 15-C ) :   1.1656 B( 14-C , 31-H ) :   0.9161 B( 14-C , 32-H ) :   0.9340
B( 15-C , 33-H ) :   0.9373 B( 15-C , 34-H ) :   0.9428 B( 15-C , 35-H ) :   0.9326
B( 16-O , 17-C ) :   0.8972 B( 17-C , 18-C ) :   1.1699 B( 17-C , 36-H ) :   0.9190
B( 17-C , 37-H ) :   0.9349 B( 18-C , 38-H ) :   0.9329 B( 18-C , 39-H ) :   0.9379
B( 18-C , 40-H ) :   0.9352

Dispersion correction           -0.067236035
FINAL SINGLE POINT ENERGY     -2929.511540865252

DIPOLE MOMENT
-------------

Method             : SCF
Type of density    : Electron Density
Multiplicity       :   1
Irrep              :   0
Energy             : -2929.6293596619184427 Eh
Relativity type    :
Basis              : AO
                                X                 Y                 Z
Electronic contribution:     -4.557035184       6.894118821      -0.717753012
Nuclear contribution   :      4.612304449      -7.984495600       1.014002250
                        -----------------------------------------
Total Dipole Moment    :      0.055269265      -1.090376780       0.296249239
                        -----------------------------------------
Magnitude (a.u.)       :      1.131255862
Magnitude (Debye)      :      2.875423887

Rotational constants in cm-1:             0.012438             0.005461             0.004755
Rotational constants in MHz :           372.887914           163.709510           142.543143

                             ****ORCA TERMINATED NORMALLY****
TOTAL RUN TIME: 0 days 0 hours 0 minutes 21 seconds 225 msec
