                         Program Version 6.0.1  -  RELEASE   -
|  1> ! wb97x-v def2-tzvp def2/J RIJCOSX DEFGRID2 scfconv7 GCP(DFT/TZ) printgap
|  2> %output
|  3>     printlevel normal
|  4> end
|  5> * xyz 0 1
|  6> C 5.362867592701492 -2.376339792359506 -0.5546053055203732
|  7> C 4.799769485853465 -1.8635826480663749 -1.858927031519655
|  8> O 3.3424265509873567 -2.041094698285985 -1.8977497755775519
|  9> C 2.6035702738378044 -1.1132237368828326 -1.2795117825766067
| 10> O 3.0522379627824425 -0.11867837061585614 -0.734913222176148
| 11> C 1.1356211047515368 -1.4532387259816903 -1.3438220278064688
| 12> C 0.32041861599051735 -0.3944008436457173 -0.6147820765826717
| 13> H 0.37358597823401624 0.570114951161103 -1.1258687855842897
| 14> C 0.7571028663928837 -0.25819480280521134 0.8324913482876584
| 15> O 1.0950385725604446 -1.1981689206858663 1.5295097403783244
| 16> O 0.6734548988864688 1.0089734178453524 1.239039364479386
| 17> C 1.0086870437483393 1.2838170845244745 2.64051218508374
| 18> C 2.502973702305173 1.4342035031823257 2.8048147564047974
| 19> S -1.454034726579674 -0.9454154298445613 -0.607293247145347
| 20> P -2.476723713197973 0.878637091272242 -0.20580072313872924
| 21> S -1.956090355587314 2.418831923706077 -1.2629199946903151
| 22> O -3.988174307007118 0.33651128036635236 -0.33809271212847397
| 23> C -4.610865924351364 0.19942504742815448 -1.6488532644197045
| 24> O -2.381783013049133 1.1855672548445262 1.3644382949667437
| 25> C -2.608884484591972 0.15615607272041993 2.3736896261492326
| 26> H 6.453376167200844 -2.287549840676741 -0.5806246963015308
| 27> H 4.991715646374197 -1.7982160871263586 0.2958975631628524
| 28> H 5.107450240747963 -3.4296896256115743 -0.40934269961133724
| 29> H 5.154038168804168 -2.4482351799319964 -2.709156483779136
| 30> H 5.027022649425237 -0.8080430912189008 -2.024304375735096
| 31> H 0.9967199875734764 -2.4469821915017143 -0.9042788308661002
| 32> H 0.8333174133280947 -1.5160954459164493 -2.393896233543904
| 33> H 0.4819285071864419 2.215270953525425 2.854632559501139
| 34> H 0.5990100759529619 0.48228277473857617 3.259962032458374
| 35> H 2.7192455993284335 1.7051276835485483 3.8429739433662897
| 36> H 3.02576804979468 0.5017112965840447 2.576270566314513
| 37> H 2.8858306296567844 2.2271941815577367 2.1562688706836175
| 38> H -4.012002004350997 -0.44740021834168037 -2.295401949494544
| 39> H -4.734564485790349 1.184857722992134 -2.103413810658932
| 40> H -5.582552509244042 -0.25721380679446887 -1.4622704631800978
| 41> H -3.6057483521618017 -0.2758642303658588 2.258890204507876
| 42> H -2.528127404317915 0.6705783277654058 3.330992333171521
| 43> H -1.8436296377323853 -0.6207219250093429 2.298401804660523
| 44> *
| 45>
| 46>                          ****END OF INPUT****

CARTESIAN COORDINATES (ANGSTROEM)
---------------------------------
  C      5.362868   -2.376340   -0.554605
  C      4.799769   -1.863583   -1.858927
  O      3.342427   -2.041095   -1.897750
  C      2.603570   -1.113224   -1.279512
  O      3.052238   -0.118678   -0.734913
  C      1.135621   -1.453239   -1.343822
  C      0.320419   -0.394401   -0.614782
  H      0.373586    0.570115   -1.125869
  C      0.757103   -0.258195    0.832491
  O      1.095039   -1.198169    1.529510
  O      0.673455    1.008973    1.239039
  C      1.008687    1.283817    2.640512
  C      2.502974    1.434204    2.804815
  S     -1.454035   -0.945415   -0.607293
  P     -2.476724    0.878637   -0.205801
  S     -1.956090    2.418832   -1.262920
  O     -3.988174    0.336511   -0.338093
  C     -4.610866    0.199425   -1.648853
  O     -2.381783    1.185567    1.364438
  C     -2.608884    0.156156    2.373690
  H      6.453376   -2.287550   -0.580625
  H      4.991716   -1.798216    0.295898
  H      5.107450   -3.429690   -0.409343
  H      5.154038   -2.448235   -2.709156
  H      5.027023   -0.808043   -2.024304
  H      0.996720   -2.446982   -0.904279
  H      0.833317   -1.516095   -2.393896
  H      0.481929    2.215271    2.854633
  H      0.599010    0.482283    3.259962
  H      2.719246    1.705128    3.842974
  H      3.025768    0.501711    2.576271
  H      2.885831    2.227194    2.156269
  H     -4.012002   -0.447400   -2.295402
  H     -4.734564    1.184858   -2.103414
  H     -5.582553   -0.257214   -1.462270
  H     -3.605748   -0.275864    2.258890
  H     -2.528127    0.670578    3.330992
  H     -1.843630   -0.620722    2.298402

 Total Charge           Charge          ....    0
 Multiplicity           Mult            ....    1
 Number of Electrons    NEL             ....  174
 Basis Dimension        Dim             ....  721

ORBITAL ENERGIES
----------------

  NO   OCC          E(Eh)            E(eV)
   0   2.0000     -88.882398     -2418.6130
   1   2.0000     -88.814501     -2416.7654
   2   2.0000     -77.212787     -2101.0668
   3   2.0000     -19.265987      -524.2542
   4   2.0000     -19.260076      -524.0933
   5   2.0000     -19.258418      -524.0482
   6   2.0000     -19.256322      -523.9912
   7   2.0000     -19.207022      -522.6497
   8   2.0000     -19.198750      -522.4245
   9   2.0000     -10.412512      -283.3388
  10   2.0000     -10.407108      -283.1918
  11   2.0000     -10.340360      -281.3755
  12   2.0000     -10.338256      -281.3182
  13   2.0000     -10.338103      -281.3141
  14   2.0000     -10.335324      -281.2385
  15   2.0000     -10.330686      -281.1122
  16   2.0000     -10.304065      -280.3879
  17   2.0000     -10.271705      -279.5073
  18   2.0000     -10.262876      -279.2671
  19   2.0000      -8.061084      -219.3532
  20   2.0000      -7.994471      -217.5406
  21   2.0000      -6.775234      -184.3635
  22   2.0000      -6.016596      -163.7199
  23   2.0000      -6.013666      -163.6402
  24   2.0000      -6.008120      -163.4893
  25   2.0000      -5.950380      -161.9181
  26   2.0000      -5.944200      -161.7499
  27   2.0000      -5.943792      -161.7388
  28   2.0000      -4.930118      -134.1553
  29   2.0000      -4.929619      -134.1418
  30   2.0000      -4.927417      -134.0818
  31   2.0000      -1.244311       -33.8594
  32   2.0000      -1.237231       -33.6668
  33   2.0000      -1.213434       -33.0192
  34   2.0000      -1.171361       -31.8744
  35   2.0000      -1.152840       -31.3704
  36   2.0000      -1.145053       -31.1585
  37   2.0000      -0.979460       -26.6525
  38   2.0000      -0.923627       -25.1332
  39   2.0000      -0.906794       -24.6751
  40   2.0000      -0.899708       -24.4823
  41   2.0000      -0.864600       -23.5270
  42   2.0000      -0.843078       -22.9413
  43   2.0000      -0.823693       -22.4138
  44   2.0000      -0.809405       -22.0250
  45   2.0000      -0.785906       -21.3856
  46   2.0000      -0.750449       -20.4208
  47   2.0000      -0.694639       -18.9021
  48   2.0000      -0.684223       -18.6187
  49   2.0000      -0.668134       -18.1809
  50   2.0000      -0.648565       -17.6484
  51   2.0000      -0.643605       -17.5134
  52   2.0000      -0.637647       -17.3513
  53   2.0000      -0.613211       -16.6863
  54   2.0000      -0.609314       -16.5803
  55   2.0000      -0.601551       -16.3690
  56   2.0000      -0.596830       -16.2406
  57   2.0000      -0.593308       -16.1447
  58   2.0000      -0.584913       -15.9163
  59   2.0000      -0.578976       -15.7547
  60   2.0000      -0.566365       -15.4116
  61   2.0000      -0.565383       -15.3849
  62   2.0000      -0.558836       -15.2067
  63   2.0000      -0.545372       -14.8403
  64   2.0000      -0.534415       -14.5422
  65   2.0000      -0.525831       -14.3086
  66   2.0000      -0.513463       -13.9720
  67   2.0000      -0.509788       -13.8720
  68   2.0000      -0.499778       -13.5997
  69   2.0000      -0.491927       -13.3860
  70   2.0000      -0.484854       -13.1935
  71   2.0000      -0.480693       -13.0803
  72   2.0000      -0.471733       -12.8365
  73   2.0000      -0.470106       -12.7922
  74   2.0000      -0.463550       -12.6138
  75   2.0000      -0.456497       -12.4219
  76   2.0000      -0.452489       -12.3129
  77   2.0000      -0.445190       -12.1142
  78   2.0000      -0.428501       -11.6601
  79   2.0000      -0.418080       -11.3765
  80   2.0000      -0.411433       -11.1957
  81   2.0000      -0.407864       -11.0986
  82   2.0000      -0.397749       -10.8233
  83   2.0000      -0.391938       -10.6652
  84   2.0000      -0.370241       -10.0748
  85   2.0000      -0.341087        -9.2814
  86   2.0000      -0.332956        -9.0602
  87   0.0000       0.055227         1.5028
  88   0.0000       0.082346         2.2407
  89   0.0000       0.090529         2.4634
  90   0.0000       0.108016         2.9393
  91   0.0000       0.108741         2.9590

MULLIKEN ATOMIC CHARGES
-----------------------
   0 C :   -0.355634
   1 C :   -0.027740
   2 O :   -0.239979
   3 C :    0.300780
   4 O :   -0.358393
   5 C :   -0.213617
   6 C :    0.037069
   7 H :    0.152844
   8 C :    0.245966
   9 O :   -0.358429
  10 O :   -0.208051
  11 C :   -0.041804
  12 C :   -0.334378
  13 S :   -0.186422
  14 P :    0.632209
  15 S :   -0.386755
  16 O :   -0.320864
  17 C :   -0.193471
  18 O :   -0.284123
  19 C :   -0.219224
  20 H :    0.115499
  21 H :    0.145058
  22 H :    0.116023
  23 H :    0.117115
  24 H :    0.122200
  25 H :    0.148189
  26 H :    0.149926
  27 H :    0.125205
  28 H :    0.108990
  29 H :    0.111470
  30 H :    0.138951
  31 H :    0.122349
  32 H :    0.129414
  33 H :    0.147341
  34 H :    0.132443
  35 H :    0.144735
  36 H :    0.135192
  37 H :    0.149920
Sum of atomic charges:    0.0000000

LOEWDIN ATOMIC CHARGES
----------------------
   0 C :   -0.303412
   1 C :   -0.278240
   2 O :    0.251722
   3 C :   -0.461929
   4 O :    0.101436
   5 C :   -0.224859
   6 C :   -0.387841
   7 H :    0.155375
   8 C :   -0.508964
   9 O :    0.086423
  10 O :    0.273529
  11 C :   -0.280330
  12 C :   -0.301173
  13 S :    0.402153
  14 P :   -0.036663
  15 S :   -0.097085
  16 O :    0.007355
  17 C :   -0.322527
  18 O :    0.023737
  19 C :   -0.324200
  20 H :    0.125756
  21 H :    0.126985
  22 H :    0.121464
  23 H :    0.125766
  24 H :    0.129102
  25 H :    0.161125
  26 H :    0.157169
  27 H :    0.128325
  28 H :    0.125261
  29 H :    0.123655
  30 H :    0.126235
  31 H :    0.124380
  32 H :    0.103762
  33 H :    0.109309
  34 H :    0.111137
  35 H :    0.107693
  36 H :    0.112105
  37 H :    0.106263

  Mayer bond orders larger than 0.100000
B(  0-C ,  1-C ) :   0.9956 B(  0-C , 20-H ) :   0.9687 B(  0-C , 21-H ) :   0.9755
B(  0-C , 22-H ) :   0.9722 B(  1-C ,  2-O ) :   0.8736 B(  1-C , 23-H ) :   0.9691
B(  1-C , 24-H ) :   0.9749 B(  2-O ,  3-C ) :   1.2546 B(  3-C ,  4-O ) :   1.9865
B(  3-C ,  5-C ) :   1.0074 B(  5-C ,  6-C ) :   0.9898 B(  5-C , 25-H ) :   0.9241
B(  5-C , 26-H ) :   0.9550 B(  6-C ,  7-H ) :   0.9554 B(  6-C ,  8-C ) :   0.9213
B(  6-C , 13-S ) :   0.9063 B(  8-C ,  9-O ) :   2.0403 B(  8-C , 10-O ) :   1.2468
B( 10-O , 11-C ) :   0.8695 B( 11-C , 12-C ) :   1.0034 B( 11-C , 27-H ) :   0.9664
B( 11-C , 28-H ) :   0.9718 B( 12-C , 29-H ) :   0.9709 B( 12-C , 30-H ) :   0.9748
B( 12-C , 31-H ) :   0.9734 B( 13-S , 14-P ) :   1.0503 B( 14-P , 15-S ) :   1.8924
B( 14-P , 16-O ) :   1.1529 B( 14-P , 18-O ) :   1.2155 B( 16-O , 17-C ) :   0.8962
B( 17-C , 32-H ) :   0.9704 B( 17-C , 33-H ) :   0.9727 B( 17-C , 34-H ) :   0.9709
B( 18-O , 19-C ) :   0.8838 B( 19-C , 35-H ) :   0.9693 B( 19-C , 36-H ) :   0.9738
B( 19-C , 37-H ) :   0.9656

FINAL SINGLE POINT ENERGY     -1981.628349847067

DIPOLE MOMENT
-------------

Method             : SCF
Type of density    : Electron Density
Multiplicity       :   1
Irrep              :   0
Energy             : -1981.6561393022668653 Eh
Relativity type    :
Basis              : AO
                                X                 Y                 Z
Electronic contribution:    -17.949312135       6.171769911      -7.859492317
Nuclear contribution   :     17.952681655      -7.287900850       7.959187868
                        -----------------------------------------
Total Dipole Moment    :      0.003369520      -1.116130939       0.099695551
                        -----------------------------------------
Magnitude (a.u.)       :      1.120579685
Magnitude (Debye)      :      2.848287202

Rotational constants in cm-1:             0.015567             0.005549             0.004798
Rotational constants in MHz :           466.698588           166.364529           143.843817

                             ****ORCA TERMINATED NORMALLY****
TOTAL RUN TIME: 0 days 0 hours 13 minutes 14 seconds 600 msec
