                         Program Version 6.0.1  -  RELEASE   -
|  1> ! wb97x-v def2-tzvp def2/J RIJCOSX DEFGRID2 scfconv7 GCP(DFT/TZ) printgap
|  2> %output
|  3>     printlevel normal
|  4> end
|  5> %cpcm
|  6>     smd true
|  7>     smdsolvent "water"
|  8> end
|  9> * xyz 0 1
| 10> C 5.362867592701492 -2.376339792359506 -0.5546053055203732
| 11> C 4.799769485853465 -1.8635826480663749 -1.858927031519655
| 12> O 3.3424265509873567 -2.041094698285985 -1.8977497755775519
| 13> C 2.6035702738378044 -1.1132237368828326 -1.2795117825766067
| 14> O 3.0522379627824425 -0.11867837061585614 -0.734913222176148
| 15> C 1.1356211047515368 -1.4532387259816903 -1.3438220278064688
| 16> C 0.32041861599051735 -0.3944008436457173 -0.6147820765826717
| 17> H 0.37358597823401624 0.570114951161103 -1.1258687855842897
| 18> C 0.7571028663928837 -0.25819480280521134 0.8324913482876584
| 19> O 1.0950385725604446 -1.1981689206858663 1.5295097403783244
| 20> O 0.6734548988864688 1.0089734178453524 1.239039364479386
| 21> C 1.0086870437483393 1.2838170845244745 2.64051218508374
| 22> C 2.502973702305173 1.4342035031823257 2.8048147564047974
| 23> S -1.454034726579674 -0.9454154298445613 -0.607293247145347
| 24> P -2.476723713197973 0.878637091272242 -0.20580072313872924
| 25> S -1.956090355587314 2.418831923706077 -1.2629199946903151
| 26> O -3.988174307007118 0.33651128036635236 -0.33809271212847397
| 27> C -4.610865924351364 0.19942504742815448 -1.6488532644197045
| 28> O -2.381783013049133 1.1855672548445262 1.3644382949667437
| 29> C -2.608884484591972 0.15615607272041993 2.3736896261492326
| 30> H 6.453376167200844 -2.287549840676741 -0.5806246963015308
| 31> H 4.991715646374197 -1.7982160871263586 0.2958975631628524
| 32> H 5.107450240747963 -3.4296896256115743 -0.40934269961133724
| 33> H 5.154038168804168 -2.4482351799319964 -2.709156483779136
| 34> H 5.027022649425237 -0.8080430912189008 -2.024304375735096
| 35> H 0.9967199875734764 -2.4469821915017143 -0.9042788308661002
| 36> H 0.8333174133280947 -1.5160954459164493 -2.393896233543904
| 37> H 0.4819285071864419 2.215270953525425 2.854632559501139
| 38> H 0.5990100759529619 0.48228277473857617 3.259962032458374
| 39> H 2.7192455993284335 1.7051276835485483 3.8429739433662897
| 40> H 3.02576804979468 0.5017112965840447 2.576270566314513
| 41> H 2.8858306296567844 2.2271941815577367 2.1562688706836175
| 42> H -4.012002004350997 -0.44740021834168037 -2.295401949494544
| 43> H -4.734564485790349 1.184857722992134 -2.103413810658932
| 44> H -5.582552509244042 -0.25721380679446887 -1.4622704631800978
| 45> H -3.6057483521618017 -0.2758642303658588 2.258890204507876
| 46> H -2.528127404317915 0.6705783277654058 3.330992333171521
| 47> H -1.8436296377323853 -0.6207219250093429 2.298401804660523
| 48> *
| 49>
| 50>                          ****END OF INPUT****

CARTESIAN COORDINATES (ANGSTROEM)
---------------------------------
  C      5.362868   -2.376340   -0.554605
  C      4.799769   -1.863583   -1.858927
  O      3.342427   -2.041095   -1.897750
  C      2.603570   -1.113224   -1.279512
  O      3.052238   -0.118678   -0.734913
  C      1.135621   -1.453239   -1.343822
  C      0.320419   -0.394401   -0.614782
  H      0.373586    0.570115   -1.125869
  C      0.757103   -0.258195    0.832491
  O      1.095039   -1.198169    1.529510
  O      0.673455    1.008973    1.239039
  C      1.008687    1.283817    2.640512
  C      2.502974    1.434204    2.804815
  S     -1.454035   -0.945415   -0.607293
  P     -2.476724    0.878637   -0.205801
  S     -1.956090    2.418832   -1.262920
  O     -3.988174    0.336511   -0.338093
  C     -4.610866    0.199425   -1.648853
  O     -2.381783    1.185567    1.364438
  C     -2.608884    0.156156    2.373690
  H      6.453376   -2.287550   -0.580625
  H      4.991716   -1.798216    0.295898
  H      5.107450   -3.429690   -0.409343
  H      5.154038   -2.448235   -2.709156
  H      5.027023   -0.808043   -2.024304
  H      0.996720   -2.446982   -0.904279
  H      0.833317   -1.516095   -2.393896
  H      0.481929    2.215271    2.854633
  H      0.599010    0.482283    3.259962
  H      2.719246    1.705128    3.842974
  H      3.025768    0.501711    2.576271
  H      2.885831    2.227194    2.156269
  H     -4.012002   -0.447400   -2.295402
  H     -4.734564    1.184858   -2.103414
  H     -5.582553   -0.257214   -1.462270
  H     -3.605748   -0.275864    2.258890
  H     -2.528127    0.670578    3.330992
  H     -1.843630   -0.620722    2.298402

 Total Charge           Charge          ....    0
 Multiplicity           Mult            ....    1
 Number of Electrons    NEL             ....  174
 Basis Dimension        Dim             ....  721

ORBITAL ENERGIES
----------------

  NO   OCC          E(Eh)            E(eV)
   0   2.0000     -88.887936     -2418.7637
   1   2.0000     -88.828463     -2417.1454
   2   2.0000     -77.221015     -2101.2906
   3   2.0000     -19.270483      -524.3765
   4   2.0000     -19.267657      -524.2996
   5   2.0000     -19.261598      -524.1347
   6   2.0000     -19.261255      -524.1254
   7   2.0000     -19.216818      -522.9162
   8   2.0000     -19.216349      -522.9034
   9   2.0000     -10.422139      -283.6008
  10   2.0000     -10.420022      -283.5432
  11   2.0000     -10.339248      -281.3452
  12   2.0000     -10.326762      -281.0055
  13   2.0000     -10.326676      -281.0031
  14   2.0000     -10.326141      -280.9886
  15   2.0000     -10.325732      -280.9775
  16   2.0000     -10.299227      -280.2562
  17   2.0000     -10.258873      -279.1581
  18   2.0000     -10.258750      -279.1548
  19   2.0000      -8.066454      -219.4994
  20   2.0000      -8.008863      -217.9322
  21   2.0000      -6.783531      -184.5893
  22   2.0000      -6.022021      -163.8675
  23   2.0000      -6.019078      -163.7874
  24   2.0000      -6.013402      -163.6330
  25   2.0000      -5.964657      -162.3066
  26   2.0000      -5.958596      -162.1417
  27   2.0000      -5.958257      -162.1324
  28   2.0000      -4.938360      -134.3796
  29   2.0000      -4.937835      -134.3653
  30   2.0000      -4.935899      -134.3126
  31   2.0000      -1.251760       -34.0621
  32   2.0000      -1.246666       -33.9235
  33   2.0000      -1.216259       -33.0961
  34   2.0000      -1.173455       -31.9313
  35   2.0000      -1.162728       -31.6394
  36   2.0000      -1.159271       -31.5454
  37   2.0000      -0.982440       -26.7335
  38   2.0000      -0.919233       -25.0136
  39   2.0000      -0.907641       -24.6982
  40   2.0000      -0.897194       -24.4139
  41   2.0000      -0.862916       -23.4811
  42   2.0000      -0.836005       -22.7488
  43   2.0000      -0.823925       -22.4201
  44   2.0000      -0.813418       -22.1342
  45   2.0000      -0.781540       -21.2668
  46   2.0000      -0.748394       -20.3648
  47   2.0000      -0.694609       -18.9013
  48   2.0000      -0.681628       -18.5481
  49   2.0000      -0.671676       -18.2772
  50   2.0000      -0.652345       -17.7512
  51   2.0000      -0.645030       -17.5522
  52   2.0000      -0.635912       -17.3041
  53   2.0000      -0.620133       -16.8747
  54   2.0000      -0.612731       -16.6733
  55   2.0000      -0.604853       -16.4589
  56   2.0000      -0.602083       -16.3835
  57   2.0000      -0.595082       -16.1930
  58   2.0000      -0.583833       -15.8869
  59   2.0000      -0.573556       -15.6072
  60   2.0000      -0.569545       -15.4981
  61   2.0000      -0.558903       -15.2085
  62   2.0000      -0.553756       -15.0685
  63   2.0000      -0.544225       -14.8091
  64   2.0000      -0.531051       -14.4506
  65   2.0000      -0.526346       -14.3226
  66   2.0000      -0.515652       -14.0316
  67   2.0000      -0.504579       -13.7303
  68   2.0000      -0.496747       -13.5172
  69   2.0000      -0.490318       -13.3422
  70   2.0000      -0.483051       -13.1445
  71   2.0000      -0.479333       -13.0433
  72   2.0000      -0.472810       -12.8658
  73   2.0000      -0.469613       -12.7788
  74   2.0000      -0.464920       -12.6511
  75   2.0000      -0.454286       -12.3618
  76   2.0000      -0.448285       -12.1985
  77   2.0000      -0.446067       -12.1381
  78   2.0000      -0.430105       -11.7038
  79   2.0000      -0.421624       -11.4730
  80   2.0000      -0.418798       -11.3961
  81   2.0000      -0.415801       -11.3145
  82   2.0000      -0.412370       -11.2212
  83   2.0000      -0.401857       -10.9351
  84   2.0000      -0.379536       -10.3277
  85   2.0000      -0.356489        -9.7006
  86   2.0000      -0.347429        -9.4540
  87   0.0000       0.047804         1.3008
  88   0.0000       0.074593         2.0298
  89   0.0000       0.085307         2.3213
  90   0.0000       0.102369         2.7856
  91   0.0000       0.110880         3.0172

MULLIKEN ATOMIC CHARGES
-----------------------
   0 C :   -0.389602
   1 C :   -0.036273
   2 O :   -0.263673
   3 C :    0.365869
   4 O :   -0.451673
   5 C :   -0.223874
   6 C :    0.025439
   7 H :    0.161705
   8 C :    0.306993
   9 O :   -0.447406
  10 O :   -0.246036
  11 C :   -0.049172
  12 C :   -0.381030
  13 S :   -0.172983
  14 P :    0.645238
  15 S :   -0.445102
  16 O :   -0.336808
  17 C :   -0.211813
  18 O :   -0.327700
  19 C :   -0.221841
  20 H :    0.141890
  21 H :    0.139037
  22 H :    0.131707
  23 H :    0.145132
  24 H :    0.133044
  25 H :    0.175278
  26 H :    0.183520
  27 H :    0.145121
  28 H :    0.137638
  29 H :    0.143897
  30 H :    0.139616
  31 H :    0.133190
  32 H :    0.150589
  33 H :    0.153763
  34 H :    0.163089
  35 H :    0.166048
  36 H :    0.163961
  37 H :    0.153223
Sum of atomic charges:    0.0000000

LOEWDIN ATOMIC CHARGES
----------------------
   0 C :   -0.306558
   1 C :   -0.272127
   2 O :    0.248536
   3 C :   -0.445656
   4 O :    0.053344
   5 C :   -0.215895
   6 C :   -0.388539
   7 H :    0.157338
   8 C :   -0.500099
   9 O :    0.045448
  10 O :    0.261146
  11 C :   -0.273654
  12 C :   -0.306004
  13 S :    0.413766
  14 P :   -0.034170
  15 S :   -0.141598
  16 O :    0.002270
  17 C :   -0.315833
  18 O :    0.004980
  19 C :   -0.313332
  20 H :    0.133064
  21 H :    0.123408
  22 H :    0.124759
  23 H :    0.135172
  24 H :    0.131595
  25 H :    0.168452
  26 H :    0.171007
  27 H :    0.135681
  28 H :    0.132852
  29 H :    0.133338
  30 H :    0.123210
  31 H :    0.125246
  32 H :    0.110173
  33 H :    0.111433
  34 H :    0.121463
  35 H :    0.114390
  36 H :    0.121877
  37 H :    0.109519

  Mayer bond orders larger than 0.100000
B(  0-C ,  1-C ) :   0.9941 B(  0-C , 20-H ) :   0.9653 B(  0-C , 21-H ) :   0.9741
B(  0-C , 22-H ) :   0.9693 B(  1-C ,  2-O ) :   0.8484 B(  1-C , 23-H ) :   0.9636
B(  1-C , 24-H ) :   0.9738 B(  2-O ,  3-C ) :   1.2709 B(  3-C ,  4-O ) :   1.8911
B(  3-C ,  5-C ) :   1.0185 B(  5-C ,  6-C ) :   1.0006 B(  5-C , 25-H ) :   0.9248
B(  5-C , 26-H ) :   0.9328 B(  6-C ,  7-H ) :   0.9530 B(  6-C ,  8-C ) :   0.9226
B(  6-C , 13-S ) :   0.9104 B(  8-C ,  9-O ) :   1.9414 B(  8-C , 10-O ) :   1.2616
B( 10-O , 11-C ) :   0.8403 B( 11-C , 12-C ) :   0.9932 B( 11-C , 27-H ) :   0.9615
B( 11-C , 28-H ) :   0.9727 B( 12-C , 29-H ) :   0.9676 B( 12-C , 30-H ) :   0.9738
B( 12-C , 31-H ) :   0.9706 B( 13-S , 14-P ) :   1.0658 B( 14-P , 15-S ) :   1.8553
B( 14-P , 16-O ) :   1.1708 B( 14-P , 18-O ) :   1.2199 B( 16-O , 17-C ) :   0.8663
B( 17-C , 32-H ) :   0.9659 B( 17-C , 33-H ) :   0.9702 B( 17-C , 34-H ) :   0.9651
B( 18-O , 19-C ) :   0.8486 B( 19-C , 35-H ) :   0.9645 B( 19-C , 36-H ) :   0.9663
B( 19-C , 37-H ) :   0.9659

FINAL SINGLE POINT ENERGY     -1981.646802962662

DIPOLE MOMENT
-------------

Method             : SCF
Type of density    : Electron Density
Multiplicity       :   1
Irrep              :   0
Energy             : -1981.6745924178619589 Eh
Relativity type    :
Basis              : AO
                                X                 Y                 Z
Electronic contribution:    -18.186285123       5.635835760      -7.953198483
Nuclear contribution   :     17.952681655      -7.287900850       7.959187868
                        -----------------------------------------
Total Dipole Moment    :     -0.233603468      -1.652065090       0.005989384
                        -----------------------------------------
Magnitude (a.u.)       :      1.668509969
Magnitude (Debye)      :      4.241015302

Rotational constants in cm-1:             0.015567             0.005549             0.004798
Rotational constants in MHz :           466.698588           166.364529           143.843817

                             ****ORCA TERMINATED NORMALLY****
TOTAL RUN TIME: 0 days 0 hours 14 minutes 13 seconds 138 msec
