                         Program Version 6.0.0  -   RELEASE  -
|  1> ! r2scan-3c def2/J RI DEFGRID2 scfconv6 printgap
|  2> %output
|  3>     printlevel normal
|  4> end
|  5> * xyz 0 1
|  6> C 2.3603682875 -0.51013524 -3.7256964227
|  7> C 1.7453123973 -0.1761814066 -2.3824370784
|  8> O 2.6547474081 -0.6234926491 -1.3627864701
|  9> P 2.4625374585 -0.2706666948 0.1671139448
| 10> S 2.4559213306 1.6301957124 0.6616727256
| 11> O 3.7172632924 -1.0983184508 0.6583776177
| 12> C 4.3774703768 -0.8251587027 1.9060601835
| 13> C 3.4993067249 -1.1532633805 3.0971562037
| 14> S 0.7483742674 -1.4058220801 0.733627634
| 15> C -0.0561769029 -0.2190152041 1.8682094967
| 16> S -1.8572974326 -0.335445288 1.8116260934
| 17> P -2.1749351912 0.2711723312 -0.1761759721
| 18> S -0.9532505913 1.5931899515 -0.9734596004
| 19> O -3.7079353628 0.6887490996 -0.225048494
| 20> C -4.1554195351 2.0294620872 0.0396163018
| 21> C -3.9142161166 2.4405579145 1.4775255705
| 22> O -2.1898481086 -1.149218513 -0.8755026321
| 23> C -2.2054624319 -1.3162309854 -2.3079392836
| 24> C -3.6182443237 -1.2834417987 -2.8542941365
| 25> H 1.6881121578 -0.1910226206 -4.5152878559
| 26> H 3.3118692889 0.0023176994 -3.8334404585
| 27> H 2.5264099177 -1.5808670096 -3.7982902305
| 28> H 0.7889232485 -0.6904407116 -2.2431877585
| 29> H 1.5801171929 0.900988767 -2.2691230454
| 30> H 5.2661871075 -1.4567000951 1.8726236212
| 31> H 4.6699925893 0.2294970242 1.9231745678
| 32> H 4.0819961938 -1.0698916685 4.0089767387
| 33> H 2.6696127212 -0.4486131953 3.1439136968
| 34> H 3.1071601202 -2.1635212555 3.0096687881
| 35> H 0.2686179751 0.7890412782 1.5935491154
| 36> H 0.2160506037 -0.4579094543 2.8934924088
| 37> H -3.6373062467 2.7078729299 -0.6460040727
| 38> H -5.2196937165 2.0011471664 -0.1980022699
| 39> H -2.8446520832 2.5266429561 1.6662223649
| 40> H -4.3803922725 3.4037533435 1.658940553
| 41> H -4.3310519688 1.7015325385 2.1570558063
| 42> H -1.59227961 -0.5282607203 -2.7603510074
| 43> H -1.7370703837 -2.2890107857 -2.4696240071
| 44> H -4.2322237055 -2.01537366 -2.3371506056
| 45> H -4.0548997414 -0.2974353916 -2.7139009383
| 46> H -3.5950735889 -1.5154249905 -3.9145579057
| 47> *
| 48>
| 49>                          ****END OF INPUT****

CARTESIAN COORDINATES (ANGSTROEM)
---------------------------------
  C      2.360368   -0.510135   -3.725696
  C      1.745312   -0.176181   -2.382437
  O      2.654747   -0.623493   -1.362786
  P      2.462537   -0.270667    0.167114
  S      2.455921    1.630196    0.661673
  O      3.717263   -1.098318    0.658378
  C      4.377470   -0.825159    1.906060
  C      3.499307   -1.153263    3.097156
  S      0.748374   -1.405822    0.733628
  C     -0.056177   -0.219015    1.868209
  S     -1.857297   -0.335445    1.811626
  P     -2.174935    0.271172   -0.176176
  S     -0.953251    1.593190   -0.973460
  O     -3.707935    0.688749   -0.225048
  C     -4.155420    2.029462    0.039616
  C     -3.914216    2.440558    1.477526
  O     -2.189848   -1.149219   -0.875503
  C     -2.205462   -1.316231   -2.307939
  C     -3.618244   -1.283442   -2.854294
  H      1.688112   -0.191023   -4.515288
  H      3.311869    0.002318   -3.833440
  H      2.526410   -1.580867   -3.798290
  H      0.788923   -0.690441   -2.243188
  H      1.580117    0.900989   -2.269123
  H      5.266187   -1.456700    1.872624
  H      4.669993    0.229497    1.923175
  H      4.081996   -1.069892    4.008977
  H      2.669613   -0.448613    3.143914
  H      3.107160   -2.163521    3.009669
  H      0.268618    0.789041    1.593549
  H      0.216051   -0.457909    2.893492
  H     -3.637306    2.707873   -0.646004
  H     -5.219694    2.001147   -0.198002
  H     -2.844652    2.526643    1.666222
  H     -4.380392    3.403753    1.658941
  H     -4.331052    1.701533    2.157056
  H     -1.592280   -0.528261   -2.760351
  H     -1.737070   -2.289011   -2.469624
  H     -4.232224   -2.015374   -2.337151
  H     -4.054900   -0.297435   -2.713901
  H     -3.595074   -1.515425   -3.914558

 Total Charge           Charge          ....    0
 Multiplicity           Mult            ....    1
 Number of Electrons    NEL             ....  202
 Basis Dimension        Dim             ....  539

ORBITAL ENERGIES
----------------

  NO   OCC          E(Eh)            E(eV)
   0   2.0000     -88.580445     -2410.3965
   1   2.0000     -88.572353     -2410.1763
   2   2.0000     -88.519165     -2408.7289
   3   2.0000     -88.517772     -2408.6910
   4   2.0000     -76.915100     -2092.9663
   5   2.0000     -76.909217     -2092.8062
   6   2.0000     -18.994650      -516.8707
   7   2.0000     -18.989501      -516.7306
   8   2.0000     -18.986148      -516.6394
   9   2.0000     -18.984666      -516.5990
  10   2.0000     -10.105567      -274.9864
  11   2.0000     -10.100199      -274.8404
  12   2.0000     -10.099668      -274.8259
  13   2.0000     -10.096040      -274.7272
  14   2.0000     -10.089931      -274.5610
  15   2.0000     -10.031390      -272.9680
  16   2.0000     -10.030002      -272.9302
  17   2.0000     -10.029557      -272.9181
  18   2.0000     -10.027003      -272.8486
  19   2.0000      -7.874951      -214.2883
  20   2.0000      -7.866281      -214.0524
  21   2.0000      -7.813784      -212.6239
  22   2.0000      -7.812417      -212.5867
  23   2.0000      -6.593559      -179.4199
  24   2.0000      -6.587764      -179.2622
  25   2.0000      -5.822009      -158.4249
  26   2.0000      -5.818659      -158.3338
  27   2.0000      -5.813123      -158.1831
  28   2.0000      -5.811975      -158.1519
  29   2.0000      -5.810232      -158.1044
  30   2.0000      -5.803411      -157.9188
  31   2.0000      -5.761424      -156.7763
  32   2.0000      -5.760014      -156.7379
  33   2.0000      -5.754204      -156.5799
  34   2.0000      -5.753678      -156.5655
  35   2.0000      -5.752770      -156.5408
  36   2.0000      -5.752428      -156.5315
  37   2.0000      -4.739001      -128.9548
  38   2.0000      -4.738510      -128.9414
  39   2.0000      -4.737303      -128.9086
  40   2.0000      -4.733027      -128.7922
  41   2.0000      -4.732847      -128.7873
  42   2.0000      -4.731558      -128.7523
  43   2.0000      -1.051153       -28.6033
  44   2.0000      -1.048180       -28.5224
  45   2.0000      -1.012272       -27.5453
  46   2.0000      -1.005384       -27.3579
  47   2.0000      -0.800023       -21.7697
  48   2.0000      -0.758067       -20.6281
  49   2.0000      -0.750201       -20.4140
  50   2.0000      -0.733890       -19.9701
  51   2.0000      -0.726619       -19.7723
  52   2.0000      -0.711900       -19.3718
  53   2.0000      -0.685234       -18.6462
  54   2.0000      -0.664097       -18.0710
  55   2.0000      -0.634609       -17.2686
  56   2.0000      -0.625482       -17.0202
  57   2.0000      -0.607949       -16.5431
  58   2.0000      -0.593365       -16.1463
  59   2.0000      -0.591922       -16.1070
  60   2.0000      -0.526554       -14.3283
  61   2.0000      -0.519923       -14.1478
  62   2.0000      -0.494352       -13.4520
  63   2.0000      -0.485020       -13.1981
  64   2.0000      -0.471423       -12.8281
  65   2.0000      -0.464094       -12.6286
  66   2.0000      -0.457150       -12.4397
  67   2.0000      -0.453957       -12.3528
  68   2.0000      -0.446526       -12.1506
  69   2.0000      -0.439104       -11.9486
  70   2.0000      -0.429451       -11.6859
  71   2.0000      -0.410536       -11.1713
  72   2.0000      -0.408625       -11.1193
  73   2.0000      -0.402434       -10.9508
  74   2.0000      -0.399350       -10.8669
  75   2.0000      -0.392328       -10.6758
  76   2.0000      -0.386168       -10.5082
  77   2.0000      -0.372686       -10.1413
  78   2.0000      -0.367151        -9.9907
  79   2.0000      -0.365753        -9.9526
  80   2.0000      -0.361388        -9.8339
  81   2.0000      -0.360146        -9.8001
  82   2.0000      -0.355477        -9.6730
  83   2.0000      -0.351789        -9.5727
  84   2.0000      -0.348983        -9.4963
  85   2.0000      -0.326146        -8.8749
  86   2.0000      -0.321366        -8.7448
  87   2.0000      -0.314014        -8.5448
  88   2.0000      -0.312179        -8.4948
  89   2.0000      -0.303648        -8.2627
  90   2.0000      -0.300020        -8.1640
  91   2.0000      -0.293281        -7.9806
  92   2.0000      -0.280768        -7.6401
  93   2.0000      -0.278155        -7.5690
  94   2.0000      -0.269399        -7.3307
  95   2.0000      -0.247105        -6.7241
  96   2.0000      -0.234874        -6.3913
  97   2.0000      -0.224917        -6.1203
  98   2.0000      -0.214782        -5.8445
  99   2.0000      -0.213595        -5.8122
 100   2.0000      -0.205179        -5.5832
 101   0.0000      -0.045340        -1.2338
 102   0.0000      -0.034012        -0.9255
 103   0.0000      -0.011015        -0.2997
 104   0.0000       0.011086         0.3017
 105   0.0000       0.014161         0.3853

MULLIKEN ATOMIC CHARGES
-----------------------
   0 C :   -0.455823
   1 C :   -0.137192
   2 O :   -0.290340
   3 P :    0.684897
   4 S :   -0.450302
   5 O :   -0.293147
   6 C :   -0.142971
   7 C :   -0.454085
   8 S :   -0.144083
   9 C :   -0.234181
  10 S :   -0.107854
  11 P :    0.702938
  12 S :   -0.455437
  13 O :   -0.301220
  14 C :   -0.155218
  15 C :   -0.451255
  16 O :   -0.293778
  17 C :   -0.157061
  18 C :   -0.444649
  19 H :    0.145366
  20 H :    0.157211
  21 H :    0.152785
  22 H :    0.155463
  23 H :    0.173602
  24 H :    0.149882
  25 H :    0.174481
  26 H :    0.148636
  27 H :    0.159587
  28 H :    0.166574
  29 H :    0.225441
  30 H :    0.183407
  31 H :    0.173973
  32 H :    0.147666
  33 H :    0.177941
  34 H :    0.148589
  35 H :    0.155839
  36 H :    0.164675
  37 H :    0.156410
  38 H :    0.156546
  39 H :    0.160929
  40 H :    0.145758
Sum of atomic charges:   -0.0000000

LOEWDIN ATOMIC CHARGES
----------------------
   0 C :   -0.386069
   1 C :    0.011575
   2 O :   -0.651000
   3 P :    0.382498
   4 S :   -0.120432
   5 O :   -0.652997
   6 C :    0.022510
   7 C :   -0.405014
   8 S :    0.142815
   9 C :   -0.421774
  10 S :    0.178025
  11 P :    0.377209
  12 S :   -0.115136
  13 O :   -0.667063
  14 C :    0.019043
  15 C :   -0.406854
  16 O :   -0.671859
  17 C :    0.015515
  18 C :   -0.394226
  19 H :    0.159105
  20 H :    0.162060
  21 H :    0.159622
  22 H :    0.175334
  23 H :    0.181929
  24 H :    0.180640
  25 H :    0.179490
  26 H :    0.159200
  27 H :    0.159471
  28 H :    0.163201
  29 H :    0.199571
  30 H :    0.176114
  31 H :    0.180109
  32 H :    0.179379
  33 H :    0.165877
  34 H :    0.159855
  35 H :    0.160273
  36 H :    0.177905
  37 H :    0.180111
  38 H :    0.161925
  39 H :    0.163580
  40 H :    0.158484

  Mayer bond orders larger than 0.100000
B(  0-C ,  1-C ) :   0.9432 B(  0-C , 19-H ) :   0.9656 B(  0-C , 20-H ) :   0.9732
B(  0-C , 21-H ) :   0.9733 B(  1-C ,  2-O ) :   0.7862 B(  1-C , 22-H ) :   0.9361
B(  1-C , 23-H ) :   0.9482 B(  2-O ,  3-P ) :   1.1411 B(  3-P ,  4-S ) :   1.7567
B(  3-P ,  5-O ) :   1.1326 B(  3-P ,  8-S ) :   1.0584 B(  5-O ,  6-C ) :   0.8167
B(  6-C ,  7-C ) :   0.9087 B(  6-C , 24-H ) :   0.9591 B(  6-C , 25-H ) :   0.9714
B(  7-C , 26-H ) :   0.9611 B(  7-C , 27-H ) :   0.9662 B(  7-C , 28-H ) :   0.9676
B(  8-S ,  9-C ) :   0.8892 B(  9-C , 10-S ) :   0.9302 B(  9-C , 29-H ) :   0.8997
B(  9-C , 30-H ) :   0.9120 B( 10-S , 11-P ) :   1.1005 B( 11-P , 12-S ) :   1.7471
B( 11-P , 13-O ) :   1.0478 B( 11-P , 16-O ) :   1.1641 B( 13-O , 14-C ) :   0.8165
B( 14-C , 15-C ) :   0.9205 B( 14-C , 31-H ) :   0.9663 B( 14-C , 32-H ) :   0.9589
B( 15-C , 33-H ) :   0.9619 B( 15-C , 34-H ) :   0.9577 B( 15-C , 35-H ) :   0.9681
B( 16-O , 17-C ) :   0.7829 B( 17-C , 18-C ) :   0.9484 B( 17-C , 36-H ) :   0.9593
B( 17-C , 37-H ) :   0.9628 B( 18-C , 38-H ) :   0.9739 B( 18-C , 39-H ) :   0.9630
B( 18-C , 40-H ) :   0.9652

Dispersion correction           -0.021565476
FINAL SINGLE POINT ENERGY     -2932.460665171928

DIPOLE MOMENT
-------------

Method             : SCF
Type of density    : Electron Density
Multiplicity       :   1
Irrep              :   0
Energy             : -2932.4855603305313707 Eh
Relativity type    :
Basis              : AO
                                X                 Y                 Z
Electronic contribution:      4.563871797      -0.055026104       7.301070556
Nuclear contribution   :     -5.374004289      -0.490044684      -7.374104368
                        -----------------------------------------
Total Dipole Moment    :     -0.810132492      -0.545070788      -0.073033813
                        -----------------------------------------
Magnitude (a.u.)       :      0.979158188
Magnitude (Debye)      :      2.488822323

Rotational constants in cm-1:             0.011613             0.005247             0.004512
Rotational constants in MHz :           348.149245           157.312441           135.280465

                             ****ORCA TERMINATED NORMALLY****
TOTAL RUN TIME: 0 days 0 hours 1 minutes 17 seconds 717 msec
