                         Program Version 6.0.0  -   RELEASE  -
|  1> ! r2scan-3c def2/J RI DEFGRID2 scfconv6 printgap
|  2> %output
|  3>     printlevel normal
|  4> end
|  5> %cpcm
|  6>     smd true
|  7>     smdsolvent "water"
|  8> end
|  9> * xyz 0 1
| 10> C 2.3603682875 -0.51013524 -3.7256964227
| 11> C 1.7453123973 -0.1761814066 -2.3824370784
| 12> O 2.6547474081 -0.6234926491 -1.3627864701
| 13> P 2.4625374585 -0.2706666948 0.1671139448
| 14> S 2.4559213306 1.6301957124 0.6616727256
| 15> O 3.7172632924 -1.0983184508 0.6583776177
| 16> C 4.3774703768 -0.8251587027 1.9060601835
| 17> C 3.4993067249 -1.1532633805 3.0971562037
| 18> S 0.7483742674 -1.4058220801 0.733627634
| 19> C -0.0561769029 -0.2190152041 1.8682094967
| 20> S -1.8572974326 -0.335445288 1.8116260934
| 21> P -2.1749351912 0.2711723312 -0.1761759721
| 22> S -0.9532505913 1.5931899515 -0.9734596004
| 23> O -3.7079353628 0.6887490996 -0.225048494
| 24> C -4.1554195351 2.0294620872 0.0396163018
| 25> C -3.9142161166 2.4405579145 1.4775255705
| 26> O -2.1898481086 -1.149218513 -0.8755026321
| 27> C -2.2054624319 -1.3162309854 -2.3079392836
| 28> C -3.6182443237 -1.2834417987 -2.8542941365
| 29> H 1.6881121578 -0.1910226206 -4.5152878559
| 30> H 3.3118692889 0.0023176994 -3.8334404585
| 31> H 2.5264099177 -1.5808670096 -3.7982902305
| 32> H 0.7889232485 -0.6904407116 -2.2431877585
| 33> H 1.5801171929 0.900988767 -2.2691230454
| 34> H 5.2661871075 -1.4567000951 1.8726236212
| 35> H 4.6699925893 0.2294970242 1.9231745678
| 36> H 4.0819961938 -1.0698916685 4.0089767387
| 37> H 2.6696127212 -0.4486131953 3.1439136968
| 38> H 3.1071601202 -2.1635212555 3.0096687881
| 39> H 0.2686179751 0.7890412782 1.5935491154
| 40> H 0.2160506037 -0.4579094543 2.8934924088
| 41> H -3.6373062467 2.7078729299 -0.6460040727
| 42> H -5.2196937165 2.0011471664 -0.1980022699
| 43> H -2.8446520832 2.5266429561 1.6662223649
| 44> H -4.3803922725 3.4037533435 1.658940553
| 45> H -4.3310519688 1.7015325385 2.1570558063
| 46> H -1.59227961 -0.5282607203 -2.7603510074
| 47> H -1.7370703837 -2.2890107857 -2.4696240071
| 48> H -4.2322237055 -2.01537366 -2.3371506056
| 49> H -4.0548997414 -0.2974353916 -2.7139009383
| 50> H -3.5950735889 -1.5154249905 -3.9145579057
| 51> *
| 52>
| 53>                          ****END OF INPUT****

CARTESIAN COORDINATES (ANGSTROEM)
---------------------------------
  C      2.360368   -0.510135   -3.725696
  C      1.745312   -0.176181   -2.382437
  O      2.654747   -0.623493   -1.362786
  P      2.462537   -0.270667    0.167114
  S      2.455921    1.630196    0.661673
  O      3.717263   -1.098318    0.658378
  C      4.377470   -0.825159    1.906060
  C      3.499307   -1.153263    3.097156
  S      0.748374   -1.405822    0.733628
  C     -0.056177   -0.219015    1.868209
  S     -1.857297   -0.335445    1.811626
  P     -2.174935    0.271172   -0.176176
  S     -0.953251    1.593190   -0.973460
  O     -3.707935    0.688749   -0.225048
  C     -4.155420    2.029462    0.039616
  C     -3.914216    2.440558    1.477526
  O     -2.189848   -1.149219   -0.875503
  C     -2.205462   -1.316231   -2.307939
  C     -3.618244   -1.283442   -2.854294
  H      1.688112   -0.191023   -4.515288
  H      3.311869    0.002318   -3.833440
  H      2.526410   -1.580867   -3.798290
  H      0.788923   -0.690441   -2.243188
  H      1.580117    0.900989   -2.269123
  H      5.266187   -1.456700    1.872624
  H      4.669993    0.229497    1.923175
  H      4.081996   -1.069892    4.008977
  H      2.669613   -0.448613    3.143914
  H      3.107160   -2.163521    3.009669
  H      0.268618    0.789041    1.593549
  H      0.216051   -0.457909    2.893492
  H     -3.637306    2.707873   -0.646004
  H     -5.219694    2.001147   -0.198002
  H     -2.844652    2.526643    1.666222
  H     -4.380392    3.403753    1.658941
  H     -4.331052    1.701533    2.157056
  H     -1.592280   -0.528261   -2.760351
  H     -1.737070   -2.289011   -2.469624
  H     -4.232224   -2.015374   -2.337151
  H     -4.054900   -0.297435   -2.713901
  H     -3.595074   -1.515425   -3.914558

 Total Charge           Charge          ....    0
 Multiplicity           Mult            ....    1
 Number of Electrons    NEL             ....  202
 Basis Dimension        Dim             ....  539

ORBITAL ENERGIES
----------------

  NO   OCC          E(Eh)            E(eV)
   0   2.0000     -88.583109     -2410.4689
   1   2.0000     -88.577727     -2410.3225
   2   2.0000     -88.528748     -2408.9897
   3   2.0000     -88.523713     -2408.8527
   4   2.0000     -76.918251     -2093.0520
   5   2.0000     -76.917800     -2093.0397
   6   2.0000     -18.994762      -516.8738
   7   2.0000     -18.994492      -516.8664
   8   2.0000     -18.992267      -516.8059
   9   2.0000     -18.990997      -516.7713
  10   2.0000     -10.104391      -274.9545
  11   2.0000     -10.089602      -274.5520
  12   2.0000     -10.089362      -274.5455
  13   2.0000     -10.088192      -274.5137
  14   2.0000     -10.087263      -274.4884
  15   2.0000     -10.018844      -272.6266
  16   2.0000     -10.018669      -272.6219
  17   2.0000     -10.018496      -272.6171
  18   2.0000     -10.017679      -272.5949
  19   2.0000      -7.877586      -214.3600
  20   2.0000      -7.871663      -214.1988
  21   2.0000      -7.823690      -212.8934
  22   2.0000      -7.818607      -212.7551
  23   2.0000      -6.596893      -179.5106
  24   2.0000      -6.596327      -179.4952
  25   2.0000      -5.824620      -158.4960
  26   2.0000      -5.821277      -158.4050
  27   2.0000      -5.818511      -158.3297
  28   2.0000      -5.815642      -158.2517
  29   2.0000      -5.814669      -158.2252
  30   2.0000      -5.808776      -158.0648
  31   2.0000      -5.771220      -157.0429
  32   2.0000      -5.766204      -156.9064
  33   2.0000      -5.764060      -156.8480
  34   2.0000      -5.763693      -156.8381
  35   2.0000      -5.759035      -156.7113
  36   2.0000      -5.758486      -156.6964
  37   2.0000      -4.742174      -129.0411
  38   2.0000      -4.741948      -129.0350
  39   2.0000      -4.741718      -129.0287
  40   2.0000      -4.741283      -129.0169
  41   2.0000      -4.740714      -129.0014
  42   2.0000      -4.740140      -128.9858
  43   2.0000      -1.056199       -28.7406
  44   2.0000      -1.051413       -28.6104
  45   2.0000      -1.012370       -27.5480
  46   2.0000      -1.011993       -27.5377
  47   2.0000      -0.801514       -21.8103
  48   2.0000      -0.756571       -20.5874
  49   2.0000      -0.744762       -20.2660
  50   2.0000      -0.723758       -19.6944
  51   2.0000      -0.720414       -19.6035
  52   2.0000      -0.711620       -19.3642
  53   2.0000      -0.688433       -18.7332
  54   2.0000      -0.670779       -18.2528
  55   2.0000      -0.632959       -17.2237
  56   2.0000      -0.622935       -16.9509
  57   2.0000      -0.599412       -16.3108
  58   2.0000      -0.591597       -16.0982
  59   2.0000      -0.588351       -16.0098
  60   2.0000      -0.526576       -14.3289
  61   2.0000      -0.515042       -14.0150
  62   2.0000      -0.489212       -13.3121
  63   2.0000      -0.486042       -13.2259
  64   2.0000      -0.469453       -12.7745
  65   2.0000      -0.467165       -12.7122
  66   2.0000      -0.454841       -12.3768
  67   2.0000      -0.450259       -12.2522
  68   2.0000      -0.442611       -12.0441
  69   2.0000      -0.435645       -11.8545
  70   2.0000      -0.423962       -11.5366
  71   2.0000      -0.408513       -11.1162
  72   2.0000      -0.406909       -11.0726
  73   2.0000      -0.398666       -10.8482
  74   2.0000      -0.396312       -10.7842
  75   2.0000      -0.392235       -10.6733
  76   2.0000      -0.383873       -10.4457
  77   2.0000      -0.364377        -9.9152
  78   2.0000      -0.360005        -9.7962
  79   2.0000      -0.359186        -9.7740
  80   2.0000      -0.356297        -9.6953
  81   2.0000      -0.350546        -9.5388
  82   2.0000      -0.349440        -9.5087
  83   2.0000      -0.346297        -9.4232
  84   2.0000      -0.345526        -9.4022
  85   2.0000      -0.323179        -8.7942
  86   2.0000      -0.321420        -8.7463
  87   2.0000      -0.315003        -8.5717
  88   2.0000      -0.305450        -8.3117
  89   2.0000      -0.304050        -8.2736
  90   2.0000      -0.296886        -8.0787
  91   2.0000      -0.290585        -7.9072
  92   2.0000      -0.280883        -7.6432
  93   2.0000      -0.279702        -7.6111
  94   2.0000      -0.274797        -7.4776
  95   2.0000      -0.250597        -6.8191
  96   2.0000      -0.241587        -6.5739
  97   2.0000      -0.233987        -6.3671
  98   2.0000      -0.222227        -6.0471
  99   2.0000      -0.220036        -5.9875
 100   2.0000      -0.213342        -5.8053
 101   0.0000      -0.049258        -1.3404
 102   0.0000      -0.041461        -1.1282
 103   0.0000      -0.013898        -0.3782
 104   0.0000       0.003538         0.0963
 105   0.0000       0.014435         0.3928

MULLIKEN ATOMIC CHARGES
-----------------------
   0 C :   -0.495345
   1 C :   -0.133633
   2 O :   -0.322026
   3 P :    0.713274
   4 S :   -0.497237
   5 O :   -0.328822
   6 C :   -0.143177
   7 C :   -0.483595
   8 S :   -0.158121
   9 C :   -0.228995
  10 S :   -0.120972
  11 P :    0.736084
  12 S :   -0.502759
  13 O :   -0.322955
  14 C :   -0.155898
  15 C :   -0.485768
  16 O :   -0.328712
  17 C :   -0.141288
  18 C :   -0.492047
  19 H :    0.169182
  20 H :    0.165879
  21 H :    0.166184
  22 H :    0.175595
  23 H :    0.171960
  24 H :    0.175107
  25 H :    0.177864
  26 H :    0.173268
  27 H :    0.170113
  28 H :    0.172285
  29 H :    0.219359
  30 H :    0.230397
  31 H :    0.178187
  32 H :    0.174894
  33 H :    0.172943
  34 H :    0.172924
  35 H :    0.169140
  36 H :    0.173460
  37 H :    0.177916
  38 H :    0.167696
  39 H :    0.167745
  40 H :    0.169896
Sum of atomic charges:   -0.0000000

LOEWDIN ATOMIC CHARGES
----------------------
   0 C :   -0.389197
   1 C :    0.014707
   2 O :   -0.670650
   3 P :    0.385835
   4 S :   -0.152259
   5 O :   -0.672119
   6 C :    0.026361
   7 C :   -0.405726
   8 S :    0.139676
   9 C :   -0.412880
  10 S :    0.174478
  11 P :    0.381400
  12 S :   -0.142424
  13 O :   -0.677184
  14 C :    0.024153
  15 C :   -0.410251
  16 O :   -0.689297
  17 C :    0.022659
  18 C :   -0.398959
  19 H :    0.168888
  20 H :    0.163309
  21 H :    0.163560
  22 H :    0.182616
  23 H :    0.181515
  24 H :    0.191123
  25 H :    0.180920
  26 H :    0.168542
  27 H :    0.161799
  28 H :    0.164963
  29 H :    0.198116
  30 H :    0.193911
  31 H :    0.181243
  32 H :    0.190790
  33 H :    0.161521
  34 H :    0.168510
  35 H :    0.163596
  36 H :    0.182298
  37 H :    0.189278
  38 H :    0.163737
  39 H :    0.163596
  40 H :    0.167848

  Mayer bond orders larger than 0.100000
B(  0-C ,  1-C ) :   0.9382 B(  0-C , 19-H ) :   0.9579 B(  0-C , 20-H ) :   0.9721
B(  0-C , 21-H ) :   0.9703 B(  1-C ,  2-O ) :   0.7809 B(  1-C , 22-H ) :   0.9290
B(  1-C , 23-H ) :   0.9447 B(  2-O ,  3-P ) :   1.1421 B(  3-P ,  4-S ) :   1.7272
B(  3-P ,  5-O ) :   1.1359 B(  3-P ,  8-S ) :   1.0747 B(  5-O ,  6-C ) :   0.8043
B(  6-C ,  7-C ) :   0.9010 B(  6-C , 24-H ) :   0.9487 B(  6-C , 25-H ) :   0.9669
B(  7-C , 26-H ) :   0.9555 B(  7-C , 27-H ) :   0.9621 B(  7-C , 28-H ) :   0.9662
B(  8-S ,  9-C ) :   0.8817 B(  9-C , 10-S ) :   0.9232 B(  9-C , 29-H ) :   0.9041
B(  9-C , 30-H ) :   0.8966 B( 10-S , 11-P ) :   1.1086 B( 11-P , 12-S ) :   1.7084
B( 11-P , 13-O ) :   1.0578 B( 11-P , 16-O ) :   1.1682 B( 13-O , 14-C ) :   0.8051
B( 14-C , 15-C ) :   0.9067 B( 14-C , 31-H ) :   0.9655 B( 14-C , 32-H ) :   0.9495
B( 15-C , 33-H ) :   0.9636 B( 15-C , 34-H ) :   0.9527 B( 15-C , 35-H ) :   0.9654
B( 16-O , 17-C ) :   0.7757 B( 17-C , 18-C ) :   0.9331 B( 17-C , 36-H ) :   0.9549
B( 17-C , 37-H ) :   0.9538 B( 18-C , 38-H ) :   0.9725 B( 18-C , 39-H ) :   0.9626
B( 18-C , 40-H ) :   0.9590

Dispersion correction           -0.021565476
FINAL SINGLE POINT ENERGY     -2932.469609543551

DIPOLE MOMENT
-------------

Method             : SCF
Type of density    : Electron Density
Multiplicity       :   1
Irrep              :   0
Energy             : -2932.4945047021546998 Eh
Relativity type    :
Basis              : AO
                                X                 Y                 Z
Electronic contribution:      4.269784691      -0.241045581       7.403553725
Nuclear contribution   :     -5.374004289      -0.490044684      -7.374104368
                        -----------------------------------------
Total Dipole Moment    :     -1.104219598      -0.731090265       0.029449357
                        -----------------------------------------
Magnitude (a.u.)       :      1.324636237
Magnitude (Debye)      :      3.366957738

Rotational constants in cm-1:             0.011613             0.005247             0.004512
Rotational constants in MHz :           348.149245           157.312441           135.280465

                             ****ORCA TERMINATED NORMALLY****
TOTAL RUN TIME: 0 days 0 hours 1 minutes 46 seconds 252 msec
