                         Program Version 6.0.0  -   RELEASE  -
|  1> ! wb97x-v def2-tzvp def2/J RIJCOSX DEFGRID2 scfconv7 GCP(DFT/TZ) printgap
|  2> %output
|  3>     printlevel normal
|  4> end
|  5> * xyz 0 1
|  6> C 0.8768274644379241 1.3699902958129555 -0.6373028029429634
|  7> C 1.597739018210975 0.15693450716923912 -0.07526439230045669
|  8> H 2.5690877720885554 0.05503838654643242 -0.5826631746059924
|  9> C 0.7748246138566367 -1.1175017043598454 -0.30515738882171106
| 10> H 1.2101689464123542 -1.9408151986690187 0.2780853542224298
| 11> C -0.6805070806520837 -0.9187071652776616 0.13668142958888999
| 12> H -1.2792975845576309 -1.7642433569969298 -0.21844956457089654
| 13> C -1.2645197183340295 0.37034761826680274 -0.44973021457095047
| 14> H -1.3351375554820921 0.30787197203522154 -1.5444824024435087
| 15> O -0.44617868567532604 1.4944209408469082 -0.08958679807171245
| 16> O -2.5547830358412376 0.615163329625763 0.04393141927708544
| 17> O -0.7953171703383798 -0.8969880382503278 1.562953722436782
| 18> O 0.7386279543485569 -1.4408013884647441 -1.6976874951877012
| 19> O 1.7832824387090394 0.261023747305534 1.349457566963467
| 20> H 0.8295629981930279 1.2933931340403246 -1.7336414841644527
| 21> H 1.4083443824869282 2.2895810315999445 -0.3750893210531466
| 22> H -2.534807573211427 0.3940919634513248 0.9897826372549777
| 23> H -0.093416396821302 -0.30743899529314905 1.889176418672241
| 24> H 1.646107796401717 -1.6157042514268436 -1.9816077181975424
| 25> H 2.158105152415231 1.1321913491728337 1.5385459696946775
| 26> *
| 27>
| 28>                          ****END OF INPUT****

CARTESIAN COORDINATES (ANGSTROEM)
---------------------------------
  C      0.876827    1.369990   -0.637303
  C      1.597739    0.156935   -0.075264
  H      2.569088    0.055038   -0.582663
  C      0.774825   -1.117502   -0.305157
  H      1.210169   -1.940815    0.278085
  C     -0.680507   -0.918707    0.136681
  H     -1.279298   -1.764243   -0.218450
  C     -1.264520    0.370348   -0.449730
  H     -1.335138    0.307872   -1.544482
  O     -0.446179    1.494421   -0.089587
  O     -2.554783    0.615163    0.043931
  O     -0.795317   -0.896988    1.562954
  O      0.738628   -1.440801   -1.697687
  O      1.783282    0.261024    1.349458
  H      0.829563    1.293393   -1.733641
  H      1.408344    2.289581   -0.375089
  H     -2.534808    0.394092    0.989783
  H     -0.093416   -0.307439    1.889176
  H      1.646108   -1.615704   -1.981608
  H      2.158105    1.132191    1.538546

 Total Charge           Charge          ....    0
 Multiplicity           Mult            ....    1
 Number of Electrons    NEL             ....   80
 Basis Dimension        Dim             ....  370

ORBITAL ENERGIES
----------------

  NO   OCC          E(Eh)            E(eV)
   0   2.0000     -21.705785      -590.6444
   1   2.0000     -21.697719      -590.4250
   2   2.0000     -21.682771      -590.0182
   3   2.0000     -21.675331      -589.8157
   4   2.0000     -21.671663      -589.7159
   5   2.0000     -12.143130      -330.4314
   6   2.0000     -12.124473      -329.9237
   7   2.0000     -12.118458      -329.7600
   8   2.0000     -12.110922      -329.5549
   9   2.0000     -12.104230      -329.3729
  10   2.0000      -1.712254       -46.5928
  11   2.0000      -1.704237       -46.3746
  12   2.0000      -1.699475       -46.2451
  13   2.0000      -1.677101       -45.6362
  14   2.0000      -1.664798       -45.3015
  15   2.0000      -1.337229       -36.3878
  16   2.0000      -1.300582       -35.3906
  17   2.0000      -1.200295       -32.6617
  18   2.0000      -1.198541       -32.6140
  19   2.0000      -1.140318       -31.0296
  20   2.0000      -1.082055       -29.4442
  21   2.0000      -1.069902       -29.1135
  22   2.0000      -1.059488       -28.8301
  23   2.0000      -1.023657       -27.8551
  24   2.0000      -1.011829       -27.5333
  25   2.0000      -0.998544       -27.1718
  26   2.0000      -0.992141       -26.9975
  27   2.0000      -0.981597       -26.7106
  28   2.0000      -0.961160       -26.1545
  29   2.0000      -0.953432       -25.9442
  30   2.0000      -0.946727       -25.7618
  31   2.0000      -0.927383       -25.2354
  32   2.0000      -0.915270       -24.9058
  33   2.0000      -0.897519       -24.4227
  34   2.0000      -0.879463       -23.9314
  35   2.0000      -0.860256       -23.4088
  36   2.0000      -0.844479       -22.9795
  37   2.0000      -0.825394       -22.4601
  38   2.0000      -0.805865       -21.9287
  39   2.0000      -0.780394       -21.2356
  40   0.0000      -0.235976        -6.4212
  41   0.0000      -0.184474        -5.0198
  42   0.0000      -0.170446        -4.6381
  43   0.0000      -0.136277        -3.7083
  44   0.0000      -0.106738        -2.9045

MULLIKEN ATOMIC CHARGES
-----------------------
   0 C :   -0.073887
   1 C :    0.002358
   2 H :    0.088308
   3 C :    0.069351
   4 H :    0.100524
   5 C :    0.082418
   6 H :    0.107235
   7 C :    0.067484
   8 H :    0.089614
   9 O :   -0.242138
  10 O :   -0.411890
  11 O :   -0.463886
  12 O :   -0.430704
  13 O :   -0.464693
  14 H :    0.101086
  15 H :    0.121124
  16 H :    0.317773
  17 H :    0.325709
  18 H :    0.303761
  19 H :    0.310453
Sum of atomic charges:   -0.0000000

LOEWDIN ATOMIC CHARGES
----------------------
   0 C :   -0.292599
   1 C :   -0.334674
   2 H :    0.135051
   3 C :   -0.305215
   4 H :    0.142758
   5 C :   -0.308759
   6 H :    0.152902
   7 C :   -0.406032
   8 H :    0.133974
   9 O :    0.154590
  10 O :    0.008635
  11 O :   -0.017139
  12 O :   -0.003698
  13 O :   -0.017384
  14 H :    0.130750
  15 H :    0.127679
  16 H :    0.178504
  17 H :    0.171893
  18 H :    0.173259
  19 H :    0.175506

  Mayer bond orders larger than 0.100000
B(  0-C ,  1-C ) :   1.0026 B(  0-C ,  9-O ) :   1.0025 B(  0-C , 14-H ) :   0.9693
B(  0-C , 15-H ) :   0.9685 B(  1-C ,  2-H ) :   0.9758 B(  1-C ,  3-C ) :   0.9466
B(  1-C , 13-O ) :   1.0111 B(  3-C ,  4-H ) :   0.9739 B(  3-C ,  5-C ) :   0.9805
B(  3-C , 12-O ) :   1.0941 B(  5-C ,  6-H ) :   0.9556 B(  5-C ,  7-C ) :   0.9976
B(  5-C , 11-O ) :   1.0146 B(  7-C ,  8-H ) :   0.9850 B(  7-C ,  9-O ) :   1.0052
B(  7-C , 10-O ) :   1.1746 B( 10-O , 16-H ) :   0.8681 B( 11-O , 17-H ) :   0.8574
B( 12-O , 18-H ) :   0.8976 B( 13-O , 19-H ) :   0.8925

FINAL SINGLE POINT ENERGY      -572.704545384899

DIPOLE MOMENT
-------------

Method             : SCF
Type of density    : Electron Density
Multiplicity       :   1
Irrep              :   0
Energy             :  -572.7207203621994722 Eh
Relativity type    :
Basis              : AO
                                X                 Y                 Z
Electronic contribution:     -2.340297461       0.180504867       1.320556731
Nuclear contribution   :      4.283509336      -0.063961561      -1.676285035
                        -----------------------------------------
Total Dipole Moment    :      1.943211875       0.116543306      -0.355728305
                        -----------------------------------------
Magnitude (a.u.)       :      1.978938443
Magnitude (Debye)      :      5.030061775

Rotational constants in cm-1:             0.057788             0.040444             0.038304
Rotational constants in MHz :          1732.453935          1212.488744          1148.313961

                             ****ORCA TERMINATED NORMALLY****
TOTAL RUN TIME: 0 days 0 hours 3 minutes 52 seconds 447 msec
