                         Program Version 6.0.0  -   RELEASE  -
|  1> ! wb97x-v def2-tzvp def2/J RIJCOSX DEFGRID2 scfconv7 GCP(DFT/TZ) printgap
|  2> %output
|  3>     printlevel normal
|  4> end
|  5> %cpcm
|  6>     smd true
|  7>     smdsolvent "water"
|  8> end
|  9> * xyz 0 1
| 10> C 0.8768274644379241 1.3699902958129555 -0.6373028029429634
| 11> C 1.597739018210975 0.15693450716923912 -0.07526439230045669
| 12> H 2.5690877720885554 0.05503838654643242 -0.5826631746059924
| 13> C 0.7748246138566367 -1.1175017043598454 -0.30515738882171106
| 14> H 1.2101689464123542 -1.9408151986690187 0.2780853542224298
| 15> C -0.6805070806520837 -0.9187071652776616 0.13668142958888999
| 16> H -1.2792975845576309 -1.7642433569969298 -0.21844956457089654
| 17> C -1.2645197183340295 0.37034761826680274 -0.44973021457095047
| 18> H -1.3351375554820921 0.30787197203522154 -1.5444824024435087
| 19> O -0.44617868567532604 1.4944209408469082 -0.08958679807171245
| 20> O -2.5547830358412376 0.615163329625763 0.04393141927708544
| 21> O -0.7953171703383798 -0.8969880382503278 1.562953722436782
| 22> O 0.7386279543485569 -1.4408013884647441 -1.6976874951877012
| 23> O 1.7832824387090394 0.261023747305534 1.349457566963467
| 24> H 0.8295629981930279 1.2933931340403246 -1.7336414841644527
| 25> H 1.4083443824869282 2.2895810315999445 -0.3750893210531466
| 26> H -2.534807573211427 0.3940919634513248 0.9897826372549777
| 27> H -0.093416396821302 -0.30743899529314905 1.889176418672241
| 28> H 1.646107796401717 -1.6157042514268436 -1.9816077181975424
| 29> H 2.158105152415231 1.1321913491728337 1.5385459696946775
| 30> *
| 31>
| 32>                          ****END OF INPUT****

CARTESIAN COORDINATES (ANGSTROEM)
---------------------------------
  C      0.876827    1.369990   -0.637303
  C      1.597739    0.156935   -0.075264
  H      2.569088    0.055038   -0.582663
  C      0.774825   -1.117502   -0.305157
  H      1.210169   -1.940815    0.278085
  C     -0.680507   -0.918707    0.136681
  H     -1.279298   -1.764243   -0.218450
  C     -1.264520    0.370348   -0.449730
  H     -1.335138    0.307872   -1.544482
  O     -0.446179    1.494421   -0.089587
  O     -2.554783    0.615163    0.043931
  O     -0.795317   -0.896988    1.562954
  O      0.738628   -1.440801   -1.697687
  O      1.783282    0.261024    1.349458
  H      0.829563    1.293393   -1.733641
  H      1.408344    2.289581   -0.375089
  H     -2.534808    0.394092    0.989783
  H     -0.093416   -0.307439    1.889176
  H      1.646108   -1.615704   -1.981608
  H      2.158105    1.132191    1.538546

 Total Charge           Charge          ....    0
 Multiplicity           Mult            ....    1
 Number of Electrons    NEL             ....   80
 Basis Dimension        Dim             ....  370

ORBITAL ENERGIES
----------------

  NO   OCC          E(Eh)            E(eV)
   0   2.0000     -21.687447      -590.1454
   1   2.0000     -21.686152      -590.1102
   2   2.0000     -21.686108      -590.1090
   3   2.0000     -21.684250      -590.0584
   4   2.0000     -21.681529      -589.9844
   5   2.0000     -12.146807      -330.5314
   6   2.0000     -12.105771      -329.4148
   7   2.0000     -12.102881      -329.3361
   8   2.0000     -12.102231      -329.3184
   9   2.0000     -12.093513      -329.0812
  10   2.0000      -1.718519       -46.7633
  11   2.0000      -1.691213       -46.0203
  12   2.0000      -1.684504       -45.8377
  13   2.0000      -1.682105       -45.7724
  14   2.0000      -1.673999       -45.5518
  15   2.0000      -1.324743       -36.0481
  16   2.0000      -1.296311       -35.2744
  17   2.0000      -1.196608       -32.5614
  18   2.0000      -1.190621       -32.3984
  19   2.0000      -1.134940       -30.8833
  20   2.0000      -1.084698       -29.5161
  21   2.0000      -1.065874       -29.0039
  22   2.0000      -1.047451       -28.5026
  23   2.0000      -1.021955       -27.8088
  24   2.0000      -1.014044       -27.5935
  25   2.0000      -0.997609       -27.1463
  26   2.0000      -0.984430       -26.7877
  27   2.0000      -0.971409       -26.4334
  28   2.0000      -0.963661       -26.2225
  29   2.0000      -0.953811       -25.9545
  30   2.0000      -0.939606       -25.5680
  31   2.0000      -0.925995       -25.1976
  32   2.0000      -0.919726       -25.0270
  33   2.0000      -0.897237       -24.4150
  34   2.0000      -0.879994       -23.9459
  35   2.0000      -0.849310       -23.1109
  36   2.0000      -0.837584       -22.7918
  37   2.0000      -0.816030       -22.2053
  38   2.0000      -0.792647       -21.5690
  39   2.0000      -0.774476       -21.0746
  40   0.0000      -0.225814        -6.1447
  41   0.0000      -0.177578        -4.8322
  42   0.0000      -0.160996        -4.3809
  43   0.0000      -0.137563        -3.7433
  44   0.0000      -0.096820        -2.6346

MULLIKEN ATOMIC CHARGES
-----------------------
   0 C :   -0.105950
   1 C :    0.044007
   2 H :    0.133153
   3 C :    0.087565
   4 H :    0.116237
   5 C :    0.100726
   6 H :    0.130248
   7 C :    0.083683
   8 H :    0.122490
   9 O :   -0.335682
  10 O :   -0.499016
  11 O :   -0.533809
  12 O :   -0.528269
  13 O :   -0.546618
  14 H :    0.128023
  15 H :    0.158945
  16 H :    0.359096
  17 H :    0.352161
  18 H :    0.366262
  19 H :    0.366747
Sum of atomic charges:    0.0000000

LOEWDIN ATOMIC CHARGES
----------------------
   0 C :   -0.280793
   1 C :   -0.320822
   2 H :    0.152049
   3 C :   -0.299193
   4 H :    0.148115
   5 C :   -0.308681
   6 H :    0.157085
   7 C :   -0.408115
   8 H :    0.141763
   9 O :    0.120011
  10 O :   -0.027404
  11 O :   -0.044573
  12 O :   -0.031720
  13 O :   -0.040115
  14 H :    0.137595
  15 H :    0.140176
  16 H :    0.191114
  17 H :    0.178748
  18 H :    0.197912
  19 H :    0.196849

  Mayer bond orders larger than 0.100000
B(  0-C ,  1-C ) :   1.0015 B(  0-C ,  9-O ) :   0.9500 B(  0-C , 14-H ) :   0.9705
B(  0-C , 15-H ) :   0.9640 B(  1-C ,  2-H ) :   0.9686 B(  1-C ,  3-C ) :   0.9491
B(  1-C , 13-O ) :   0.9868 B(  3-C ,  4-H ) :   0.9765 B(  3-C ,  5-C ) :   0.9742
B(  3-C , 12-O ) :   1.0707 B(  5-C ,  6-H ) :   0.9494 B(  5-C ,  7-C ) :   0.9865
B(  5-C , 11-O ) :   0.9919 B(  7-C ,  8-H ) :   0.9853 B(  7-C ,  9-O ) :   1.0102
B(  7-C , 10-O ) :   1.1238 B( 10-O , 16-H ) :   0.8420 B( 11-O , 17-H ) :   0.8363
B( 12-O , 18-H ) :   0.8597 B( 13-O , 19-H ) :   0.8581

FINAL SINGLE POINT ENERGY      -572.736230091811

DIPOLE MOMENT
-------------

Method             : SCF
Type of density    : Electron Density
Multiplicity       :   1
Irrep              :   0
Energy             :  -572.7524050691114326 Eh
Relativity type    :
Basis              : AO
                                X                 Y                 Z
Electronic contribution:     -1.598060371       0.217359204       1.121157041
Nuclear contribution   :      4.283509336      -0.063961561      -1.676285035
                        -----------------------------------------
Total Dipole Moment    :      2.685448965       0.153397643      -0.555127994
                        -----------------------------------------
Magnitude (a.u.)       :      2.746513075
Magnitude (Debye)      :      6.981081440

Rotational constants in cm-1:             0.057788             0.040444             0.038304
Rotational constants in MHz :          1732.453935          1212.488744          1148.313961

                             ****ORCA TERMINATED NORMALLY****
TOTAL RUN TIME: 0 days 0 hours 4 minutes 15 seconds 222 msec
