                         Program Version 6.0.0  -   RELEASE  -
|  1> ! pbe def2-sv(p) def2/J RI DEFGRID1 loosescf d4 GCP(DFT/SV(P)) printgap
|  2> %output
|  3>     printlevel normal
|  4> end
|  5> * xyz 0 1
|  6> C 3.4450818809 2.2205190482 -0.6011800614
|  7> C 2.070090227 2.2387261004 0.0315800211
|  8> O 1.4525689675 0.9364093665 0.012709579
|  9> P 1.9747908554 -0.2625559676 0.9074471271
| 10> S 2.5974167335 0.2212228592 2.6989742154
| 11> O 3.0640974507 -0.9437496856 -0.0371388056
| 12> C 4.0673188731 -1.8307319219 0.4857331629
| 13> C 3.4824094885 -3.1619429461 0.9135314328
| 14> S 0.2756370501 -1.5205933663 0.8077924212
| 15> C 0.2169917553 -1.8631079808 -0.9755302193
| 16> S -0.2289304703 -0.4322545622 -2.0045592822
| 17> P -1.9903785333 0.1297662159 -0.9937964011
| 18> S -3.1489861502 -1.2869035142 -0.2873192996
| 19> O -2.5655114256 0.9936722069 -2.1909640655
| 20> C -3.9763959578 1.2290177344 -2.3739167871
| 21> C -4.5557797033 2.1000088689 -1.2786678974
| 22> O -1.5693364968 1.2498982825 0.0636973367
| 23> C -1.6614361771 1.1407461753 1.4904085027
| 24> C -2.3603061208 2.3673786603 2.0426561212
| 25> H 3.3942511754 1.7782797403 -1.592874848
| 26> H 3.8187179342 3.2369816674 -0.676154858
| 27> H 4.1286153474 1.6366589333 0.0134577705
| 28> H 1.3722039508 2.8622656335 -0.5297144304
| 29> H 2.1243842505 2.5796039712 1.070855973
| 30> H 4.7757433325 -1.9442228163 -0.3358926712
| 31> H 4.5540837705 -1.3398694585 1.3345253251
| 32> H 2.7719958733 -3.0106006793 1.7262077091
| 33> H 2.9707792067 -3.6442183337 0.0846014077
| 34> H 4.2813782398 -3.8080484718 1.2630097962
| 35> H -0.5374051543 -2.6407500398 -1.0856782394
| 36> H 1.1898265349 -2.1996316212 -1.3245462199
| 37> H -4.0340202051 1.7119217741 -3.3503536876
| 38> H -4.4866322809 0.2613891861 -2.4056041311
| 39> H -3.9797073051 3.016797419 -1.1822008964
| 40> H -5.5863577466 2.3428935886 -1.5181495049
| 41> H -4.531456353 1.5610895296 -0.3320635893
| 42> H -2.2024183941 0.2221109108 1.7449015322
| 43> H -0.6406358114 1.0665472231 1.8805061596
| 44> H -2.3403560854 2.3228222774 3.1268283102
| 45> H -1.8485871177 3.2663179968 1.7109722999
| 46> H -3.3924924615 2.4018596935 1.7055172628
| 47> *
| 48>
| 49>                          ****END OF INPUT****

CARTESIAN COORDINATES (ANGSTROEM)
---------------------------------
  C      3.445082    2.220519   -0.601180
  C      2.070090    2.238726    0.031580
  O      1.452569    0.936409    0.012710
  P      1.974791   -0.262556    0.907447
  S      2.597417    0.221223    2.698974
  O      3.064097   -0.943750   -0.037139
  C      4.067319   -1.830732    0.485733
  C      3.482409   -3.161943    0.913531
  S      0.275637   -1.520593    0.807792
  C      0.216992   -1.863108   -0.975530
  S     -0.228930   -0.432255   -2.004559
  P     -1.990379    0.129766   -0.993796
  S     -3.148986   -1.286904   -0.287319
  O     -2.565511    0.993672   -2.190964
  C     -3.976396    1.229018   -2.373917
  C     -4.555780    2.100009   -1.278668
  O     -1.569336    1.249898    0.063697
  C     -1.661436    1.140746    1.490409
  C     -2.360306    2.367379    2.042656
  H      3.394251    1.778280   -1.592875
  H      3.818718    3.236982   -0.676155
  H      4.128615    1.636659    0.013458
  H      1.372204    2.862266   -0.529714
  H      2.124384    2.579604    1.070856
  H      4.775743   -1.944223   -0.335893
  H      4.554084   -1.339869    1.334525
  H      2.771996   -3.010601    1.726208
  H      2.970779   -3.644218    0.084601
  H      4.281378   -3.808048    1.263010
  H     -0.537405   -2.640750   -1.085678
  H      1.189827   -2.199632   -1.324546
  H     -4.034020    1.711922   -3.350354
  H     -4.486632    0.261389   -2.405604
  H     -3.979707    3.016797   -1.182201
  H     -5.586358    2.342894   -1.518150
  H     -4.531456    1.561090   -0.332064
  H     -2.202418    0.222111    1.744902
  H     -0.640636    1.066547    1.880506
  H     -2.340356    2.322822    3.126828
  H     -1.848587    3.266318    1.710972
  H     -3.392492    2.401860    1.705517

 Total Charge           Charge          ....    0
 Multiplicity           Mult            ....    1
 Number of Electrons    NEL             ....  202
 Basis Dimension        Dim             ....  334

ORBITAL ENERGIES
----------------

  NO   OCC          E(Eh)            E(eV)
   0   2.0000     -88.046172     -2395.8581
   1   2.0000     -88.036134     -2395.5850
   2   2.0000     -87.993088     -2394.4137
   3   2.0000     -87.988178     -2394.2801
   4   2.0000     -76.429514     -2079.7528
   5   2.0000     -76.425252     -2079.6368
   6   2.0000     -18.799648      -511.5644
   7   2.0000     -18.789669      -511.2929
   8   2.0000     -18.789464      -511.2873
   9   2.0000     -18.785771      -511.1868
  10   2.0000      -9.959372      -271.0083
  11   2.0000      -9.957508      -270.9576
  12   2.0000      -9.953529      -270.8493
  13   2.0000      -9.951611      -270.7971
  14   2.0000      -9.941209      -270.5140
  15   2.0000      -9.889491      -269.1067
  16   2.0000      -9.885560      -268.9998
  17   2.0000      -9.885167      -268.9891
  18   2.0000      -9.881178      -268.8805
  19   2.0000      -7.690609      -209.2721
  20   2.0000      -7.681747      -209.0310
  21   2.0000      -7.638178      -207.8454
  22   2.0000      -7.633128      -207.7080
  23   2.0000      -6.427035      -174.8885
  24   2.0000      -6.422511      -174.7654
  25   2.0000      -5.718889      -155.6189
  26   2.0000      -5.714887      -155.5100
  27   2.0000      -5.709856      -155.3731
  28   2.0000      -5.707468      -155.3081
  29   2.0000      -5.706460      -155.2807
  30   2.0000      -5.698137      -155.0542
  31   2.0000      -5.667041      -154.2080
  32   2.0000      -5.661920      -154.0687
  33   2.0000      -5.658764      -153.9828
  34   2.0000      -5.658455      -153.9744
  35   2.0000      -5.654000      -153.8532
  36   2.0000      -5.653187      -153.8310
  37   2.0000      -4.649397      -126.5165
  38   2.0000      -4.649017      -126.5062
  39   2.0000      -4.647497      -126.4648
  40   2.0000      -4.644857      -126.3930
  41   2.0000      -4.644294      -126.3777
  42   2.0000      -4.643226      -126.3486
  43   2.0000      -0.990158       -26.9436
  44   2.0000      -0.981313       -26.7029
  45   2.0000      -0.949368       -25.8336
  46   2.0000      -0.940309       -25.5871
  47   2.0000      -0.764245       -20.7962
  48   2.0000      -0.723351       -19.6834
  49   2.0000      -0.708587       -19.2816
  50   2.0000      -0.690512       -18.7898
  51   2.0000      -0.684617       -18.6294
  52   2.0000      -0.673638       -18.3306
  53   2.0000      -0.655406       -17.8345
  54   2.0000      -0.639979       -17.4147
  55   2.0000      -0.603913       -16.4333
  56   2.0000      -0.596653       -16.2357
  57   2.0000      -0.576587       -15.6897
  58   2.0000      -0.565492       -15.3878
  59   2.0000      -0.562303       -15.3010
  60   2.0000      -0.499331       -13.5875
  61   2.0000      -0.492917       -13.4129
  62   2.0000      -0.477304       -12.9881
  63   2.0000      -0.475079       -12.9275
  64   2.0000      -0.459334       -12.4991
  65   2.0000      -0.445457       -12.1215
  66   2.0000      -0.443402       -12.0656
  67   2.0000      -0.432523       -11.7695
  68   2.0000      -0.426060       -11.5937
  69   2.0000      -0.413511       -11.2522
  70   2.0000      -0.405816       -11.0428
  71   2.0000      -0.400530       -10.8990
  72   2.0000      -0.394270       -10.7286
  73   2.0000      -0.392771       -10.6878
  74   2.0000      -0.378393       -10.2966
  75   2.0000      -0.372802       -10.1445
  76   2.0000      -0.371907       -10.1201
  77   2.0000      -0.358718        -9.7612
  78   2.0000      -0.354873        -9.6566
  79   2.0000      -0.353976        -9.6322
  80   2.0000      -0.351071        -9.5531
  81   2.0000      -0.348102        -9.4723
  82   2.0000      -0.342639        -9.3237
  83   2.0000      -0.337659        -9.1882
  84   2.0000      -0.332229        -9.0404
  85   2.0000      -0.324062        -8.8182
  86   2.0000      -0.312618        -8.5068
  87   2.0000      -0.298478        -8.1220
  88   2.0000      -0.291620        -7.9354
  89   2.0000      -0.288387        -7.8474
  90   2.0000      -0.281281        -7.6541
  91   2.0000      -0.275061        -7.4848
  92   2.0000      -0.273735        -7.4487
  93   2.0000      -0.268411        -7.3038
  94   2.0000      -0.255999        -6.9661
  95   2.0000      -0.232377        -6.3233
  96   2.0000      -0.217347        -5.9143
  97   2.0000      -0.214209        -5.8289
  98   2.0000      -0.210842        -5.7373
  99   2.0000      -0.202244        -5.5033
 100   2.0000      -0.197699        -5.3797
 101   0.0000      -0.044319        -1.2060
 102   0.0000      -0.025732        -0.7002
 103   0.0000      -0.010380        -0.2824
 104   0.0000       0.003736         0.1017
 105   0.0000       0.009846         0.2679

MULLIKEN ATOMIC CHARGES
-----------------------
   0 C :   -0.306594
   1 C :   -0.003565
   2 O :   -0.359006
   3 P :    0.609319
   4 S :   -0.322577
   5 O :   -0.378987
   6 C :   -0.009499
   7 C :   -0.317186
   8 S :   -0.074066
   9 C :   -0.352434
  10 S :   -0.072432
  11 P :    0.635835
  12 S :   -0.338153
  13 O :   -0.381409
  14 C :    0.002681
  15 C :   -0.323312
  16 O :   -0.371224
  17 C :   -0.026822
  18 C :   -0.283229
  19 H :    0.119850
  20 H :    0.112085
  21 H :    0.119530
  22 H :    0.108841
  23 H :    0.108990
  24 H :    0.106763
  25 H :    0.113970
  26 H :    0.132210
  27 H :    0.116626
  28 H :    0.115839
  29 H :    0.194633
  30 H :    0.182051
  31 H :    0.106324
  32 H :    0.112487
  33 H :    0.119642
  34 H :    0.113105
  35 H :    0.132327
  36 H :    0.112339
  37 H :    0.106122
  38 H :    0.111582
  39 H :    0.111441
  40 H :    0.115903
Sum of atomic charges:   -0.0000000

LOEWDIN ATOMIC CHARGES
----------------------
   0 C :   -0.363968
   1 C :   -0.116236
   2 O :   -0.234959
   3 P :    0.565227
   4 S :   -0.319905
   5 O :   -0.246316
   6 C :   -0.121883
   7 C :   -0.366733
   8 S :    0.110930
   9 C :   -0.476244
  10 S :    0.094691
  11 P :    0.572496
  12 S :   -0.324823
  13 O :   -0.249805
  14 C :   -0.112526
  15 C :   -0.366760
  16 O :   -0.241813
  17 C :   -0.130273
  18 C :   -0.352441
  19 H :    0.127848
  20 H :    0.130410
  21 H :    0.121625
  22 H :    0.120413
  23 H :    0.109438
  24 H :    0.118878
  25 H :    0.110735
  26 H :    0.123882
  27 H :    0.122920
  28 H :    0.132881
  29 H :    0.136464
  30 H :    0.130215
  31 H :    0.119707
  32 H :    0.112319
  33 H :    0.126768
  34 H :    0.131243
  35 H :    0.121431
  36 H :    0.104230
  37 H :    0.102084
  38 H :    0.131202
  39 H :    0.124133
  40 H :    0.122515

  Mayer bond orders larger than 0.100000
B(  0-C ,  1-C ) :   1.1659 B(  0-C , 19-H ) :   0.9460 B(  0-C , 20-H ) :   0.9389
B(  0-C , 21-H ) :   0.9392 B(  1-C ,  2-O ) :   0.9031 B(  1-C , 22-H ) :   0.9318
B(  1-C , 23-H ) :   0.9179 B(  2-O ,  3-P ) :   1.1221 B(  3-P ,  4-S ) :   1.6155
B(  3-P ,  5-O ) :   1.0714 B(  3-P ,  8-S ) :   0.9638 B(  5-O ,  6-C ) :   0.9061
B(  6-C ,  7-C ) :   1.1629 B(  6-C , 24-H ) :   0.9337 B(  6-C , 25-H ) :   0.9137
B(  7-C , 26-H ) :   0.9341 B(  7-C , 27-H ) :   0.9455 B(  7-C , 28-H ) :   0.9383
B(  8-S ,  9-C ) :   0.9823 B(  9-C , 10-S ) :   1.0120 B(  9-C , 29-H ) :   0.8939
B(  9-C , 30-H ) :   0.8968 B( 10-S , 11-P ) :   0.9634 B( 10-S , 12-S ) :   0.1054
B( 11-P , 12-S ) :   1.5876 B( 11-P , 13-O ) :   1.1227 B( 11-P , 16-O ) :   1.1086
B( 13-O , 14-C ) :   0.9111 B( 14-C , 15-C ) :   1.1616 B( 14-C , 31-H ) :   0.9352
B( 14-C , 32-H ) :   0.9190 B( 15-C , 33-H ) :   0.9456 B( 15-C , 34-H ) :   0.9366
B( 15-C , 35-H ) :   0.9278 B( 16-O , 17-C ) :   0.9038 B( 17-C , 18-C ) :   1.1607
B( 17-C , 36-H ) :   0.9035 B( 17-C , 37-H ) :   0.9135 B( 18-C , 38-H ) :   0.9410
B( 18-C , 39-H ) :   0.9494 B( 18-C , 40-H ) :   0.9453

Dispersion correction           -0.067244628
FINAL SINGLE POINT ENERGY     -2929.522595577015

DIPOLE MOMENT
-------------

Method             : SCF
Type of density    : Electron Density
Multiplicity       :   1
Irrep              :   0
Energy             : -2929.6414562782429130 Eh
Relativity type    :
Basis              : AO
                                X                 Y                 Z
Electronic contribution:     -1.223257863     -10.713805491      -1.986158341
Nuclear contribution   :      1.724698694      11.197177885       1.256152248
                        -----------------------------------------
Total Dipole Moment    :      0.501440830       0.483372394      -0.730006093
                        -----------------------------------------
Magnitude (a.u.)       :      1.008960195
Magnitude (Debye)      :      2.564573005

Rotational constants in cm-1:             0.013130             0.005147             0.004814
Rotational constants in MHz :           393.629764           154.305718           144.310730

                             ****ORCA TERMINATED NORMALLY****
TOTAL RUN TIME: 0 days 0 hours 0 minutes 21 seconds 591 msec
