                         Program Version 6.0.0  -   RELEASE  -
|  1> ! pbe def2-sv(p) def2/J RI DEFGRID1 loosescf d4 GCP(DFT/SV(P)) printgap
|  2> %output
|  3>     printlevel normal
|  4> end
|  5> * xyz 0 1
|  6> C 4.3945755466 -1.5834547525 -0.7829910306
|  7> C 4.578674157 -0.0805134892 -0.7363019567
|  8> O 3.534452274 0.5825122723 -0.0020997788
|  9> P 2.0199089112 0.6079171084 -0.496286838
| 10> S 1.8096529743 0.7515687229 -2.4383558654
| 11> O 1.4598489501 1.8545881502 0.2943110363
| 12> C 1.9371196894 2.3192188406 1.5802015592
| 13> C 1.7696539077 1.2821778172 2.6701888459
| 14> S 1.1827598211 -1.1401580847 0.3838781308
| 15> C 0.077318601 -1.7057751704 -0.9453127826
| 16> S -1.6258735489 -1.938821472 -0.3918075175
| 17> P -2.041162463 0.0615109348 0.1976717801
| 18> S -1.4203545146 1.4488220842 -1.0412486576
| 19> O -1.4504783245 0.2679358175 1.6472811159
| 20> C -1.9637771599 -0.3426032193 2.8634042846
| 21> C -1.3618358024 -1.7120065561 3.1081108767
| 22> O -3.604502739 0.0450502446 0.4839822067
| 23> C -4.5883220227 0.2822682978 -0.5383053555
| 24> C -4.6431119816 -0.8369132241 -1.5576587627
| 25> H 4.2487184285 -1.9815993909 0.2177765059
| 26> H 3.5277204504 -1.8305276365 -1.3938840538
| 27> H 5.2756693014 -2.0350575399 -1.2273275241
| 28> H 4.601827579 0.3332568766 -1.7491601496
| 29> H 5.4864075161 0.1982195509 -0.1990610524
| 30> H 2.9836423622 2.6106073609 1.4691649583
| 31> H 1.3214239733 3.2013710359 1.7646760772
| 32> H 2.4037722859 0.4198718729 2.4705624416
| 33> H 2.0511070233 1.7195585401 3.6229418406
| 34> H 0.7339416114 0.9559788771 2.7133261271
| 35> H 0.4138488161 -2.6819989114 -1.2851833669
| 36> H 0.1134895412 -0.9719312993 -1.7558633372
| 37> H -1.6720169384 0.3642029525 3.6425258344
| 38> H -3.0513322749 -0.38908448 2.7975444273
| 39> H -0.2781521076 -1.6681798227 3.0311941828
| 40> H -1.6364600927 -2.0384646107 4.1062423313
| 41> H -1.7327945721 -2.4336238144 2.3853701017
| 42> H -5.522815127 0.3655157494 0.018714666
| 43> H -4.3575335466 1.2355497189 -1.0239020105
| 44> H -4.7359534238 -1.7987395283 -1.0598187474
| 45> H -5.4966549108 -0.6832008863 -2.2101260785
| 46> H -3.7365735633 -0.8384562823 -2.1605705495
| 47> *
| 48>
| 49>                          ****END OF INPUT****

CARTESIAN COORDINATES (ANGSTROEM)
---------------------------------
  C      4.394576   -1.583455   -0.782991
  C      4.578674   -0.080513   -0.736302
  O      3.534452    0.582512   -0.002100
  P      2.019909    0.607917   -0.496287
  S      1.809653    0.751569   -2.438356
  O      1.459849    1.854588    0.294311
  C      1.937120    2.319219    1.580202
  C      1.769654    1.282178    2.670189
  S      1.182760   -1.140158    0.383878
  C      0.077319   -1.705775   -0.945313
  S     -1.625874   -1.938821   -0.391808
  P     -2.041162    0.061511    0.197672
  S     -1.420355    1.448822   -1.041249
  O     -1.450478    0.267936    1.647281
  C     -1.963777   -0.342603    2.863404
  C     -1.361836   -1.712007    3.108111
  O     -3.604503    0.045050    0.483982
  C     -4.588322    0.282268   -0.538305
  C     -4.643112   -0.836913   -1.557659
  H      4.248718   -1.981599    0.217777
  H      3.527720   -1.830528   -1.393884
  H      5.275669   -2.035058   -1.227328
  H      4.601828    0.333257   -1.749160
  H      5.486408    0.198220   -0.199061
  H      2.983642    2.610607    1.469165
  H      1.321424    3.201371    1.764676
  H      2.403772    0.419872    2.470562
  H      2.051107    1.719559    3.622942
  H      0.733942    0.955979    2.713326
  H      0.413849   -2.681999   -1.285183
  H      0.113490   -0.971931   -1.755863
  H     -1.672017    0.364203    3.642526
  H     -3.051332   -0.389084    2.797544
  H     -0.278152   -1.668180    3.031194
  H     -1.636460   -2.038465    4.106242
  H     -1.732795   -2.433624    2.385370
  H     -5.522815    0.365516    0.018715
  H     -4.357534    1.235550   -1.023902
  H     -4.735953   -1.798740   -1.059819
  H     -5.496655   -0.683201   -2.210126
  H     -3.736574   -0.838456   -2.160571

 Total Charge           Charge          ....    0
 Multiplicity           Mult            ....    1
 Number of Electrons    NEL             ....  202
 Basis Dimension        Dim             ....  334

ORBITAL ENERGIES
----------------

  NO   OCC          E(Eh)            E(eV)
   0   2.0000     -88.040860     -2395.7136
   1   2.0000     -88.037497     -2395.6221
   2   2.0000     -87.978078     -2394.0052
   3   2.0000     -87.976452     -2393.9610
   4   2.0000     -76.422271     -2079.5557
   5   2.0000     -76.421073     -2079.5231
   6   2.0000     -18.792936      -511.3818
   7   2.0000     -18.789489      -511.2880
   8   2.0000     -18.787766      -511.2411
   9   2.0000     -18.780362      -511.0396
  10   2.0000      -9.955666      -270.9075
  11   2.0000      -9.952791      -270.8292
  12   2.0000      -9.950407      -270.7643
  13   2.0000      -9.950183      -270.7582
  14   2.0000      -9.949777      -270.7472
  15   2.0000      -9.884096      -268.9599
  16   2.0000      -9.883901      -268.9546
  17   2.0000      -9.883256      -268.9371
  18   2.0000      -9.881724      -268.8954
  19   2.0000      -7.685814      -209.1416
  20   2.0000      -7.681875      -209.0344
  21   2.0000      -7.623228      -207.4386
  22   2.0000      -7.621340      -207.3872
  23   2.0000      -6.419487      -174.6831
  24   2.0000      -6.418140      -174.6465
  25   2.0000      -5.713651      -155.4763
  26   2.0000      -5.710265      -155.3842
  27   2.0000      -5.709774      -155.3708
  28   2.0000      -5.706444      -155.2802
  29   2.0000      -5.702889      -155.1835
  30   2.0000      -5.698813      -155.0726
  31   2.0000      -5.652300      -153.8069
  32   2.0000      -5.650418      -153.7557
  33   2.0000      -5.643709      -153.5731
  34   2.0000      -5.643333      -153.5629
  35   2.0000      -5.641995      -153.5265
  36   2.0000      -5.641343      -153.5088
  37   2.0000      -4.642536      -126.3298
  38   2.0000      -4.641156      -126.2923
  39   2.0000      -4.641135      -126.2917
  40   2.0000      -4.639628      -126.2507
  41   2.0000      -4.639555      -126.2487
  42   2.0000      -4.638608      -126.2229
  43   2.0000      -0.986163       -26.8349
  44   2.0000      -0.981878       -26.7183
  45   2.0000      -0.941996       -25.6330
  46   2.0000      -0.936219       -25.4758
  47   2.0000      -0.758875       -20.6500
  48   2.0000      -0.716335       -19.4925
  49   2.0000      -0.707784       -19.2598
  50   2.0000      -0.689133       -18.7523
  51   2.0000      -0.687008       -18.6944
  52   2.0000      -0.675848       -18.3908
  53   2.0000      -0.647172       -17.6104
  54   2.0000      -0.628047       -17.0900
  55   2.0000      -0.596259       -16.2250
  56   2.0000      -0.587957       -15.9991
  57   2.0000      -0.577323       -15.7097
  58   2.0000      -0.574898       -15.6438
  59   2.0000      -0.555401       -15.1132
  60   2.0000      -0.498008       -13.5515
  61   2.0000      -0.490467       -13.3463
  62   2.0000      -0.470832       -12.8120
  63   2.0000      -0.464275       -12.6336
  64   2.0000      -0.447774       -12.1845
  65   2.0000      -0.446417       -12.1476
  66   2.0000      -0.441691       -12.0190
  67   2.0000      -0.440758       -11.9936
  68   2.0000      -0.427729       -11.6391
  69   2.0000      -0.419974       -11.4281
  70   2.0000      -0.411102       -11.1867
  71   2.0000      -0.396131       -10.7793
  72   2.0000      -0.395203       -10.7540
  73   2.0000      -0.382242       -10.4013
  74   2.0000      -0.374424       -10.1886
  75   2.0000      -0.366534        -9.9739
  76   2.0000      -0.364344        -9.9143
  77   2.0000      -0.355717        -9.6796
  78   2.0000      -0.352889        -9.6026
  79   2.0000      -0.349992        -9.5238
  80   2.0000      -0.347433        -9.4541
  81   2.0000      -0.345511        -9.4018
  82   2.0000      -0.336960        -9.1691
  83   2.0000      -0.335299        -9.1239
  84   2.0000      -0.332336        -9.0433
  85   2.0000      -0.318032        -8.6541
  86   2.0000      -0.307101        -8.3566
  87   2.0000      -0.299557        -8.1514
  88   2.0000      -0.291793        -7.9401
  89   2.0000      -0.290230        -7.8976
  90   2.0000      -0.288774        -7.8580
  91   2.0000      -0.270772        -7.3681
  92   2.0000      -0.264913        -7.2087
  93   2.0000      -0.259786        -7.0691
  94   2.0000      -0.252836        -6.8800
  95   2.0000      -0.228593        -6.2203
  96   2.0000      -0.217570        -5.9204
  97   2.0000      -0.209136        -5.6909
  98   2.0000      -0.195487        -5.3195
  99   2.0000      -0.187341        -5.0978
 100   2.0000      -0.180361        -4.9079
 101   0.0000      -0.040318        -1.0971
 102   0.0000      -0.032649        -0.8884
 103   0.0000      -0.005523        -0.1503
 104   0.0000       0.011058         0.3009
 105   0.0000       0.017692         0.4814

MULLIKEN ATOMIC CHARGES
-----------------------
   0 C :   -0.310481
   1 C :    0.002918
   2 O :   -0.390274
   3 P :    0.625679
   4 S :   -0.297007
   5 O :   -0.350481
   6 C :    0.017365
   7 C :   -0.366106
   8 S :   -0.125777
   9 C :   -0.341355
  10 S :   -0.114663
  11 P :    0.605371
  12 S :   -0.281877
  13 O :   -0.359508
  14 C :   -0.012022
  15 C :   -0.309284
  16 O :   -0.387762
  17 C :    0.001330
  18 C :   -0.319998
  19 H :    0.115383
  20 H :    0.119953
  21 H :    0.110985
  22 H :    0.112090
  23 H :    0.101078
  24 H :    0.105722
  25 H :    0.110773
  26 H :    0.121126
  27 H :    0.110042
  28 H :    0.159577
  29 H :    0.177501
  30 H :    0.207964
  31 H :    0.108378
  32 H :    0.115789
  33 H :    0.126685
  34 H :    0.107464
  35 H :    0.124435
  36 H :    0.102724
  37 H :    0.113161
  38 H :    0.115156
  39 H :    0.114299
  40 H :    0.133643
Sum of atomic charges:   -0.0000000

LOEWDIN ATOMIC CHARGES
----------------------
   0 C :   -0.370714
   1 C :   -0.117298
   2 O :   -0.251141
   3 P :    0.578189
   4 S :   -0.295659
   5 O :   -0.229935
   6 C :   -0.104787
   7 C :   -0.376848
   8 S :    0.074186
   9 C :   -0.481877
  10 S :    0.076147
  11 P :    0.560220
  12 S :   -0.288143
  13 O :   -0.237376
  14 C :   -0.110986
  15 C :   -0.370164
  16 O :   -0.249621
  17 C :   -0.116460
  18 C :   -0.371487
  19 H :    0.122135
  20 H :    0.119304
  21 H :    0.129776
  22 H :    0.111985
  23 H :    0.116641
  24 H :    0.112391
  25 H :    0.123953
  26 H :    0.115884
  27 H :    0.129922
  28 H :    0.131014
  29 H :    0.134385
  30 H :    0.125557
  31 H :    0.117669
  32 H :    0.113788
  33 H :    0.124568
  34 H :    0.128362
  35 H :    0.117562
  36 H :    0.117431
  37 H :    0.113298
  38 H :    0.122440
  39 H :    0.131804
  40 H :    0.123885

  Mayer bond orders larger than 0.100000
B(  0-C ,  1-C ) :   1.1676 B(  0-C , 19-H ) :   0.9433 B(  0-C , 20-H ) :   0.9359
B(  0-C , 21-H ) :   0.9370 B(  1-C ,  2-O ) :   0.9106 B(  1-C , 22-H ) :   0.9159
B(  1-C , 23-H ) :   0.9344 B(  2-O ,  3-P ) :   1.0616 B(  3-P ,  4-S ) :   1.6224
B(  3-P ,  5-O ) :   1.1377 B(  3-P ,  8-S ) :   0.9401 B(  4-S ,  8-S ) :   0.1172
B(  4-S , 30-H ) :   0.1006 B(  5-O ,  6-C ) :   0.9060 B(  6-C ,  7-C ) :   1.1705
B(  6-C , 24-H ) :   0.9283 B(  6-C , 25-H ) :   0.9316 B(  7-C , 26-H ) :   0.9353
B(  7-C , 27-H ) :   0.9345 B(  7-C , 28-H ) :   0.9219 B(  8-S ,  9-C ) :   1.0011
B(  9-C , 10-S ) :   1.0018 B(  9-C , 29-H ) :   0.9099 B(  9-C , 30-H ) :   0.8439
B( 10-S , 11-P ) :   0.9347 B( 10-S , 12-S ) :   0.1086 B( 11-P , 12-S ) :   1.6748
B( 11-P , 13-O ) :   1.1180 B( 11-P , 16-O ) :   1.0758 B( 13-O , 14-C ) :   0.8881
B( 14-C , 15-C ) :   1.1726 B( 14-C , 31-H ) :   0.9313 B( 14-C , 32-H ) :   0.9208
B( 15-C , 33-H ) :   0.9434 B( 15-C , 34-H ) :   0.9368 B( 15-C , 35-H ) :   0.9324
B( 16-O , 17-C ) :   0.9059 B( 17-C , 18-C ) :   1.1672 B( 17-C , 36-H ) :   0.9343
B( 17-C , 37-H ) :   0.9158 B( 18-C , 38-H ) :   0.9439 B( 18-C , 39-H ) :   0.9372
B( 18-C , 40-H ) :   0.9343

Dispersion correction           -0.068979977
FINAL SINGLE POINT ENERGY     -2929.510839491774

DIPOLE MOMENT
-------------

Method             : SCF
Type of density    : Electron Density
Multiplicity       :   1
Irrep              :   0
Energy             : -2929.6287249725373840 Eh
Relativity type    :
Basis              : AO
                                X                 Y                 Z
Electronic contribution:     -1.001847022       7.135098135     -12.112556808
Nuclear contribution   :      0.902733764      -7.987374958      13.702379850
                        -----------------------------------------
Total Dipole Moment    :     -0.099113258      -0.852276823       1.589823042
                        -----------------------------------------
Magnitude (a.u.)       :      1.806581447
Magnitude (Debye)      :      4.591965110

Rotational constants in cm-1:             0.012678             0.005556             0.005179
Rotational constants in MHz :           380.076891           166.569879           155.266877

                             ****ORCA TERMINATED NORMALLY****
TOTAL RUN TIME: 0 days 0 hours 0 minutes 22 seconds 418 msec
