                         Program Version 6.0.0  -   RELEASE  -
|  1> ! pbe def2-sv(p) def2/J RI DEFGRID1 loosescf d4 GCP(DFT/SV(P)) printgap
|  2> %output
|  3>     printlevel normal
|  4> end
|  5> * xyz 0 1
|  6> C 1.7639235219 -3.8049807888 0.1768402795
|  7> C 1.310307773 -2.3838384433 0.4458478207
|  8> O 2.4086597862 -1.5034308504 0.1613506564
|  9> P 2.2699402658 -0.0367066169 -0.4437505791
| 10> S 0.9268495885 0.1310107962 -1.8598607914
| 11> O 3.7170352086 0.2443055301 -0.9814886704
| 12> C 4.8767495622 0.6062913997 -0.1895699516
| 13> C 5.1959464164 -0.415258274 0.8792959537
| 14> S 2.0521055906 1.2921437899 1.2106509359
| 15> C 0.2883392868 1.6310561842 1.0971968913
| 16> S -0.7320671374 0.1952610516 1.5926204741
| 17> P -2.1752790165 0.2014288977 0.0507853733
| 18> S -2.2927815779 1.8175914632 -1.0606046152
| 19> O -3.4969952022 -0.251470757 0.8111942343
| 20> C -4.0489900621 0.3577849333 1.9917698323
| 21> C -4.2660442319 1.8497684697 1.8449841716
| 22> O -1.8528533602 -1.1436438067 -0.7243030395
| 23> C -2.230082726 -1.3472636224 -2.0974436506
| 24> C -3.7307798639 -1.4776984049 -2.2430502602
| 25> H 2.0417398647 -3.9161204536 -0.867953726
| 26> H 2.6220935705 -4.0439600032 0.797874203
| 27> H 0.951435616 -4.4864891465 0.4066050006
| 28> H 1.0310259034 -2.2457135802 1.4941912145
| 29> H 0.4585241861 -2.1141754746 -0.1884603219
| 30> H 5.6704614284 0.6746213253 -0.9349942146
| 31> H 4.6938618306 1.5892717193 0.2513614466
| 32> H 5.3045409852 -1.4017199613 0.4366897028
| 33> H 6.1235747746 -0.1358484872 1.3691291199
| 34> H 4.3997974484 -0.4443807434 1.6201687467
| 35> H 0.0186064817 1.9096954646 0.0747665441
| 36> H 0.098913052 2.4458652141 1.7914664669
| 37> H -4.994283378 -0.169737822 2.1315032841
| 38> H -3.3789756994 0.1443434196 2.8294975517
| 39> H -4.7610360125 2.2300023868 2.7327548872
| 40> H -3.3118885879 2.3604140463 1.7229635892
| 41> H -4.8789425397 2.0612427072 0.9720655738
| 42> H -1.843819364 -0.512312342 -2.6922964791
| 43> H -1.7084943172 -2.2619228719 -2.3826513693
| 44> H -4.1003203305 -2.2755423886 -1.6044676665
| 45> H -4.2080197366 -0.5427964566 -1.9505330468
| 46> H -3.976125904 -1.6931147298 -3.2781188072
| 47> *
| 48>
| 49>                          ****END OF INPUT****

CARTESIAN COORDINATES (ANGSTROEM)
---------------------------------
  C      1.763924   -3.804981    0.176840
  C      1.310308   -2.383838    0.445848
  O      2.408660   -1.503431    0.161351
  P      2.269940   -0.036707   -0.443751
  S      0.926850    0.131011   -1.859861
  O      3.717035    0.244306   -0.981489
  C      4.876750    0.606291   -0.189570
  C      5.195946   -0.415258    0.879296
  S      2.052106    1.292144    1.210651
  C      0.288339    1.631056    1.097197
  S     -0.732067    0.195261    1.592620
  P     -2.175279    0.201429    0.050785
  S     -2.292782    1.817591   -1.060605
  O     -3.496995   -0.251471    0.811194
  C     -4.048990    0.357785    1.991770
  C     -4.266044    1.849768    1.844984
  O     -1.852853   -1.143644   -0.724303
  C     -2.230083   -1.347264   -2.097444
  C     -3.730780   -1.477698   -2.243050
  H      2.041740   -3.916120   -0.867954
  H      2.622094   -4.043960    0.797874
  H      0.951436   -4.486489    0.406605
  H      1.031026   -2.245714    1.494191
  H      0.458524   -2.114175   -0.188460
  H      5.670461    0.674621   -0.934994
  H      4.693862    1.589272    0.251361
  H      5.304541   -1.401720    0.436690
  H      6.123575   -0.135848    1.369129
  H      4.399797   -0.444381    1.620169
  H      0.018606    1.909695    0.074767
  H      0.098913    2.445865    1.791466
  H     -4.994283   -0.169738    2.131503
  H     -3.378976    0.144343    2.829498
  H     -4.761036    2.230002    2.732755
  H     -3.311889    2.360414    1.722964
  H     -4.878943    2.061243    0.972066
  H     -1.843819   -0.512312   -2.692296
  H     -1.708494   -2.261923   -2.382651
  H     -4.100320   -2.275542   -1.604468
  H     -4.208020   -0.542796   -1.950533
  H     -3.976126   -1.693115   -3.278119

 Total Charge           Charge          ....    0
 Multiplicity           Mult            ....    1
 Number of Electrons    NEL             ....  202
 Basis Dimension        Dim             ....  334

ORBITAL ENERGIES
----------------

  NO   OCC          E(Eh)            E(eV)
   0   2.0000     -88.045402     -2395.8372
   1   2.0000     -88.045327     -2395.8351
   2   2.0000     -87.984680     -2394.1849
   3   2.0000     -87.978448     -2394.0153
   4   2.0000     -76.425644     -2079.6475
   5   2.0000     -76.423498     -2079.5891
   6   2.0000     -18.792880      -511.3803
   7   2.0000     -18.789602      -511.2911
   8   2.0000     -18.784938      -511.1642
   9   2.0000     -18.783913      -511.1363
  10   2.0000      -9.960399      -271.0362
  11   2.0000      -9.956224      -270.9226
  12   2.0000      -9.955697      -270.9083
  13   2.0000      -9.943253      -270.5697
  14   2.0000      -9.942386      -270.5461
  15   2.0000      -9.890348      -269.1300
  16   2.0000      -9.883111      -268.9331
  17   2.0000      -9.881896      -268.9000
  18   2.0000      -9.877238      -268.7733
  19   2.0000      -7.690559      -209.2707
  20   2.0000      -7.690046      -209.2568
  21   2.0000      -7.629577      -207.6113
  22   2.0000      -7.623312      -207.4409
  23   2.0000      -6.422710      -174.7708
  24   2.0000      -6.420915      -174.7220
  25   2.0000      -5.718501      -155.6083
  26   2.0000      -5.717809      -155.5895
  27   2.0000      -5.714780      -155.5071
  28   2.0000      -5.714581      -155.5016
  29   2.0000      -5.707766      -155.3162
  30   2.0000      -5.707120      -155.2986
  31   2.0000      -5.658546      -153.9769
  32   2.0000      -5.652366      -153.8087
  33   2.0000      -5.650375      -153.7545
  34   2.0000      -5.649519      -153.7312
  35   2.0000      -5.643901      -153.5784
  36   2.0000      -5.643347      -153.5633
  37   2.0000      -4.644983      -126.3964
  38   2.0000      -4.644623      -126.3866
  39   2.0000      -4.643597      -126.3587
  40   2.0000      -4.643386      -126.3530
  41   2.0000      -4.642734      -126.3352
  42   2.0000      -4.641232      -126.2943
  43   2.0000      -0.984748       -26.7964
  44   2.0000      -0.983263       -26.7559
  45   2.0000      -0.941862       -25.6294
  46   2.0000      -0.940539       -25.5934
  47   2.0000      -0.763083       -20.7646
  48   2.0000      -0.720960       -19.6183
  49   2.0000      -0.710542       -19.3348
  50   2.0000      -0.690853       -18.7991
  51   2.0000      -0.684430       -18.6243
  52   2.0000      -0.673883       -18.3373
  53   2.0000      -0.648983       -17.6597
  54   2.0000      -0.635125       -17.2826
  55   2.0000      -0.597848       -16.2683
  56   2.0000      -0.592158       -16.1134
  57   2.0000      -0.573249       -15.5989
  58   2.0000      -0.566573       -15.4172
  59   2.0000      -0.562543       -15.3076
  60   2.0000      -0.500411       -13.6169
  61   2.0000      -0.489487       -13.3196
  62   2.0000      -0.478518       -13.0211
  63   2.0000      -0.465490       -12.6666
  64   2.0000      -0.453331       -12.3358
  65   2.0000      -0.451672       -12.2906
  66   2.0000      -0.437370       -11.9014
  67   2.0000      -0.432816       -11.7775
  68   2.0000      -0.428037       -11.6475
  69   2.0000      -0.416668       -11.3381
  70   2.0000      -0.408520       -11.1164
  71   2.0000      -0.402580       -10.9548
  72   2.0000      -0.397226       -10.8091
  73   2.0000      -0.387459       -10.5433
  74   2.0000      -0.378720       -10.3055
  75   2.0000      -0.371139       -10.0992
  76   2.0000      -0.362455        -9.8629
  77   2.0000      -0.354676        -9.6512
  78   2.0000      -0.351492        -9.5646
  79   2.0000      -0.348475        -9.4825
  80   2.0000      -0.346710        -9.4345
  81   2.0000      -0.343991        -9.3605
  82   2.0000      -0.340982        -9.2786
  83   2.0000      -0.336115        -9.1462
  84   2.0000      -0.335465        -9.1285
  85   2.0000      -0.312535        -8.5045
  86   2.0000      -0.310913        -8.4604
  87   2.0000      -0.295189        -8.0325
  88   2.0000      -0.291746        -7.9388
  89   2.0000      -0.289666        -7.8822
  90   2.0000      -0.282082        -7.6758
  91   2.0000      -0.276525        -7.5246
  92   2.0000      -0.270781        -7.3683
  93   2.0000      -0.259519        -7.0619
  94   2.0000      -0.255159        -6.9432
  95   2.0000      -0.236348        -6.4314
  96   2.0000      -0.221448        -6.0259
  97   2.0000      -0.210965        -5.7406
  98   2.0000      -0.200726        -5.4620
  99   2.0000      -0.194235        -5.2854
 100   2.0000      -0.186622        -5.0782
 101   0.0000      -0.044112        -1.2003
 102   0.0000      -0.035142        -0.9563
 103   0.0000      -0.009527        -0.2592
 104   0.0000       0.009828         0.2674
 105   0.0000       0.016124         0.4388

MULLIKEN ATOMIC CHARGES
-----------------------
   0 C :   -0.272286
   1 C :   -0.039253
   2 O :   -0.378011
   3 P :    0.605064
   4 S :   -0.307600
   5 O :   -0.356672
   6 C :   -0.015031
   7 C :   -0.310469
   8 S :   -0.132965
   9 C :   -0.338310
  10 S :   -0.117513
  11 P :    0.623055
  12 S :   -0.313519
  13 O :   -0.373607
  14 C :   -0.005255
  15 C :   -0.307857
  16 O :   -0.358634
  17 C :   -0.008829
  18 C :   -0.297514
  19 H :    0.115304
  20 H :    0.109367
  21 H :    0.108501
  22 H :    0.101777
  23 H :    0.131832
  24 H :    0.115586
  25 H :    0.118558
  26 H :    0.125510
  27 H :    0.114940
  28 H :    0.125997
  29 H :    0.216963
  30 H :    0.180619
  31 H :    0.107121
  32 H :    0.108548
  33 H :    0.109618
  34 H :    0.119444
  35 H :    0.125227
  36 H :    0.124395
  37 H :    0.101959
  38 H :    0.111564
  39 H :    0.122282
  40 H :    0.110095
Sum of atomic charges:    0.0000000

LOEWDIN ATOMIC CHARGES
----------------------
   0 C :   -0.351495
   1 C :   -0.127948
   2 O :   -0.246885
   3 P :    0.563210
   4 S :   -0.294772
   5 O :   -0.232461
   6 C :   -0.113347
   7 C :   -0.367038
   8 S :    0.062663
   9 C :   -0.476959
  10 S :    0.078224
  11 P :    0.574893
  12 S :   -0.298634
  13 O :   -0.245509
  14 C :   -0.116191
  15 C :   -0.368839
  16 O :   -0.235200
  17 C :   -0.119990
  18 C :   -0.364869
  19 H :    0.126724
  20 H :    0.122883
  21 H :    0.129169
  22 H :    0.105344
  23 H :    0.109107
  24 H :    0.125167
  25 H :    0.110882
  26 H :    0.130689
  27 H :    0.132101
  28 H :    0.120193
  29 H :    0.127167
  30 H :    0.134967
  31 H :    0.120357
  32 H :    0.106928
  33 H :    0.128882
  34 H :    0.118768
  35 H :    0.129336
  36 H :    0.110095
  37 H :    0.116758
  38 H :    0.124165
  39 H :    0.121744
  40 H :    0.129722

  Mayer bond orders larger than 0.100000
B(  0-C ,  1-C ) :   1.1551 B(  0-C , 19-H ) :   0.9499 B(  0-C , 20-H ) :   0.9509
B(  0-C , 21-H ) :   0.9426 B(  1-C ,  2-O ) :   0.9012 B(  1-C , 22-H ) :   0.9273
B(  1-C , 23-H ) :   0.8988 B(  2-O ,  3-P ) :   1.0861 B(  3-P ,  4-S ) :   1.6594
B(  3-P ,  5-O ) :   1.1546 B(  3-P ,  8-S ) :   0.9172 B(  4-S ,  8-S ) :   0.1063
B(  5-O ,  6-C ) :   0.9010 B(  6-C ,  7-C ) :   1.1679 B(  6-C , 24-H ) :   0.9343
B(  6-C , 25-H ) :   0.9213 B(  7-C , 26-H ) :   0.9429 B(  7-C , 27-H ) :   0.9348
B(  7-C , 28-H ) :   0.9371 B(  8-S ,  9-C ) :   1.0224 B(  9-C , 10-S ) :   0.9809
B(  9-C , 29-H ) :   0.8441 B(  9-C , 30-H ) :   0.9092 B( 10-S , 11-P ) :   0.9477
B( 10-S , 12-S ) :   0.1169 B( 11-P , 12-S ) :   1.6031 B( 11-P , 13-O ) :   1.1029
B( 11-P , 16-O ) :   1.1254 B( 13-O , 14-C ) :   0.9179 B( 14-C , 15-C ) :   1.1635
B( 14-C , 31-H ) :   0.9342 B( 14-C , 32-H ) :   0.9253 B( 15-C , 33-H ) :   0.9352
B( 15-C , 34-H ) :   0.9350 B( 15-C , 35-H ) :   0.9437 B( 16-O , 17-C ) :   0.8988
B( 17-C , 18-C ) :   1.1622 B( 17-C , 36-H ) :   0.9125 B( 17-C , 37-H ) :   0.9339
B( 18-C , 38-H ) :   0.9457 B( 18-C , 39-H ) :   0.9346 B( 18-C , 40-H ) :   0.9396

Dispersion correction           -0.066428421
FINAL SINGLE POINT ENERGY     -2929.515608947722

DIPOLE MOMENT
-------------

Method             : SCF
Type of density    : Electron Density
Multiplicity       :   1
Irrep              :   0
Energy             : -2929.6347110359579347 Eh
Relativity type    :
Basis              : AO
                                X                 Y                 Z
Electronic contribution:      3.807696079      11.646298986      -3.471070304
Nuclear contribution   :     -3.587401367     -12.321175554       4.782667210
                        -----------------------------------------
Total Dipole Moment    :      0.220294712      -0.674876568       1.311596906
                        -----------------------------------------
Magnitude (a.u.)       :      1.491400209
Magnitude (Debye)      :      3.790838069

Rotational constants in cm-1:             0.013059             0.005019             0.004629
Rotational constants in MHz :           391.484322           150.461815           138.759635

                             ****ORCA TERMINATED NORMALLY****
TOTAL RUN TIME: 0 days 0 hours 0 minutes 21 seconds 341 msec
