                         Program Version 6.0.0  -   RELEASE  -
|  1> ! pbe def2-sv(p) def2/J RI DEFGRID1 loosescf d4 GCP(DFT/SV(P)) printgap
|  2> %output
|  3>     printlevel normal
|  4> end
|  5> * xyz 0 1
|  6> C 3.9101899006 -1.9174487571 -2.3520138755
|  7> C 4.0198437028 -0.4113854556 -2.2332449546
|  8> O 3.4746594761 0.0857318532 -0.9961750949
|  9> P 1.927603322 0.0035801485 -0.6396406164
| 10> S 0.7041216371 0.3469922898 -2.1236690827
| 11> O 1.8075970454 1.0618360199 0.5230102187
| 12> C 2.7047094611 1.1179317573 1.664679736
| 13> C 1.9878388716 0.6682773857 2.9217790657
| 14> S 1.7108286841 -1.9015497246 0.2686437809
| 15> C -0.0951297783 -1.963354355 0.2159127316
| 16> S -0.9017050345 -0.9712249954 1.5215837542
| 17> P -1.8345104561 0.633677354 0.5267763211
| 18> S -1.0198062292 2.3910410793 0.2548945017
| 19> O -3.1206612548 0.8808766161 1.4300729319
| 20> C -4.0471372127 -0.1637000093 1.8149225524
| 21> C -3.8919568249 -0.4897796482 3.2870323098
| 22> O -2.3346085068 -0.1482758063 -0.7763545738
| 23> C -2.8277703946 0.5515114229 -1.9366019616
| 24> C -2.7964358892 -0.4083780949 -3.1071912218
| 25> H 4.3184769749 -2.3989599582 -1.4670828
| 26> H 2.8673447424 -2.2087406026 -2.4634625247
| 27> H 4.4615247718 -2.2445383516 -3.2277187281
| 28> H 3.4982465837 0.0800384796 -3.0602088846
| 29> H 5.0596911596 -0.0825500776 -2.2037346104
| 30> H 3.5826978318 0.5028422989 1.4584734821
| 31> H 2.9951741183 2.1677171444 1.7296981313
| 32> H 1.7465971175 -0.3912714131 2.8768252537
| 33> H 2.629989864 0.851162172 3.7773202743
| 34> H 1.064992743 1.2321693614 3.0413661431
| 35> H -0.3724290557 -2.9975963824 0.3998283319
| 36> H -0.4413717871 -1.6187090014 -0.7584453931
| 37> H -5.0357154514 0.2492546738 1.6055675296
| 38> H -3.8767149445 -1.0445554023 1.1905019794
| 39> H -4.017415484 0.4119476852 3.8797579702
| 40> H -4.6476705841 -1.2151263214 3.5710221454
| 41> H -2.905438084 -0.9035526596 3.482912351
| 42> H -3.8427868426 0.8951764272 -1.7192886771
| 43> H -2.1887886514 1.4226299245 -2.1166378178
| 44> H -3.3644065404 -1.3034578033 -2.8710543801
| 45> H -3.2299258088 0.0789321476 -3.9739994618
| 46> H -1.7681029753 -0.6810814353 -3.3312395718
| 47> *
| 48>
| 49>                          ****END OF INPUT****

CARTESIAN COORDINATES (ANGSTROEM)
---------------------------------
  C      3.910190   -1.917449   -2.352014
  C      4.019844   -0.411385   -2.233245
  O      3.474659    0.085732   -0.996175
  P      1.927603    0.003580   -0.639641
  S      0.704122    0.346992   -2.123669
  O      1.807597    1.061836    0.523010
  C      2.704709    1.117932    1.664680
  C      1.987839    0.668277    2.921779
  S      1.710829   -1.901550    0.268644
  C     -0.095130   -1.963354    0.215913
  S     -0.901705   -0.971225    1.521584
  P     -1.834510    0.633677    0.526776
  S     -1.019806    2.391041    0.254895
  O     -3.120661    0.880877    1.430073
  C     -4.047137   -0.163700    1.814923
  C     -3.891957   -0.489780    3.287032
  O     -2.334609   -0.148276   -0.776355
  C     -2.827770    0.551511   -1.936602
  C     -2.796436   -0.408378   -3.107191
  H      4.318477   -2.398960   -1.467083
  H      2.867345   -2.208741   -2.463463
  H      4.461525   -2.244538   -3.227719
  H      3.498247    0.080038   -3.060209
  H      5.059691   -0.082550   -2.203735
  H      3.582698    0.502842    1.458473
  H      2.995174    2.167717    1.729698
  H      1.746597   -0.391271    2.876825
  H      2.629990    0.851162    3.777320
  H      1.064993    1.232169    3.041366
  H     -0.372429   -2.997596    0.399828
  H     -0.441372   -1.618709   -0.758445
  H     -5.035715    0.249255    1.605568
  H     -3.876715   -1.044555    1.190502
  H     -4.017415    0.411948    3.879758
  H     -4.647671   -1.215126    3.571022
  H     -2.905438   -0.903553    3.482912
  H     -3.842787    0.895176   -1.719289
  H     -2.188789    1.422630   -2.116638
  H     -3.364407   -1.303458   -2.871054
  H     -3.229926    0.078932   -3.973999
  H     -1.768103   -0.681081   -3.331240

 Total Charge           Charge          ....    0
 Multiplicity           Mult            ....    1
 Number of Electrons    NEL             ....  202
 Basis Dimension        Dim             ....  334

ORBITAL ENERGIES
----------------

  NO   OCC          E(Eh)            E(eV)
   0   2.0000     -88.044880     -2395.8230
   1   2.0000     -88.041277     -2395.7250
   2   2.0000     -87.986107     -2394.2237
   3   2.0000     -87.965807     -2393.6713
   4   2.0000     -76.425459     -2079.6425
   5   2.0000     -76.414046     -2079.3319
   6   2.0000     -18.794175      -511.4155
   7   2.0000     -18.783897      -511.1358
   8   2.0000     -18.782356      -511.0939
   9   2.0000     -18.780627      -511.0469
  10   2.0000      -9.959295      -271.0062
  11   2.0000      -9.955171      -270.8940
  12   2.0000      -9.949877      -270.7499
  13   2.0000      -9.949566      -270.7415
  14   2.0000      -9.942724      -270.5553
  15   2.0000      -9.886734      -269.0317
  16   2.0000      -9.883734      -268.9501
  17   2.0000      -9.879424      -268.8328
  18   2.0000      -9.875262      -268.7195
  19   2.0000      -7.690056      -209.2571
  20   2.0000      -7.686366      -209.1566
  21   2.0000      -7.631041      -207.6512
  22   2.0000      -7.611156      -207.1101
  23   2.0000      -6.422935      -174.7769
  24   2.0000      -6.411816      -174.4744
  25   2.0000      -5.717745      -155.5878
  26   2.0000      -5.714568      -155.5013
  27   2.0000      -5.714552      -155.5009
  28   2.0000      -5.710452      -155.3893
  29   2.0000      -5.707178      -155.3002
  30   2.0000      -5.703347      -155.1960
  31   2.0000      -5.659866      -154.0128
  32   2.0000      -5.651619      -153.7884
  33   2.0000      -5.651267      -153.7788
  34   2.0000      -5.640472      -153.4850
  35   2.0000      -5.631719      -153.2469
  36   2.0000      -5.630920      -153.2251
  37   2.0000      -4.645815      -126.4190
  38   2.0000      -4.644593      -126.3858
  39   2.0000      -4.643239      -126.3490
  40   2.0000      -4.634839      -126.1204
  41   2.0000      -4.633615      -126.0871
  42   2.0000      -4.631804      -126.0378
  43   2.0000      -0.985702       -26.8223
  44   2.0000      -0.974763       -26.5247
  45   2.0000      -0.940512       -25.5926
  46   2.0000      -0.934457       -25.4279
  47   2.0000      -0.762629       -20.7522
  48   2.0000      -0.717967       -19.5369
  49   2.0000      -0.707613       -19.2551
  50   2.0000      -0.688292       -18.7294
  51   2.0000      -0.686241       -18.6736
  52   2.0000      -0.672523       -18.3003
  53   2.0000      -0.647805       -17.6277
  54   2.0000      -0.628127       -17.0922
  55   2.0000      -0.596921       -16.2431
  56   2.0000      -0.576227       -15.6799
  57   2.0000      -0.570732       -15.5304
  58   2.0000      -0.566650       -15.4193
  59   2.0000      -0.558482       -15.1971
  60   2.0000      -0.502134       -13.6638
  61   2.0000      -0.499387       -13.5890
  62   2.0000      -0.474074       -12.9002
  63   2.0000      -0.470314       -12.7979
  64   2.0000      -0.451930       -12.2976
  65   2.0000      -0.443251       -12.0615
  66   2.0000      -0.441429       -12.0119
  67   2.0000      -0.432978       -11.7819
  68   2.0000      -0.428644       -11.6640
  69   2.0000      -0.420949       -11.4546
  70   2.0000      -0.410745       -11.1769
  71   2.0000      -0.389624       -10.6022
  72   2.0000      -0.385102       -10.4792
  73   2.0000      -0.378186       -10.2910
  74   2.0000      -0.377190       -10.2639
  75   2.0000      -0.368251       -10.0206
  76   2.0000      -0.356772        -9.7083
  77   2.0000      -0.355990        -9.6870
  78   2.0000      -0.352536        -9.5930
  79   2.0000      -0.350024        -9.5246
  80   2.0000      -0.345993        -9.4149
  81   2.0000      -0.340497        -9.2654
  82   2.0000      -0.337184        -9.1752
  83   2.0000      -0.335729        -9.1356
  84   2.0000      -0.325706        -8.8629
  85   2.0000      -0.313911        -8.5420
  86   2.0000      -0.309088        -8.4107
  87   2.0000      -0.297992        -8.1088
  88   2.0000      -0.296937        -8.0801
  89   2.0000      -0.293700        -7.9920
  90   2.0000      -0.271769        -7.3952
  91   2.0000      -0.268921        -7.3177
  92   2.0000      -0.266302        -7.2464
  93   2.0000      -0.261750        -7.1226
  94   2.0000      -0.256702        -6.9852
  95   2.0000      -0.234865        -6.3910
  96   2.0000      -0.220737        -6.0066
  97   2.0000      -0.212359        -5.7786
  98   2.0000      -0.202472        -5.5095
  99   2.0000      -0.183324        -4.9885
 100   2.0000      -0.171373        -4.6633
 101   0.0000      -0.040746        -1.1087
 102   0.0000      -0.026161        -0.7119
 103   0.0000      -0.019480        -0.5301
 104   0.0000       0.003107         0.0845
 105   0.0000       0.016116         0.4385

MULLIKEN ATOMIC CHARGES
-----------------------
   0 C :   -0.318403
   1 C :    0.000375
   2 O :   -0.380451
   3 P :    0.609740
   4 S :   -0.306660
   5 O :   -0.335906
   6 C :   -0.012137
   7 C :   -0.287527
   8 S :   -0.104249
   9 C :   -0.355621
  10 S :   -0.110824
  11 P :    0.608466
  12 S :   -0.288510
  13 O :   -0.369872
  14 C :   -0.019763
  15 C :   -0.289096
  16 O :   -0.395689
  17 C :   -0.009248
  18 C :   -0.289893
  19 H :    0.117226
  20 H :    0.126239
  21 H :    0.114563
  22 H :    0.113915
  23 H :    0.105989
  24 H :    0.101476
  25 H :    0.112911
  26 H :    0.119681
  27 H :    0.102686
  28 H :    0.125596
  29 H :    0.181987
  30 H :    0.213841
  31 H :    0.106205
  32 H :    0.099643
  33 H :    0.120415
  34 H :    0.106624
  35 H :    0.122377
  36 H :    0.096554
  37 H :    0.120986
  38 H :    0.105922
  39 H :    0.108690
  40 H :    0.131739
Sum of atomic charges:   -0.0000000

LOEWDIN ATOMIC CHARGES
----------------------
   0 C :   -0.371868
   1 C :   -0.115590
   2 O :   -0.246771
   3 P :    0.572163
   4 S :   -0.288902
   5 O :   -0.224749
   6 C :   -0.108762
   7 C :   -0.363731
   8 S :    0.072953
   9 C :   -0.477505
  10 S :    0.087817
  11 P :    0.552534
  12 S :   -0.293509
  13 O :   -0.247818
  14 C :   -0.123447
  15 C :   -0.360163
  16 O :   -0.257725
  17 C :   -0.120569
  18 C :   -0.355413
  19 H :    0.123097
  20 H :    0.120725
  21 H :    0.131935
  22 H :    0.113530
  23 H :    0.119242
  24 H :    0.106929
  25 H :    0.123784
  26 H :    0.113936
  27 H :    0.126065
  28 H :    0.128869
  29 H :    0.138126
  30 H :    0.130389
  31 H :    0.118615
  32 H :    0.104374
  33 H :    0.129074
  34 H :    0.128250
  35 H :    0.118693
  36 H :    0.108339
  37 H :    0.111501
  38 H :    0.121790
  39 H :    0.129589
  40 H :    0.124204

  Mayer bond orders larger than 0.100000
B(  0-C ,  1-C ) :   1.1662 B(  0-C , 19-H ) :   0.9438 B(  0-C , 20-H ) :   0.9343
B(  0-C , 21-H ) :   0.9369 B(  1-C ,  2-O ) :   0.9049 B(  1-C , 22-H ) :   0.9181
B(  1-C , 23-H ) :   0.9344 B(  2-O ,  3-P ) :   1.0916 B(  3-P ,  4-S ) :   1.6234
B(  3-P ,  5-O ) :   1.1636 B(  3-P ,  8-S ) :   0.9329 B(  4-S ,  8-S ) :   0.1055
B(  5-O ,  6-C ) :   0.8865 B(  6-C ,  7-C ) :   1.1675 B(  6-C , 24-H ) :   0.9193
B(  6-C , 25-H ) :   0.9335 B(  7-C , 26-H ) :   0.9343 B(  7-C , 27-H ) :   0.9371
B(  7-C , 28-H ) :   0.9411 B(  8-S ,  9-C ) :   1.0127 B(  9-C , 10-S ) :   0.9880
B(  9-C , 29-H ) :   0.9110 B(  9-C , 30-H ) :   0.8570 B( 10-S , 11-P ) :   0.9537
B( 10-S , 12-S ) :   0.1054 B( 11-P , 12-S ) :   1.6918 B( 11-P , 13-O ) :   1.0996
B( 11-P , 16-O ) :   1.0623 B( 13-O , 14-C ) :   0.9050 B( 14-C , 15-C ) :   1.1657
B( 14-C , 31-H ) :   0.9323 B( 14-C , 32-H ) :   0.9139 B( 15-C , 33-H ) :   0.9462
B( 15-C , 34-H ) :   0.9403 B( 15-C , 35-H ) :   0.9401 B( 16-O , 17-C ) :   0.8929
B( 17-C , 18-C ) :   1.1622 B( 17-C , 36-H ) :   0.9330 B( 17-C , 37-H ) :   0.9068
B( 18-C , 38-H ) :   0.9495 B( 18-C , 39-H ) :   0.9418 B( 18-C , 40-H ) :   0.9427

Dispersion correction           -0.067937423
FINAL SINGLE POINT ENERGY     -2929.510332530753

DIPOLE MOMENT
-------------

Method             : SCF
Type of density    : Electron Density
Multiplicity       :   1
Irrep              :   0
Energy             : -2929.6278808135593863 Eh
Relativity type    :
Basis              : AO
                                X                 Y                 Z
Electronic contribution:      3.520205353       7.684143129       0.136923976
Nuclear contribution   :     -3.351756764      -9.167203500      -0.062702362
                        -----------------------------------------
Total Dipole Moment    :      0.168448590      -1.483060370       0.074221614
                        -----------------------------------------
Magnitude (a.u.)       :      1.494440309
Magnitude (Debye)      :      3.798565389

Rotational constants in cm-1:             0.011853             0.005813             0.005112
Rotational constants in MHz :           355.334296           174.268102           153.250863

                             ****ORCA TERMINATED NORMALLY****
TOTAL RUN TIME: 0 days 0 hours 0 minutes 21 seconds 595 msec
