                         Program Version 6.0.0  -   RELEASE  -
|  1> ! r2scan-3c def2/J RI DEFGRID2 scfconv6 printgap
|  2> %output
|  3>     printlevel normal
|  4> end
|  5> * xyz 0 1
|  6> C 5.3853191943 -0.2621128312 -0.9772081369
|  7> C 4.028296353 0.287383073 -1.3642417986
|  8> O 3.2831655875 0.6891632943 -0.1840478121
|  9> P 2.2414515339 -0.2386097974 0.5434912613
| 10> S 1.6222002075 0.5262016291 2.2344630047
| 11> O 2.9909725246 -1.6311794914 0.6732439663
| 12> C 2.3781919178 -2.740777881 1.3627705741
| 13> C 3.4703836154 -3.7281661807 1.7205306902
| 14> S 0.7641570422 -0.6954827248 -0.9369803377
| 15> C 0.1845334677 0.9909213007 -1.2637984146
| 16> S -0.8522734404 1.6949539525 0.0506082307
| 17> P -2.6253250519 0.555639487 -0.2864797021
| 18> S -2.7261402635 -0.3771844124 -2.0121242002
| 19> O -3.8182111776 1.5553833729 -0.009499399
| 20> C -4.4340747542 2.3109729935 -1.0667259072
| 21> C -3.5286334604 3.4146087235 -1.576900343
| 22> O -2.8397673511 -0.2813725823 1.0411089611
| 23> C -1.8981659899 -1.1977865853 1.6192184924
| 24> C -1.8585099524 -2.5188564582 0.8753445172
| 25> H 5.9468741343 -0.4866804667 -1.8787158394
| 26> H 5.9297841334 0.471025611 -0.3883899511
| 27> H 5.2710114536 -1.1686357412 -0.3894353086
| 28> H 3.4449174962 -0.4521678462 -1.9190043662
| 29> H 4.1241168635 1.2034627024 -1.950046428
| 30> H 1.8734779197 -2.3589886019 2.2565289953
| 31> H 1.6383172034 -3.1868963518 0.6928249522
| 32> H 3.9695872692 -4.0747265281 0.8204135213
| 33> H 4.200929513 -3.2567819907 2.3719366367
| 34> H 3.028676991 -4.5756842999 2.2340444396
| 35> H -0.3946394768 0.9226925715 -2.184744122
| 36> H 1.0344477946 1.6603562318 -1.3708459216
| 37> H -4.7008581489 1.625020008 -1.8776395133
| 38> H -5.3390515705 2.7123368022 -0.6087690845
| 39> H -3.1771476589 4.025946755 -0.7494355284
| 40> H -2.6679056464 2.9838353851 -2.0865208996
| 41> H -4.0781763105 4.0356063522 -2.2769933137
| 42> H -0.9081187427 -0.7281568056 1.6552409427
| 43> H -2.2586843549 -1.3301611208 2.6412295908
| 44> H -1.21593259 -3.2103287775 1.4113836479
| 45> H -2.8601162312 -2.9353942921 0.8087484278
| 46> H -1.4720199544 -2.3808956314 -0.1329147821
| 47> *
| 48>
| 49>                          ****END OF INPUT****

CARTESIAN COORDINATES (ANGSTROEM)
---------------------------------
  C      5.385319   -0.262113   -0.977208
  C      4.028296    0.287383   -1.364242
  O      3.283166    0.689163   -0.184048
  P      2.241452   -0.238610    0.543491
  S      1.622200    0.526202    2.234463
  O      2.990973   -1.631179    0.673244
  C      2.378192   -2.740778    1.362771
  C      3.470384   -3.728166    1.720531
  S      0.764157   -0.695483   -0.936980
  C      0.184533    0.990921   -1.263798
  S     -0.852273    1.694954    0.050608
  P     -2.625325    0.555639   -0.286480
  S     -2.726140   -0.377184   -2.012124
  O     -3.818211    1.555383   -0.009499
  C     -4.434075    2.310973   -1.066726
  C     -3.528633    3.414609   -1.576900
  O     -2.839767   -0.281373    1.041109
  C     -1.898166   -1.197787    1.619218
  C     -1.858510   -2.518856    0.875345
  H      5.946874   -0.486680   -1.878716
  H      5.929784    0.471026   -0.388390
  H      5.271011   -1.168636   -0.389435
  H      3.444917   -0.452168   -1.919004
  H      4.124117    1.203463   -1.950046
  H      1.873478   -2.358989    2.256529
  H      1.638317   -3.186896    0.692825
  H      3.969587   -4.074727    0.820414
  H      4.200930   -3.256782    2.371937
  H      3.028677   -4.575684    2.234044
  H     -0.394639    0.922693   -2.184744
  H      1.034448    1.660356   -1.370846
  H     -4.700858    1.625020   -1.877640
  H     -5.339052    2.712337   -0.608769
  H     -3.177148    4.025947   -0.749436
  H     -2.667906    2.983835   -2.086521
  H     -4.078176    4.035606   -2.276993
  H     -0.908119   -0.728157    1.655241
  H     -2.258684   -1.330161    2.641230
  H     -1.215933   -3.210329    1.411384
  H     -2.860116   -2.935394    0.808748
  H     -1.472020   -2.380896   -0.132915

 Total Charge           Charge          ....    0
 Multiplicity           Mult            ....    1
 Number of Electrons    NEL             ....  202
 Basis Dimension        Dim             ....  539

ORBITAL ENERGIES
----------------

  NO   OCC          E(Eh)            E(eV)
   0   2.0000     -88.577330     -2410.3117
   1   2.0000     -88.572766     -2410.1875
   2   2.0000     -88.520247     -2408.7584
   3   2.0000     -88.520002     -2408.7517
   4   2.0000     -76.917788     -2093.0394
   5   2.0000     -76.910739     -2092.8476
   6   2.0000     -19.001132      -517.0471
   7   2.0000     -19.000701      -517.0354
   8   2.0000     -18.986428      -516.6470
   9   2.0000     -18.984073      -516.5829
  10   2.0000     -10.110491      -275.1204
  11   2.0000     -10.109544      -275.0947
  12   2.0000     -10.108145      -275.0566
  13   2.0000     -10.093915      -274.6694
  14   2.0000     -10.088407      -274.5195
  15   2.0000     -10.040635      -273.2196
  16   2.0000     -10.036866      -273.1170
  17   2.0000     -10.025565      -272.8095
  18   2.0000     -10.019047      -272.6321
  19   2.0000      -7.871509      -214.1947
  20   2.0000      -7.866754      -214.0652
  21   2.0000      -7.814897      -212.6542
  22   2.0000      -7.814887      -212.6539
  23   2.0000      -6.596303      -179.4945
  24   2.0000      -6.589169      -179.3004
  25   2.0000      -5.818240      -158.3224
  26   2.0000      -5.815299      -158.2423
  27   2.0000      -5.813725      -158.1995
  28   2.0000      -5.810556      -158.1133
  29   2.0000      -5.808847      -158.0668
  30   2.0000      -5.803869      -157.9313
  31   2.0000      -5.762701      -156.8111
  32   2.0000      -5.762471      -156.8048
  33   2.0000      -5.755184      -156.6065
  34   2.0000      -5.755137      -156.6052
  35   2.0000      -5.754993      -156.6013
  36   2.0000      -5.754739      -156.5944
  37   2.0000      -4.742357      -129.0461
  38   2.0000      -4.741390      -129.0198
  39   2.0000      -4.739339      -128.9640
  40   2.0000      -4.734498      -128.8322
  41   2.0000      -4.734334      -128.8278
  42   2.0000      -4.732859      -128.7876
  43   2.0000      -1.059780       -28.8381
  44   2.0000      -1.047489       -28.5036
  45   2.0000      -1.020220       -27.7616
  46   2.0000      -1.004298       -27.3283
  47   2.0000      -0.800319       -21.7778
  48   2.0000      -0.763682       -20.7808
  49   2.0000      -0.749638       -20.3987
  50   2.0000      -0.744612       -20.2619
  51   2.0000      -0.722103       -19.6494
  52   2.0000      -0.709008       -19.2931
  53   2.0000      -0.686751       -18.6874
  54   2.0000      -0.671387       -18.2694
  55   2.0000      -0.627635       -17.0788
  56   2.0000      -0.625632       -17.0243
  57   2.0000      -0.611809       -16.6482
  58   2.0000      -0.599656       -16.3175
  59   2.0000      -0.594588       -16.1796
  60   2.0000      -0.541687       -14.7401
  61   2.0000      -0.516047       -14.0424
  62   2.0000      -0.509677       -13.8690
  63   2.0000      -0.483949       -13.1689
  64   2.0000      -0.476234       -12.9590
  65   2.0000      -0.471296       -12.8246
  66   2.0000      -0.461472       -12.5573
  67   2.0000      -0.454583       -12.3698
  68   2.0000      -0.439445       -11.9579
  69   2.0000      -0.432911       -11.7801
  70   2.0000      -0.425974       -11.5913
  71   2.0000      -0.420411       -11.4400
  72   2.0000      -0.415707       -11.3120
  73   2.0000      -0.403038       -10.9672
  74   2.0000      -0.394677       -10.7397
  75   2.0000      -0.389979       -10.6119
  76   2.0000      -0.383433       -10.4337
  77   2.0000      -0.379174       -10.3178
  78   2.0000      -0.376282       -10.2391
  79   2.0000      -0.371519       -10.1096
  80   2.0000      -0.366722        -9.9790
  81   2.0000      -0.359285        -9.7766
  82   2.0000      -0.354757        -9.6534
  83   2.0000      -0.351577        -9.5669
  84   2.0000      -0.344407        -9.3718
  85   2.0000      -0.337865        -9.1938
  86   2.0000      -0.323920        -8.8143
  87   2.0000      -0.323432        -8.8010
  88   2.0000      -0.316507        -8.6126
  89   2.0000      -0.307967        -8.3802
  90   2.0000      -0.299138        -8.1400
  91   2.0000      -0.295352        -8.0369
  92   2.0000      -0.281651        -7.6641
  93   2.0000      -0.279451        -7.6042
  94   2.0000      -0.271069        -7.3762
  95   2.0000      -0.257752        -7.0138
  96   2.0000      -0.228470        -6.2170
  97   2.0000      -0.222619        -6.0578
  98   2.0000      -0.218279        -5.9397
  99   2.0000      -0.215512        -5.8644
 100   2.0000      -0.204558        -5.5663
 101   0.0000      -0.047177        -1.2837
 102   0.0000      -0.030217        -0.8222
 103   0.0000      -0.009912        -0.2697
 104   0.0000      -0.000166        -0.0045
 105   0.0000       0.008261         0.2248

MULLIKEN ATOMIC CHARGES
-----------------------
   0 C :   -0.462672
   1 C :   -0.106874
   2 O :   -0.300648
   3 P :    0.647471
   4 S :   -0.401232
   5 O :   -0.277586
   6 C :   -0.142423
   7 C :   -0.448924
   8 S :   -0.191016
   9 C :   -0.240451
  10 S :   -0.101599
  11 P :    0.683561
  12 S :   -0.470432
  13 O :   -0.308877
  14 C :   -0.152697
  15 C :   -0.436476
  16 O :   -0.278482
  17 C :   -0.157990
  18 C :   -0.433294
  19 H :    0.148074
  20 H :    0.159076
  21 H :    0.167703
  22 H :    0.168171
  23 H :    0.151538
  24 H :    0.173099
  25 H :    0.150859
  26 H :    0.152573
  27 H :    0.162512
  28 H :    0.148376
  29 H :    0.214790
  30 H :    0.195029
  31 H :    0.173464
  32 H :    0.149561
  33 H :    0.156992
  34 H :    0.163636
  35 H :    0.146253
  36 H :    0.182456
  37 H :    0.149940
  38 H :    0.137578
  39 H :    0.152389
  40 H :    0.176569
Sum of atomic charges:   -0.0000000

LOEWDIN ATOMIC CHARGES
----------------------
   0 C :   -0.391456
   1 C :    0.023303
   2 O :   -0.655221
   3 P :    0.371422
   4 S :   -0.091073
   5 O :   -0.677879
   6 C :    0.018769
   7 C :   -0.384847
   8 S :    0.120215
   9 C :   -0.422196
  10 S :    0.154463
  11 P :    0.391595
  12 S :   -0.129309
  13 O :   -0.651183
  14 C :    0.020626
  15 C :   -0.405508
  16 O :   -0.644988
  17 C :    0.017707
  18 C :   -0.413430
  19 H :    0.159761
  20 H :    0.162213
  21 H :    0.167337
  22 H :    0.178207
  23 H :    0.179319
  24 H :    0.181707
  25 H :    0.171701
  26 H :    0.159289
  27 H :    0.163215
  28 H :    0.161351
  29 H :    0.193760
  30 H :    0.183228
  31 H :    0.179717
  32 H :    0.180084
  33 H :    0.161583
  34 H :    0.160972
  35 H :    0.158107
  36 H :    0.184658
  37 H :    0.180403
  38 H :    0.155148
  39 H :    0.160571
  40 H :    0.166663

  Mayer bond orders larger than 0.100000
B(  0-C ,  1-C ) :   0.9484 B(  0-C , 19-H ) :   0.9648 B(  0-C , 20-H ) :   0.9706
B(  0-C , 21-H ) :   0.9665 B(  1-C ,  2-O ) :   0.7504 B(  1-C , 22-H ) :   0.9627
B(  1-C , 23-H ) :   0.9581 B(  2-O ,  3-P ) :   1.1444 B(  3-P ,  4-S ) :   1.8885
B(  3-P ,  5-O ) :   1.0414 B(  3-P ,  8-S ) :   0.9730 B(  5-O ,  6-C ) :   0.7810
B(  6-C ,  7-C ) :   0.9612 B(  6-C , 24-H ) :   0.9465 B(  6-C , 25-H ) :   0.9370
B(  7-C , 26-H ) :   0.9720 B(  7-C , 27-H ) :   0.9719 B(  7-C , 28-H ) :   0.9622
B(  8-S ,  9-C ) :   0.8903 B(  9-C , 10-S ) :   0.9164 B(  9-C , 29-H ) :   0.9113
B(  9-C , 30-H ) :   0.9201 B( 10-S , 11-P ) :   1.0659 B( 11-P , 12-S ) :   1.7243
B( 11-P , 13-O ) :   1.1206 B( 11-P , 16-O ) :   1.1430 B( 13-O , 14-C ) :   0.8171
B( 14-C , 15-C ) :   0.9217 B( 14-C , 31-H ) :   0.9690 B( 14-C , 32-H ) :   0.9592
B( 15-C , 33-H ) :   0.9672 B( 15-C , 34-H ) :   0.9675 B( 15-C , 35-H ) :   0.9613
B( 16-O , 17-C ) :   0.8063 B( 17-C , 18-C ) :   0.9121 B( 17-C , 36-H ) :   0.9567
B( 17-C , 37-H ) :   0.9657 B( 18-C , 38-H ) :   0.9675 B( 18-C , 39-H ) :   0.9657
B( 18-C , 40-H ) :   0.9581

Dispersion correction           -0.021491218
FINAL SINGLE POINT ENERGY     -2932.460225246835

DIPOLE MOMENT
-------------

Method             : SCF
Type of density    : Electron Density
Multiplicity       :   1
Irrep              :   0
Energy             : -2932.4849949671506693 Eh
Relativity type    :
Basis              : AO
                                X                 Y                 Z
Electronic contribution:     -9.960733817       9.662915311       2.278651241
Nuclear contribution   :     11.057113365     -10.167293808      -2.928393111
                        -----------------------------------------
Total Dipole Moment    :      1.096379548      -0.504378497      -0.649741870
                        -----------------------------------------
Magnitude (a.u.)       :      1.370624048
Magnitude (Debye)      :      3.483849463

Rotational constants in cm-1:             0.013431             0.004616             0.004174
Rotational constants in MHz :           402.659402           138.389123           125.125125

                             ****ORCA TERMINATED NORMALLY****
TOTAL RUN TIME: 0 days 0 hours 1 minutes 18 seconds 522 msec
