                         Program Version 6.0.0  -   RELEASE  -
|  1> ! r2scan-3c def2/J RI DEFGRID2 scfconv6 printgap
|  2> %output
|  3>     printlevel normal
|  4> end
|  5> %cpcm
|  6>     smd true
|  7>     smdsolvent "water"
|  8> end
|  9> * xyz 0 1
| 10> C 5.3853191943 -0.2621128312 -0.9772081369
| 11> C 4.028296353 0.287383073 -1.3642417986
| 12> O 3.2831655875 0.6891632943 -0.1840478121
| 13> P 2.2414515339 -0.2386097974 0.5434912613
| 14> S 1.6222002075 0.5262016291 2.2344630047
| 15> O 2.9909725246 -1.6311794914 0.6732439663
| 16> C 2.3781919178 -2.740777881 1.3627705741
| 17> C 3.4703836154 -3.7281661807 1.7205306902
| 18> S 0.7641570422 -0.6954827248 -0.9369803377
| 19> C 0.1845334677 0.9909213007 -1.2637984146
| 20> S -0.8522734404 1.6949539525 0.0506082307
| 21> P -2.6253250519 0.555639487 -0.2864797021
| 22> S -2.7261402635 -0.3771844124 -2.0121242002
| 23> O -3.8182111776 1.5553833729 -0.009499399
| 24> C -4.4340747542 2.3109729935 -1.0667259072
| 25> C -3.5286334604 3.4146087235 -1.576900343
| 26> O -2.8397673511 -0.2813725823 1.0411089611
| 27> C -1.8981659899 -1.1977865853 1.6192184924
| 28> C -1.8585099524 -2.5188564582 0.8753445172
| 29> H 5.9468741343 -0.4866804667 -1.8787158394
| 30> H 5.9297841334 0.471025611 -0.3883899511
| 31> H 5.2710114536 -1.1686357412 -0.3894353086
| 32> H 3.4449174962 -0.4521678462 -1.9190043662
| 33> H 4.1241168635 1.2034627024 -1.950046428
| 34> H 1.8734779197 -2.3589886019 2.2565289953
| 35> H 1.6383172034 -3.1868963518 0.6928249522
| 36> H 3.9695872692 -4.0747265281 0.8204135213
| 37> H 4.200929513 -3.2567819907 2.3719366367
| 38> H 3.028676991 -4.5756842999 2.2340444396
| 39> H -0.3946394768 0.9226925715 -2.184744122
| 40> H 1.0344477946 1.6603562318 -1.3708459216
| 41> H -4.7008581489 1.625020008 -1.8776395133
| 42> H -5.3390515705 2.7123368022 -0.6087690845
| 43> H -3.1771476589 4.025946755 -0.7494355284
| 44> H -2.6679056464 2.9838353851 -2.0865208996
| 45> H -4.0781763105 4.0356063522 -2.2769933137
| 46> H -0.9081187427 -0.7281568056 1.6552409427
| 47> H -2.2586843549 -1.3301611208 2.6412295908
| 48> H -1.21593259 -3.2103287775 1.4113836479
| 49> H -2.8601162312 -2.9353942921 0.8087484278
| 50> H -1.4720199544 -2.3808956314 -0.1329147821
| 51> *
| 52>
| 53>                          ****END OF INPUT****

CARTESIAN COORDINATES (ANGSTROEM)
---------------------------------
  C      5.385319   -0.262113   -0.977208
  C      4.028296    0.287383   -1.364242
  O      3.283166    0.689163   -0.184048
  P      2.241452   -0.238610    0.543491
  S      1.622200    0.526202    2.234463
  O      2.990973   -1.631179    0.673244
  C      2.378192   -2.740778    1.362771
  C      3.470384   -3.728166    1.720531
  S      0.764157   -0.695483   -0.936980
  C      0.184533    0.990921   -1.263798
  S     -0.852273    1.694954    0.050608
  P     -2.625325    0.555639   -0.286480
  S     -2.726140   -0.377184   -2.012124
  O     -3.818211    1.555383   -0.009499
  C     -4.434075    2.310973   -1.066726
  C     -3.528633    3.414609   -1.576900
  O     -2.839767   -0.281373    1.041109
  C     -1.898166   -1.197787    1.619218
  C     -1.858510   -2.518856    0.875345
  H      5.946874   -0.486680   -1.878716
  H      5.929784    0.471026   -0.388390
  H      5.271011   -1.168636   -0.389435
  H      3.444917   -0.452168   -1.919004
  H      4.124117    1.203463   -1.950046
  H      1.873478   -2.358989    2.256529
  H      1.638317   -3.186896    0.692825
  H      3.969587   -4.074727    0.820414
  H      4.200930   -3.256782    2.371937
  H      3.028677   -4.575684    2.234044
  H     -0.394639    0.922693   -2.184744
  H      1.034448    1.660356   -1.370846
  H     -4.700858    1.625020   -1.877640
  H     -5.339052    2.712337   -0.608769
  H     -3.177148    4.025947   -0.749436
  H     -2.667906    2.983835   -2.086521
  H     -4.078176    4.035606   -2.276993
  H     -0.908119   -0.728157    1.655241
  H     -2.258684   -1.330161    2.641230
  H     -1.215933   -3.210329    1.411384
  H     -2.860116   -2.935394    0.808748
  H     -1.472020   -2.380896   -0.132915

 Total Charge           Charge          ....    0
 Multiplicity           Mult            ....    1
 Number of Electrons    NEL             ....  202
 Basis Dimension        Dim             ....  539

ORBITAL ENERGIES
----------------

  NO   OCC          E(Eh)            E(eV)
   0   2.0000     -88.577282     -2410.3104
   1   2.0000     -88.576708     -2410.2948
   2   2.0000     -88.529421     -2409.0080
   3   2.0000     -88.527439     -2408.9541
   4   2.0000     -76.919771     -2093.0934
   5   2.0000     -76.918982     -2093.0719
   6   2.0000     -18.998772      -516.9829
   7   2.0000     -18.996792      -516.9290
   8   2.0000     -18.994093      -516.8556
   9   2.0000     -18.993583      -516.8417
  10   2.0000     -10.105916      -274.9960
  11   2.0000     -10.092880      -274.6412
  12   2.0000     -10.092477      -274.6303
  13   2.0000     -10.089051      -274.5370
  14   2.0000     -10.087943      -274.5069
  15   2.0000     -10.020414      -272.6693
  16   2.0000     -10.018803      -272.6255
  17   2.0000     -10.017867      -272.6000
  18   2.0000     -10.015251      -272.5288
  19   2.0000      -7.871291      -214.1887
  20   2.0000      -7.870886      -214.1777
  21   2.0000      -7.824547      -212.9167
  22   2.0000      -7.822482      -212.8605
  23   2.0000      -6.598296      -179.5488
  24   2.0000      -6.597544      -179.5283
  25   2.0000      -5.818266      -158.3231
  26   2.0000      -5.817648      -158.3062
  27   2.0000      -5.815088      -158.2366
  28   2.0000      -5.814701      -158.2261
  29   2.0000      -5.808434      -158.0555
  30   2.0000      -5.808177      -158.0485
  31   2.0000      -5.772084      -157.0664
  32   2.0000      -5.770163      -157.0141
  33   2.0000      -5.764761      -156.8671
  34   2.0000      -5.764662      -156.8644
  35   2.0000      -5.762745      -156.8123
  36   2.0000      -5.762424      -156.8035
  37   2.0000      -4.744267      -129.0981
  38   2.0000      -4.743357      -129.0733
  39   2.0000      -4.742868      -129.0600
  40   2.0000      -4.742711      -129.0557
  41   2.0000      -4.741500      -129.0228
  42   2.0000      -4.741232      -129.0155
  43   2.0000      -1.056322       -28.7440
  44   2.0000      -1.055967       -28.7343
  45   2.0000      -1.015956       -27.6456
  46   2.0000      -1.012087       -27.5403
  47   2.0000      -0.799499       -21.7555
  48   2.0000      -0.756132       -20.5754
  49   2.0000      -0.747152       -20.3310
  50   2.0000      -0.728705       -19.8291
  51   2.0000      -0.718663       -19.5558
  52   2.0000      -0.708592       -19.2818
  53   2.0000      -0.688839       -18.7443
  54   2.0000      -0.676351       -18.4045
  55   2.0000      -0.629018       -17.1165
  56   2.0000      -0.616348       -16.7717
  57   2.0000      -0.600917       -16.3518
  58   2.0000      -0.595892       -16.2151
  59   2.0000      -0.591973       -16.1084
  60   2.0000      -0.533614       -14.5204
  61   2.0000      -0.516477       -14.0541
  62   2.0000      -0.500022       -13.6063
  63   2.0000      -0.485817       -13.2198
  64   2.0000      -0.475854       -12.9487
  65   2.0000      -0.460312       -12.5257
  66   2.0000      -0.458163       -12.4673
  67   2.0000      -0.447042       -12.1646
  68   2.0000      -0.436034       -11.8651
  69   2.0000      -0.432449       -11.7675
  70   2.0000      -0.424534       -11.5522
  71   2.0000      -0.419615       -11.4183
  72   2.0000      -0.406479       -11.0609
  73   2.0000      -0.395373       -10.7586
  74   2.0000      -0.390793       -10.6340
  75   2.0000      -0.387058       -10.5324
  76   2.0000      -0.381676       -10.3859
  77   2.0000      -0.370880       -10.0921
  78   2.0000      -0.365692        -9.9510
  79   2.0000      -0.359373        -9.7790
  80   2.0000      -0.354956        -9.6588
  81   2.0000      -0.351106        -9.5541
  82   2.0000      -0.350623        -9.5409
  83   2.0000      -0.348719        -9.4891
  84   2.0000      -0.342190        -9.3115
  85   2.0000      -0.329936        -8.9780
  86   2.0000      -0.324806        -8.8384
  87   2.0000      -0.315312        -8.5801
  88   2.0000      -0.307557        -8.3690
  89   2.0000      -0.304838        -8.2951
  90   2.0000      -0.300818        -8.1857
  91   2.0000      -0.288503        -7.8506
  92   2.0000      -0.285515        -7.7693
  93   2.0000      -0.279877        -7.6158
  94   2.0000      -0.274242        -7.4625
  95   2.0000      -0.260075        -7.0770
  96   2.0000      -0.234606        -6.3840
  97   2.0000      -0.231511        -6.2997
  98   2.0000      -0.227551        -6.1920
  99   2.0000      -0.220878        -6.0104
 100   2.0000      -0.212504        -5.7825
 101   0.0000      -0.051584        -1.4037
 102   0.0000      -0.034947        -0.9510
 103   0.0000      -0.011060        -0.3010
 104   0.0000      -0.002376        -0.0646
 105   0.0000       0.002881         0.0784

MULLIKEN ATOMIC CHARGES
-----------------------
   0 C :   -0.501654
   1 C :   -0.095354
   2 O :   -0.323984
   3 P :    0.669549
   4 S :   -0.469978
   5 O :   -0.297039
   6 C :   -0.125634
   7 C :   -0.487758
   8 S :   -0.195495
   9 C :   -0.244036
  10 S :   -0.122876
  11 P :    0.707143
  12 S :   -0.504556
  13 O :   -0.341890
  14 C :   -0.151990
  15 C :   -0.473445
  16 O :   -0.312580
  17 C :   -0.152127
  18 C :   -0.471766
  19 H :    0.172047
  20 H :    0.167576
  21 H :    0.170201
  22 H :    0.175786
  23 H :    0.178701
  24 H :    0.174401
  25 H :    0.170284
  26 H :    0.166637
  27 H :    0.168207
  28 H :    0.170052
  29 H :    0.230599
  30 H :    0.236318
  31 H :    0.177587
  32 H :    0.174799
  33 H :    0.166784
  34 H :    0.168769
  35 H :    0.171260
  36 H :    0.175476
  37 H :    0.175856
  38 H :    0.170460
  39 H :    0.163923
  40 H :    0.169747
Sum of atomic charges:   -0.0000000

LOEWDIN ATOMIC CHARGES
----------------------
   0 C :   -0.395294
   1 C :    0.032554
   2 O :   -0.669551
   3 P :    0.377729
   4 S :   -0.142263
   5 O :   -0.683160
   6 C :    0.025737
   7 C :   -0.388435
   8 S :    0.124231
   9 C :   -0.411074
  10 S :    0.145191
  11 P :    0.392663
  12 S :   -0.152759
  13 O :   -0.671107
  14 C :    0.024786
  15 C :   -0.408062
  16 O :   -0.666534
  17 C :    0.020130
  18 C :   -0.416011
  19 H :    0.169380
  20 H :    0.163537
  21 H :    0.166021
  22 H :    0.182864
  23 H :    0.190840
  24 H :    0.182699
  25 H :    0.180295
  26 H :    0.163657
  27 H :    0.163933
  28 H :    0.169502
  29 H :    0.200034
  30 H :    0.198248
  31 H :    0.181470
  32 H :    0.190569
  33 H :    0.163664
  34 H :    0.160620
  35 H :    0.167543
  36 H :    0.183295
  37 H :    0.190413
  38 H :    0.168136
  39 H :    0.161824
  40 H :    0.162682

  Mayer bond orders larger than 0.100000
B(  0-C ,  1-C ) :   0.9343 B(  0-C , 19-H ) :   0.9587 B(  0-C , 20-H ) :   0.9695
B(  0-C , 21-H ) :   0.9660 B(  1-C ,  2-O ) :   0.7404 B(  1-C , 22-H ) :   0.9562
B(  1-C , 23-H ) :   0.9498 B(  2-O ,  3-P ) :   1.1596 B(  3-P ,  4-S ) :   1.8480
B(  3-P ,  5-O ) :   1.0569 B(  3-P ,  8-S ) :   0.9863 B(  5-O ,  6-C ) :   0.7729
B(  6-C ,  7-C ) :   0.9580 B(  6-C , 24-H ) :   0.9447 B(  6-C , 25-H ) :   0.9279
B(  7-C , 26-H ) :   0.9683 B(  7-C , 27-H ) :   0.9697 B(  7-C , 28-H ) :   0.9573
B(  8-S ,  9-C ) :   0.8855 B(  9-C , 10-S ) :   0.9056 B(  9-C , 29-H ) :   0.9077
B(  9-C , 30-H ) :   0.9062 B( 10-S , 11-P ) :   1.0788 B( 11-P , 12-S ) :   1.7105
B( 11-P , 13-O ) :   1.1211 B( 11-P , 16-O ) :   1.1385 B( 13-O , 14-C ) :   0.8063
B( 14-C , 15-C ) :   0.9129 B( 14-C , 31-H ) :   0.9643 B( 14-C , 32-H ) :   0.9496
B( 15-C , 33-H ) :   0.9659 B( 15-C , 34-H ) :   0.9656 B( 15-C , 35-H ) :   0.9555
B( 16-O , 17-C ) :   0.7969 B( 17-C , 18-C ) :   0.9044 B( 17-C , 36-H ) :   0.9541
B( 17-C , 37-H ) :   0.9570 B( 18-C , 38-H ) :   0.9590 B( 18-C , 39-H ) :   0.9679
B( 18-C , 40-H ) :   0.9586

Dispersion correction           -0.021491218
FINAL SINGLE POINT ENERGY     -2932.470184200938

DIPOLE MOMENT
-------------

Method             : SCF
Type of density    : Electron Density
Multiplicity       :   1
Irrep              :   0
Energy             : -2932.4949539212539094 Eh
Relativity type    :
Basis              : AO
                                X                 Y                 Z
Electronic contribution:     -9.646224711       9.466905025       1.757689130
Nuclear contribution   :     11.057113365     -10.167293808      -2.928393111
                        -----------------------------------------
Total Dipole Moment    :      1.410888654      -0.700388783      -1.170703981
                        -----------------------------------------
Magnitude (a.u.)       :      1.962574598
Magnitude (Debye)      :      4.988468187

Rotational constants in cm-1:             0.013431             0.004616             0.004174
Rotational constants in MHz :           402.659402           138.389123           125.125125

                             ****ORCA TERMINATED NORMALLY****
TOTAL RUN TIME: 0 days 0 hours 1 minutes 45 seconds 423 msec
