                         Program Version 6.0.0  -   RELEASE  -
|  1> ! pbe def2-sv(p) def2/J RI DEFGRID1 loosescf d4 GCP(DFT/SV(P)) printgap
|  2> %output
|  3>     printlevel normal
|  4> end
|  5> * xyz 0 1
|  6> C 5.3614071582 -0.094941805 -1.2466173443
|  7> C 4.4982752592 -0.6514188841 -0.1315509525
|  8> O 3.4953654464 0.2974818195 0.282382278
|  9> P 2.0537260159 0.3947418206 -0.3847122612
| 10> S 1.9794245753 0.7877899935 -2.2978777344
| 11> O 1.3831312299 1.5097266611 0.4992939561
| 12> C 1.4366774499 1.5144302071 1.9475741445
| 13> C 2.4999474154 2.4749419042 2.4371899589
| 14> S 1.2318383133 -1.4913363456 0.1798057835
| 15> C 0.1139535733 -1.80602438 -1.2190078102
| 16> S -1.6016910905 -2.0368784633 -0.7059521011
| 17> P -1.9666393461 -0.0606169126 -0.0035496607
| 18> S -1.3918763447 1.3835103306 -1.1935944935
| 19> O -1.3154554996 0.0386041085 1.4263669512
| 20> C -1.6306773839 -0.8846363801 2.5050671446
| 21> C -2.6454290856 -0.2726198771 3.4471121807
| 22> O -3.5191725375 -0.1079810133 0.3191421026
| 23> C -4.4989546037 -0.1502037964 -0.7392073995
| 24> C -5.8461171309 0.1952447405 -0.138169932
| 25> H 6.1372190656 -0.8136576745 -1.4897831176
| 26> H 4.7591419258 0.0926774075 -2.1327607173
| 27> H 5.8206654512 0.8391604014 -0.935434999
| 28> H 5.0850061283 -0.831843849 0.7712343309
| 29> H 4.0085423928 -1.5791606377 -0.4394094029
| 30> H 0.4372968885 1.8289466605 2.2547826181
| 31> H 1.6275515799 0.4958683263 2.2970055111
| 32> H 2.4735897464 2.5096561076 3.5218313569
| 33> H 3.4825866198 2.1467874477 2.1091978227
| 34> H 2.31193634 3.4687324868 2.0399096
| 35> H 0.415951654 -2.7372401828 -1.6915494094
| 36> H 0.1893618581 -0.9666991289 -1.9172068493
| 37> H -2.0011583398 -1.8185608863 2.0741234733
| 38> H -0.67498051 -1.0639407972 3.0011991933
| 39> H -3.5785978594 -0.0857403739 2.9226894708
| 40> H -2.8254359528 -0.9608935614 4.2668899321
| 41> H -2.2721468098 0.6675155261 3.8434936699
| 42> H -4.2054881336 0.5668446479 -1.5129138688
| 43> H -4.4960661855 -1.1571722003 -1.1647704269
| 44> H -6.099920973 -0.5182345905 0.640279603
| 45> H -5.819313647 1.1933053424 0.2900712621
| 46> H -6.6010825268 0.1607741666 -0.9165864783
| 47> *
| 48>
| 49>                          ****END OF INPUT****

CARTESIAN COORDINATES (ANGSTROEM)
---------------------------------
  C      5.361407   -0.094942   -1.246617
  C      4.498275   -0.651419   -0.131551
  O      3.495365    0.297482    0.282382
  P      2.053726    0.394742   -0.384712
  S      1.979425    0.787790   -2.297878
  O      1.383131    1.509727    0.499294
  C      1.436677    1.514430    1.947574
  C      2.499947    2.474942    2.437190
  S      1.231838   -1.491336    0.179806
  C      0.113954   -1.806024   -1.219008
  S     -1.601691   -2.036878   -0.705952
  P     -1.966639   -0.060617   -0.003550
  S     -1.391876    1.383510   -1.193594
  O     -1.315455    0.038604    1.426367
  C     -1.630677   -0.884636    2.505067
  C     -2.645429   -0.272620    3.447112
  O     -3.519173   -0.107981    0.319142
  C     -4.498955   -0.150204   -0.739207
  C     -5.846117    0.195245   -0.138170
  H      6.137219   -0.813658   -1.489783
  H      4.759142    0.092677   -2.132761
  H      5.820665    0.839160   -0.935435
  H      5.085006   -0.831844    0.771234
  H      4.008542   -1.579161   -0.439409
  H      0.437297    1.828947    2.254783
  H      1.627552    0.495868    2.297006
  H      2.473590    2.509656    3.521831
  H      3.482587    2.146787    2.109198
  H      2.311936    3.468732    2.039910
  H      0.415952   -2.737240   -1.691549
  H      0.189362   -0.966699   -1.917207
  H     -2.001158   -1.818561    2.074123
  H     -0.674981   -1.063941    3.001199
  H     -3.578598   -0.085740    2.922689
  H     -2.825436   -0.960894    4.266890
  H     -2.272147    0.667516    3.843494
  H     -4.205488    0.566845   -1.512914
  H     -4.496066   -1.157172   -1.164770
  H     -6.099921   -0.518235    0.640280
  H     -5.819314    1.193305    0.290071
  H     -6.601083    0.160774   -0.916586

 Total Charge           Charge          ....    0
 Multiplicity           Mult            ....    1
 Number of Electrons    NEL             ....  202
 Basis Dimension        Dim             ....  334

ORBITAL ENERGIES
----------------

  NO   OCC          E(Eh)            E(eV)
   0   2.0000     -88.041334     -2395.7265
   1   2.0000     -88.039719     -2395.6825
   2   2.0000     -87.977606     -2393.9924
   3   2.0000     -87.976526     -2393.9630
   4   2.0000     -76.422009     -2079.5486
   5   2.0000     -76.420864     -2079.5174
   6   2.0000     -18.794896      -511.4351
   7   2.0000     -18.793472      -511.3964
   8   2.0000     -18.791489      -511.3424
   9   2.0000     -18.783106      -511.1143
  10   2.0000      -9.957283      -270.9515
  11   2.0000      -9.954993      -270.8891
  12   2.0000      -9.952554      -270.8228
  13   2.0000      -9.951880      -270.8044
  14   2.0000      -9.949074      -270.7281
  15   2.0000      -9.890912      -269.1454
  16   2.0000      -9.889556      -269.1085
  17   2.0000      -9.881295      -268.8837
  18   2.0000      -9.877692      -268.7857
  19   2.0000      -7.686589      -209.1627
  20   2.0000      -7.684426      -209.1039
  21   2.0000      -7.622847      -207.4282
  22   2.0000      -7.621577      -207.3936
  23   2.0000      -6.419692      -174.6887
  24   2.0000      -6.418204      -174.6482
  25   2.0000      -5.714332      -155.4949
  26   2.0000      -5.712207      -155.4371
  27   2.0000      -5.710938      -155.4025
  28   2.0000      -5.708806      -155.3445
  29   2.0000      -5.703860      -155.2099
  30   2.0000      -5.701667      -155.1503
  31   2.0000      -5.651909      -153.7963
  32   2.0000      -5.650677      -153.7627
  33   2.0000      -5.643351      -153.5634
  34   2.0000      -5.642899      -153.5511
  35   2.0000      -5.642069      -153.5285
  36   2.0000      -5.641696      -153.5184
  37   2.0000      -4.642607      -126.3318
  38   2.0000      -4.641565      -126.3034
  39   2.0000      -4.640991      -126.2878
  40   2.0000      -4.640020      -126.2614
  41   2.0000      -4.639633      -126.2508
  42   2.0000      -4.638457      -126.2188
  43   2.0000      -0.990193       -26.9445
  44   2.0000      -0.984284       -26.7837
  45   2.0000      -0.947261       -25.7763
  46   2.0000      -0.938998       -25.5514
  47   2.0000      -0.759901       -20.6779
  48   2.0000      -0.719793       -19.5866
  49   2.0000      -0.709784       -19.3142
  50   2.0000      -0.694937       -18.9102
  51   2.0000      -0.686333       -18.6761
  52   2.0000      -0.673042       -18.3144
  53   2.0000      -0.645441       -17.5634
  54   2.0000      -0.631069       -17.1722
  55   2.0000      -0.588292       -16.0082
  56   2.0000      -0.583658       -15.8821
  57   2.0000      -0.573092       -15.5946
  58   2.0000      -0.568277       -15.4636
  59   2.0000      -0.566198       -15.4070
  60   2.0000      -0.511729       -13.9249
  61   2.0000      -0.499262       -13.5856
  62   2.0000      -0.483512       -13.1570
  63   2.0000      -0.475197       -12.9308
  64   2.0000      -0.447535       -12.1780
  65   2.0000      -0.446685       -12.1549
  66   2.0000      -0.442751       -12.0479
  67   2.0000      -0.435578       -11.8527
  68   2.0000      -0.426343       -11.6014
  69   2.0000      -0.421454       -11.4683
  70   2.0000      -0.405224       -11.0267
  71   2.0000      -0.395094       -10.7511
  72   2.0000      -0.391809       -10.6617
  73   2.0000      -0.383653       -10.4397
  74   2.0000      -0.380536       -10.3549
  75   2.0000      -0.365669        -9.9504
  76   2.0000      -0.360110        -9.7991
  77   2.0000      -0.356792        -9.7088
  78   2.0000      -0.354511        -9.6467
  79   2.0000      -0.352996        -9.6055
  80   2.0000      -0.350093        -9.5265
  81   2.0000      -0.346169        -9.4197
  82   2.0000      -0.339105        -9.2275
  83   2.0000      -0.335580        -9.1316
  84   2.0000      -0.330830        -9.0023
  85   2.0000      -0.318472        -8.6661
  86   2.0000      -0.314119        -8.5476
  87   2.0000      -0.301169        -8.1952
  88   2.0000      -0.295846        -8.0504
  89   2.0000      -0.292669        -7.9639
  90   2.0000      -0.286503        -7.7961
  91   2.0000      -0.276819        -7.5326
  92   2.0000      -0.268365        -7.3026
  93   2.0000      -0.261145        -7.1061
  94   2.0000      -0.256330        -6.9751
  95   2.0000      -0.235243        -6.4013
  96   2.0000      -0.220885        -6.0106
  97   2.0000      -0.209439        -5.6991
  98   2.0000      -0.197892        -5.3849
  99   2.0000      -0.186949        -5.0871
 100   2.0000      -0.179499        -4.8844
 101   0.0000      -0.037337        -1.0160
 102   0.0000      -0.028551        -0.7769
 103   0.0000      -0.005331        -0.1451
 104   0.0000       0.012321         0.3353
 105   0.0000       0.019107         0.5199

MULLIKEN ATOMIC CHARGES
-----------------------
   0 C :   -0.292382
   1 C :   -0.007936
   2 O :   -0.383215
   3 P :    0.601763
   4 S :   -0.286090
   5 O :   -0.339366
   6 C :   -0.019832
   7 C :   -0.280621
   8 S :   -0.127199
   9 C :   -0.345956
  10 S :   -0.113683
  11 P :    0.576784
  12 S :   -0.273129
  13 O :   -0.351228
  14 C :   -0.011197
  15 C :   -0.288530
  16 O :   -0.384354
  17 C :   -0.012246
  18 C :   -0.283717
  19 H :    0.105046
  20 H :    0.130471
  21 H :    0.112650
  22 H :    0.102290
  23 H :    0.099385
  24 H :    0.118233
  25 H :    0.094959
  26 H :    0.103716
  27 H :    0.117782
  28 H :    0.122114
  29 H :    0.179598
  30 H :    0.208869
  31 H :    0.102887
  32 H :    0.107225
  33 H :    0.123846
  34 H :    0.109700
  35 H :    0.116847
  36 H :    0.108326
  37 H :    0.105391
  38 H :    0.115053
  39 H :    0.123179
  40 H :    0.114566
Sum of atomic charges:   -0.0000000

LOEWDIN ATOMIC CHARGES
----------------------
   0 C :   -0.364785
   1 C :   -0.118392
   2 O :   -0.247817
   3 P :    0.567505
   4 S :   -0.288255
   5 O :   -0.221951
   6 C :   -0.113976
   7 C :   -0.358355
   8 S :    0.054239
   9 C :   -0.480430
  10 S :    0.058136
  11 P :    0.553775
  12 S :   -0.284786
  13 O :   -0.229833
  14 C :   -0.116917
  15 C :   -0.358813
  16 O :   -0.251350
  17 C :   -0.120092
  18 C :   -0.350832
  19 H :    0.127761
  20 H :    0.124424
  21 H :    0.125704
  22 H :    0.116238
  23 H :    0.103246
  24 H :    0.120006
  25 H :    0.100746
  26 H :    0.126768
  27 H :    0.124884
  28 H :    0.130213
  29 H :    0.136121
  30 H :    0.125845
  31 H :    0.104582
  32 H :    0.115374
  33 H :    0.127097
  34 H :    0.129648
  35 H :    0.126390
  36 H :    0.111409
  37 H :    0.109216
  38 H :    0.125175
  39 H :    0.129878
  40 H :    0.132203

  Mayer bond orders larger than 0.100000
B(  0-C ,  1-C ) :   1.1672 B(  0-C , 19-H ) :   0.9389 B(  0-C , 20-H ) :   0.9287
B(  0-C , 21-H ) :   0.9475 B(  1-C ,  2-O ) :   0.9075 B(  1-C , 22-H ) :   0.9368
B(  1-C , 23-H ) :   0.9117 B(  2-O ,  3-P ) :   1.0657 B(  3-P ,  4-S ) :   1.6522
B(  3-P ,  5-O ) :   1.1480 B(  3-P ,  8-S ) :   0.9412 B(  4-S ,  8-S ) :   0.1175
B(  5-O ,  6-C ) :   0.8933 B(  6-C ,  7-C ) :   1.1592 B(  6-C , 24-H ) :   0.9268
B(  6-C , 25-H ) :   0.9159 B(  7-C , 26-H ) :   0.9405 B(  7-C , 27-H ) :   0.9420
B(  7-C , 28-H ) :   0.9465 B(  8-S ,  9-C ) :   0.9958 B(  9-C , 10-S ) :   1.0004
B(  9-C , 29-H ) :   0.9117 B(  9-C , 30-H ) :   0.8427 B( 10-S , 11-P ) :   0.9425
B( 10-S , 12-S ) :   0.1090 B( 11-P , 12-S ) :   1.6972 B( 11-P , 13-O ) :   1.1245
B( 11-P , 16-O ) :   1.0719 B( 13-O , 14-C ) :   0.8820 B( 14-C , 15-C ) :   1.1652
B( 14-C , 31-H ) :   0.9100 B( 14-C , 32-H ) :   0.9308 B( 15-C , 33-H ) :   0.9406
B( 15-C , 34-H ) :   0.9400 B( 15-C , 35-H ) :   0.9482 B( 16-O , 17-C ) :   0.9041
B( 17-C , 18-C ) :   1.1596 B( 17-C , 36-H ) :   0.9089 B( 17-C , 37-H ) :   0.9287
B( 18-C , 38-H ) :   0.9509 B( 18-C , 39-H ) :   0.9508 B( 18-C , 40-H ) :   0.9417

Dispersion correction           -0.065969499
FINAL SINGLE POINT ENERGY     -2929.516837469389

DIPOLE MOMENT
-------------

Method             : SCF
Type of density    : Electron Density
Multiplicity       :   1
Irrep              :   0
Energy             : -2929.6367542801117452 Eh
Relativity type    :
Basis              : AO
                                X                 Y                 Z
Electronic contribution:      1.451693459      -2.295544442     -15.542592624
Nuclear contribution   :     -1.795948129       1.114743913      17.230395175
                        -----------------------------------------
Total Dipole Moment    :     -0.344254669      -1.180800529       1.687802552
                        -----------------------------------------
Magnitude (a.u.)       :      2.088415337
Magnitude (Debye)      :      5.308329927

Rotational constants in cm-1:             0.013412             0.005022             0.004641
Rotational constants in MHz :           402.092727           150.548392           139.130272

                             ****ORCA TERMINATED NORMALLY****
TOTAL RUN TIME: 0 days 0 hours 0 minutes 20 seconds 919 msec
