                         Program Version 6.0.0  -   RELEASE  -
|  1> ! pbe def2-sv(p) def2/J RI DEFGRID1 loosescf d4 GCP(DFT/SV(P)) printgap
|  2> %output
|  3>     printlevel normal
|  4> end
|  5> * xyz 0 1
|  6> C 3.2334800864 0.2390114108 3.3078932832
|  7> C 1.8867222574 -0.2306433181 2.8003444357
|  8> O 1.5978333625 0.3028529818 1.4894083705
|  9> P 2.3659272974 -0.1952119204 0.1970613308
| 10> S 2.9564485227 -2.0685533495 0.2254239859
| 11> O 3.5235661357 0.883954345 0.0644093139
| 12> C 4.6725074839 0.6828268529 -0.7764664651
| 13> C 4.3125413057 0.6998414712 -2.2480905885
| 14> S 0.9640544396 0.3369349519 -1.293047767
| 15> C -0.0702400521 -1.1416181509 -1.10399691
| 16> S -1.1701595934 -1.0555031371 0.3241627142
| 17> P -2.5297146173 0.3561999087 -0.5299601469
| 18> S -2.8893426095 0.0621009104 -2.4323161579
| 19> O -1.9299300455 1.7940011078 -0.277017747
| 20> C -2.0571226605 2.5737415875 0.9362170148
| 21> C -1.3740206849 1.9202126045 2.118416256
| 22> O -3.7920462792 0.3331463303 0.4328025558
| 23> C -4.8875262226 -0.5830025716 0.2472156268
| 24> C -4.4812312991 -2.023441981 0.4791670991
| 25> H 3.3699800023 -0.0976207219 4.3307295329
| 26> H 4.0276875082 -0.1774562994 2.6894373539
| 27> H 3.2924248032 1.3235400127 3.2711533422
| 28> H 1.0669748697 0.1332620276 3.4208069743
| 29> H 1.8511236514 -1.3231129568 2.7438240397
| 30> H 5.3369980495 1.5072110135 -0.5143315989
| 31> H 5.1360470991 -0.2716244958 -0.5065121961
| 32> H 3.7570461384 1.6022686487 -2.4915027216
| 33> H 5.2202006694 0.6631050703 -2.8419689448
| 34> H 3.6960129302 -0.164738724 -2.4917885005
| 35> H 0.5697713193 -2.0142924363 -0.9685310609
| 36> H -0.6694519741 -1.2250690579 -2.0116836792
| 37> H -1.5842948484 3.5208458106 0.6712832597
| 38> H -3.1197937205 2.7282278102 1.1329778732
| 39> H -1.4239171854 2.5900681633 2.9712982384
| 40> H -1.8695068393 0.9839590751 2.3692856177
| 41> H -0.3323525169 1.7160330381 1.8824442858
| 42> H -5.6275330707 -0.2502490264 0.9765128533
| 43> H -5.2769387836 -0.4527076628 -0.7670003458
| 44> H -3.7976836325 -2.3486593499 -0.3035345082
| 45> H -3.9875609922 -2.130033759 1.4417359866
| 46> H -5.3655788645 -2.6520483819 0.4553969485
| 47> *
| 48>
| 49>                          ****END OF INPUT****

CARTESIAN COORDINATES (ANGSTROEM)
---------------------------------
  C      3.233480    0.239011    3.307893
  C      1.886722   -0.230643    2.800344
  O      1.597833    0.302853    1.489408
  P      2.365927   -0.195212    0.197061
  S      2.956449   -2.068553    0.225424
  O      3.523566    0.883954    0.064409
  C      4.672507    0.682827   -0.776466
  C      4.312541    0.699841   -2.248091
  S      0.964054    0.336935   -1.293048
  C     -0.070240   -1.141618   -1.103997
  S     -1.170160   -1.055503    0.324163
  P     -2.529715    0.356200   -0.529960
  S     -2.889343    0.062101   -2.432316
  O     -1.929930    1.794001   -0.277018
  C     -2.057123    2.573742    0.936217
  C     -1.374021    1.920213    2.118416
  O     -3.792046    0.333146    0.432803
  C     -4.887526   -0.583003    0.247216
  C     -4.481231   -2.023442    0.479167
  H      3.369980   -0.097621    4.330730
  H      4.027688   -0.177456    2.689437
  H      3.292425    1.323540    3.271153
  H      1.066975    0.133262    3.420807
  H      1.851124   -1.323113    2.743824
  H      5.336998    1.507211   -0.514332
  H      5.136047   -0.271624   -0.506512
  H      3.757046    1.602269   -2.491503
  H      5.220201    0.663105   -2.841969
  H      3.696013   -0.164739   -2.491789
  H      0.569771   -2.014292   -0.968531
  H     -0.669452   -1.225069   -2.011684
  H     -1.584295    3.520846    0.671283
  H     -3.119794    2.728228    1.132978
  H     -1.423917    2.590068    2.971298
  H     -1.869507    0.983959    2.369286
  H     -0.332353    1.716033    1.882444
  H     -5.627533   -0.250249    0.976513
  H     -5.276939   -0.452708   -0.767000
  H     -3.797684   -2.348659   -0.303535
  H     -3.987561   -2.130034    1.441736
  H     -5.365579   -2.652048    0.455397

 Total Charge           Charge          ....    0
 Multiplicity           Mult            ....    1
 Number of Electrons    NEL             ....  202
 Basis Dimension        Dim             ....  334

ORBITAL ENERGIES
----------------

  NO   OCC          E(Eh)            E(eV)
   0   2.0000     -88.040107     -2395.6931
   1   2.0000     -88.038263     -2395.6429
   2   2.0000     -87.991917     -2394.3818
   3   2.0000     -87.984004     -2394.1665
   4   2.0000     -76.428395     -2079.7224
   5   2.0000     -76.426528     -2079.6716
   6   2.0000     -18.799784      -511.5681
   7   2.0000     -18.797388      -511.5029
   8   2.0000     -18.793813      -511.4057
   9   2.0000     -18.787840      -511.2431
  10   2.0000      -9.956810      -270.9386
  11   2.0000      -9.955258      -270.8963
  12   2.0000      -9.954214      -270.8679
  13   2.0000      -9.953448      -270.8471
  14   2.0000      -9.948346      -270.7082
  15   2.0000      -9.886696      -269.0307
  16   2.0000      -9.885663      -269.0026
  17   2.0000      -9.885075      -268.9866
  18   2.0000      -9.882957      -268.9289
  19   2.0000      -7.685336      -209.1286
  20   2.0000      -7.683169      -209.0697
  21   2.0000      -7.636770      -207.8071
  22   2.0000      -7.629274      -207.6031
  23   2.0000      -6.426217      -174.8663
  24   2.0000      -6.423870      -174.8024
  25   2.0000      -5.713154      -155.4628
  26   2.0000      -5.710868      -155.4006
  27   2.0000      -5.710029      -155.3778
  28   2.0000      -5.707910      -155.3201
  29   2.0000      -5.702146      -155.1633
  30   2.0000      -5.700114      -155.1080
  31   2.0000      -5.665507      -154.1663
  32   2.0000      -5.658220      -153.9680
  33   2.0000      -5.657451      -153.9471
  34   2.0000      -5.657087      -153.9372
  35   2.0000      -5.649997      -153.7442
  36   2.0000      -5.649262      -153.7242
  37   2.0000      -4.648684      -126.4971
  38   2.0000      -4.647922      -126.4764
  39   2.0000      -4.647077      -126.4534
  40   2.0000      -4.646758      -126.4447
  41   2.0000      -4.645267      -126.4041
  42   2.0000      -4.644116      -126.3728
  43   2.0000      -0.990665       -26.9574
  44   2.0000      -0.989838       -26.9349
  45   2.0000      -0.950128       -25.8543
  46   2.0000      -0.944888       -25.7117
  47   2.0000      -0.762636       -20.7524
  48   2.0000      -0.721793       -19.6410
  49   2.0000      -0.709350       -19.3024
  50   2.0000      -0.691736       -18.8231
  51   2.0000      -0.689397       -18.7595
  52   2.0000      -0.676872       -18.4186
  53   2.0000      -0.652045       -17.7431
  54   2.0000      -0.636059       -17.3080
  55   2.0000      -0.604491       -16.4490
  56   2.0000      -0.595702       -16.2099
  57   2.0000      -0.579338       -15.7646
  58   2.0000      -0.574770       -15.6403
  59   2.0000      -0.555151       -15.1064
  60   2.0000      -0.497531       -13.5385
  61   2.0000      -0.495187       -13.4747
  62   2.0000      -0.476903       -12.9772
  63   2.0000      -0.471404       -12.8275
  64   2.0000      -0.459777       -12.5112
  65   2.0000      -0.449314       -12.2264
  66   2.0000      -0.442405       -12.0385
  67   2.0000      -0.438509       -11.9324
  68   2.0000      -0.425667       -11.5830
  69   2.0000      -0.423343       -11.5198
  70   2.0000      -0.410904       -11.1813
  71   2.0000      -0.399491       -10.8707
  72   2.0000      -0.396084       -10.7780
  73   2.0000      -0.388833       -10.5807
  74   2.0000      -0.379923       -10.3382
  75   2.0000      -0.372712       -10.1420
  76   2.0000      -0.368335       -10.0229
  77   2.0000      -0.359957        -9.7949
  78   2.0000      -0.355908        -9.6847
  79   2.0000      -0.353662        -9.6236
  80   2.0000      -0.351253        -9.5581
  81   2.0000      -0.345710        -9.4072
  82   2.0000      -0.341958        -9.3051
  83   2.0000      -0.337988        -9.1971
  84   2.0000      -0.336588        -9.1590
  85   2.0000      -0.323455        -8.8017
  86   2.0000      -0.310780        -8.4568
  87   2.0000      -0.298406        -8.1200
  88   2.0000      -0.297379        -8.0921
  89   2.0000      -0.295173        -8.0321
  90   2.0000      -0.286007        -7.7827
  91   2.0000      -0.278309        -7.5732
  92   2.0000      -0.272103        -7.4043
  93   2.0000      -0.266681        -7.2568
  94   2.0000      -0.255720        -6.9585
  95   2.0000      -0.232418        -6.3244
  96   2.0000      -0.219021        -5.9599
  97   2.0000      -0.214075        -5.8253
  98   2.0000      -0.205151        -5.5824
  99   2.0000      -0.203483        -5.5371
 100   2.0000      -0.195528        -5.3206
 101   0.0000      -0.044049        -1.1986
 102   0.0000      -0.024458        -0.6655
 103   0.0000      -0.003196        -0.0870
 104   0.0000      -0.001972        -0.0537
 105   0.0000       0.018033         0.4907

MULLIKEN ATOMIC CHARGES
-----------------------
   0 C :   -0.304892
   1 C :   -0.004537
   2 O :   -0.357401
   3 P :    0.609190
   4 S :   -0.336894
   5 O :   -0.371009
   6 C :   -0.006244
   7 C :   -0.317878
   8 S :   -0.054409
   9 C :   -0.383682
  10 S :   -0.090180
  11 P :    0.618042
  12 S :   -0.319678
  13 O :   -0.356702
  14 C :    0.014156
  15 C :   -0.356177
  16 O :   -0.387004
  17 C :   -0.001288
  18 C :   -0.317725
  19 H :    0.112776
  20 H :    0.121758
  21 H :    0.116271
  22 H :    0.107404
  23 H :    0.113477
  24 H :    0.106724
  25 H :    0.111867
  26 H :    0.121239
  27 H :    0.114779
  28 H :    0.129986
  29 H :    0.189855
  30 H :    0.197076
  31 H :    0.109256
  32 H :    0.106162
  33 H :    0.107216
  34 H :    0.117584
  35 H :    0.157605
  36 H :    0.104837
  37 H :    0.115450
  38 H :    0.131502
  39 H :    0.116611
  40 H :    0.114878
Sum of atomic charges:   -0.0000000

LOEWDIN ATOMIC CHARGES
----------------------
   0 C :   -0.363442
   1 C :   -0.117825
   2 O :   -0.234809
   3 P :    0.575529
   4 S :   -0.323626
   5 O :   -0.242355
   6 C :   -0.118843
   7 C :   -0.369437
   8 S :    0.101028
   9 C :   -0.493164
  10 S :    0.079111
  11 P :    0.576974
  12 S :   -0.313033
  13 O :   -0.237004
  14 C :   -0.105327
  15 C :   -0.377179
  16 O :   -0.246566
  17 C :   -0.115681
  18 C :   -0.370858
  19 H :    0.130763
  20 H :    0.122650
  21 H :    0.126398
  22 H :    0.117194
  23 H :    0.110759
  24 H :    0.119367
  25 H :    0.110898
  26 H :    0.126026
  27 H :    0.132079
  28 H :    0.122748
  29 H :    0.127313
  30 H :    0.128088
  31 H :    0.122688
  32 H :    0.112553
  33 H :    0.128118
  34 H :    0.116014
  35 H :    0.131418
  36 H :    0.118477
  37 H :    0.114279
  38 H :    0.123112
  39 H :    0.123318
  40 H :    0.132244

  Mayer bond orders larger than 0.100000
B(  0-C ,  1-C ) :   1.1640 B(  0-C , 19-H ) :   0.9393 B(  0-C , 20-H ) :   0.9372
B(  0-C , 21-H ) :   0.9467 B(  1-C ,  2-O ) :   0.8969 B(  1-C , 22-H ) :   0.9314
B(  1-C , 23-H ) :   0.9153 B(  2-O ,  3-P ) :   1.1181 B(  3-P ,  4-S ) :   1.5826
B(  3-P ,  5-O ) :   1.1133 B(  3-P ,  8-S ) :   0.9758 B(  4-S ,  8-S ) :   0.1094
B(  5-O ,  6-C ) :   0.9060 B(  6-C ,  7-C ) :   1.1659 B(  6-C , 24-H ) :   0.9336
B(  6-C , 25-H ) :   0.9165 B(  7-C , 26-H ) :   0.9446 B(  7-C , 27-H ) :   0.9377
B(  7-C , 28-H ) :   0.9349 B(  8-S ,  9-C ) :   1.0021 B(  9-C , 10-S ) :   1.0089
B(  9-C , 29-H ) :   0.8681 B(  9-C , 30-H ) :   0.8645 B( 10-S , 11-P ) :   0.9415
B( 10-S , 12-S ) :   0.1125 B( 11-P , 12-S ) :   1.6294 B( 11-P , 13-O ) :   1.1403
B( 11-P , 16-O ) :   1.0790 B( 13-O , 14-C ) :   0.8999 B( 14-C , 15-C ) :   1.1708
B( 14-C , 31-H ) :   0.9337 B( 14-C , 32-H ) :   0.9284 B( 15-C , 33-H ) :   0.9350
B( 15-C , 34-H ) :   0.9399 B( 15-C , 35-H ) :   0.9195 B( 16-O , 17-C ) :   0.9014
B( 17-C , 18-C ) :   1.1670 B( 17-C , 36-H ) :   0.9341 B( 17-C , 37-H ) :   0.9178
B( 18-C , 38-H ) :   0.9331 B( 18-C , 39-H ) :   0.9444 B( 18-C , 40-H ) :   0.9365

Dispersion correction           -0.065635501
FINAL SINGLE POINT ENERGY     -2929.521666736205

DIPOLE MOMENT
-------------

Method             : SCF
Type of density    : Electron Density
Multiplicity       :   1
Irrep              :   0
Energy             : -2929.6420318079808567 Eh
Relativity type    :
Basis              : AO
                                X                 Y                 Z
Electronic contribution:     -4.078482620      -2.806534265     -13.438627550
Nuclear contribution   :      4.147143346       3.418679006      14.918863157
                        -----------------------------------------
Total Dipole Moment    :      0.068660726       0.612144740       1.480235608
                        -----------------------------------------
Magnitude (a.u.)       :      1.603288163
Magnitude (Debye)      :      4.075234646

Rotational constants in cm-1:             0.013163             0.004681             0.004374
Rotational constants in MHz :           394.631366           140.324489           131.118172

                             ****ORCA TERMINATED NORMALLY****
TOTAL RUN TIME: 0 days 0 hours 0 minutes 21 seconds 144 msec
