                         Program Version 6.0.0  -   RELEASE  -
|  1> ! pbe def2-sv(p) def2/J RI DEFGRID1 loosescf d4 GCP(DFT/SV(P)) printgap
|  2> %output
|  3>     printlevel normal
|  4> end
|  5> * xyz 0 1
|  6> C 0.848633244 1.3900916638 -0.5828872168
|  7> C 1.5965942498 0.1595491527 -0.0524300703
|  8> H 2.5540971839 0.0978426043 -0.5871323809
|  9> C 0.7664391701 -1.1152801519 -0.3411631365
| 10> H 1.1963916783 -1.9640558221 0.2116468972
| 11> C -0.6730825973 -0.9138024272 0.1656519085
| 12> H -1.2896550206 -1.7643323578 -0.1411907592
| 13> C -1.2615037739 0.368488988 -0.4576768775
| 14> H -1.2774511461 0.2742741361 -1.5545890501
| 15> O -0.4661305775 1.4796428385 -0.079789748
| 16> O -2.5565246871 0.5947973474 -0.0469899996
| 17> O -0.7400233693 -0.8471515218 1.5658511802
| 18> O 0.7019695909 -1.3878834305 -1.7188641632
| 19> O 1.8093598529 0.3317456462 1.3317861751
| 20> H 0.8271205059 1.3462693763 -1.6795142223
| 21> H 1.3468165373 2.2996278753 -0.2472479605
| 22> H -2.5910728326 0.5298728777 0.9233017221
| 23> H -0.1284397795 -0.1477230194 1.8635120123
| 24> H 1.5413150917 -1.7633667454 -2.0230806431
| 25> H 2.4660061057 -0.3030488812 1.6515524
| 26> *
| 27>
| 28>                          ****END OF INPUT****

CARTESIAN COORDINATES (ANGSTROEM)
---------------------------------
  C      0.848633    1.390092   -0.582887
  C      1.596594    0.159549   -0.052430
  H      2.554097    0.097843   -0.587132
  C      0.766439   -1.115280   -0.341163
  H      1.196392   -1.964056    0.211647
  C     -0.673083   -0.913802    0.165652
  H     -1.289655   -1.764332   -0.141191
  C     -1.261504    0.368489   -0.457677
  H     -1.277451    0.274274   -1.554589
  O     -0.466131    1.479643   -0.079790
  O     -2.556525    0.594797   -0.046990
  O     -0.740023   -0.847152    1.565851
  O      0.701970   -1.387883   -1.718864
  O      1.809360    0.331746    1.331786
  H      0.827121    1.346269   -1.679514
  H      1.346817    2.299628   -0.247248
  H     -2.591073    0.529873    0.923302
  H     -0.128440   -0.147723    1.863512
  H      1.541315   -1.763367   -2.023081
  H      2.466006   -0.303049    1.651552

 Total Charge           Charge          ....    0
 Multiplicity           Mult            ....    1
 Number of Electrons    NEL             ....   80
 Basis Dimension        Dim             ....  160

ORBITAL ENERGIES
----------------

  NO   OCC          E(Eh)            E(eV)
   0   2.0000     -18.778920      -511.0004
   1   2.0000     -18.770952      -510.7836
   2   2.0000     -18.755582      -510.3653
   3   2.0000     -18.747868      -510.1554
   4   2.0000     -18.744479      -510.0632
   5   2.0000      -9.970385      -271.3080
   6   2.0000      -9.955946      -270.9151
   7   2.0000      -9.951098      -270.7832
   8   2.0000      -9.937041      -270.4006
   9   2.0000      -9.934773      -270.3389
  10   2.0000      -0.975555       -26.5462
  11   2.0000      -0.952404       -25.9162
  12   2.0000      -0.943495       -25.6738
  13   2.0000      -0.919862       -25.0307
  14   2.0000      -0.902550       -24.5596
  15   2.0000      -0.701524       -19.0895
  16   2.0000      -0.671716       -18.2783
  17   2.0000      -0.585346       -15.9281
  18   2.0000      -0.581728       -15.8296
  19   2.0000      -0.534003       -14.5310
  20   2.0000      -0.504098       -13.7172
  21   2.0000      -0.493151       -13.4193
  22   2.0000      -0.474998       -12.9254
  23   2.0000      -0.440685       -11.9917
  24   2.0000      -0.428892       -11.6707
  25   2.0000      -0.425475       -11.5778
  26   2.0000      -0.400848       -10.9076
  27   2.0000      -0.380280       -10.3479
  28   2.0000      -0.367544       -10.0014
  29   2.0000      -0.352166        -9.5829
  30   2.0000      -0.335883        -9.1398
  31   2.0000      -0.311328        -8.4717
  32   2.0000      -0.296646        -8.0721
  33   2.0000      -0.281706        -7.6656
  34   2.0000      -0.274289        -7.4638
  35   2.0000      -0.259748        -7.0681
  36   2.0000      -0.254568        -6.9271
  37   2.0000      -0.233016        -6.3407
  38   2.0000      -0.214079        -5.8254
  39   2.0000      -0.197572        -5.3762
  40   0.0000      -0.001505        -0.0410
  41   0.0000       0.008974         0.2442
  42   0.0000       0.060163         1.6371
  43   0.0000       0.064668         1.7597
  44   0.0000       0.075330         2.0498

MULLIKEN ATOMIC CHARGES
-----------------------
   0 C :    0.085151
   1 C :   -0.022302
   2 H :    0.057562
   3 C :    0.011528
   4 H :    0.059211
   5 C :    0.063866
   6 H :    0.081070
   7 C :    0.160364
   8 H :    0.064029
   9 O :   -0.308912
  10 O :   -0.375201
  11 O :   -0.442471
  12 O :   -0.406893
  13 O :   -0.416470
  14 H :    0.073891
  15 H :    0.098511
  16 H :    0.299251
  17 H :    0.301462
  18 H :    0.305916
  19 H :    0.310436
Sum of atomic charges:    0.0000000

LOEWDIN ATOMIC CHARGES
----------------------
   0 C :   -0.113239
   1 C :   -0.095161
   2 H :    0.100151
   3 C :   -0.085268
   4 H :    0.095400
   5 C :   -0.085247
   6 H :    0.121178
   7 C :   -0.007592
   8 H :    0.100045
   9 O :   -0.166399
  10 O :   -0.287909
  11 O :   -0.318488
  12 O :   -0.313416
  13 O :   -0.308776
  14 H :    0.107379
  15 H :    0.121695
  16 H :    0.281585
  17 H :    0.270535
  18 H :    0.290979
  19 H :    0.292548

  Mayer bond orders larger than 0.100000
B(  0-C ,  1-C ) :   1.0628 B(  0-C ,  9-O ) :   1.0441 B(  0-C , 14-H ) :   0.8957
B(  0-C , 15-H ) :   0.9196 B(  1-C ,  2-H ) :   0.8962 B(  1-C ,  3-C ) :   0.9598
B(  1-C , 13-O ) :   1.0224 B(  3-C ,  4-H ) :   0.9077 B(  3-C ,  5-C ) :   0.9806
B(  3-C , 12-O ) :   1.0632 B(  5-C ,  6-H ) :   0.8879 B(  5-C ,  7-C ) :   0.9909
B(  5-C , 11-O ) :   1.0424 B(  7-C ,  8-H ) :   0.8876 B(  7-C ,  9-O ) :   0.9879
B(  7-C , 10-O ) :   1.1776 B( 10-O , 16-H ) :   0.8283 B( 11-O , 17-H ) :   0.8060
B( 12-O , 18-H ) :   0.8453 B( 13-O , 19-H ) :   0.8414

Dispersion correction           -0.019878764
FINAL SINGLE POINT ENERGY      -571.418266052667

DIPOLE MOMENT
-------------

Method             : SCF
Type of density    : Electron Density
Multiplicity       :   1
Irrep              :   0
Energy             :  -571.5275760881631868 Eh
Relativity type    :
Basis              : AO
                                X                 Y                 Z
Electronic contribution:     -2.426993895       0.617892413       1.375260495
Nuclear contribution   :      4.339382486      -1.305874019      -1.469296487
                        -----------------------------------------
Total Dipole Moment    :      1.912388591      -0.687981606      -0.094035992
                        -----------------------------------------
Magnitude (a.u.)       :      2.034549478
Magnitude (Debye)      :      5.171413795

Rotational constants in cm-1:             0.058424             0.040754             0.038481
Rotational constants in MHz :          1751.515268          1221.776588          1153.619878

                             ****ORCA TERMINATED NORMALLY****
TOTAL RUN TIME: 0 days 0 hours 0 minutes 11 seconds 438 msec
