                         Program Version 6.0.0  -   RELEASE  -
|  1> ! r2scan-3c def2/J RI DEFGRID2 scfconv6 printgap
|  2> %output
|  3>     printlevel normal
|  4> end
|  5> * xyz 0 1
|  6> C 4.0795622086 -0.3138855203 -2.2661867781
|  7> C 4.3550748485 -0.5669701595 -0.7972878743
|  8> O 3.144014184 -0.7066936604 -0.0389683842
|  9> P 2.1895940359 0.5395877984 0.2598241238
| 10> S 3.111956197 2.2393685415 0.5665420875
| 11> O 1.3089377836 -0.0086700275 1.4571342942
| 12> C 1.7104986775 0.1501278865 2.8349971676
| 13> C 2.9491329559 -0.6559300222 3.1626409435
| 14> S 0.7348691385 0.5113266882 -1.2787785995
| 15> C 0.2228196952 -1.2289073781 -1.1434503288
| 16> S -0.952359553 -1.5449949455 0.1945451854
| 17> P -2.4606676951 -0.2043205244 -0.4816488401
| 18> S -2.6848125876 -0.0644602736 -2.4189112155
| 19> O -2.1345863514 1.2175588655 0.1222924014
| 20> C -1.9481089794 1.4569856121 1.5382851027
| 21> C -1.0895892683 2.6950343337 1.6957082553
| 22> O -3.7166591869 -0.6211164445 0.4013623309
| 23> C -4.2299082879 -1.9598098704 0.547035405
| 24> C -4.5262812715 -2.624316179 -0.7806482622
| 25> H 3.458431285 -1.1027413112 -2.6829633538
| 26> H 3.5647501432 0.6391451557 -2.3885413519
| 27> H 5.0197232536 -0.2757002456 -2.807010941
| 28> H 4.9369480762 0.2571758137 -0.3721102558
| 29> H 4.8779347122 -1.5115340355 -0.6410106359
| 30> H 1.880458071 1.2146723649 3.0237463885
| 31> H 0.8436232907 -0.1969003974 3.3990218128
| 32> H 2.8087522227 -1.6946270573 2.8753417844
| 33> H 3.8071445926 -0.2523168127 2.6270172556
| 34> H 3.1419328683 -0.5982972517 4.2293490281
| 35> H 1.0894105286 -1.8578262116 -0.9558248802
| 36> H -0.2524223268 -1.4640555024 -2.0953201204
| 37> H -2.9353624887 1.5957603239 1.9827124093
| 38> H -1.4693747478 0.5788106166 1.9830894041
| 39> H -1.5568267279 3.5379622907 1.194685758
| 40> H -0.9730417606 2.9205509553 2.7508865501
| 41> H -0.1068233891 2.5385122876 1.2531916497
| 42> H -3.5008483503 -2.5421396365 1.1171454438
| 43> H -5.1382369298 -1.821443937 1.1360849671
| 44> H -4.9876413707 -3.5906866641 -0.6048535784
| 45> H -5.1967529898 -2.0063824144 -1.3731484702
| 46> H -3.6054727379 -2.7659876937 -1.3442835464
| 47> *
| 48>
| 49>                          ****END OF INPUT****

CARTESIAN COORDINATES (ANGSTROEM)
---------------------------------
  C      4.079562   -0.313886   -2.266187
  C      4.355075   -0.566970   -0.797288
  O      3.144014   -0.706694   -0.038968
  P      2.189594    0.539588    0.259824
  S      3.111956    2.239369    0.566542
  O      1.308938   -0.008670    1.457134
  C      1.710499    0.150128    2.834997
  C      2.949133   -0.655930    3.162641
  S      0.734869    0.511327   -1.278779
  C      0.222820   -1.228907   -1.143450
  S     -0.952360   -1.544995    0.194545
  P     -2.460668   -0.204321   -0.481649
  S     -2.684813   -0.064460   -2.418911
  O     -2.134586    1.217559    0.122292
  C     -1.948109    1.456986    1.538285
  C     -1.089589    2.695034    1.695708
  O     -3.716659   -0.621116    0.401362
  C     -4.229908   -1.959810    0.547035
  C     -4.526281   -2.624316   -0.780648
  H      3.458431   -1.102741   -2.682963
  H      3.564750    0.639145   -2.388541
  H      5.019723   -0.275700   -2.807011
  H      4.936948    0.257176   -0.372110
  H      4.877935   -1.511534   -0.641011
  H      1.880458    1.214672    3.023746
  H      0.843623   -0.196900    3.399022
  H      2.808752   -1.694627    2.875342
  H      3.807145   -0.252317    2.627017
  H      3.141933   -0.598297    4.229349
  H      1.089411   -1.857826   -0.955825
  H     -0.252422   -1.464056   -2.095320
  H     -2.935362    1.595760    1.982712
  H     -1.469375    0.578811    1.983089
  H     -1.556827    3.537962    1.194686
  H     -0.973042    2.920551    2.750887
  H     -0.106823    2.538512    1.253192
  H     -3.500848   -2.542140    1.117145
  H     -5.138237   -1.821444    1.136085
  H     -4.987641   -3.590687   -0.604854
  H     -5.196753   -2.006382   -1.373148
  H     -3.605473   -2.765988   -1.344284

 Total Charge           Charge          ....    0
 Multiplicity           Mult            ....    1
 Number of Electrons    NEL             ....  202
 Basis Dimension        Dim             ....  539

ORBITAL ENERGIES
----------------

  NO   OCC          E(Eh)            E(eV)
   0   2.0000     -88.575849     -2410.2714
   1   2.0000     -88.575452     -2410.2606
   2   2.0000     -88.525851     -2408.9109
   3   2.0000     -88.515629     -2408.6327
   4   2.0000     -76.916737     -2093.0108
   5   2.0000     -76.912412     -2092.8931
   6   2.0000     -18.995493      -516.8936
   7   2.0000     -18.994515      -516.8670
   8   2.0000     -18.993739      -516.8459
   9   2.0000     -18.984808      -516.6029
  10   2.0000     -10.110286      -275.1149
  11   2.0000     -10.105437      -274.9829
  12   2.0000     -10.104488      -274.9571
  13   2.0000     -10.101663      -274.8802
  14   2.0000     -10.095588      -274.7149
  15   2.0000     -10.034748      -273.0594
  16   2.0000     -10.031175      -272.9622
  17   2.0000     -10.028223      -272.8818
  18   2.0000     -10.024139      -272.7707
  19   2.0000      -7.870468      -214.1663
  20   2.0000      -7.869293      -214.1343
  21   2.0000      -7.820402      -212.8040
  22   2.0000      -7.810397      -212.5317
  23   2.0000      -6.595233      -179.4654
  24   2.0000      -6.590583      -179.3389
  25   2.0000      -5.817257      -158.2956
  26   2.0000      -5.816690      -158.2802
  27   2.0000      -5.814174      -158.2117
  28   2.0000      -5.812906      -158.1772
  29   2.0000      -5.807765      -158.0373
  30   2.0000      -5.806197      -157.9947
  31   2.0000      -5.768020      -156.9558
  32   2.0000      -5.760765      -156.7584
  33   2.0000      -5.760389      -156.7481
  34   2.0000      -5.758230      -156.6894
  35   2.0000      -5.750667      -156.4836
  36   2.0000      -5.750238      -156.4719
  37   2.0000      -4.740582      -128.9978
  38   2.0000      -4.740318      -128.9906
  39   2.0000      -4.738950      -128.9534
  40   2.0000      -4.736385      -128.8836
  41   2.0000      -4.735843      -128.8688
  42   2.0000      -4.733795      -128.8131
  43   2.0000      -1.054124       -28.6842
  44   2.0000      -1.048888       -28.5417
  45   2.0000      -1.015714       -27.6390
  46   2.0000      -1.006322       -27.3834
  47   2.0000      -0.802927       -21.8488
  48   2.0000      -0.760086       -20.6830
  49   2.0000      -0.750913       -20.4334
  50   2.0000      -0.735791       -20.0219
  51   2.0000      -0.732249       -19.9255
  52   2.0000      -0.713274       -19.4092
  53   2.0000      -0.689550       -18.7636
  54   2.0000      -0.670056       -18.2331
  55   2.0000      -0.633950       -17.2507
  56   2.0000      -0.620091       -16.8735
  57   2.0000      -0.610354       -16.6086
  58   2.0000      -0.601134       -16.3577
  59   2.0000      -0.597710       -16.2645
  60   2.0000      -0.530401       -14.4330
  61   2.0000      -0.522257       -14.2113
  62   2.0000      -0.497323       -13.5328
  63   2.0000      -0.492671       -13.4063
  64   2.0000      -0.482768       -13.1368
  65   2.0000      -0.465484       -12.6665
  66   2.0000      -0.462809       -12.5937
  67   2.0000      -0.451728       -12.2921
  68   2.0000      -0.447192       -12.1687
  69   2.0000      -0.436645       -11.8817
  70   2.0000      -0.431868       -11.7517
  71   2.0000      -0.418223       -11.3804
  72   2.0000      -0.416799       -11.3417
  73   2.0000      -0.408010       -11.1025
  74   2.0000      -0.399439       -10.8693
  75   2.0000      -0.387889       -10.5550
  76   2.0000      -0.379487       -10.3264
  77   2.0000      -0.375043       -10.2054
  78   2.0000      -0.367652       -10.0043
  79   2.0000      -0.365224        -9.9383
  80   2.0000      -0.362430        -9.8622
  81   2.0000      -0.361147        -9.8273
  82   2.0000      -0.356843        -9.7102
  83   2.0000      -0.351536        -9.5658
  84   2.0000      -0.345341        -9.3972
  85   2.0000      -0.338521        -9.2116
  86   2.0000      -0.328864        -8.9488
  87   2.0000      -0.312846        -8.5130
  88   2.0000      -0.312006        -8.4901
  89   2.0000      -0.309935        -8.4338
  90   2.0000      -0.307262        -8.3610
  91   2.0000      -0.293802        -7.9947
  92   2.0000      -0.287183        -7.8147
  93   2.0000      -0.282329        -7.6826
  94   2.0000      -0.271701        -7.3934
  95   2.0000      -0.244103        -6.6424
  96   2.0000      -0.231224        -6.2919
  97   2.0000      -0.224748        -6.1157
  98   2.0000      -0.221046        -6.0150
  99   2.0000      -0.213366        -5.8060
 100   2.0000      -0.210222        -5.7204
 101   0.0000      -0.044444        -1.2094
 102   0.0000      -0.024106        -0.6560
 103   0.0000      -0.012353        -0.3362
 104   0.0000       0.001355         0.0369
 105   0.0000       0.006429         0.1750

MULLIKEN ATOMIC CHARGES
-----------------------
   0 C :   -0.429929
   1 C :   -0.160308
   2 O :   -0.299922
   3 P :    0.644820
   4 S :   -0.460686
   5 O :   -0.253078
   6 C :   -0.163854
   7 C :   -0.444180
   8 S :   -0.096327
   9 C :   -0.263574
  10 S :   -0.174157
  11 P :    0.662447
  12 S :   -0.424823
  13 O :   -0.263293
  14 C :   -0.113382
  15 C :   -0.460548
  16 O :   -0.291982
  17 C :   -0.158107
  18 C :   -0.429340
  19 H :    0.148195
  20 H :    0.175886
  21 H :    0.148279
  22 H :    0.170870
  23 H :    0.148073
  24 H :    0.176860
  25 H :    0.152018
  26 H :    0.157433
  27 H :    0.168386
  28 H :    0.148311
  29 H :    0.201506
  30 H :    0.218169
  31 H :    0.152938
  32 H :    0.153589
  33 H :    0.156697
  34 H :    0.141062
  35 H :    0.182042
  36 H :    0.149882
  37 H :    0.149796
  38 H :    0.145852
  39 H :    0.166153
  40 H :    0.168227
Sum of atomic charges:   -0.0000000

LOEWDIN ATOMIC CHARGES
----------------------
   0 C :   -0.402120
   1 C :    0.016957
   2 O :   -0.686448
   3 P :    0.367060
   4 S :   -0.111996
   5 O :   -0.697368
   6 C :    0.019350
   7 C :   -0.397698
   8 S :    0.198216
   9 C :   -0.414871
  10 S :    0.143534
  11 P :    0.372859
  12 S :   -0.094395
  13 O :   -0.654896
  14 C :    0.021633
  15 C :   -0.388911
  16 O :   -0.662557
  17 C :    0.023188
  18 C :   -0.406510
  19 H :    0.157254
  20 H :    0.167529
  21 H :    0.159878
  22 H :    0.180269
  23 H :    0.178589
  24 H :    0.181024
  25 H :    0.179336
  26 H :    0.161692
  27 H :    0.165670
  28 H :    0.159892
  29 H :    0.189176
  30 H :    0.193349
  31 H :    0.172724
  32 H :    0.174843
  33 H :    0.163197
  34 H :    0.158245
  35 H :    0.170055
  36 H :    0.170566
  37 H :    0.181217
  38 H :    0.157893
  39 H :    0.166212
  40 H :    0.166364

  Mayer bond orders larger than 0.100000
B(  0-C ,  1-C ) :   0.9338 B(  0-C , 19-H ) :   0.9694 B(  0-C , 20-H ) :   0.9596
B(  0-C , 21-H ) :   0.9607 B(  1-C ,  2-O ) :   0.8096 B(  1-C , 22-H ) :   0.9609
B(  1-C , 23-H ) :   0.9592 B(  2-O ,  3-P ) :   1.0123 B(  3-P ,  4-S ) :   1.8073
B(  3-P ,  5-O ) :   1.1184 B(  3-P ,  8-S ) :   1.0869 B(  5-O ,  6-C ) :   0.7886
B(  6-C ,  7-C ) :   0.9250 B(  6-C , 24-H ) :   0.9590 B(  6-C , 25-H ) :   0.9599
B(  7-C , 26-H ) :   0.9732 B(  7-C , 27-H ) :   0.9615 B(  7-C , 28-H ) :   0.9603
B(  8-S ,  9-C ) :   0.9112 B(  9-C , 10-S ) :   0.9206 B(  9-C , 29-H ) :   0.9161
B(  9-C , 30-H ) :   0.9133 B( 10-S , 11-P ) :   0.9805 B( 11-P , 12-S ) :   1.8570
B( 11-P , 13-O ) :   1.1635 B( 11-P , 16-O ) :   1.0359 B( 13-O , 14-C ) :   0.7352
B( 14-C , 15-C ) :   0.9379 B( 14-C , 31-H ) :   0.9438 B( 14-C , 32-H ) :   0.9585
B( 15-C , 33-H ) :   0.9668 B( 15-C , 34-H ) :   0.9678 B( 15-C , 35-H ) :   0.9641
B( 16-O , 17-C ) :   0.8054 B( 17-C , 18-C ) :   0.9425 B( 17-C , 36-H ) :   0.9624
B( 17-C , 37-H ) :   0.9585 B( 18-C , 38-H ) :   0.9622 B( 18-C , 39-H ) :   0.9653
B( 18-C , 40-H ) :   0.9553

Dispersion correction           -0.022091019
FINAL SINGLE POINT ENERGY     -2932.459705626410

DIPOLE MOMENT
-------------

Method             : SCF
Type of density    : Electron Density
Multiplicity       :   1
Irrep              :   0
Energy             : -2932.4840316843669825 Eh
Relativity type    :
Basis              : AO
                                X                 Y                 Z
Electronic contribution:     -5.173395105       6.549779866     -10.294485689
Nuclear contribution   :      5.568922487      -8.213173127      11.858239854
                        -----------------------------------------
Total Dipole Moment    :      0.395527382      -1.663393261       1.563754165
                        -----------------------------------------
Magnitude (a.u.)       :      2.317033910
Magnitude (Debye)      :      5.889432158

Rotational constants in cm-1:             0.012940             0.004982             0.004611
Rotational constants in MHz :           387.932264           149.370098           138.226320

                             ****ORCA TERMINATED NORMALLY****
TOTAL RUN TIME: 0 days 0 hours 1 minutes 21 seconds 233 msec
