                         Program Version 6.0.0  -   RELEASE  -
|  1> ! r2scan-3c def2/J RI DEFGRID2 scfconv6 printgap
|  2> %output
|  3>     printlevel normal
|  4> end
|  5> %cpcm
|  6>     smd true
|  7>     smdsolvent "water"
|  8> end
|  9> * xyz 0 1
| 10> C 4.0795622086 -0.3138855203 -2.2661867781
| 11> C 4.3550748485 -0.5669701595 -0.7972878743
| 12> O 3.144014184 -0.7066936604 -0.0389683842
| 13> P 2.1895940359 0.5395877984 0.2598241238
| 14> S 3.111956197 2.2393685415 0.5665420875
| 15> O 1.3089377836 -0.0086700275 1.4571342942
| 16> C 1.7104986775 0.1501278865 2.8349971676
| 17> C 2.9491329559 -0.6559300222 3.1626409435
| 18> S 0.7348691385 0.5113266882 -1.2787785995
| 19> C 0.2228196952 -1.2289073781 -1.1434503288
| 20> S -0.952359553 -1.5449949455 0.1945451854
| 21> P -2.4606676951 -0.2043205244 -0.4816488401
| 22> S -2.6848125876 -0.0644602736 -2.4189112155
| 23> O -2.1345863514 1.2175588655 0.1222924014
| 24> C -1.9481089794 1.4569856121 1.5382851027
| 25> C -1.0895892683 2.6950343337 1.6957082553
| 26> O -3.7166591869 -0.6211164445 0.4013623309
| 27> C -4.2299082879 -1.9598098704 0.547035405
| 28> C -4.5262812715 -2.624316179 -0.7806482622
| 29> H 3.458431285 -1.1027413112 -2.6829633538
| 30> H 3.5647501432 0.6391451557 -2.3885413519
| 31> H 5.0197232536 -0.2757002456 -2.807010941
| 32> H 4.9369480762 0.2571758137 -0.3721102558
| 33> H 4.8779347122 -1.5115340355 -0.6410106359
| 34> H 1.880458071 1.2146723649 3.0237463885
| 35> H 0.8436232907 -0.1969003974 3.3990218128
| 36> H 2.8087522227 -1.6946270573 2.8753417844
| 37> H 3.8071445926 -0.2523168127 2.6270172556
| 38> H 3.1419328683 -0.5982972517 4.2293490281
| 39> H 1.0894105286 -1.8578262116 -0.9558248802
| 40> H -0.2524223268 -1.4640555024 -2.0953201204
| 41> H -2.9353624887 1.5957603239 1.9827124093
| 42> H -1.4693747478 0.5788106166 1.9830894041
| 43> H -1.5568267279 3.5379622907 1.194685758
| 44> H -0.9730417606 2.9205509553 2.7508865501
| 45> H -0.1068233891 2.5385122876 1.2531916497
| 46> H -3.5008483503 -2.5421396365 1.1171454438
| 47> H -5.1382369298 -1.821443937 1.1360849671
| 48> H -4.9876413707 -3.5906866641 -0.6048535784
| 49> H -5.1967529898 -2.0063824144 -1.3731484702
| 50> H -3.6054727379 -2.7659876937 -1.3442835464
| 51> *
| 52>
| 53>                          ****END OF INPUT****

CARTESIAN COORDINATES (ANGSTROEM)
---------------------------------
  C      4.079562   -0.313886   -2.266187
  C      4.355075   -0.566970   -0.797288
  O      3.144014   -0.706694   -0.038968
  P      2.189594    0.539588    0.259824
  S      3.111956    2.239369    0.566542
  O      1.308938   -0.008670    1.457134
  C      1.710499    0.150128    2.834997
  C      2.949133   -0.655930    3.162641
  S      0.734869    0.511327   -1.278779
  C      0.222820   -1.228907   -1.143450
  S     -0.952360   -1.544995    0.194545
  P     -2.460668   -0.204321   -0.481649
  S     -2.684813   -0.064460   -2.418911
  O     -2.134586    1.217559    0.122292
  C     -1.948109    1.456986    1.538285
  C     -1.089589    2.695034    1.695708
  O     -3.716659   -0.621116    0.401362
  C     -4.229908   -1.959810    0.547035
  C     -4.526281   -2.624316   -0.780648
  H      3.458431   -1.102741   -2.682963
  H      3.564750    0.639145   -2.388541
  H      5.019723   -0.275700   -2.807011
  H      4.936948    0.257176   -0.372110
  H      4.877935   -1.511534   -0.641011
  H      1.880458    1.214672    3.023746
  H      0.843623   -0.196900    3.399022
  H      2.808752   -1.694627    2.875342
  H      3.807145   -0.252317    2.627017
  H      3.141933   -0.598297    4.229349
  H      1.089411   -1.857826   -0.955825
  H     -0.252422   -1.464056   -2.095320
  H     -2.935362    1.595760    1.982712
  H     -1.469375    0.578811    1.983089
  H     -1.556827    3.537962    1.194686
  H     -0.973042    2.920551    2.750887
  H     -0.106823    2.538512    1.253192
  H     -3.500848   -2.542140    1.117145
  H     -5.138237   -1.821444    1.136085
  H     -4.987641   -3.590687   -0.604854
  H     -5.196753   -2.006382   -1.373148
  H     -3.605473   -2.765988   -1.344284

 Total Charge           Charge          ....    0
 Multiplicity           Mult            ....    1
 Number of Electrons    NEL             ....  202
 Basis Dimension        Dim             ....  539

ORBITAL ENERGIES
----------------

  NO   OCC          E(Eh)            E(eV)
   0   2.0000     -88.577928     -2410.3280
   1   2.0000     -88.577266     -2410.3099
   2   2.0000     -88.530666     -2409.0419
   3   2.0000     -88.527225     -2408.9483
   4   2.0000     -76.919447     -2093.0846
   5   2.0000     -76.918579     -2093.0609
   6   2.0000     -18.995454      -516.8926
   7   2.0000     -18.992622      -516.8155
   8   2.0000     -18.991599      -516.7877
   9   2.0000     -18.991344      -516.7807
  10   2.0000     -10.106272      -275.0056
  11   2.0000     -10.093021      -274.6451
  12   2.0000     -10.089992      -274.5626
  13   2.0000     -10.089824      -274.5581
  14   2.0000     -10.088493      -274.5219
  15   2.0000     -10.019068      -272.6327
  16   2.0000     -10.018780      -272.6249
  17   2.0000     -10.018584      -272.6195
  18   2.0000     -10.018055      -272.6051
  19   2.0000      -7.872010      -214.2083
  20   2.0000      -7.871720      -214.2004
  21   2.0000      -7.825594      -212.9452
  22   2.0000      -7.822407      -212.8585
  23   2.0000      -6.597695      -179.5324
  24   2.0000      -6.597057      -179.5150
  25   2.0000      -5.819338      -158.3522
  26   2.0000      -5.818555      -158.3309
  27   2.0000      -5.815581      -158.2500
  28   2.0000      -5.815460      -158.2467
  29   2.0000      -5.809012      -158.0713
  30   2.0000      -5.808968      -158.0701
  31   2.0000      -5.773124      -157.0947
  32   2.0000      -5.770098      -157.0123
  33   2.0000      -5.765972      -156.9001
  34   2.0000      -5.765583      -156.8895
  35   2.0000      -5.762667      -156.8101
  36   2.0000      -5.762322      -156.8008
  37   2.0000      -4.743451      -129.0759
  38   2.0000      -4.742885      -129.0605
  39   2.0000      -4.742305      -129.0447
  40   2.0000      -4.742120      -129.0397
  41   2.0000      -4.741050      -129.0105
  42   2.0000      -4.740943      -129.0076
  43   2.0000      -1.052607       -28.6429
  44   2.0000      -1.050623       -28.5889
  45   2.0000      -1.011475       -27.5236
  46   2.0000      -1.009899       -27.4808
  47   2.0000      -0.802318       -21.8322
  48   2.0000      -0.756001       -20.5718
  49   2.0000      -0.744478       -20.2583
  50   2.0000      -0.725272       -19.7357
  51   2.0000      -0.723010       -19.6741
  52   2.0000      -0.710530       -19.3345
  53   2.0000      -0.692690       -18.8491
  54   2.0000      -0.675273       -18.3751
  55   2.0000      -0.627548       -17.0765
  56   2.0000      -0.617179       -16.7943
  57   2.0000      -0.600065       -16.3286
  58   2.0000      -0.598398       -16.2832
  59   2.0000      -0.594787       -16.1850
  60   2.0000      -0.527226       -14.3465
  61   2.0000      -0.514436       -13.9985
  62   2.0000      -0.490260       -13.3407
  63   2.0000      -0.488339       -13.2884
  64   2.0000      -0.478794       -13.0287
  65   2.0000      -0.459787       -12.5115
  66   2.0000      -0.454797       -12.3757
  67   2.0000      -0.445932       -12.1344
  68   2.0000      -0.440714       -11.9924
  69   2.0000      -0.433058       -11.7841
  70   2.0000      -0.426743       -11.6123
  71   2.0000      -0.413816       -11.2605
  72   2.0000      -0.406164       -11.0523
  73   2.0000      -0.402759       -10.9596
  74   2.0000      -0.397529       -10.8173
  75   2.0000      -0.385334       -10.4855
  76   2.0000      -0.376827       -10.2540
  77   2.0000      -0.365117        -9.9353
  78   2.0000      -0.361626        -9.8403
  79   2.0000      -0.358671        -9.7599
  80   2.0000      -0.353939        -9.6312
  81   2.0000      -0.352962        -9.6046
  82   2.0000      -0.348904        -9.4942
  83   2.0000      -0.347543        -9.4571
  84   2.0000      -0.341554        -9.2942
  85   2.0000      -0.334275        -9.0961
  86   2.0000      -0.324112        -8.8195
  87   2.0000      -0.311148        -8.4668
  88   2.0000      -0.308051        -8.3825
  89   2.0000      -0.303248        -8.2518
  90   2.0000      -0.302783        -8.2391
  91   2.0000      -0.288220        -7.8429
  92   2.0000      -0.285379        -7.7656
  93   2.0000      -0.278980        -7.5914
  94   2.0000      -0.273089        -7.4311
  95   2.0000      -0.246903        -6.7186
  96   2.0000      -0.236023        -6.4225
  97   2.0000      -0.231343        -6.2952
  98   2.0000      -0.227795        -6.1986
  99   2.0000      -0.222609        -6.0575
 100   2.0000      -0.220774        -6.0076
 101   0.0000      -0.047359        -1.2887
 102   0.0000      -0.028000        -0.7619
 103   0.0000      -0.015986        -0.4350
 104   0.0000      -0.001556        -0.0423
 105   0.0000       0.006179         0.1681

MULLIKEN ATOMIC CHARGES
-----------------------
   0 C :   -0.470430
   1 C :   -0.155365
   2 O :   -0.313537
   3 P :    0.695946
   4 S :   -0.524392
   5 O :   -0.273948
   6 C :   -0.158668
   7 C :   -0.484864
   8 S :   -0.145552
   9 C :   -0.263038
  10 S :   -0.162422
  11 P :    0.674440
  12 S :   -0.490893
  13 O :   -0.295754
  14 C :   -0.107042
  15 C :   -0.504323
  16 O :   -0.315776
  17 C :   -0.158362
  18 C :   -0.467113
  19 H :    0.168539
  20 H :    0.166411
  21 H :    0.170933
  22 H :    0.174342
  23 H :    0.174870
  24 H :    0.180081
  25 H :    0.181677
  26 H :    0.170914
  27 H :    0.169093
  28 H :    0.172654
  29 H :    0.239980
  30 H :    0.235137
  31 H :    0.174477
  32 H :    0.173955
  33 H :    0.167752
  34 H :    0.172572
  35 H :    0.170294
  36 H :    0.172191
  37 H :    0.176913
  38 H :    0.173371
  39 H :    0.170135
  40 H :    0.164802
Sum of atomic charges:    0.0000000

LOEWDIN ATOMIC CHARGES
----------------------
   0 C :   -0.406705
   1 C :    0.023365
   2 O :   -0.687293
   3 P :    0.375416
   4 S :   -0.152648
   5 O :   -0.701507
   6 C :    0.026107
   7 C :   -0.401554
   8 S :    0.170800
   9 C :   -0.403913
  10 S :    0.159169
  11 P :    0.374784
  12 S :   -0.144686
  13 O :   -0.680844
  14 C :    0.028384
  15 C :   -0.394671
  16 O :   -0.672125
  17 C :    0.030591
  18 C :   -0.409938
  19 H :    0.162901
  20 H :    0.161347
  21 H :    0.167635
  22 H :    0.180982
  23 H :    0.190290
  24 H :    0.182381
  25 H :    0.191252
  26 H :    0.164819
  27 H :    0.163371
  28 H :    0.168822
  29 H :    0.203618
  30 H :    0.199161
  31 H :    0.182537
  32 H :    0.182988
  33 H :    0.164240
  34 H :    0.170535
  35 H :    0.163657
  36 H :    0.179331
  37 H :    0.192829
  38 H :    0.168451
  39 H :    0.164177
  40 H :    0.161944

  Mayer bond orders larger than 0.100000
B(  0-C ,  1-C ) :   0.9206 B(  0-C , 19-H ) :   0.9663 B(  0-C , 20-H ) :   0.9626
B(  0-C , 21-H ) :   0.9562 B(  1-C ,  2-O ) :   0.7973 B(  1-C , 22-H ) :   0.9610
B(  1-C , 23-H ) :   0.9494 B(  2-O ,  3-P ) :   1.0299 B(  3-P ,  4-S ) :   1.7543
B(  3-P ,  5-O ) :   1.1365 B(  3-P ,  8-S ) :   1.0872 B(  5-O ,  6-C ) :   0.7772
B(  6-C ,  7-C ) :   0.9093 B(  6-C , 24-H ) :   0.9564 B(  6-C , 25-H ) :   0.9506
B(  7-C , 26-H ) :   0.9712 B(  7-C , 27-H ) :   0.9607 B(  7-C , 28-H ) :   0.9549
B(  8-S ,  9-C ) :   0.9032 B(  9-C , 10-S ) :   0.9102 B(  9-C , 29-H ) :   0.9045
B(  9-C , 30-H ) :   0.9067 B( 10-S , 11-P ) :   1.0053 B( 11-P , 12-S ) :   1.8219
B( 11-P , 13-O ) :   1.1647 B( 11-P , 16-O ) :   1.0526 B( 13-O , 14-C ) :   0.7277
B( 14-C , 15-C ) :   0.9275 B( 14-C , 31-H ) :   0.9352 B( 14-C , 32-H ) :   0.9493
B( 15-C , 33-H ) :   0.9663 B( 15-C , 34-H ) :   0.9603 B( 15-C , 35-H ) :   0.9678
B( 16-O , 17-C ) :   0.7941 B( 17-C , 18-C ) :   0.9213 B( 17-C , 36-H ) :   0.9576
B( 17-C , 37-H ) :   0.9491 B( 18-C , 38-H ) :   0.9560 B( 18-C , 39-H ) :   0.9667
B( 18-C , 40-H ) :   0.9581

Dispersion correction           -0.022091019
FINAL SINGLE POINT ENERGY     -2932.471696175450

DIPOLE MOMENT
-------------

Method             : SCF
Type of density    : Electron Density
Multiplicity       :   1
Irrep              :   0
Energy             : -2932.4960222334070750 Eh
Relativity type    :
Basis              : AO
                                X                 Y                 Z
Electronic contribution:     -5.011890644       5.609832624      -9.507606096
Nuclear contribution   :      5.568922487      -8.213173127      11.858239854
                        -----------------------------------------
Total Dipole Moment    :      0.557031843      -2.603340503       2.350633758
                        -----------------------------------------
Magnitude (a.u.)       :      3.551499023
Magnitude (Debye)      :      9.027193114

Rotational constants in cm-1:             0.012940             0.004982             0.004611
Rotational constants in MHz :           387.932264           149.370098           138.226320

                             ****ORCA TERMINATED NORMALLY****
TOTAL RUN TIME: 0 days 0 hours 1 minutes 51 seconds 303 msec
