                         Program Version 6.0.1  -  RELEASE   -
|  1> ! pbe def2-sv(p) def2/J RI DEFGRID1 loosescf d4 GCP(DFT/SV(P)) printgap
|  2> %output
|  3>     printlevel normal
|  4> end
|  5> * xyz 0 1
|  6> C 4.8297522996 0.2810699185 -1.9148146863
|  7> C 4.6005267069 -0.9985117957 -1.1281397484
|  8> O 3.1918227427 -1.3029168557 -1.1098946711
|  9> C 2.5455771436 -1.306979587 0.0381020383
| 10> O 3.0540397014 -1.1398120819 1.1228088918
| 11> C 1.0639288993 -1.5711999517 -0.1738459741
| 12> C 0.4525877416 -0.4833715914 -1.0614030119
| 13> H 0.9711263271 -0.4563036212 -2.0231481739
| 14> C 0.5411506673 0.8705421989 -0.3891970919
| 15> O -0.4461646179 1.5001697226 -0.062836643
| 16> O 1.77381026 1.2554699465 -0.210240445
| 17> C 2.0114396607 2.4364266625 0.5900843255
| 18> C 1.9881388993 2.080389796 2.0669277748
| 19> S -1.2911315578 -0.8099067129 -1.448747859
| 20> P -2.288485028 -0.1751686019 0.3377397301
| 21> S -1.4469467936 -0.1870474626 2.1097280886
| 22> O -3.2168653786 1.0696260049 -0.0439662595
| 23> C -2.9954914258 2.4501520068 0.2371816536
| 24> O -3.4149534671 -1.3041543519 0.389420315
| 25> C -4.3280479766 -1.5709175663 -0.6873088731
| 26> H 5.8897622199 0.5120557561 -1.922991043
| 27> H 4.4817092989 0.1595802362 -2.9362813932
| 28> H 4.2874898724 1.1024431636 -1.454062282
| 29> H 4.9492503701 -0.9039348178 -0.0962950579
| 30> H 5.0867126818 -1.8499025106 -1.6084112086
| 31> H 0.5726800177 -1.5992630396 0.8015086664
| 32> H 0.9437781276 -2.534518133 -0.6709741306
| 33> H 2.9970780947 2.7814765551 0.2784890468
| 34> H 1.248458771 3.1811726096 0.3505169065
| 35> H 0.9958479419 1.7419520077 2.3618416656
| 36> H 2.6929099595 1.2765761683 2.2675791277
| 37> H 2.2545767224 2.951842142 2.6549337075
| 38> H -2.4411020206 2.5633603389 1.1686217155
| 39> H -3.9859949158 2.8915699047 0.3264845783
| 40> H -2.4390877655 2.9063624437 -0.5793013615
| 41> H -4.9616385303 -0.7032648415 -0.8614473094
| 42> H -4.9190417212 -2.4201943112 -0.3539740721
| 43> H -3.7750675342 -1.8196376011 -1.5934492095
| 44> *
| 45>
| 46>                          ****END OF INPUT****

CARTESIAN COORDINATES (ANGSTROEM)
---------------------------------
  C      4.829752    0.281070   -1.914815
  C      4.600527   -0.998512   -1.128140
  O      3.191823   -1.302917   -1.109895
  C      2.545577   -1.306980    0.038102
  O      3.054040   -1.139812    1.122809
  C      1.063929   -1.571200   -0.173846
  C      0.452588   -0.483372   -1.061403
  H      0.971126   -0.456304   -2.023148
  C      0.541151    0.870542   -0.389197
  O     -0.446165    1.500170   -0.062837
  O      1.773810    1.255470   -0.210240
  C      2.011440    2.436427    0.590084
  C      1.988139    2.080390    2.066928
  S     -1.291132   -0.809907   -1.448748
  P     -2.288485   -0.175169    0.337740
  S     -1.446947   -0.187047    2.109728
  O     -3.216865    1.069626   -0.043966
  C     -2.995491    2.450152    0.237182
  O     -3.414953   -1.304154    0.389420
  C     -4.328048   -1.570918   -0.687309
  H      5.889762    0.512056   -1.922991
  H      4.481709    0.159580   -2.936281
  H      4.287490    1.102443   -1.454062
  H      4.949250   -0.903935   -0.096295
  H      5.086713   -1.849903   -1.608411
  H      0.572680   -1.599263    0.801509
  H      0.943778   -2.534518   -0.670974
  H      2.997078    2.781477    0.278489
  H      1.248459    3.181173    0.350517
  H      0.995848    1.741952    2.361842
  H      2.692910    1.276576    2.267579
  H      2.254577    2.951842    2.654934
  H     -2.441102    2.563360    1.168622
  H     -3.985995    2.891570    0.326485
  H     -2.439088    2.906362   -0.579301
  H     -4.961639   -0.703265   -0.861447
  H     -4.919042   -2.420194   -0.353974
  H     -3.775068   -1.819638   -1.593449

 Total Charge           Charge          ....    0
 Multiplicity           Mult            ....    1
 Number of Electrons    NEL             ....  174
 Basis Dimension        Dim             ....  316

ORBITAL ENERGIES
----------------

  NO   OCC          E(Eh)            E(eV)
   0   2.0000     -88.034519     -2395.5410
   1   2.0000     -87.970724     -2393.8051
   2   2.0000     -76.420275     -2079.5014
   3   2.0000     -18.828656      -512.3538
   4   2.0000     -18.805854      -511.7333
   5   2.0000     -18.782335      -511.0933
   6   2.0000     -18.773210      -510.8450
   7   2.0000     -18.764129      -510.5979
   8   2.0000     -18.739762      -509.9349
   9   2.0000     -10.033325      -273.0207
  10   2.0000     -10.012233      -272.4467
  11   2.0000      -9.959159      -271.0025
  12   2.0000      -9.955705      -270.9085
  13   2.0000      -9.951431      -270.7922
  14   2.0000      -9.938927      -270.4520
  15   2.0000      -9.935252      -270.3519
  16   2.0000      -9.907340      -269.5924
  17   2.0000      -9.894756      -269.2500
  18   2.0000      -9.881002      -268.8757
  19   2.0000      -7.679658      -208.9741
  20   2.0000      -7.615893      -207.2390
  21   2.0000      -6.415758      -174.5816
  22   2.0000      -5.707728      -155.3152
  23   2.0000      -5.704262      -155.2209
  24   2.0000      -5.696282      -155.0037
  25   2.0000      -5.645302      -153.6165
  26   2.0000      -5.636712      -153.3827
  27   2.0000      -5.635300      -153.3443
  28   2.0000      -4.638697      -126.2254
  29   2.0000      -4.637663      -126.1972
  30   2.0000      -4.636258      -126.1590
  31   2.0000      -1.038267       -28.2527
  32   2.0000      -1.012945       -27.5636
  33   2.0000      -0.972018       -26.4500
  34   2.0000      -0.943729       -25.6802
  35   2.0000      -0.926436       -25.2096
  36   2.0000      -0.917367       -24.9628
  37   2.0000      -0.770160       -20.9571
  38   2.0000      -0.715222       -19.4622
  39   2.0000      -0.712288       -19.3823
  40   2.0000      -0.688814       -18.7436
  41   2.0000      -0.657694       -17.8968
  42   2.0000      -0.629742       -17.1362
  43   2.0000      -0.623788       -16.9741
  44   2.0000      -0.607860       -16.5407
  45   2.0000      -0.594413       -16.1748
  46   2.0000      -0.570904       -15.5351
  47   2.0000      -0.513036       -13.9604
  48   2.0000      -0.508138       -13.8271
  49   2.0000      -0.506744       -13.7892
  50   2.0000      -0.489418       -13.3178
  51   2.0000      -0.469863       -12.7856
  52   2.0000      -0.464248       -12.6328
  53   2.0000      -0.453580       -12.3425
  54   2.0000      -0.446316       -12.1449
  55   2.0000      -0.435472       -11.8498
  56   2.0000      -0.422327       -11.4921
  57   2.0000      -0.421741       -11.4762
  58   2.0000      -0.412868       -11.2347
  59   2.0000      -0.407113       -11.0781
  60   2.0000      -0.402807       -10.9609
  61   2.0000      -0.396842       -10.7986
  62   2.0000      -0.389857       -10.6085
  63   2.0000      -0.381559       -10.3828
  64   2.0000      -0.378346       -10.2953
  65   2.0000      -0.368204       -10.0193
  66   2.0000      -0.363280        -9.8853
  67   2.0000      -0.356887        -9.7114
  68   2.0000      -0.346712        -9.4345
  69   2.0000      -0.343318        -9.3421
  70   2.0000      -0.339065        -9.2264
  71   2.0000      -0.334930        -9.1139
  72   2.0000      -0.323343        -8.7986
  73   2.0000      -0.311892        -8.4870
  74   2.0000      -0.304292        -8.2802
  75   2.0000      -0.298332        -8.1180
  76   2.0000      -0.292793        -7.9673
  77   2.0000      -0.288197        -7.8423
  78   2.0000      -0.282913        -7.6984
  79   2.0000      -0.261963        -7.1284
  80   2.0000      -0.260991        -7.1019
  81   2.0000      -0.252192        -6.8625
  82   2.0000      -0.248352        -6.7580
  83   2.0000      -0.228185        -6.2092
  84   2.0000      -0.209819        -5.7095
  85   2.0000      -0.191028        -5.1981
  86   2.0000      -0.182208        -4.9581
  87   0.0000      -0.049740        -1.3535
  88   0.0000      -0.041424        -1.1272
  89   0.0000      -0.023885        -0.6499
  90   0.0000       0.002798         0.0761
  91   0.0000       0.025477         0.6933

MULLIKEN ATOMIC CHARGES
-----------------------
   0 C :   -0.301243
   1 C :   -0.023602
   2 O :   -0.244236
   3 C :    0.102980
   4 O :   -0.187412
   5 C :   -0.041422
   6 C :   -0.319552
   7 H :    0.155717
   8 C :    0.224554
   9 O :   -0.192183
  10 O :   -0.217491
  11 C :   -0.018415
  12 C :   -0.328204
  13 S :   -0.110642
  14 P :    0.635849
  15 S :   -0.315939
  16 O :   -0.399430
  17 C :   -0.078286
  18 O :   -0.371323
  19 C :   -0.112633
  20 H :    0.113682
  21 H :    0.113949
  22 H :    0.120691
  23 H :    0.117169
  24 H :    0.107265
  25 H :    0.125352
  26 H :    0.121216
  27 H :    0.109841
  28 H :    0.110446
  29 H :    0.144253
  30 H :    0.139206
  31 H :    0.110137
  32 H :    0.116039
  33 H :    0.115955
  34 H :    0.111068
  35 H :    0.118295
  36 H :    0.128332
  37 H :    0.120014
Sum of atomic charges:   -0.0000000

LOEWDIN ATOMIC CHARGES
----------------------
   0 C :   -0.353915
   1 C :   -0.111531
   2 O :   -0.064550
   3 C :    0.023565
   4 O :   -0.157992
   5 C :   -0.247970
   6 C :   -0.265910
   7 H :    0.149276
   8 C :    0.031352
   9 O :   -0.149402
  10 O :   -0.027315
  11 C :   -0.104777
  12 C :   -0.363777
  13 S :    0.089203
  14 P :    0.586941
  15 S :   -0.316514
  16 O :   -0.254837
  17 C :   -0.206446
  18 O :   -0.255829
  19 C :   -0.214515
  20 H :    0.130640
  21 H :    0.124943
  22 H :    0.125213
  23 H :    0.121848
  24 H :    0.118712
  25 H :    0.136471
  26 H :    0.144012
  27 H :    0.117523
  28 H :    0.120321
  29 H :    0.131660
  30 H :    0.134722
  31 H :    0.129809
  32 H :    0.111626
  33 H :    0.115768
  34 H :    0.110871
  35 H :    0.112630
  36 H :    0.124390
  37 H :    0.103786

  Mayer bond orders larger than 0.100000
B(  0-C ,  1-C ) :   1.1713 B(  0-C , 20-H ) :   0.9437 B(  0-C , 21-H ) :   0.9493
B(  0-C , 22-H ) :   0.9429 B(  1-C ,  2-O ) :   0.9104 B(  1-C , 23-H ) :   0.9051
B(  1-C , 24-H ) :   0.9365 B(  2-O ,  3-C ) :   1.1931 B(  3-C ,  4-O ) :   2.0571
B(  3-C ,  5-C ) :   1.0085 B(  5-C ,  6-C ) :   1.0255 B(  5-C , 25-H ) :   0.8762
B(  5-C , 26-H ) :   0.8866 B(  6-C ,  7-H ) :   0.8669 B(  6-C ,  8-C ) :   0.9044
B(  6-C , 13-S ) :   1.0487 B(  8-C ,  9-O ) :   1.9298 B(  8-C , 10-O ) :   1.2679
B(  9-O , 14-P ) :   0.1164 B( 10-O , 11-C ) :   0.8878 B( 11-C , 12-C ) :   1.1788
B( 11-C , 27-H ) :   0.9303 B( 11-C , 28-H ) :   0.9171 B( 12-C , 29-H ) :   0.9296
B( 12-C , 30-H ) :   0.9363 B( 12-C , 31-H ) :   0.9394 B( 13-S , 14-P ) :   0.9144
B( 13-S , 15-S ) :   0.1104 B( 14-P , 15-S ) :   1.5805 B( 14-P , 16-O ) :   1.0846
B( 14-P , 18-O ) :   1.0988 B( 16-O , 17-C ) :   0.9301 B( 17-C , 32-H ) :   0.9415
B( 17-C , 33-H ) :   0.9538 B( 17-C , 34-H ) :   0.9535 B( 18-O , 19-C ) :   0.9352
B( 19-C , 35-H ) :   0.9458 B( 19-C , 36-H ) :   0.9606 B( 19-C , 37-H ) :   0.9366

Dispersion correction           -0.053235133
FINAL SINGLE POINT ENERGY     -1979.008173153173

DIPOLE MOMENT
-------------

Method             : SCF
Type of density    : Electron Density
Multiplicity       :   1
Irrep              :   0
Energy             : -1979.1404243581691844 Eh
Relativity type    :
Basis              : AO
                                X                 Y                 Z
Electronic contribution:    -15.255999846      -8.434601929       2.278431742
Nuclear contribution   :     16.069312716       9.363138875      -3.969468144
                        -----------------------------------------
Total Dipole Moment    :      0.813312870       0.928536946      -1.691036402
                        -----------------------------------------
Magnitude (a.u.)       :      2.093624321
Magnitude (Debye)      :      5.321570112

Rotational constants in cm-1:             0.017270             0.006336             0.005687
Rotational constants in MHz :           517.739992           189.952083           170.478563

                             ****ORCA TERMINATED NORMALLY****
TOTAL RUN TIME: 0 days 0 hours 0 minutes 44 seconds 649 msec
