                         Program Version 6.0.0  -   RELEASE  -
|  1> ! pbe def2-sv(p) def2/J RI DEFGRID1 loosescf d4 GCP(DFT/SV(P)) printgap
|  2> %output
|  3>     printlevel normal
|  4> end
|  5> * xyz 0 1
|  6> C 3.1680682274 -2.4432850961 -2.2347022423
|  7> C 4.2804764813 -1.9502751622 -1.3341306343
|  8> O 4.0711225556 -0.5866181584 -0.8914940819
|  9> P 2.9125010286 -0.0854867089 0.0458701072
| 10> S 3.384019783 1.6627703212 0.7934927262
| 11> O 2.7647338004 -1.3162977406 1.0461546714
| 12> C 1.6635521416 -1.5161948861 1.9478639681
| 13> C 1.6423537336 -0.5071747592 3.0777326195
| 14> S 1.1079987553 -0.0936921774 -1.1197086411
| 15> C 0.352976065 1.4237463189 -0.4932987027
| 16> S -0.8456744921 1.1199339458 0.8235495668
| 17> P -2.4039087238 0.4016003358 -0.4519289324
| 18> S -2.5560660163 1.324449321 -2.1696074732
| 19> O -3.6767281696 0.4677811663 0.4938277787
| 20> C -4.2644882413 1.7331156969 0.8618732102
| 21> C -5.6302170477 1.4535102182 1.4552248208
| 22> O -2.1688661937 -1.1428745358 -0.6279050243
| 23> C -2.1310503352 -2.0763610103 0.4825386977
| 24> C -3.4739456332 -2.7554408283 0.654384677
| 25> H 3.031083882 -1.7670077846 -3.0748645008
| 26> H 3.4240716206 -3.4298325182 -2.6085115797
| 27> H 2.2306960421 -2.5054024923 -1.6845457303
| 28> H 5.2312564028 -1.8940621609 -1.8662615721
| 29> H 4.3839318461 -2.5841753488 -0.4519057684
| 30> H 0.7325074271 -1.4734172636 1.3743601819
| 31> H 1.8193561747 -2.5291836707 2.3231631893
| 32> H 2.6051844153 -0.4861051167 3.5815388355
| 33> H 1.4297924294 0.4902047912 2.6963700447
| 34> H 0.8695438282 -0.7808556509 3.788583072
| 35> H -0.1611320619 1.9009289308 -1.328618834
| 36> H 1.1357334339 2.0670062108 -0.0836365808
| 37> H -3.6045375638 2.2185034796 1.5859656913
| 38> H -4.3346996229 2.3582479773 -0.0342468386
| 39> H -5.5332133554 0.8133485408 2.3271515849
| 40> H -6.0887731783 2.3919685921 1.7487728513
| 41> H -6.2624416551 0.9607814949 0.7218936208
| 42> H -1.3559042356 -2.7939336476 0.2070410546
| 43> H -1.8427576245 -1.5371962959 1.389410714
| 44> H -3.3999153512 -3.492803776 1.4475465296
| 45> H -4.2347678232 -2.0239758903 0.9125718936
| 46> H -3.7622032666 -3.2488692283 -0.2696081664
| 47> *
| 48>
| 49>                          ****END OF INPUT****

CARTESIAN COORDINATES (ANGSTROEM)
---------------------------------
  C      3.168068   -2.443285   -2.234702
  C      4.280476   -1.950275   -1.334131
  O      4.071123   -0.586618   -0.891494
  P      2.912501   -0.085487    0.045870
  S      3.384020    1.662770    0.793493
  O      2.764734   -1.316298    1.046155
  C      1.663552   -1.516195    1.947864
  C      1.642354   -0.507175    3.077733
  S      1.107999   -0.093692   -1.119709
  C      0.352976    1.423746   -0.493299
  S     -0.845674    1.119934    0.823550
  P     -2.403909    0.401600   -0.451929
  S     -2.556066    1.324449   -2.169607
  O     -3.676728    0.467781    0.493828
  C     -4.264488    1.733116    0.861873
  C     -5.630217    1.453510    1.455225
  O     -2.168866   -1.142875   -0.627905
  C     -2.131050   -2.076361    0.482539
  C     -3.473946   -2.755441    0.654385
  H      3.031084   -1.767008   -3.074865
  H      3.424072   -3.429833   -2.608512
  H      2.230696   -2.505402   -1.684546
  H      5.231256   -1.894062   -1.866262
  H      4.383932   -2.584175   -0.451906
  H      0.732507   -1.473417    1.374360
  H      1.819356   -2.529184    2.323163
  H      2.605184   -0.486105    3.581539
  H      1.429792    0.490205    2.696370
  H      0.869544   -0.780856    3.788583
  H     -0.161132    1.900929   -1.328619
  H      1.135733    2.067006   -0.083637
  H     -3.604538    2.218503    1.585966
  H     -4.334700    2.358248   -0.034247
  H     -5.533213    0.813349    2.327152
  H     -6.088773    2.391969    1.748773
  H     -6.262442    0.960781    0.721894
  H     -1.355904   -2.793934    0.207041
  H     -1.842758   -1.537196    1.389411
  H     -3.399915   -3.492804    1.447547
  H     -4.234768   -2.023976    0.912572
  H     -3.762203   -3.248869   -0.269608

 Total Charge           Charge          ....    0
 Multiplicity           Mult            ....    1
 Number of Electrons    NEL             ....  202
 Basis Dimension        Dim             ....  334

ORBITAL ENERGIES
----------------

  NO   OCC          E(Eh)            E(eV)
   0   2.0000     -88.044829     -2395.8216
   1   2.0000     -88.042371     -2395.7547
   2   2.0000     -87.988041     -2394.2763
   3   2.0000     -87.984710     -2394.1857
   4   2.0000     -76.429456     -2079.7512
   5   2.0000     -76.427798     -2079.7061
   6   2.0000     -18.801657      -511.6191
   7   2.0000     -18.798280      -511.5272
   8   2.0000     -18.796026      -511.4659
   9   2.0000     -18.793580      -511.3993
  10   2.0000      -9.964200      -271.1397
  11   2.0000      -9.959716      -271.0176
  12   2.0000      -9.959574      -271.0138
  13   2.0000      -9.958325      -270.9798
  14   2.0000      -9.947131      -270.6752
  15   2.0000      -9.894798      -269.2511
  16   2.0000      -9.893202      -269.2077
  17   2.0000      -9.892944      -269.2007
  18   2.0000      -9.882846      -268.9259
  19   2.0000      -7.689546      -209.2432
  20   2.0000      -7.686688      -209.1654
  21   2.0000      -7.633311      -207.7129
  22   2.0000      -7.629944      -207.6213
  23   2.0000      -6.427333      -174.8966
  24   2.0000      -6.425086      -174.8355
  25   2.0000      -5.717107      -155.5704
  26   2.0000      -5.714536      -155.5004
  27   2.0000      -5.714117      -155.4890
  28   2.0000      -5.711165      -155.4087
  29   2.0000      -5.706872      -155.2919
  30   2.0000      -5.703899      -155.2110
  31   2.0000      -5.662348      -154.0803
  32   2.0000      -5.658976      -153.9886
  33   2.0000      -5.653794      -153.8476
  34   2.0000      -5.653450      -153.8382
  35   2.0000      -5.650451      -153.7566
  36   2.0000      -5.650043      -153.7455
  37   2.0000      -4.650273      -126.5404
  38   2.0000      -4.649081      -126.5079
  39   2.0000      -4.648019      -126.4790
  40   2.0000      -4.647381      -126.4617
  41   2.0000      -4.646836      -126.4468
  42   2.0000      -4.645259      -126.4039
  43   2.0000      -0.996216       -27.1084
  44   2.0000      -0.991022       -26.9671
  45   2.0000      -0.953245       -25.9391
  46   2.0000      -0.946550       -25.7569
  47   2.0000      -0.762686       -20.7538
  48   2.0000      -0.726412       -19.7667
  49   2.0000      -0.716989       -19.5103
  50   2.0000      -0.699781       -19.0420
  51   2.0000      -0.693748       -18.8779
  52   2.0000      -0.678474       -18.4622
  53   2.0000      -0.651463       -17.7272
  54   2.0000      -0.638586       -17.3768
  55   2.0000      -0.595747       -16.2111
  56   2.0000      -0.593100       -16.1391
  57   2.0000      -0.583905       -15.8889
  58   2.0000      -0.576725       -15.6935
  59   2.0000      -0.564125       -15.3506
  60   2.0000      -0.514597       -14.0029
  61   2.0000      -0.500607       -13.6222
  62   2.0000      -0.489998       -13.3335
  63   2.0000      -0.476545       -12.9674
  64   2.0000      -0.457976       -12.4622
  65   2.0000      -0.452344       -12.3089
  66   2.0000      -0.448564       -12.2060
  67   2.0000      -0.441801       -12.0220
  68   2.0000      -0.430567       -11.7163
  69   2.0000      -0.427291       -11.6272
  70   2.0000      -0.410133       -11.1603
  71   2.0000      -0.407371       -11.0851
  72   2.0000      -0.397551       -10.8179
  73   2.0000      -0.390416       -10.6238
  74   2.0000      -0.384196       -10.4545
  75   2.0000      -0.372307       -10.1310
  76   2.0000      -0.365768        -9.9531
  77   2.0000      -0.361436        -9.8352
  78   2.0000      -0.358665        -9.7598
  79   2.0000      -0.356925        -9.7124
  80   2.0000      -0.355161        -9.6644
  81   2.0000      -0.351004        -9.5513
  82   2.0000      -0.346496        -9.4286
  83   2.0000      -0.343572        -9.3491
  84   2.0000      -0.338178        -9.2023
  85   2.0000      -0.325761        -8.8644
  86   2.0000      -0.313078        -8.5193
  87   2.0000      -0.307159        -8.3582
  88   2.0000      -0.301236        -8.1971
  89   2.0000      -0.300369        -8.1735
  90   2.0000      -0.293826        -7.9954
  91   2.0000      -0.280995        -7.6463
  92   2.0000      -0.278791        -7.5863
  93   2.0000      -0.267132        -7.2690
  94   2.0000      -0.258362        -7.0304
  95   2.0000      -0.239422        -6.5150
  96   2.0000      -0.221189        -6.0188
  97   2.0000      -0.211293        -5.7496
  98   2.0000      -0.202899        -5.5212
  99   2.0000      -0.201743        -5.4897
 100   2.0000      -0.197839        -5.3835
 101   0.0000      -0.045198        -1.2299
 102   0.0000      -0.029915        -0.8140
 103   0.0000      -0.008419        -0.2291
 104   0.0000       0.000138         0.0038
 105   0.0000       0.008048         0.2190

MULLIKEN ATOMIC CHARGES
-----------------------
   0 C :   -0.331080
   1 C :    0.003054
   2 O :   -0.357580
   3 P :    0.613910
   4 S :   -0.304842
   5 O :   -0.381340
   6 C :   -0.040011
   7 C :   -0.298625
   8 S :   -0.112781
   9 C :   -0.356877
  10 S :   -0.116778
  11 P :    0.597958
  12 S :   -0.305069
  13 O :   -0.386177
  14 C :   -0.013635
  15 C :   -0.283279
  16 O :   -0.348222
  17 C :   -0.036612
  18 C :   -0.274265
  19 H :    0.133551
  20 H :    0.118020
  21 H :    0.127764
  22 H :    0.113546
  23 H :    0.111313
  24 H :    0.128259
  25 H :    0.101791
  26 H :    0.120356
  27 H :    0.127870
  28 H :    0.104465
  29 H :    0.198279
  30 H :    0.194307
  31 H :    0.107442
  32 H :    0.110150
  33 H :    0.115579
  34 H :    0.116288
  35 H :    0.123514
  36 H :    0.117017
  37 H :    0.108326
  38 H :    0.108956
  39 H :    0.123778
  40 H :    0.121682
Sum of atomic charges:   -0.0000000

LOEWDIN ATOMIC CHARGES
----------------------
   0 C :   -0.369866
   1 C :   -0.109079
   2 O :   -0.233236
   3 P :    0.570247
   4 S :   -0.295413
   5 O :   -0.246689
   6 C :   -0.122704
   7 C :   -0.366586
   8 S :    0.076284
   9 C :   -0.494916
  10 S :    0.065513
  11 P :    0.565471
  12 S :   -0.302785
  13 O :   -0.249216
  14 C :   -0.119371
  15 C :   -0.350540
  16 O :   -0.231379
  17 C :   -0.115916
  18 C :   -0.358225
  19 H :    0.132056
  20 H :    0.133890
  21 H :    0.116238
  22 H :    0.124265
  23 H :    0.114862
  24 H :    0.101138
  25 H :    0.117340
  26 H :    0.128997
  27 H :    0.116097
  28 H :    0.127459
  29 H :    0.128633
  30 H :    0.125438
  31 H :    0.110064
  32 H :    0.112423
  33 H :    0.125607
  34 H :    0.133084
  35 H :    0.129912
  36 H :    0.120541
  37 H :    0.103378
  38 H :    0.129536
  39 H :    0.127060
  40 H :    0.130389

  Mayer bond orders larger than 0.100000
B(  0-C ,  1-C ) :   1.1687 B(  0-C , 19-H ) :   0.9430 B(  0-C , 20-H ) :   0.9357
B(  0-C , 21-H ) :   0.9324 B(  1-C ,  2-O ) :   0.8991 B(  1-C , 22-H ) :   0.9333
B(  1-C , 23-H ) :   0.9265 B(  2-O ,  3-P ) :   1.1491 B(  3-P ,  4-S ) :   1.6471
B(  3-P ,  5-O ) :   1.0660 B(  3-P ,  8-S ) :   0.9353 B(  4-S ,  8-S ) :   0.1175
B(  4-S , 30-H ) :   0.1223 B(  5-O ,  6-C ) :   0.9167 B(  6-C ,  7-C ) :   1.1659
B(  6-C , 24-H ) :   0.9011 B(  6-C , 25-H ) :   0.9339 B(  7-C , 26-H ) :   0.9440
B(  7-C , 27-H ) :   0.9282 B(  7-C , 28-H ) :   0.9372 B(  8-S ,  9-C ) :   1.0090
B(  9-C , 10-S ) :   1.0026 B(  9-C , 29-H ) :   0.8625 B(  9-C , 30-H ) :   0.8467
B( 10-S , 11-P ) :   0.9468 B( 10-S , 12-S ) :   0.1104 B( 11-P , 12-S ) :   1.6587
B( 11-P , 13-O ) :   1.0776 B( 11-P , 16-O ) :   1.1462 B( 13-O , 14-C ) :   0.9016
B( 14-C , 15-C ) :   1.1597 B( 14-C , 31-H ) :   0.9273 B( 14-C , 32-H ) :   0.9120
B( 15-C , 33-H ) :   0.9507 B( 15-C , 34-H ) :   0.9414 B( 15-C , 35-H ) :   0.9506
B( 16-O , 17-C ) :   0.8936 B( 17-C , 18-C ) :   1.1572 B( 17-C , 36-H ) :   0.9310
B( 17-C , 37-H ) :   0.9067 B( 18-C , 38-H ) :   0.9397 B( 18-C , 39-H ) :   0.9403
B( 18-C , 40-H ) :   0.9454

Dispersion correction           -0.063205722
FINAL SINGLE POINT ENERGY     -2929.517896907587

DIPOLE MOMENT
-------------

Method             : SCF
Type of density    : Electron Density
Multiplicity       :   1
Irrep              :   0
Energy             : -2929.6398013007951704 Eh
Relativity type    :
Basis              : AO
                                X                 Y                 Z
Electronic contribution:     12.427855295      14.905634357     -11.195198148
Nuclear contribution   :    -13.312258461     -16.710178009      12.328345683
                        -----------------------------------------
Total Dipole Moment    :     -0.884403167      -1.804543652       1.133147536
                        -----------------------------------------
Magnitude (a.u.)       :      2.307069589
Magnitude (Debye)      :      5.864104868

Rotational constants in cm-1:             0.012777             0.004282             0.004227
Rotational constants in MHz :           383.036721           128.379584           126.727925

                             ****ORCA TERMINATED NORMALLY****
TOTAL RUN TIME: 0 days 0 hours 0 minutes 21 seconds 82 msec
