                         Program Version 6.0.0  -   RELEASE  -
|  1> ! pbe def2-sv(p) def2/J RI DEFGRID1 loosescf d4 GCP(DFT/SV(P)) printgap
|  2> %output
|  3>     printlevel normal
|  4> end
|  5> * xyz 0 1
|  6> C 3.0208158459 0.8919863339 -2.2455269427
|  7> C 2.1988794006 -0.3789184454 -2.2744119736
|  8> O 1.3413323732 -0.5074139826 -1.1206085282
|  9> P 1.8330943809 -0.502727418 0.3815960747
| 10> S 2.4039167178 1.1581430019 1.2674104188
| 11> O 2.9680676827 -1.6164036291 0.3242230043
| 12> C 3.8508727122 -1.8760367024 1.4330491171
| 13> C 5.1596277016 -2.4070538049 0.8830771874
| 14> S 0.2408700974 -1.4879918206 1.3366293059
| 15> C -0.6663789913 -0.0754822945 2.0488524023
| 16> S -2.3460089268 0.069658067 1.4114391275
| 17> P -1.8826952664 0.7408518568 -0.5564766499
| 18> S -0.4566068496 2.0767850841 -0.6761333392
| 19> O -3.3125402294 1.1433558286 -1.1213528194
| 20> C -4.2817328143 1.9600539344 -0.436804546
| 21> C -3.727938268 3.3068878434 -0.0229744084
| 22> O -1.534617377 -0.4984087332 -1.4668203991
| 23> C -2.4408093709 -1.5859933167 -1.7879213921
| 24> C -2.2084767204 -2.7835431738 -0.8884639992
| 25> H 2.3694380078 1.7549524088 -2.1151719701
| 26> H 3.7250226029 0.8667158781 -1.4145478408
| 27> H 3.5698218901 0.9921506858 -3.1764155439
| 28> H 2.8390774607 -1.2629170833 -2.3206896175
| 29> H 1.4953465993 -0.3781850505 -3.1091002348
| 30> H 3.997479862 -0.942910678 1.987847471
| 31> H 3.3638661622 -2.6081423449 2.0815384782
| 32> H 4.9802566006 -3.3054484713 0.2995320333
| 33> H 5.6315078736 -1.6615096784 0.2488118502
| 34> H 5.8216677537 -2.6413532427 1.7100676234
| 35> H -0.1040859597 0.8395658871 1.8400789178
| 36> H -0.7625632014 -0.2418431008 3.1185912229
| 37> H -5.0849119038 2.0677320035 -1.1680340356
| 38> H -4.6406835014 1.4050772193 0.4341114776
| 39> H -4.521912391 3.9048051238 0.4124915657
| 40> H -2.93536478 3.1789183144 0.7129465194
| 41> H -3.3131634426 3.8278365088 -0.8827986011
| 42> H -3.4677779204 -1.2243594726 -1.7162271241
| 43> H -2.2068517474 -1.8223459513 -2.8273301894
| 44> H -1.1614411891 -3.0746401106 -0.913715042
| 45> H -2.4792803066 -2.5581734155 0.1401223878
| 46> H -2.8175487052 -3.6095834948 -1.2418037709
| 47> *
| 48>
| 49>                          ****END OF INPUT****

CARTESIAN COORDINATES (ANGSTROEM)
---------------------------------
  C      3.020816    0.891986   -2.245527
  C      2.198879   -0.378918   -2.274412
  O      1.341332   -0.507414   -1.120609
  P      1.833094   -0.502727    0.381596
  S      2.403917    1.158143    1.267410
  O      2.968068   -1.616404    0.324223
  C      3.850873   -1.876037    1.433049
  C      5.159628   -2.407054    0.883077
  S      0.240870   -1.487992    1.336629
  C     -0.666379   -0.075482    2.048852
  S     -2.346009    0.069658    1.411439
  P     -1.882695    0.740852   -0.556477
  S     -0.456607    2.076785   -0.676133
  O     -3.312540    1.143356   -1.121353
  C     -4.281733    1.960054   -0.436805
  C     -3.727938    3.306888   -0.022974
  O     -1.534617   -0.498409   -1.466820
  C     -2.440809   -1.585993   -1.787921
  C     -2.208477   -2.783543   -0.888464
  H      2.369438    1.754952   -2.115172
  H      3.725023    0.866716   -1.414548
  H      3.569822    0.992151   -3.176416
  H      2.839077   -1.262917   -2.320690
  H      1.495347   -0.378185   -3.109100
  H      3.997480   -0.942911    1.987847
  H      3.363866   -2.608142    2.081538
  H      4.980257   -3.305448    0.299532
  H      5.631508   -1.661510    0.248812
  H      5.821668   -2.641353    1.710068
  H     -0.104086    0.839566    1.840079
  H     -0.762563   -0.241843    3.118591
  H     -5.084912    2.067732   -1.168034
  H     -4.640684    1.405077    0.434111
  H     -4.521912    3.904805    0.412492
  H     -2.935365    3.178918    0.712947
  H     -3.313163    3.827837   -0.882799
  H     -3.467778   -1.224359   -1.716227
  H     -2.206852   -1.822346   -2.827330
  H     -1.161441   -3.074640   -0.913715
  H     -2.479280   -2.558173    0.140122
  H     -2.817549   -3.609583   -1.241804

 Total Charge           Charge          ....    0
 Multiplicity           Mult            ....    1
 Number of Electrons    NEL             ....  202
 Basis Dimension        Dim             ....  334

ORBITAL ENERGIES
----------------

  NO   OCC          E(Eh)            E(eV)
   0   2.0000     -88.043626     -2395.7889
   1   2.0000     -88.037102     -2395.6113
   2   2.0000     -87.976964     -2393.9749
   3   2.0000     -87.974563     -2393.9096
   4   2.0000     -76.421720     -2079.5407
   5   2.0000     -76.419873     -2079.4905
   6   2.0000     -18.792778      -511.3775
   7   2.0000     -18.790025      -511.3026
   8   2.0000     -18.784109      -511.1416
   9   2.0000     -18.778229      -510.9816
  10   2.0000      -9.958072      -270.9729
  11   2.0000      -9.952632      -270.8249
  12   2.0000      -9.951146      -270.7845
  13   2.0000      -9.947951      -270.6975
  14   2.0000      -9.945581      -270.6330
  15   2.0000      -9.886577      -269.0274
  16   2.0000      -9.880768      -268.8694
  17   2.0000      -9.879193      -268.8265
  18   2.0000      -9.872061      -268.6324
  19   2.0000      -7.688564      -209.2165
  20   2.0000      -7.682447      -209.0500
  21   2.0000      -7.621935      -207.4034
  22   2.0000      -7.619632      -207.3407
  23   2.0000      -6.418774      -174.6637
  24   2.0000      -6.417098      -174.6181
  25   2.0000      -5.716298      -155.5484
  26   2.0000      -5.712895      -155.4558
  27   2.0000      -5.710298      -155.3851
  28   2.0000      -5.706914      -155.2930
  29   2.0000      -5.705885      -155.2650
  30   2.0000      -5.699378      -155.0880
  31   2.0000      -5.650842      -153.7672
  32   2.0000      -5.648750      -153.7103
  33   2.0000      -5.642726      -153.5464
  34   2.0000      -5.641932      -153.5248
  35   2.0000      -5.640147      -153.4762
  36   2.0000      -5.639653      -153.4628
  37   2.0000      -4.641673      -126.3063
  38   2.0000      -4.640836      -126.2836
  39   2.0000      -4.639935      -126.2590
  40   2.0000      -4.638712      -126.2258
  41   2.0000      -4.638658      -126.2243
  42   2.0000      -4.637543      -126.1940
  43   2.0000      -0.984813       -26.7981
  44   2.0000      -0.980924       -26.6923
  45   2.0000      -0.939775       -25.5726
  46   2.0000      -0.935834       -25.4653
  47   2.0000      -0.760519       -20.6948
  48   2.0000      -0.718162       -19.5422
  49   2.0000      -0.707826       -19.2609
  50   2.0000      -0.687428       -18.7059
  51   2.0000      -0.684110       -18.6156
  52   2.0000      -0.671106       -18.2617
  53   2.0000      -0.646225       -17.5847
  54   2.0000      -0.628753       -17.1092
  55   2.0000      -0.589673       -16.0458
  56   2.0000      -0.584352       -15.9010
  57   2.0000      -0.574474       -15.6322
  58   2.0000      -0.566650       -15.4193
  59   2.0000      -0.560561       -15.2536
  60   2.0000      -0.501938       -13.6584
  61   2.0000      -0.498025       -13.5520
  62   2.0000      -0.469096       -12.7647
  63   2.0000      -0.465514       -12.6673
  64   2.0000      -0.448712       -12.2101
  65   2.0000      -0.444685       -12.1005
  66   2.0000      -0.436437       -11.8761
  67   2.0000      -0.434034       -11.8107
  68   2.0000      -0.429077       -11.6758
  69   2.0000      -0.411440       -11.1958
  70   2.0000      -0.405835       -11.0433
  71   2.0000      -0.402279       -10.9466
  72   2.0000      -0.395293       -10.7565
  73   2.0000      -0.382880       -10.4187
  74   2.0000      -0.378838       -10.3087
  75   2.0000      -0.364745        -9.9252
  76   2.0000      -0.354656        -9.6507
  77   2.0000      -0.351793        -9.5728
  78   2.0000      -0.350113        -9.5271
  79   2.0000      -0.342069        -9.3082
  80   2.0000      -0.341449        -9.2913
  81   2.0000      -0.339837        -9.2474
  82   2.0000      -0.336115        -9.1461
  83   2.0000      -0.335022        -9.1164
  84   2.0000      -0.328162        -8.9297
  85   2.0000      -0.314833        -8.5670
  86   2.0000      -0.310967        -8.4619
  87   2.0000      -0.295621        -8.0443
  88   2.0000      -0.295559        -8.0426
  89   2.0000      -0.291283        -7.9262
  90   2.0000      -0.275819        -7.5054
  91   2.0000      -0.272111        -7.4045
  92   2.0000      -0.267470        -7.2782
  93   2.0000      -0.259151        -7.0519
  94   2.0000      -0.254004        -6.9118
  95   2.0000      -0.233206        -6.3459
  96   2.0000      -0.220311        -5.9950
  97   2.0000      -0.208718        -5.6795
  98   2.0000      -0.192994        -5.2516
  99   2.0000      -0.186078        -5.0634
 100   2.0000      -0.178222        -4.8497
 101   0.0000      -0.038221        -1.0400
 102   0.0000      -0.028804        -0.7838
 103   0.0000      -0.008821        -0.2400
 104   0.0000       0.014549         0.3959
 105   0.0000       0.019224         0.5231

MULLIKEN ATOMIC CHARGES
-----------------------
   0 C :   -0.323111
   1 C :    0.009064
   2 O :   -0.350063
   3 P :    0.628129
   4 S :   -0.316266
   5 O :   -0.389764
   6 C :   -0.006024
   7 C :   -0.285001
   8 S :   -0.102434
   9 C :   -0.347811
  10 S :   -0.130361
  11 P :    0.600189
  12 S :   -0.286797
  13 O :   -0.383164
  14 C :   -0.013394
  15 C :   -0.306163
  16 O :   -0.343937
  17 C :   -0.012473
  18 C :   -0.290099
  19 H :    0.137947
  20 H :    0.121929
  21 H :    0.104742
  22 H :    0.101575
  23 H :    0.104761
  24 H :    0.104975
  25 H :    0.099020
  26 H :    0.114368
  27 H :    0.117758
  28 H :    0.111708
  29 H :    0.210681
  30 H :    0.180756
  31 H :    0.107984
  32 H :    0.113181
  33 H :    0.109601
  34 H :    0.127713
  35 H :    0.126462
  36 H :    0.100952
  37 H :    0.106019
  38 H :    0.123575
  39 H :    0.119998
  40 H :    0.103774
Sum of atomic charges:    0.0000000

LOEWDIN ATOMIC CHARGES
----------------------
   0 C :   -0.370034
   1 C :   -0.107419
   2 O :   -0.229448
   3 P :    0.569144
   4 S :   -0.306742
   5 O :   -0.252619
   6 C :   -0.122785
   7 C :   -0.351593
   8 S :    0.080934
   9 C :   -0.478411
  10 S :    0.062027
  11 P :    0.560782
  12 S :   -0.288741
  13 O :   -0.247033
  14 C :   -0.115368
  15 C :   -0.369133
  16 O :   -0.229126
  17 C :   -0.110882
  18 C :   -0.366301
  19 H :    0.132069
  20 H :    0.118541
  21 H :    0.126516
  22 H :    0.108965
  23 H :    0.120445
  24 H :    0.105797
  25 H :    0.110479
  26 H :    0.125261
  27 H :    0.126803
  28 H :    0.130740
  29 H :    0.126617
  30 H :    0.136901
  31 H :    0.120582
  32 H :    0.106814
  33 H :    0.129242
  34 H :    0.122332
  35 H :    0.130664
  36 H :    0.108002
  37 H :    0.119994
  38 H :    0.125112
  39 H :    0.114608
  40 H :    0.126262

  Mayer bond orders larger than 0.100000
B(  0-C ,  1-C ) :   1.1671 B(  0-C , 19-H ) :   0.9399 B(  0-C , 20-H ) :   0.9345
B(  0-C , 21-H ) :   0.9357 B(  1-C ,  2-O ) :   0.9063 B(  1-C , 22-H ) :   0.9317
B(  1-C , 23-H ) :   0.9321 B(  2-O ,  3-P ) :   1.1460 B(  3-P ,  4-S ) :   1.6086
B(  3-P ,  5-O ) :   1.0775 B(  3-P ,  8-S ) :   0.9664 B(  4-S ,  8-S ) :   0.1196
B(  5-O ,  6-C ) :   0.9069 B(  6-C ,  7-C ) :   1.1595 B(  6-C , 24-H ) :   0.9009
B(  6-C , 25-H ) :   0.9313 B(  7-C , 26-H ) :   0.9509 B(  7-C , 27-H ) :   0.9512
B(  7-C , 28-H ) :   0.9423 B(  8-S ,  9-C ) :   0.9978 B(  9-C , 10-S ) :   1.0081
B(  9-C , 29-H ) :   0.8440 B(  9-C , 30-H ) :   0.9111 B( 10-S , 11-P ) :   0.9221
B( 10-S , 12-S ) :   0.1072 B( 11-P , 12-S ) :   1.6663 B( 11-P , 13-O ) :   1.0781
B( 11-P , 16-O ) :   1.1396 B( 13-O , 14-C ) :   0.9133 B( 14-C , 15-C ) :   1.1673
B( 14-C , 31-H ) :   0.9334 B( 14-C , 32-H ) :   0.9255 B( 15-C , 33-H ) :   0.9348
B( 15-C , 34-H ) :   0.9318 B( 15-C , 35-H ) :   0.9431 B( 16-O , 17-C ) :   0.9010
B( 17-C , 18-C ) :   1.1697 B( 17-C , 36-H ) :   0.9191 B( 17-C , 37-H ) :   0.9355
B( 18-C , 38-H ) :   0.9416 B( 18-C , 39-H ) :   0.9334 B( 18-C , 40-H ) :   0.9372

Dispersion correction           -0.067568969
FINAL SINGLE POINT ENERGY     -2929.512365592673

DIPOLE MOMENT
-------------

Method             : SCF
Type of density    : Electron Density
Multiplicity       :   1
Irrep              :   0
Energy             : -2929.6300779159414560 Eh
Relativity type    :
Basis              : AO
                                X                 Y                 Z
Electronic contribution:     -4.765203054       5.156050824       7.110590927
Nuclear contribution   :      4.073091314      -6.379420068      -7.401804641
                        -----------------------------------------
Total Dipole Moment    :     -0.692111740      -1.223369244      -0.291213714
                        -----------------------------------------
Magnitude (a.u.)       :      1.435428993
Magnitude (Debye)      :      3.648570545

Rotational constants in cm-1:             0.013258             0.005215             0.005009
Rotational constants in MHz :           397.462521           156.329446           150.168477

                             ****ORCA TERMINATED NORMALLY****
TOTAL RUN TIME: 0 days 0 hours 0 minutes 21 seconds 612 msec
