                         Program Version 6.0.0  -   RELEASE  -
|  1> ! pbe def2-sv(p) def2/J RI DEFGRID1 loosescf d4 GCP(DFT/SV(P)) printgap
|  2> %output
|  3>     printlevel normal
|  4> end
|  5> * xyz 0 1
|  6> C 4.566513131 0.406175162 -2.0382006643
|  7> C 4.4650751605 1.0122764136 -0.65375635
|  8> O 3.6549914512 0.216494455 0.228644178
|  9> P 2.0897451545 0.0308672372 0.0178871664
| 10> S 1.1722476215 1.6826553784 -0.5272561866
| 11> O 1.6351194124 -0.5900257137 1.4019469647
| 12> C 1.4600151645 0.2083564486 2.5895253928
| 13> C 2.7366086445 0.2650516257 3.4030161455
| 14> S 1.9437563698 -1.6819964218 -1.1888715697
| 15> C 0.177794439 -1.6431172986 -1.5870690335
| 16> S -0.8940990783 -1.9310714503 -0.1447355331
| 17> P -1.9711505786 -0.1165182541 -0.0972011541
| 18> S -2.0756712366 0.8190512997 -1.8240293231
| 19> O -1.346440501 0.5919343442 1.1736291029
| 20> C -2.0349272856 1.6047756178 1.9439891049
| 21> C -2.2805492731 2.8639370427 1.1394660354
| 22> O -3.3908369618 -0.5428401127 0.4781169147
| 23> C -4.4181062684 -1.1066124316 -0.3604930647
| 24> C -5.7608578769 -0.8192485986 0.2810859046
| 25> H 5.2851083714 0.9690726435 -2.6252421025
| 26> H 4.8827771266 -0.631886909 -1.9741502739
| 27> H 3.597306747 0.4468072951 -2.5340216339
| 28> H 4.033830167 2.0173672044 -0.7047147205
| 29> H 5.435601358 1.0470949418 -0.1569996778
| 30> H 1.1326956378 1.210041305 2.2902070746
| 31> H 0.6568769115 -0.2908309971 3.1355082042
| 32> H 2.5461047658 0.8022348714 4.3269735027
| 33> H 3.0725750512 -0.7421160397 3.6329589386
| 34> H 3.5174789498 0.7762992593 2.8453620843
| 35> H 0.0200628137 -2.4549267415 -2.292583761
| 36> H -0.0918527323 -0.6802005688 -2.0319170711
| 37> H -2.9715716991 1.1790855185 2.3097888405
| 38> H -1.358362879 1.7922657554 2.7796581681
| 39> H -2.9848951001 2.6660543361 0.3327356276
| 40> H -2.6860902857 3.6354128642 1.7861373681
| 41> H -1.3487135714 3.2140129363 0.6983595402
| 42> H -4.3430850053 -0.6545058903 -1.3553956141
| 43> H -4.2339983044 -2.1807980118 -0.4386986561
| 44> H -5.9261178734 0.2528299316 0.3438930709
| 45> H -6.5441713479 -1.2655915678 -0.3224617214
| 46> H -5.7925528088 -1.2415286849 1.2813510673
| 47> *
| 48>
| 49>                          ****END OF INPUT****

CARTESIAN COORDINATES (ANGSTROEM)
---------------------------------
  C      4.566513    0.406175   -2.038201
  C      4.465075    1.012276   -0.653756
  O      3.654991    0.216494    0.228644
  P      2.089745    0.030867    0.017887
  S      1.172248    1.682655   -0.527256
  O      1.635119   -0.590026    1.401947
  C      1.460015    0.208356    2.589525
  C      2.736609    0.265052    3.403016
  S      1.943756   -1.681996   -1.188872
  C      0.177794   -1.643117   -1.587069
  S     -0.894099   -1.931071   -0.144736
  P     -1.971151   -0.116518   -0.097201
  S     -2.075671    0.819051   -1.824029
  O     -1.346441    0.591934    1.173629
  C     -2.034927    1.604776    1.943989
  C     -2.280549    2.863937    1.139466
  O     -3.390837   -0.542840    0.478117
  C     -4.418106   -1.106612   -0.360493
  C     -5.760858   -0.819249    0.281086
  H      5.285108    0.969073   -2.625242
  H      4.882777   -0.631887   -1.974150
  H      3.597307    0.446807   -2.534022
  H      4.033830    2.017367   -0.704715
  H      5.435601    1.047095   -0.157000
  H      1.132696    1.210041    2.290207
  H      0.656877   -0.290831    3.135508
  H      2.546105    0.802235    4.326974
  H      3.072575   -0.742116    3.632959
  H      3.517479    0.776299    2.845362
  H      0.020063   -2.454927   -2.292584
  H     -0.091853   -0.680201   -2.031917
  H     -2.971572    1.179086    2.309789
  H     -1.358363    1.792266    2.779658
  H     -2.984895    2.666054    0.332736
  H     -2.686090    3.635413    1.786137
  H     -1.348714    3.214013    0.698360
  H     -4.343085   -0.654506   -1.355396
  H     -4.233998   -2.180798   -0.438699
  H     -5.926118    0.252830    0.343893
  H     -6.544171   -1.265592   -0.322462
  H     -5.792553   -1.241529    1.281351

 Total Charge           Charge          ....    0
 Multiplicity           Mult            ....    1
 Number of Electrons    NEL             ....  202
 Basis Dimension        Dim             ....  334

ORBITAL ENERGIES
----------------

  NO   OCC          E(Eh)            E(eV)
   0   2.0000     -88.040252     -2395.6970
   1   2.0000     -88.038271     -2395.6431
   2   2.0000     -87.981119     -2394.0880
   3   2.0000     -87.979382     -2394.0407
   4   2.0000     -76.423572     -2079.5911
   5   2.0000     -76.420832     -2079.5166
   6   2.0000     -18.793009      -511.3838
   7   2.0000     -18.790480      -511.3150
   8   2.0000     -18.787324      -511.2291
   9   2.0000     -18.782699      -511.1032
  10   2.0000      -9.952535      -270.8222
  11   2.0000      -9.951664      -270.7986
  12   2.0000      -9.950425      -270.7648
  13   2.0000      -9.949579      -270.7418
  14   2.0000      -9.945302      -270.6254
  15   2.0000      -9.888589      -269.0822
  16   2.0000      -9.881622      -268.8926
  17   2.0000      -9.881063      -268.8774
  18   2.0000      -9.877247      -268.7736
  19   2.0000      -7.685909      -209.1442
  20   2.0000      -7.683618      -209.0819
  21   2.0000      -7.626092      -207.5165
  22   2.0000      -7.624186      -207.4646
  23   2.0000      -6.420913      -174.7219
  24   2.0000      -6.418509      -174.6565
  25   2.0000      -5.713930      -155.4839
  26   2.0000      -5.711473      -155.4171
  27   2.0000      -5.710278      -155.3846
  28   2.0000      -5.708147      -155.3266
  29   2.0000      -5.702762      -155.1800
  30   2.0000      -5.700537      -155.1195
  31   2.0000      -5.654935      -153.8786
  32   2.0000      -5.652898      -153.8232
  33   2.0000      -5.646968      -153.6618
  34   2.0000      -5.646041      -153.6366
  35   2.0000      -5.645019      -153.6088
  36   2.0000      -5.644343      -153.5904
  37   2.0000      -4.643716      -126.3619
  38   2.0000      -4.642466      -126.3279
  39   2.0000      -4.641351      -126.2976
  40   2.0000      -4.641073      -126.2900
  41   2.0000      -4.640239      -126.2673
  42   2.0000      -4.638968      -126.2327
  43   2.0000      -0.986332       -26.8395
  44   2.0000      -0.982085       -26.7239
  45   2.0000      -0.941692       -25.6248
  46   2.0000      -0.940268       -25.5860
  47   2.0000      -0.760233       -20.6870
  48   2.0000      -0.719820       -19.5873
  49   2.0000      -0.705869       -19.2077
  50   2.0000      -0.687853       -18.7174
  51   2.0000      -0.684580       -18.6284
  52   2.0000      -0.671628       -18.2759
  53   2.0000      -0.647992       -17.6328
  54   2.0000      -0.629868       -17.1396
  55   2.0000      -0.598300       -16.2806
  56   2.0000      -0.588239       -16.0068
  57   2.0000      -0.570901       -15.5350
  58   2.0000      -0.568587       -15.4720
  59   2.0000      -0.558185       -15.1890
  60   2.0000      -0.503987       -13.7142
  61   2.0000      -0.490928       -13.3588
  62   2.0000      -0.471145       -12.8205
  63   2.0000      -0.469454       -12.7745
  64   2.0000      -0.450208       -12.2508
  65   2.0000      -0.447980       -12.1902
  66   2.0000      -0.436793       -11.8857
  67   2.0000      -0.433450       -11.7948
  68   2.0000      -0.426367       -11.6020
  69   2.0000      -0.409659       -11.1474
  70   2.0000      -0.409157       -11.1337
  71   2.0000      -0.402617       -10.9558
  72   2.0000      -0.387167       -10.5354
  73   2.0000      -0.382994       -10.4218
  74   2.0000      -0.378176       -10.2907
  75   2.0000      -0.372108       -10.1256
  76   2.0000      -0.367592       -10.0027
  77   2.0000      -0.354543        -9.6476
  78   2.0000      -0.352551        -9.5934
  79   2.0000      -0.347762        -9.4631
  80   2.0000      -0.343572        -9.3491
  81   2.0000      -0.339950        -9.2505
  82   2.0000      -0.338267        -9.2047
  83   2.0000      -0.334533        -9.1031
  84   2.0000      -0.333058        -9.0630
  85   2.0000      -0.313192        -8.5224
  86   2.0000      -0.307958        -8.3800
  87   2.0000      -0.299091        -8.1387
  88   2.0000      -0.293250        -7.9797
  89   2.0000      -0.288172        -7.8416
  90   2.0000      -0.277731        -7.5575
  91   2.0000      -0.271962        -7.4005
  92   2.0000      -0.271388        -7.3848
  93   2.0000      -0.258757        -7.0411
  94   2.0000      -0.258172        -7.0252
  95   2.0000      -0.232907        -6.3377
  96   2.0000      -0.220554        -6.0016
  97   2.0000      -0.212576        -5.7845
  98   2.0000      -0.198020        -5.3884
  99   2.0000      -0.191188        -5.2025
 100   2.0000      -0.182288        -4.9603
 101   0.0000      -0.036697        -0.9986
 102   0.0000      -0.030048        -0.8176
 103   0.0000      -0.008513        -0.2317
 104   0.0000       0.013609         0.3703
 105   0.0000       0.020266         0.5515

MULLIKEN ATOMIC CHARGES
-----------------------
   0 C :   -0.319064
   1 C :   -0.002397
   2 O :   -0.376391
   3 P :    0.604829
   4 S :   -0.313169
   5 O :   -0.356125
   6 C :   -0.019733
   7 C :   -0.282434
   8 S :   -0.083173
   9 C :   -0.362304
  10 S :   -0.086908
  11 P :    0.629162
  12 S :   -0.309993
  13 O :   -0.361359
  14 C :   -0.004335
  15 C :   -0.317029
  16 O :   -0.389159
  17 C :   -0.006423
  18 C :   -0.284564
  19 H :    0.113203
  20 H :    0.118499
  21 H :    0.129635
  22 H :    0.109375
  23 H :    0.103180
  24 H :    0.107514
  25 H :    0.105854
  26 H :    0.105246
  27 H :    0.115500
  28 H :    0.116949
  29 H :    0.181437
  30 H :    0.206861
  31 H :    0.108193
  32 H :    0.101927
  33 H :    0.124943
  34 H :    0.105802
  35 H :    0.135935
  36 H :    0.105520
  37 H :    0.100040
  38 H :    0.116989
  39 H :    0.112662
  40 H :    0.115302
Sum of atomic charges:    0.0000000

LOEWDIN ATOMIC CHARGES
----------------------
   0 C :   -0.370594
   1 C :   -0.120748
   2 O :   -0.246411
   3 P :    0.561901
   4 S :   -0.308300
   5 O :   -0.236423
   6 C :   -0.119084
   7 C :   -0.359374
   8 S :    0.093218
   9 C :   -0.481558
  10 S :    0.080815
  11 P :    0.570159
  12 S :   -0.298200
  13 O :   -0.235428
  14 C :   -0.109574
  15 C :   -0.368380
  16 O :   -0.251434
  17 C :   -0.122602
  18 C :   -0.351331
  19 H :    0.131218
  20 H :    0.123874
  21 H :    0.122328
  22 H :    0.109756
  23 H :    0.117478
  24 H :    0.105109
  25 H :    0.117040
  26 H :    0.127179
  27 H :    0.126825
  28 H :    0.124143
  29 H :    0.137433
  30 H :    0.125509
  31 H :    0.111066
  32 H :    0.114763
  33 H :    0.120755
  34 H :    0.127044
  35 H :    0.131573
  36 H :    0.106074
  37 H :    0.110728
  38 H :    0.126569
  39 H :    0.131239
  40 H :    0.125648

  Mayer bond orders larger than 0.100000
B(  0-C ,  1-C ) :   1.1667 B(  0-C , 19-H ) :   0.9377 B(  0-C , 20-H ) :   0.9442
B(  0-C , 21-H ) :   0.9345 B(  1-C ,  2-O ) :   0.9084 B(  1-C , 22-H ) :   0.9135
B(  1-C , 23-H ) :   0.9334 B(  2-O ,  3-P ) :   1.0904 B(  3-P ,  4-S ) :   1.6279
B(  3-P ,  5-O ) :   1.1343 B(  3-P ,  8-S ) :   0.9620 B(  4-S ,  8-S ) :   0.1125
B(  5-O ,  6-C ) :   0.9041 B(  6-C ,  7-C ) :   1.1576 B(  6-C , 24-H ) :   0.9021
B(  6-C , 25-H ) :   0.9343 B(  7-C , 26-H ) :   0.9412 B(  7-C , 27-H ) :   0.9471
B(  7-C , 28-H ) :   0.9428 B(  8-S ,  9-C ) :   0.9981 B(  9-C , 10-S ) :   1.0022
B(  9-C , 29-H ) :   0.9118 B(  9-C , 30-H ) :   0.8462 B( 10-S , 11-P ) :   0.9731
B( 10-S , 12-S ) :   0.1258 B( 11-P , 12-S ) :   1.6131 B( 11-P , 13-O ) :   1.1262
B( 11-P , 16-O ) :   1.0786 B( 12-S , 30-H ) :   0.1011 B( 13-O , 14-C ) :   0.9058
B( 14-C , 15-C ) :   1.1688 B( 14-C , 31-H ) :   0.9284 B( 14-C , 32-H ) :   0.9279
B( 15-C , 33-H ) :   0.9339 B( 15-C , 34-H ) :   0.9362 B( 15-C , 35-H ) :   0.9412
B( 16-O , 17-C ) :   0.9061 B( 17-C , 18-C ) :   1.1592 B( 17-C , 36-H ) :   0.9023
B( 17-C , 37-H ) :   0.9300 B( 18-C , 38-H ) :   0.9513 B( 18-C , 39-H ) :   0.9422
B( 18-C , 40-H ) :   0.9510

Dispersion correction           -0.066835076
FINAL SINGLE POINT ENERGY     -2929.518322433790

DIPOLE MOMENT
-------------

Method             : SCF
Type of density    : Electron Density
Multiplicity       :   1
Irrep              :   0
Energy             : -2929.6370165133776027 Eh
Relativity type    :
Basis              : AO
                                X                 Y                 Z
Electronic contribution:      3.765860460      -9.529842134      -9.940557418
Nuclear contribution   :     -3.949446975       9.360079990      10.852582781
                        -----------------------------------------
Total Dipole Moment    :     -0.183586515      -0.169762144       0.912025364
                        -----------------------------------------
Magnitude (a.u.)       :      0.945681478
Magnitude (Debye)      :      2.403731290

Rotational constants in cm-1:             0.013086             0.005209             0.004801
Rotational constants in MHz :           392.311178           156.157808           143.941856

                             ****ORCA TERMINATED NORMALLY****
TOTAL RUN TIME: 0 days 0 hours 0 minutes 21 seconds 79 msec
