                         Program Version 6.0.0  -   RELEASE  -
|  1> ! pbe def2-sv(p) def2/J RI DEFGRID1 loosescf d4 GCP(DFT/SV(P)) printgap
|  2> %output
|  3>     printlevel normal
|  4> end
|  5> * xyz 0 1
|  6> C 1.1620244078 3.2961460875 1.2271257218
|  7> C 1.913101258 2.0181938341 0.9201873731
|  8> O 1.1377672403 0.9179157118 1.4570383035
|  9> P 1.4734856889 -0.58756859 1.1411035823
| 10> S 0.4611974555 -1.8789870946 2.2041223771
| 11> O 3.0411319294 -0.5901388002 1.4443790115
| 12> C 3.8218322287 -1.7952577869 1.5467330188
| 13> C 4.5340394958 -2.110008458 0.2453269145
| 14> S 1.4148892851 -0.881999625 -0.9722943655
| 15> C -0.0493998521 -1.9359981211 -1.1162129648
| 16> S -1.4678373064 -1.1931838519 -1.989160934
| 17> P -1.7690493709 0.5644101378 -0.8414162413
| 18> S -3.4892750226 1.4507606349 -1.1293046818
| 19> O -0.4743596511 1.4434128934 -1.1229303959
| 20> C -0.2425283464 1.977146243 -2.4450443148
| 21> C -0.6350907253 3.4395521018 -2.5080625795
| 22> O -1.4156290486 0.1724228554 0.6561901834
| 23> C -2.4657793698 -0.0752994044 1.6091248024
| 24> C -3.1353584221 -1.4140965588 1.3738332422
| 25> H 1.7162214993 4.141198524 0.8310650888
| 26> H 0.1751146082 3.2620726091 0.7724372919
| 27> H 1.0451749537 3.4122229042 2.3008876321
| 28> H 2.8968349899 2.0023260256 1.3936263562
| 29> H 2.0255073557 1.8675270954 -0.1568385061
| 30> H 4.5375545919 -1.5881564373 2.3449060251
| 31> H 3.1668792926 -2.6164100801 1.8558907296
| 32> H 5.1306558178 -1.2574064903 -0.0666838309
| 33> H 5.1850101996 -2.9645106595 0.3999103662
| 34> H 3.8205808126 -2.3439292633 -0.540384665
| 35> H -0.3482410779 -2.245133792 -0.1115020395
| 36> H 0.2194581185 -2.7953899538 -1.7255053227
| 37> H 0.8257901464 1.8379737578 -2.6267330668
| 38> H -0.809689507 1.3898889524 -3.1760382261
| 39> H -0.0720089975 4.0134074031 -1.77778324
| 40> H -0.4280385352 3.8204381612 -3.5028609906
| 41> H -1.6972767456 3.54988158 -2.2995974106
| 42> H -1.9606497563 -0.0444176274 2.5758022054
| 43> H -3.1936528331 0.738961542 1.53981554
| 44> H -2.4125443151 -2.2213114294 1.4689530358
| 45> H -3.9189393844 -1.5542386907 2.1113343167
| 46> H -3.5779297443 -1.4377839855 0.377856397
| 47> *
| 48>
| 49>                          ****END OF INPUT****

CARTESIAN COORDINATES (ANGSTROEM)
---------------------------------
  C      1.162024    3.296146    1.227126
  C      1.913101    2.018194    0.920187
  O      1.137767    0.917916    1.457038
  P      1.473486   -0.587569    1.141104
  S      0.461197   -1.878987    2.204122
  O      3.041132   -0.590139    1.444379
  C      3.821832   -1.795258    1.546733
  C      4.534039   -2.110008    0.245327
  S      1.414889   -0.882000   -0.972294
  C     -0.049400   -1.935998   -1.116213
  S     -1.467837   -1.193184   -1.989161
  P     -1.769049    0.564410   -0.841416
  S     -3.489275    1.450761   -1.129305
  O     -0.474360    1.443413   -1.122930
  C     -0.242528    1.977146   -2.445044
  C     -0.635091    3.439552   -2.508063
  O     -1.415629    0.172423    0.656190
  C     -2.465779   -0.075299    1.609125
  C     -3.135358   -1.414097    1.373833
  H      1.716221    4.141199    0.831065
  H      0.175115    3.262073    0.772437
  H      1.045175    3.412223    2.300888
  H      2.896835    2.002326    1.393626
  H      2.025507    1.867527   -0.156839
  H      4.537555   -1.588156    2.344906
  H      3.166879   -2.616410    1.855891
  H      5.130656   -1.257406   -0.066684
  H      5.185010   -2.964511    0.399910
  H      3.820581   -2.343929   -0.540385
  H     -0.348241   -2.245134   -0.111502
  H      0.219458   -2.795390   -1.725505
  H      0.825790    1.837974   -2.626733
  H     -0.809690    1.389889   -3.176038
  H     -0.072009    4.013407   -1.777783
  H     -0.428039    3.820438   -3.502861
  H     -1.697277    3.549882   -2.299597
  H     -1.960650   -0.044418    2.575802
  H     -3.193653    0.738962    1.539816
  H     -2.412544   -2.221311    1.468953
  H     -3.918939   -1.554239    2.111334
  H     -3.577930   -1.437784    0.377856

 Total Charge           Charge          ....    0
 Multiplicity           Mult            ....    1
 Number of Electrons    NEL             ....  202
 Basis Dimension        Dim             ....  334

ORBITAL ENERGIES
----------------

  NO   OCC          E(Eh)            E(eV)
   0   2.0000     -88.048994     -2395.9349
   1   2.0000     -88.044072     -2395.8010
   2   2.0000     -87.991913     -2394.3817
   3   2.0000     -87.987332     -2394.2570
   4   2.0000     -76.430566     -2079.7814
   5   2.0000     -76.425840     -2079.6528
   6   2.0000     -18.796184      -511.4702
   7   2.0000     -18.792900      -511.3808
   8   2.0000     -18.790928      -511.3272
   9   2.0000     -18.789524      -511.2889
  10   2.0000      -9.958482      -270.9841
  11   2.0000      -9.956498      -270.9301
  12   2.0000      -9.954864      -270.8856
  13   2.0000      -9.954682      -270.8807
  14   2.0000      -9.941916      -270.5333
  15   2.0000      -9.887147      -269.0429
  16   2.0000      -9.886429      -269.0234
  17   2.0000      -9.883619      -268.9470
  18   2.0000      -9.873707      -268.6772
  19   2.0000      -7.693434      -209.3490
  20   2.0000      -7.689175      -209.2331
  21   2.0000      -7.636977      -207.8127
  22   2.0000      -7.632490      -207.6906
  23   2.0000      -6.427877      -174.9114
  24   2.0000      -6.423480      -174.7918
  25   2.0000      -5.721244      -155.6830
  26   2.0000      -5.717958      -155.5935
  27   2.0000      -5.717339      -155.5767
  28   2.0000      -5.713305      -155.4669
  29   2.0000      -5.710472      -155.3898
  30   2.0000      -5.706274      -155.2756
  31   2.0000      -5.665914      -154.1774
  32   2.0000      -5.661447      -154.0558
  33   2.0000      -5.657499      -153.9484
  34   2.0000      -5.657102      -153.9376
  35   2.0000      -5.653168      -153.8305
  36   2.0000      -5.652556      -153.8139
  37   2.0000      -4.650635      -126.5502
  38   2.0000      -4.649516      -126.5198
  39   2.0000      -4.648345      -126.4879
  40   2.0000      -4.645842      -126.4198
  41   2.0000      -4.645713      -126.4163
  42   2.0000      -4.643661      -126.3604
  43   2.0000      -0.991588       -26.9825
  44   2.0000      -0.986889       -26.8546
  45   2.0000      -0.945381       -25.7251
  46   2.0000      -0.944458       -25.7000
  47   2.0000      -0.763244       -20.7689
  48   2.0000      -0.722626       -19.6636
  49   2.0000      -0.710483       -19.3332
  50   2.0000      -0.691348       -18.8125
  51   2.0000      -0.682201       -18.5636
  52   2.0000      -0.677337       -18.4313
  53   2.0000      -0.654365       -17.8062
  54   2.0000      -0.640513       -17.4292
  55   2.0000      -0.596082       -16.2202
  56   2.0000      -0.591231       -16.0882
  57   2.0000      -0.573102       -15.5949
  58   2.0000      -0.570263       -15.5177
  59   2.0000      -0.559670       -15.2294
  60   2.0000      -0.510743       -13.8980
  61   2.0000      -0.498928       -13.5765
  62   2.0000      -0.483061       -13.1448
  63   2.0000      -0.469245       -12.7688
  64   2.0000      -0.459121       -12.4933
  65   2.0000      -0.448790       -12.2122
  66   2.0000      -0.440728       -11.9928
  67   2.0000      -0.432813       -11.7774
  68   2.0000      -0.428037       -11.6475
  69   2.0000      -0.420270       -11.4361
  70   2.0000      -0.408991       -11.1292
  71   2.0000      -0.400443       -10.8966
  72   2.0000      -0.395866       -10.7721
  73   2.0000      -0.385731       -10.4963
  74   2.0000      -0.382785       -10.4161
  75   2.0000      -0.370087       -10.0706
  76   2.0000      -0.361792        -9.8448
  77   2.0000      -0.360557        -9.8113
  78   2.0000      -0.357826        -9.7369
  79   2.0000      -0.354600        -9.6492
  80   2.0000      -0.345235        -9.3943
  81   2.0000      -0.344026        -9.3614
  82   2.0000      -0.336304        -9.1513
  83   2.0000      -0.332903        -9.0587
  84   2.0000      -0.330498        -8.9933
  85   2.0000      -0.323051        -8.7907
  86   2.0000      -0.319142        -8.6843
  87   2.0000      -0.303607        -8.2616
  88   2.0000      -0.299351        -8.1458
  89   2.0000      -0.295999        -8.0545
  90   2.0000      -0.288045        -7.8381
  91   2.0000      -0.273362        -7.4386
  92   2.0000      -0.266510        -7.2521
  93   2.0000      -0.265926        -7.2362
  94   2.0000      -0.258283        -7.0282
  95   2.0000      -0.234864        -6.3910
  96   2.0000      -0.224897        -6.1198
  97   2.0000      -0.213467        -5.8087
  98   2.0000      -0.207625        -5.6498
  99   2.0000      -0.203105        -5.5268
 100   2.0000      -0.199541        -5.4298
 101   0.0000      -0.041124        -1.1190
 102   0.0000      -0.031421        -0.8550
 103   0.0000      -0.021628        -0.5885
 104   0.0000      -0.001996        -0.0543
 105   0.0000       0.011831         0.3219

MULLIKEN ATOMIC CHARGES
-----------------------
   0 C :   -0.294662
   1 C :   -0.015135
   2 O :   -0.354909
   3 P :    0.637513
   4 S :   -0.308952
   5 O :   -0.388769
   6 C :   -0.004757
   7 C :   -0.299262
   8 S :   -0.115445
   9 C :   -0.350972
  10 S :   -0.089673
  11 P :    0.587967
  12 S :   -0.315477
  13 O :   -0.358187
  14 C :   -0.018685
  15 C :   -0.286233
  16 O :   -0.366057
  17 C :    0.004573
  18 C :   -0.325777
  19 H :    0.107260
  20 H :    0.139200
  21 H :    0.118724
  22 H :    0.109283
  23 H :    0.104114
  24 H :    0.107015
  25 H :    0.103343
  26 H :    0.110873
  27 H :    0.110641
  28 H :    0.122018
  29 H :    0.207981
  30 H :    0.179992
  31 H :    0.104935
  32 H :    0.103555
  33 H :    0.113575
  34 H :    0.108183
  35 H :    0.127722
  36 H :    0.111223
  37 H :    0.112376
  38 H :    0.129948
  39 H :    0.109580
  40 H :    0.121360
Sum of atomic charges:    0.0000000

LOEWDIN ATOMIC CHARGES
----------------------
   0 C :   -0.353880
   1 C :   -0.113601
   2 O :   -0.225888
   3 P :    0.582531
   4 S :   -0.287433
   5 O :   -0.252129
   6 C :   -0.118598
   7 C :   -0.365997
   8 S :    0.083826
   9 C :   -0.483268
  10 S :    0.072722
  11 P :    0.562953
  12 S :   -0.314272
  13 O :   -0.238529
  14 C :   -0.123158
  15 C :   -0.360754
  16 O :   -0.230618
  17 C :   -0.124399
  18 C :   -0.369796
  19 H :    0.128296
  20 H :    0.130130
  21 H :    0.129180
  22 H :    0.113062
  23 H :    0.105339
  24 H :    0.119454
  25 H :    0.106747
  26 H :    0.124334
  27 H :    0.130169
  28 H :    0.117156
  29 H :    0.122968
  30 H :    0.139052
  31 H :    0.110313
  32 H :    0.106156
  33 H :    0.123186
  34 H :    0.129169
  35 H :    0.127156
  36 H :    0.118407
  37 H :    0.108484
  38 H :    0.121236
  39 H :    0.130756
  40 H :    0.119540

  Mayer bond orders larger than 0.100000
B(  0-C ,  1-C ) :   1.1692 B(  0-C , 19-H ) :   0.9392 B(  0-C , 20-H ) :   0.9367
B(  0-C , 21-H ) :   0.9473 B(  1-C ,  2-O ) :   0.8883 B(  1-C , 22-H ) :   0.9266
B(  1-C , 23-H ) :   0.9135 B(  2-O ,  3-P ) :   1.1432 B(  3-P ,  4-S ) :   1.6167
B(  3-P ,  5-O ) :   1.0744 B(  3-P ,  8-S ) :   0.9493 B(  4-S ,  8-S ) :   0.1143
B(  4-S , 29-H ) :   0.1081 B(  5-O ,  6-C ) :   0.9092 B(  6-C ,  7-C ) :   1.1661
B(  6-C , 24-H ) :   0.9358 B(  6-C , 25-H ) :   0.9058 B(  7-C , 26-H ) :   0.9485
B(  7-C , 27-H ) :   0.9396 B(  7-C , 28-H ) :   0.9343 B(  8-S ,  9-C ) :   1.0143
B(  9-C , 10-S ) :   0.9733 B(  9-C , 29-H ) :   0.8463 B(  9-C , 30-H ) :   0.9098
B( 10-S , 11-P ) :   0.9703 B( 11-P , 12-S ) :   1.6496 B( 11-P , 13-O ) :   1.0838
B( 11-P , 16-O ) :   1.1052 B( 13-O , 14-C ) :   0.9007 B( 14-C , 15-C ) :   1.1695
B( 14-C , 31-H ) :   0.9256 B( 14-C , 32-H ) :   0.9087 B( 15-C , 33-H ) :   0.9452
B( 15-C , 34-H ) :   0.9400 B( 15-C , 35-H ) :   0.9325 B( 16-O , 17-C ) :   0.8903
B( 17-C , 18-C ) :   1.1694 B( 17-C , 36-H ) :   0.9194 B( 17-C , 37-H ) :   0.9142
B( 18-C , 38-H ) :   0.9348 B( 18-C , 39-H ) :   0.9391 B( 18-C , 40-H ) :   0.9357

Dispersion correction           -0.069555518
FINAL SINGLE POINT ENERGY     -2929.520308271443

DIPOLE MOMENT
-------------

Method             : SCF
Type of density    : Electron Density
Multiplicity       :   1
Irrep              :   0
Energy             : -2929.6399510315309271 Eh
Relativity type    :
Basis              : AO
                                X                 Y                 Z
Electronic contribution:    -10.208782806      -8.390032771      -1.949956958
Nuclear contribution   :     11.950902757       8.534727995       1.688507435
                        -----------------------------------------
Total Dipole Moment    :      1.742119951       0.144695224      -0.261449523
                        -----------------------------------------
Magnitude (a.u.)       :      1.767561734
Magnitude (Debye)      :      4.492784881

Rotational constants in cm-1:             0.011317             0.006209             0.005607
Rotational constants in MHz :           339.270966           186.135416           168.105529

                             ****ORCA TERMINATED NORMALLY****
TOTAL RUN TIME: 0 days 0 hours 0 minutes 22 seconds 523 msec
