                         Program Version 6.0.0  -   RELEASE  -
|  1> ! r2scan-3c def2/J RI DEFGRID2 scfconv6 printgap
|  2> %output
|  3>     printlevel normal
|  4> end
|  5> * xyz 0 1
|  6> C 2.5323625923 -3.1008910411 -1.8132492027
|  7> C 2.9545817739 -2.6623346119 -0.4258523465
|  8> O 3.3245337035 -1.2610875959 -0.4014847763
|  9> P 2.3367779813 -0.0656206559 -0.0912163265
| 10> S 3.305208606 1.6011370887 0.2124114672
| 11> O 1.4035042683 -0.5839481402 1.1014501269
| 12> C 1.4635034656 -0.0409256678 2.4319699472
| 13> C 2.6313550249 -0.6238758801 3.2010860084
| 14> S 0.9526368979 -0.0675171946 -1.7035004315
| 15> C 0.3646996835 1.6290108977 -1.4829173793
| 16> S -0.4127896623 1.9059403267 0.133946182
| 17> P -2.0005289316 0.540143143 -0.1271149731
| 18> S -2.7720228738 0.3591257219 -1.9217420086
| 19> O -2.9236810505 1.1784872828 0.9890012887
| 20> C -4.2496009893 0.6511852256 1.2281068028
| 21> C -5.0039326255 1.6584269371 2.0707257433
| 22> O -1.5532719951 -0.8377752638 0.5373399598
| 23> C -1.3929351845 -2.0805801845 -0.1689325718
| 24> C -2.5478761965 -3.0077128468 0.1539950112
| 25> H 3.3167874814 -2.8738594391 -2.5297176375
| 26> H 2.3520976677 -4.171318712 -1.8067497732
| 27> H 1.6232742122 -2.5878271506 -2.1209839371
| 28> H 3.8640736397 -3.1758475306 -0.1094008684
| 29> H 2.1606965997 -2.8302610391 0.3052254943
| 30> H 1.5464059327 1.0485144302 2.3658693006
| 31> H 0.5025221252 -0.3077545529 2.8753622923
| 32> H 3.5638060832 -0.3579279797 2.7039042505
| 33> H 2.6392373316 -0.2156906255 4.2066656469
| 34> H 2.5531331175 -1.7066368703 3.2519271536
| 35> H -0.3582902158 1.8106784097 -2.2776856631
| 36> H 1.2066044471 2.3178875559 -1.5437043077
| 37> H -4.738627824 0.4898498085 0.2610815531
| 38> H -4.1489541918 -0.3072871942 1.7440721283
| 39> H -5.0831384099 2.6029931789 1.540164967
| 40> H -5.9988099895 1.2775447185 2.2773954288
| 41> H -4.4784400781 1.8261693507 3.0062734596
| 42> H -1.3451558564 -1.8817773802 -1.2440613243
| 43> H -0.4392066076 -2.488138114 0.1709430767
| 44> H -3.4781338349 -2.5826778465 -0.217602659
| 45> H -2.3799799822 -3.9653558709 -0.3277827265
| 46> H -2.6266094076 -3.1531645818 1.2277975621
| 47> *
| 48>
| 49>                          ****END OF INPUT****

CARTESIAN COORDINATES (ANGSTROEM)
---------------------------------
  C      2.532363   -3.100891   -1.813249
  C      2.954582   -2.662335   -0.425852
  O      3.324534   -1.261088   -0.401485
  P      2.336778   -0.065621   -0.091216
  S      3.305209    1.601137    0.212411
  O      1.403504   -0.583948    1.101450
  C      1.463503   -0.040926    2.431970
  C      2.631355   -0.623876    3.201086
  S      0.952637   -0.067517   -1.703500
  C      0.364700    1.629011   -1.482917
  S     -0.412790    1.905940    0.133946
  P     -2.000529    0.540143   -0.127115
  S     -2.772023    0.359126   -1.921742
  O     -2.923681    1.178487    0.989001
  C     -4.249601    0.651185    1.228107
  C     -5.003933    1.658427    2.070726
  O     -1.553272   -0.837775    0.537340
  C     -1.392935   -2.080580   -0.168933
  C     -2.547876   -3.007713    0.153995
  H      3.316787   -2.873859   -2.529718
  H      2.352098   -4.171319   -1.806750
  H      1.623274   -2.587827   -2.120984
  H      3.864074   -3.175848   -0.109401
  H      2.160697   -2.830261    0.305225
  H      1.546406    1.048514    2.365869
  H      0.502522   -0.307755    2.875362
  H      3.563806   -0.357928    2.703904
  H      2.639237   -0.215691    4.206666
  H      2.553133   -1.706637    3.251927
  H     -0.358290    1.810678   -2.277686
  H      1.206604    2.317888   -1.543704
  H     -4.738628    0.489850    0.261082
  H     -4.148954   -0.307287    1.744072
  H     -5.083138    2.602993    1.540165
  H     -5.998810    1.277545    2.277395
  H     -4.478440    1.826169    3.006273
  H     -1.345156   -1.881777   -1.244061
  H     -0.439207   -2.488138    0.170943
  H     -3.478134   -2.582678   -0.217603
  H     -2.379980   -3.965356   -0.327783
  H     -2.626609   -3.153165    1.227798

 Total Charge           Charge          ....    0
 Multiplicity           Mult            ....    1
 Number of Electrons    NEL             ....  202
 Basis Dimension        Dim             ....  539

ORBITAL ENERGIES
----------------

  NO   OCC          E(Eh)            E(eV)
   0   2.0000     -88.575170     -2410.2529
   1   2.0000     -88.574281     -2410.2287
   2   2.0000     -88.522026     -2408.8068
   3   2.0000     -88.520870     -2408.7753
   4   2.0000     -76.915854     -2092.9868
   5   2.0000     -76.913955     -2092.9351
   6   2.0000     -18.995885      -516.9043
   7   2.0000     -18.992281      -516.8062
   8   2.0000     -18.990343      -516.7535
   9   2.0000     -18.988851      -516.7129
  10   2.0000     -10.110060      -275.1087
  11   2.0000     -10.105168      -274.9756
  12   2.0000     -10.102136      -274.8931
  13   2.0000     -10.096838      -274.7489
  14   2.0000     -10.094829      -274.6943
  15   2.0000     -10.039577      -273.1908
  16   2.0000     -10.034944      -273.0647
  17   2.0000     -10.032887      -273.0087
  18   2.0000     -10.029066      -272.9047
  19   2.0000      -7.869712      -214.1458
  20   2.0000      -7.868492      -214.1126
  21   2.0000      -7.816821      -212.7065
  22   2.0000      -7.815711      -212.6763
  23   2.0000      -6.594029      -179.4326
  24   2.0000      -6.592474      -179.3903
  25   2.0000      -5.816564      -158.2767
  26   2.0000      -5.815487      -158.2474
  27   2.0000      -5.813594      -158.1959
  28   2.0000      -5.812466      -158.1652
  29   2.0000      -5.806788      -158.0107
  30   2.0000      -5.805384      -157.9725
  31   2.0000      -5.764431      -156.8581
  32   2.0000      -5.763521      -156.8334
  33   2.0000      -5.757324      -156.6647
  34   2.0000      -5.756630      -156.6459
  35   2.0000      -5.755897      -156.6259
  36   2.0000      -5.755623      -156.6185
  37   2.0000      -4.739937      -128.9802
  38   2.0000      -4.738583      -128.9434
  39   2.0000      -4.737929      -128.9256
  40   2.0000      -4.737793      -128.9219
  41   2.0000      -4.737259      -128.9074
  42   2.0000      -4.736372      -128.8832
  43   2.0000      -1.050141       -28.5758
  44   2.0000      -1.049034       -28.5457
  45   2.0000      -1.010660       -27.5014
  46   2.0000      -1.009135       -27.4600
  47   2.0000      -0.803365       -21.8607
  48   2.0000      -0.763436       -20.7741
  49   2.0000      -0.754564       -20.5327
  50   2.0000      -0.736275       -20.0351
  51   2.0000      -0.734958       -19.9992
  52   2.0000      -0.709903       -19.3175
  53   2.0000      -0.686762       -18.6878
  54   2.0000      -0.670583       -18.2475
  55   2.0000      -0.630119       -17.1464
  56   2.0000      -0.621007       -16.8985
  57   2.0000      -0.615335       -16.7441
  58   2.0000      -0.608477       -16.5575
  59   2.0000      -0.589853       -16.0507
  60   2.0000      -0.533263       -14.5108
  61   2.0000      -0.524521       -14.2729
  62   2.0000      -0.502410       -13.6713
  63   2.0000      -0.499248       -13.5852
  64   2.0000      -0.472974       -12.8703
  65   2.0000      -0.467008       -12.7079
  66   2.0000      -0.461181       -12.5494
  67   2.0000      -0.456050       -12.4097
  68   2.0000      -0.447434       -12.1753
  69   2.0000      -0.432428       -11.7670
  70   2.0000      -0.423554       -11.5255
  71   2.0000      -0.415601       -11.3091
  72   2.0000      -0.411231       -11.1902
  73   2.0000      -0.403224       -10.9723
  74   2.0000      -0.395040       -10.7496
  75   2.0000      -0.392030       -10.6677
  76   2.0000      -0.380336       -10.3495
  77   2.0000      -0.377266       -10.2659
  78   2.0000      -0.376410       -10.2426
  79   2.0000      -0.373379       -10.1602
  80   2.0000      -0.368545       -10.0286
  81   2.0000      -0.365437        -9.9441
  82   2.0000      -0.360668        -9.8143
  83   2.0000      -0.355082        -9.6623
  84   2.0000      -0.348511        -9.4835
  85   2.0000      -0.338395        -9.2082
  86   2.0000      -0.329313        -8.9611
  87   2.0000      -0.319324        -8.6892
  88   2.0000      -0.313480        -8.5302
  89   2.0000      -0.305376        -8.3097
  90   2.0000      -0.298080        -8.1112
  91   2.0000      -0.292678        -7.9642
  92   2.0000      -0.289197        -7.8694
  93   2.0000      -0.286880        -7.8064
  94   2.0000      -0.272435        -7.4133
  95   2.0000      -0.244768        -6.6605
  96   2.0000      -0.230421        -6.2701
  97   2.0000      -0.227068        -6.1788
  98   2.0000      -0.221820        -6.0360
  99   2.0000      -0.213858        -5.8194
 100   2.0000      -0.211605        -5.7581
 101   0.0000      -0.050024        -1.3612
 102   0.0000      -0.027646        -0.7523
 103   0.0000       0.002160         0.0588
 104   0.0000       0.002836         0.0772
 105   0.0000       0.008733         0.2376

MULLIKEN ATOMIC CHARGES
-----------------------
   0 C :   -0.417376
   1 C :   -0.177243
   2 O :   -0.279039
   3 P :    0.687680
   4 S :   -0.445098
   5 O :   -0.269705
   6 C :   -0.160942
   7 C :   -0.450945
   8 S :   -0.161344
   9 C :   -0.238349
  10 S :   -0.128772
  11 P :    0.711545
  12 S :   -0.488175
  13 O :   -0.304920
  14 C :   -0.155129
  15 C :   -0.448055
  16 O :   -0.257883
  17 C :   -0.117977
  18 C :   -0.491565
  19 H :    0.165520
  20 H :    0.149713
  21 H :    0.151185
  22 H :    0.155640
  23 H :    0.160426
  24 H :    0.179793
  25 H :    0.160475
  26 H :    0.174350
  27 H :    0.148043
  28 H :    0.144919
  29 H :    0.212055
  30 H :    0.211493
  31 H :    0.170332
  32 H :    0.150528
  33 H :    0.160623
  34 H :    0.145609
  35 H :    0.153614
  36 H :    0.182538
  37 H :    0.151272
  38 H :    0.164989
  39 H :    0.146073
  40 H :    0.154102
Sum of atomic charges:   -0.0000000

LOEWDIN ATOMIC CHARGES
----------------------
   0 C :   -0.398740
   1 C :    0.024553
   2 O :   -0.651717
   3 P :    0.385926
   4 S :   -0.093180
   5 O :   -0.700732
   6 C :    0.008039
   7 C :   -0.399190
   8 S :    0.145614
   9 C :   -0.417736
  10 S :    0.192028
  11 P :    0.382527
  12 S :   -0.131088
  13 O :   -0.673293
  14 C :    0.023697
  15 C :   -0.384262
  16 O :   -0.663260
  17 C :    0.000504
  18 C :   -0.396559
  19 H :    0.165310
  20 H :    0.160160
  21 H :    0.162559
  22 H :    0.182670
  23 H :    0.175741
  24 H :    0.183536
  25 H :    0.181289
  26 H :    0.166756
  27 H :    0.160488
  28 H :    0.154299
  29 H :    0.190437
  30 H :    0.191132
  31 H :    0.180275
  32 H :    0.170492
  33 H :    0.163029
  34 H :    0.159688
  35 H :    0.160231
  36 H :    0.184300
  37 H :    0.175667
  38 H :    0.162168
  39 H :    0.159500
  40 H :    0.157143

  Mayer bond orders larger than 0.100000
B(  0-C ,  1-C ) :   0.9528 B(  0-C , 19-H ) :   0.9704 B(  0-C , 20-H ) :   0.9660
B(  0-C , 21-H ) :   0.9489 B(  1-C ,  2-O ) :   0.7667 B(  1-C , 22-H ) :   0.9607
B(  1-C , 23-H ) :   0.9702 B(  2-O ,  3-P ) :   1.1299 B(  3-P ,  4-S ) :   1.8401
B(  3-P ,  5-O ) :   1.0306 B(  3-P ,  8-S ) :   1.0244 B(  5-O ,  6-C ) :   0.7699
B(  6-C ,  7-C ) :   0.9241 B(  6-C , 24-H ) :   0.9548 B(  6-C , 25-H ) :   0.9647
B(  7-C , 26-H ) :   0.9620 B(  7-C , 27-H ) :   0.9638 B(  7-C , 28-H ) :   0.9759
B(  8-S ,  9-C ) :   0.8902 B(  9-C , 10-S ) :   0.8903 B(  9-C , 29-H ) :   0.9128
B(  9-C , 30-H ) :   0.9104 B( 10-S , 11-P ) :   1.0776 B( 11-P , 12-S ) :   1.7439
B( 11-P , 13-O ) :   1.1951 B( 11-P , 16-O ) :   1.0522 B( 13-O , 14-C ) :   0.7645
B( 14-C , 15-C ) :   0.9647 B( 14-C , 31-H ) :   0.9462 B( 14-C , 32-H ) :   0.9436
B( 15-C , 33-H ) :   0.9708 B( 15-C , 34-H ) :   0.9637 B( 15-C , 35-H ) :   0.9728
B( 16-O , 17-C ) :   0.7356 B( 17-C , 18-C ) :   0.9318 B( 17-C , 36-H ) :   0.9501
B( 17-C , 37-H ) :   0.9601 B( 18-C , 38-H ) :   0.9704 B( 18-C , 39-H ) :   0.9648
B( 18-C , 40-H ) :   0.9804

Dispersion correction           -0.022012447
FINAL SINGLE POINT ENERGY     -2932.461969699177

DIPOLE MOMENT
-------------

Method             : SCF
Type of density    : Electron Density
Multiplicity       :   1
Irrep              :   0
Energy             : -2932.4865209521790348 Eh
Relativity type    :
Basis              : AO
                                X                 Y                 Z
Electronic contribution:      8.745172792      18.664359546     -12.121116617
Nuclear contribution   :     -9.471869345     -20.475387230      13.231266455
                        -----------------------------------------
Total Dipole Moment    :     -0.726696553      -1.811027684       1.110149839
                        -----------------------------------------
Magnitude (a.u.)       :      2.245070559
Magnitude (Debye)      :      5.706515858

Rotational constants in cm-1:             0.011556             0.005401             0.005068
Rotational constants in MHz :           346.453062           161.908104           151.938529

                             ****ORCA TERMINATED NORMALLY****
TOTAL RUN TIME: 0 days 0 hours 1 minutes 27 seconds 203 msec
