                         Program Version 6.0.0  -   RELEASE  -
|  1> ! r2scan-3c def2/J RI DEFGRID2 scfconv6 printgap
|  2> %output
|  3>     printlevel normal
|  4> end
|  5> %cpcm
|  6>     smd true
|  7>     smdsolvent "water"
|  8> end
|  9> * xyz 0 1
| 10> C 2.5323625923 -3.1008910411 -1.8132492027
| 11> C 2.9545817739 -2.6623346119 -0.4258523465
| 12> O 3.3245337035 -1.2610875959 -0.4014847763
| 13> P 2.3367779813 -0.0656206559 -0.0912163265
| 14> S 3.305208606 1.6011370887 0.2124114672
| 15> O 1.4035042683 -0.5839481402 1.1014501269
| 16> C 1.4635034656 -0.0409256678 2.4319699472
| 17> C 2.6313550249 -0.6238758801 3.2010860084
| 18> S 0.9526368979 -0.0675171946 -1.7035004315
| 19> C 0.3646996835 1.6290108977 -1.4829173793
| 20> S -0.4127896623 1.9059403267 0.133946182
| 21> P -2.0005289316 0.540143143 -0.1271149731
| 22> S -2.7720228738 0.3591257219 -1.9217420086
| 23> O -2.9236810505 1.1784872828 0.9890012887
| 24> C -4.2496009893 0.6511852256 1.2281068028
| 25> C -5.0039326255 1.6584269371 2.0707257433
| 26> O -1.5532719951 -0.8377752638 0.5373399598
| 27> C -1.3929351845 -2.0805801845 -0.1689325718
| 28> C -2.5478761965 -3.0077128468 0.1539950112
| 29> H 3.3167874814 -2.8738594391 -2.5297176375
| 30> H 2.3520976677 -4.171318712 -1.8067497732
| 31> H 1.6232742122 -2.5878271506 -2.1209839371
| 32> H 3.8640736397 -3.1758475306 -0.1094008684
| 33> H 2.1606965997 -2.8302610391 0.3052254943
| 34> H 1.5464059327 1.0485144302 2.3658693006
| 35> H 0.5025221252 -0.3077545529 2.8753622923
| 36> H 3.5638060832 -0.3579279797 2.7039042505
| 37> H 2.6392373316 -0.2156906255 4.2066656469
| 38> H 2.5531331175 -1.7066368703 3.2519271536
| 39> H -0.3582902158 1.8106784097 -2.2776856631
| 40> H 1.2066044471 2.3178875559 -1.5437043077
| 41> H -4.738627824 0.4898498085 0.2610815531
| 42> H -4.1489541918 -0.3072871942 1.7440721283
| 43> H -5.0831384099 2.6029931789 1.540164967
| 44> H -5.9988099895 1.2775447185 2.2773954288
| 45> H -4.4784400781 1.8261693507 3.0062734596
| 46> H -1.3451558564 -1.8817773802 -1.2440613243
| 47> H -0.4392066076 -2.488138114 0.1709430767
| 48> H -3.4781338349 -2.5826778465 -0.217602659
| 49> H -2.3799799822 -3.9653558709 -0.3277827265
| 50> H -2.6266094076 -3.1531645818 1.2277975621
| 51> *
| 52>
| 53>                          ****END OF INPUT****

CARTESIAN COORDINATES (ANGSTROEM)
---------------------------------
  C      2.532363   -3.100891   -1.813249
  C      2.954582   -2.662335   -0.425852
  O      3.324534   -1.261088   -0.401485
  P      2.336778   -0.065621   -0.091216
  S      3.305209    1.601137    0.212411
  O      1.403504   -0.583948    1.101450
  C      1.463503   -0.040926    2.431970
  C      2.631355   -0.623876    3.201086
  S      0.952637   -0.067517   -1.703500
  C      0.364700    1.629011   -1.482917
  S     -0.412790    1.905940    0.133946
  P     -2.000529    0.540143   -0.127115
  S     -2.772023    0.359126   -1.921742
  O     -2.923681    1.178487    0.989001
  C     -4.249601    0.651185    1.228107
  C     -5.003933    1.658427    2.070726
  O     -1.553272   -0.837775    0.537340
  C     -1.392935   -2.080580   -0.168933
  C     -2.547876   -3.007713    0.153995
  H      3.316787   -2.873859   -2.529718
  H      2.352098   -4.171319   -1.806750
  H      1.623274   -2.587827   -2.120984
  H      3.864074   -3.175848   -0.109401
  H      2.160697   -2.830261    0.305225
  H      1.546406    1.048514    2.365869
  H      0.502522   -0.307755    2.875362
  H      3.563806   -0.357928    2.703904
  H      2.639237   -0.215691    4.206666
  H      2.553133   -1.706637    3.251927
  H     -0.358290    1.810678   -2.277686
  H      1.206604    2.317888   -1.543704
  H     -4.738628    0.489850    0.261082
  H     -4.148954   -0.307287    1.744072
  H     -5.083138    2.602993    1.540165
  H     -5.998810    1.277545    2.277395
  H     -4.478440    1.826169    3.006273
  H     -1.345156   -1.881777   -1.244061
  H     -0.439207   -2.488138    0.170943
  H     -3.478134   -2.582678   -0.217603
  H     -2.379980   -3.965356   -0.327783
  H     -2.626609   -3.153165    1.227798

 Total Charge           Charge          ....    0
 Multiplicity           Mult            ....    1
 Number of Electrons    NEL             ....  202
 Basis Dimension        Dim             ....  539

ORBITAL ENERGIES
----------------

  NO   OCC          E(Eh)            E(eV)
   0   2.0000     -88.579874     -2410.3809
   1   2.0000     -88.578898     -2410.3543
   2   2.0000     -88.530488     -2409.0370
   3   2.0000     -88.529174     -2409.0013
   4   2.0000     -76.921109     -2093.1298
   5   2.0000     -76.919037     -2093.0734
   6   2.0000     -18.996359      -516.9172
   7   2.0000     -18.994435      -516.8649
   8   2.0000     -18.992069      -516.8005
   9   2.0000     -18.989747      -516.7373
  10   2.0000     -10.105463      -274.9836
  11   2.0000     -10.093079      -274.6466
  12   2.0000     -10.090620      -274.5797
  13   2.0000     -10.087296      -274.4893
  14   2.0000     -10.086411      -274.4652
  15   2.0000     -10.021531      -272.6997
  16   2.0000     -10.019840      -272.6537
  17   2.0000     -10.017436      -272.5883
  18   2.0000     -10.017225      -272.5826
  19   2.0000      -7.874178      -214.2673
  20   2.0000      -7.873409      -214.2464
  21   2.0000      -7.825698      -212.9481
  22   2.0000      -7.824248      -212.9086
  23   2.0000      -6.599296      -179.5760
  24   2.0000      -6.597570      -179.5290
  25   2.0000      -5.821105      -158.4003
  26   2.0000      -5.820241      -158.3768
  27   2.0000      -5.818099      -158.3185
  28   2.0000      -5.817282      -158.2963
  29   2.0000      -5.811189      -158.1305
  30   2.0000      -5.810520      -158.1123
  31   2.0000      -5.773392      -157.1020
  32   2.0000      -5.771802      -157.0587
  33   2.0000      -5.765845      -156.8966
  34   2.0000      -5.765696      -156.8926
  35   2.0000      -5.764676      -156.8648
  36   2.0000      -5.764137      -156.8502
  37   2.0000      -4.745138      -129.1218
  38   2.0000      -4.743823      -129.0860
  39   2.0000      -4.743202      -129.0691
  40   2.0000      -4.742978      -129.0630
  41   2.0000      -4.742345      -129.0458
  42   2.0000      -4.741556      -129.0243
  43   2.0000      -1.051309       -28.6076
  44   2.0000      -1.049616       -28.5615
  45   2.0000      -1.011083       -27.5130
  46   2.0000      -1.009391       -27.4669
  47   2.0000      -0.806197       -21.9377
  48   2.0000      -0.758608       -20.6428
  49   2.0000      -0.745409       -20.2836
  50   2.0000      -0.726243       -19.7621
  51   2.0000      -0.723399       -19.6847
  52   2.0000      -0.707878       -19.2623
  53   2.0000      -0.689342       -18.7580
  54   2.0000      -0.676877       -18.4188
  55   2.0000      -0.628230       -17.0950
  56   2.0000      -0.614778       -16.7290
  57   2.0000      -0.605388       -16.4734
  58   2.0000      -0.600046       -16.3281
  59   2.0000      -0.586057       -15.9474
  60   2.0000      -0.528411       -14.3788
  61   2.0000      -0.518129       -14.0990
  62   2.0000      -0.498149       -13.5553
  63   2.0000      -0.493362       -13.4251
  64   2.0000      -0.471818       -12.8388
  65   2.0000      -0.461039       -12.5455
  66   2.0000      -0.454344       -12.3633
  67   2.0000      -0.447926       -12.1887
  68   2.0000      -0.439784       -11.9671
  69   2.0000      -0.428820       -11.6688
  70   2.0000      -0.420561       -11.4441
  71   2.0000      -0.411066       -11.1857
  72   2.0000      -0.408082       -11.1045
  73   2.0000      -0.395698       -10.7675
  74   2.0000      -0.394090       -10.7237
  75   2.0000      -0.387241       -10.5374
  76   2.0000      -0.376274       -10.2389
  77   2.0000      -0.368990       -10.0407
  78   2.0000      -0.364482        -9.9181
  79   2.0000      -0.362034        -9.8515
  80   2.0000      -0.358681        -9.7602
  81   2.0000      -0.355272        -9.6674
  82   2.0000      -0.351141        -9.5550
  83   2.0000      -0.344159        -9.3650
  84   2.0000      -0.343844        -9.3565
  85   2.0000      -0.333355        -9.0711
  86   2.0000      -0.322811        -8.7841
  87   2.0000      -0.313608        -8.5337
  88   2.0000      -0.306982        -8.3534
  89   2.0000      -0.301929        -8.2159
  90   2.0000      -0.294893        -8.0245
  91   2.0000      -0.288614        -7.8536
  92   2.0000      -0.287753        -7.8302
  93   2.0000      -0.285464        -7.7679
  94   2.0000      -0.272586        -7.4174
  95   2.0000      -0.248766        -6.7693
  96   2.0000      -0.238613        -6.4930
  97   2.0000      -0.234806        -6.3894
  98   2.0000      -0.231411        -6.2970
  99   2.0000      -0.222837        -6.0637
 100   2.0000      -0.219168        -5.9639
 101   0.0000      -0.055582        -1.5125
 102   0.0000      -0.033983        -0.9247
 103   0.0000      -0.002503        -0.0681
 104   0.0000       0.001880         0.0512
 105   0.0000       0.007363         0.2004

MULLIKEN ATOMIC CHARGES
-----------------------
   0 C :   -0.458053
   1 C :   -0.162825
   2 O :   -0.316051
   3 P :    0.702632
   4 S :   -0.502437
   5 O :   -0.284570
   6 C :   -0.143768
   7 C :   -0.486807
   8 S :   -0.169394
   9 C :   -0.249252
  10 S :   -0.151528
  11 P :    0.730650
  12 S :   -0.527648
  13 O :   -0.337599
  14 C :   -0.140416
  15 C :   -0.491213
  16 O :   -0.288648
  17 C :   -0.099977
  18 C :   -0.523142
  19 H :    0.174577
  20 H :    0.175776
  21 H :    0.151913
  22 H :    0.178197
  23 H :    0.182785
  24 H :    0.176754
  25 H :    0.180183
  26 H :    0.166632
  27 H :    0.170156
  28 H :    0.167000
  29 H :    0.234254
  30 H :    0.232196
  31 H :    0.173202
  32 H :    0.174722
  33 H :    0.166726
  34 H :    0.169843
  35 H :    0.166293
  36 H :    0.176358
  37 H :    0.178651
  38 H :    0.165695
  39 H :    0.169417
  40 H :    0.168719
Sum of atomic charges:    0.0000000

LOEWDIN ATOMIC CHARGES
----------------------
   0 C :   -0.400126
   1 C :    0.034037
   2 O :   -0.671488
   3 P :    0.387880
   4 S :   -0.135695
   5 O :   -0.703473
   6 C :    0.012762
   7 C :   -0.401298
   8 S :    0.145712
   9 C :   -0.413342
  10 S :    0.176858
  11 P :    0.383451
  12 S :   -0.157924
  13 O :   -0.690039
  14 C :    0.030293
  15 C :   -0.388869
  16 O :   -0.674176
  17 C :    0.007303
  18 C :   -0.398254
  19 H :    0.165609
  20 H :    0.171255
  21 H :    0.160985
  22 H :    0.192592
  23 H :    0.186170
  24 H :    0.182005
  25 H :    0.189465
  26 H :    0.162431
  27 H :    0.168054
  28 H :    0.162384
  29 H :    0.197040
  30 H :    0.196994
  31 H :    0.182367
  32 H :    0.181094
  33 H :    0.163100
  34 H :    0.169350
  35 H :    0.163402
  36 H :    0.183401
  37 H :    0.186423
  38 H :    0.161486
  39 H :    0.167890
  40 H :    0.162891

  Mayer bond orders larger than 0.100000
B(  0-C ,  1-C ) :   0.9410 B(  0-C , 19-H ) :   0.9716 B(  0-C , 20-H ) :   0.9582
B(  0-C , 21-H ) :   0.9483 B(  1-C ,  2-O ) :   0.7577 B(  1-C , 22-H ) :   0.9515
B(  1-C , 23-H ) :   0.9576 B(  2-O ,  3-P ) :   1.1402 B(  3-P ,  4-S ) :   1.8126
B(  3-P ,  5-O ) :   1.0418 B(  3-P ,  8-S ) :   1.0376 B(  5-O ,  6-C ) :   0.7557
B(  6-C ,  7-C ) :   0.9244 B(  6-C , 24-H ) :   0.9522 B(  6-C , 25-H ) :   0.9538
B(  7-C , 26-H ) :   0.9639 B(  7-C , 27-H ) :   0.9594 B(  7-C , 28-H ) :   0.9706
B(  8-S ,  9-C ) :   0.8780 B(  9-C , 10-S ) :   0.8802 B(  9-C , 29-H ) :   0.9070
B(  9-C , 30-H ) :   0.9045 B( 10-S , 11-P ) :   1.0867 B( 11-P , 12-S ) :   1.7223
B( 11-P , 13-O ) :   1.1998 B( 11-P , 16-O ) :   1.0583 B( 13-O , 14-C ) :   0.7584
B( 14-C , 15-C ) :   0.9536 B( 14-C , 31-H ) :   0.9429 B( 14-C , 32-H ) :   0.9342
B( 15-C , 33-H ) :   0.9698 B( 15-C , 34-H ) :   0.9577 B( 15-C , 35-H ) :   0.9699
B( 16-O , 17-C ) :   0.7248 B( 17-C , 18-C ) :   0.9338 B( 17-C , 36-H ) :   0.9473
B( 17-C , 37-H ) :   0.9481 B( 18-C , 38-H ) :   0.9686 B( 18-C , 39-H ) :   0.9601
B( 18-C , 40-H ) :   0.9748

Dispersion correction           -0.022012447
FINAL SINGLE POINT ENERGY     -2932.472713427348

DIPOLE MOMENT
-------------

Method             : SCF
Type of density    : Electron Density
Multiplicity       :   1
Irrep              :   0
Energy             : -2932.4972646803494172 Eh
Relativity type    :
Basis              : AO
                                X                 Y                 Z
Electronic contribution:      8.425864511      17.812005156     -11.783510150
Nuclear contribution   :     -9.471869345     -20.475387230      13.231266455
                        -----------------------------------------
Total Dipole Moment    :     -1.046004834      -2.663382073       1.447756306
                        -----------------------------------------
Magnitude (a.u.)       :      3.206825300
Magnitude (Debye)      :      8.151102133

Rotational constants in cm-1:             0.011556             0.005401             0.005068
Rotational constants in MHz :           346.453062           161.908104           151.938529

                             ****ORCA TERMINATED NORMALLY****
TOTAL RUN TIME: 0 days 0 hours 1 minutes 54 seconds 544 msec
