                         Program Version 6.0.0  -   RELEASE  -
|  1> ! r2scan-3c def2/J RI DEFGRID2 scfconv6 printgap
|  2> %output
|  3>     printlevel normal
|  4> end
|  5> * xyz 0 1
|  6> C -1.2662609136 0.7023712821 -0.0026031096
|  7> C 4.7763e-06 -0.1031621232 5.85093e-05
|  8> O 0.0001259686 -1.3197712551 -1.36944e-05
|  9> C 1.2661244572 0.7025862544 0.0025975636
| 10> H -1.401176075 1.1352354384 0.9866462008
| 11> H -1.1974476521 1.5149416424 -0.7193443187
| 12> H -2.1190360027 0.0679261285 -0.2274692578
| 13> H 1.401824459 1.1337062498 -0.9872875516
| 14> H 2.1188130865 0.0686306885 0.2292142476
| 15> H 1.1965917554 1.5164209049 0.7178269387
| 16> *
| 17>
| 18>                          ****END OF INPUT****

CARTESIAN COORDINATES (ANGSTROEM)
---------------------------------
  C     -1.266261    0.702371   -0.002603
  C      0.000005   -0.103162    0.000059
  O      0.000126   -1.319771   -0.000014
  C      1.266124    0.702586    0.002598
  H     -1.401176    1.135235    0.986646
  H     -1.197448    1.514942   -0.719344
  H     -2.119036    0.067926   -0.227469
  H      1.401824    1.133706   -0.987288
  H      2.118813    0.068631    0.229214
  H      1.196592    1.516421    0.717827

 Total Charge           Charge          ....    0
 Multiplicity           Mult            ....    1
 Number of Electrons    NEL             ....   32
 Basis Dimension        Dim             ....  111

ORBITAL ENERGIES
----------------

  NO   OCC          E(Eh)            E(eV)
   0   2.0000     -18.937036      -515.3029
   1   2.0000     -10.122371      -275.4437
   2   2.0000     -10.036010      -273.0937
   3   2.0000     -10.036003      -273.0935
   4   2.0000      -1.002665       -27.2839
   5   2.0000      -0.745119       -20.2757
   6   2.0000      -0.682065       -18.5599
   7   2.0000      -0.503217       -13.6932
   8   2.0000      -0.436448       -11.8764
   9   2.0000      -0.428291       -11.6544
  10   2.0000      -0.422782       -11.5045
  11   2.0000      -0.379511       -10.3270
  12   2.0000      -0.363778        -9.8989
  13   2.0000      -0.349914        -9.5216
  14   2.0000      -0.322575        -8.7777
  15   2.0000      -0.215304        -5.8587
  16   0.0000      -0.044769        -1.2182
  17   0.0000       0.081012         2.2044
  18   0.0000       0.126974         3.4551
  19   0.0000       0.131591         3.5808
  20   0.0000       0.139735         3.8024

MULLIKEN ATOMIC CHARGES
-----------------------
   0 C :   -0.471551
   1 C :    0.305934
   2 O :   -0.346334
   3 C :   -0.471557
   4 H :    0.167299
   5 H :    0.148457
   6 H :    0.175982
   7 H :    0.167365
   8 H :    0.175985
   9 H :    0.148420
Sum of atomic charges:   -0.0000000

LOEWDIN ATOMIC CHARGES
----------------------
   0 C :   -0.391001
   1 C :    0.207965
   2 O :   -0.463290
   3 C :   -0.391005
   4 H :    0.176503
   5 H :    0.166982
   6 H :    0.175176
   7 H :    0.176542
   8 H :    0.175192
   9 H :    0.166936

  Mayer bond orders larger than 0.100000
B(  0-C ,  1-C ) :   0.9183 B(  0-C ,  4-H ) :   0.9425 B(  0-C ,  5-H ) :   0.9505
B(  0-C ,  6-H ) :   0.9768 B(  1-C ,  2-O ) :   1.9577 B(  1-C ,  3-C ) :   0.9183
B(  3-C ,  7-H ) :   0.9425 B(  3-C ,  8-H ) :   0.9768 B(  3-C ,  9-H ) :   0.9506

Dispersion correction           -0.001722261
FINAL SINGLE POINT ENERGY      -193.105524845337

DIPOLE MOMENT
-------------

Method             : SCF
Type of density    : Electron Density
Multiplicity       :   1
Irrep              :   0
Energy             :  -193.1085436431342544 Eh
Relativity type    :
Basis              : AO
                                X                 Y                 Z
Electronic contribution:      0.000338085      -3.874722932       0.000283354
Nuclear contribution   :     -0.000401945       5.081099687      -0.000388364
                        -----------------------------------------
Total Dipole Moment    :     -0.000063859       1.206376755      -0.000105010
                        -----------------------------------------
Magnitude (a.u.)       :      1.206376761
Magnitude (Debye)      :      3.066366039

Rotational constants in cm-1:             0.335846             0.293058             0.166089
Rotational constants in MHz :         10068.412123          8785.666205          4979.225467

                             ****ORCA TERMINATED NORMALLY****
TOTAL RUN TIME: 0 days 0 hours 0 minutes 9 seconds 663 msec
