                         Program Version 6.0.0  -   RELEASE  -
|  1> ! r2scan-3c def2/J RI DEFGRID2 scfconv6 printgap
|  2> %output
|  3>     printlevel normal
|  4> end
|  5> %cpcm
|  6>     smd true
|  7>     smdsolvent "water"
|  8> end
|  9> * xyz 0 1
| 10> C -1.2662609136 0.7023712821 -0.0026031096
| 11> C 4.7763e-06 -0.1031621232 5.85093e-05
| 12> O 0.0001259686 -1.3197712551 -1.36944e-05
| 13> C 1.2661244572 0.7025862544 0.0025975636
| 14> H -1.401176075 1.1352354384 0.9866462008
| 15> H -1.1974476521 1.5149416424 -0.7193443187
| 16> H -2.1190360027 0.0679261285 -0.2274692578
| 17> H 1.401824459 1.1337062498 -0.9872875516
| 18> H 2.1188130865 0.0686306885 0.2292142476
| 19> H 1.1965917554 1.5164209049 0.7178269387
| 20> *
| 21>
| 22>                          ****END OF INPUT****

CARTESIAN COORDINATES (ANGSTROEM)
---------------------------------
  C     -1.266261    0.702371   -0.002603
  C      0.000005   -0.103162    0.000059
  O      0.000126   -1.319771   -0.000014
  C      1.266124    0.702586    0.002598
  H     -1.401176    1.135235    0.986646
  H     -1.197448    1.514942   -0.719344
  H     -2.119036    0.067926   -0.227469
  H      1.401824    1.133706   -0.987288
  H      2.118813    0.068631    0.229214
  H      1.196592    1.516421    0.717827

 Total Charge           Charge          ....    0
 Multiplicity           Mult            ....    1
 Number of Electrons    NEL             ....   32
 Basis Dimension        Dim             ....  111

ORBITAL ENERGIES
----------------

  NO   OCC          E(Eh)            E(eV)
   0   2.0000     -18.946176      -515.5517
   1   2.0000     -10.127237      -275.5761
   2   2.0000     -10.022286      -272.7203
   3   2.0000     -10.022279      -272.7201
   4   2.0000      -1.014322       -27.6011
   5   2.0000      -0.735154       -20.0046
   6   2.0000      -0.669822       -18.2268
   7   2.0000      -0.499661       -13.5965
   8   2.0000      -0.426826       -11.6145
   9   2.0000      -0.423892       -11.5347
  10   2.0000      -0.423808       -11.5324
  11   2.0000      -0.363177        -9.8825
  12   2.0000      -0.361115        -9.8264
  13   2.0000      -0.338177        -9.2023
  14   2.0000      -0.327517        -8.9122
  15   2.0000      -0.225865        -6.1461
  16   0.0000      -0.045678        -1.2430
  17   0.0000       0.093680         2.5492
  18   0.0000       0.142338         3.8732
  19   0.0000       0.146287         3.9807
  20   0.0000       0.157197         4.2775

MULLIKEN ATOMIC CHARGES
-----------------------
   0 C :   -0.500569
   1 C :    0.353000
   2 O :   -0.461370
   3 C :   -0.500591
   4 H :    0.199000
   5 H :    0.180620
   6 H :    0.175127
   7 H :    0.199055
   8 H :    0.175154
   9 H :    0.180572
Sum of atomic charges:   -0.0000000

LOEWDIN ATOMIC CHARGES
----------------------
   0 C :   -0.388218
   1 C :    0.228845
   2 O :   -0.545650
   3 C :   -0.388223
   4 H :    0.190845
   5 H :    0.181522
   6 H :    0.174252
   7 H :    0.190876
   8 H :    0.174276
   9 H :    0.181474

  Mayer bond orders larger than 0.100000
B(  0-C ,  1-C ) :   0.9402 B(  0-C ,  4-H ) :   0.9279 B(  0-C ,  5-H ) :   0.9394
B(  0-C ,  6-H ) :   0.9722 B(  1-C ,  2-O ) :   1.8769 B(  1-C ,  3-C ) :   0.9401
B(  3-C ,  7-H ) :   0.9279 B(  3-C ,  8-H ) :   0.9722 B(  3-C ,  9-H ) :   0.9395

Dispersion correction           -0.001722261
FINAL SINGLE POINT ENERGY      -193.113185079458

DIPOLE MOMENT
-------------

Method             : SCF
Type of density    : Electron Density
Multiplicity       :   1
Irrep              :   0
Energy             :  -193.1162038772550602 Eh
Relativity type    :
Basis              : AO
                                X                 Y                 Z
Electronic contribution:      0.000313144      -3.324913699       0.000217859
Nuclear contribution   :     -0.000401945       5.081099687      -0.000388364
                        -----------------------------------------
Total Dipole Moment    :     -0.000088800       1.756185988      -0.000170506
                        -----------------------------------------
Magnitude (a.u.)       :      1.756185998
Magnitude (Debye)      :      4.463870058

Rotational constants in cm-1:             0.335846             0.293058             0.166089
Rotational constants in MHz :         10068.412123          8785.666205          4979.225467

                             ****ORCA TERMINATED NORMALLY****
TOTAL RUN TIME: 0 days 0 hours 0 minutes 10 seconds 221 msec
