                         Program Version 6.0.0  -   RELEASE  -
|  1> ! pbe def2-sv(p) def2/J RI DEFGRID1 loosescf d4 GCP(DFT/SV(P)) printgap
|  2> %output
|  3>     printlevel normal
|  4> end
|  5> * xyz 0 1
|  6> C 3.3399434311 -2.983877064 -0.8626542261
|  7> C 3.8626957304 -1.85268416 -1.7201164376
|  8> O 3.9932265772 -0.6077746152 -0.988953789
|  9> P 2.8768334764 0.1143700199 -0.15371919
| 10> S 3.2911898012 2.0039598586 0.1463548953
| 11> O 2.8389997044 -0.7586490103 1.1771654191
| 12> C 2.152955839 -0.3562178967 2.3757714347
| 13> C 0.9427672514 -1.2389712432 2.6113734102
| 14> S 1.0646122381 -0.2618441408 -1.2341302637
| 15> C 0.2879756509 1.3535698206 -1.0257675072
| 16> S -0.6342687992 1.502186986 0.5288900476
| 17> P -2.2555217628 0.2815716393 -0.0645899124
| 18> S -2.8654171873 0.5080819864 -1.9195418865
| 19> O -3.3507886067 0.5515877069 1.0505640414
| 20> C -4.1722795797 1.7361458369 1.0335769256
| 21> C -5.3900188471 1.4715933166 1.8958585923
| 22> O -1.7280279144 -1.1546924866 0.3297345971
| 23> C -2.2440685945 -2.3555643004 -0.2843000189
| 24> C -3.6751886193 -2.6187987568 0.1317922306
| 25> H 3.355288231 -3.9029340303 -1.4402908676
| 26> H 3.9588797381 -3.1022813022 0.0227287321
| 27> H 2.3168264562 -2.7762403351 -0.5550655726
| 28> H 3.2056923758 -1.6752319623 -2.5753089909
| 29> H 4.8797122419 -2.0425509999 -2.066343288
| 30> H 2.8849168606 -0.471690407 3.1779998716
| 31> H 1.8724744535 0.699870531 2.2988203833
| 32> H 0.2165914731 -1.1212076649 1.8106688785
| 33> H 1.2476494857 -2.2803845805 2.6603159025
| 34> H 0.4757595865 -0.9559369299 3.5491181068
| 35> H -0.3996008713 1.4876371555 -1.8613043379
| 36> H 1.0590881855 2.12546133 -1.0098564703
| 37> H -3.5794722044 2.5679013059 1.4237414434
| 38> H -4.4531688637 1.952750567 -0.0028765542
| 39> H -6.0042372258 2.3654904436 1.9275072191
| 40> H -5.9717105983 0.6520344532 1.4836684239
| 41> H -5.0793158641 1.2118192553 2.9034818312
| 42> H -2.1658981989 -2.2497502249 -1.3708140132
| 43> H -1.5679635661 -3.1379268514 0.0618136022
| 44> H -3.7533905097 -2.6408987194 1.2153939607
| 45> H -4.3202153888 -1.8290977822 -0.2519936758
| 46> H -4.0013847441 -3.57019183 -0.276408957
| 47> *
| 48>
| 49>                          ****END OF INPUT****

CARTESIAN COORDINATES (ANGSTROEM)
---------------------------------
  C      3.339943   -2.983877   -0.862654
  C      3.862696   -1.852684   -1.720116
  O      3.993227   -0.607775   -0.988954
  P      2.876833    0.114370   -0.153719
  S      3.291190    2.003960    0.146355
  O      2.839000   -0.758649    1.177165
  C      2.152956   -0.356218    2.375771
  C      0.942767   -1.238971    2.611373
  S      1.064612   -0.261844   -1.234130
  C      0.287976    1.353570   -1.025768
  S     -0.634269    1.502187    0.528890
  P     -2.255522    0.281572   -0.064590
  S     -2.865417    0.508082   -1.919542
  O     -3.350789    0.551588    1.050564
  C     -4.172280    1.736146    1.033577
  C     -5.390019    1.471593    1.895859
  O     -1.728028   -1.154692    0.329735
  C     -2.244069   -2.355564   -0.284300
  C     -3.675189   -2.618799    0.131792
  H      3.355288   -3.902934   -1.440291
  H      3.958880   -3.102281    0.022729
  H      2.316826   -2.776240   -0.555066
  H      3.205692   -1.675232   -2.575309
  H      4.879712   -2.042551   -2.066343
  H      2.884917   -0.471690    3.178000
  H      1.872474    0.699871    2.298820
  H      0.216591   -1.121208    1.810669
  H      1.247649   -2.280385    2.660316
  H      0.475760   -0.955937    3.549118
  H     -0.399601    1.487637   -1.861304
  H      1.059088    2.125461   -1.009856
  H     -3.579472    2.567901    1.423741
  H     -4.453169    1.952751   -0.002877
  H     -6.004237    2.365490    1.927507
  H     -5.971711    0.652034    1.483668
  H     -5.079316    1.211819    2.903482
  H     -2.165898   -2.249750   -1.370814
  H     -1.567964   -3.137927    0.061814
  H     -3.753391   -2.640899    1.215394
  H     -4.320215   -1.829098   -0.251994
  H     -4.001385   -3.570192   -0.276409

 Total Charge           Charge          ....    0
 Multiplicity           Mult            ....    1
 Number of Electrons    NEL             ....  202
 Basis Dimension        Dim             ....  334

ORBITAL ENERGIES
----------------

  NO   OCC          E(Eh)            E(eV)
   0   2.0000     -88.045398     -2395.8371
   1   2.0000     -88.042650     -2395.7623
   2   2.0000     -87.994061     -2394.4401
   3   2.0000     -87.983438     -2394.1511
   4   2.0000     -76.431546     -2079.8081
   5   2.0000     -76.425769     -2079.6509
   6   2.0000     -18.800122      -511.5773
   7   2.0000     -18.798409      -511.5307
   8   2.0000     -18.793894      -511.4078
   9   2.0000     -18.787083      -511.2225
  10   2.0000      -9.960857      -271.0487
  11   2.0000      -9.958479      -270.9840
  12   2.0000      -9.957268      -270.9510
  13   2.0000      -9.951192      -270.7857
  14   2.0000      -9.946160      -270.6488
  15   2.0000      -9.893188      -269.2073
  16   2.0000      -9.891835      -269.1705
  17   2.0000      -9.889034      -269.0943
  18   2.0000      -9.876296      -268.7477
  19   2.0000      -7.690518      -209.2696
  20   2.0000      -7.687392      -209.1846
  21   2.0000      -7.638911      -207.8653
  22   2.0000      -7.628711      -207.5878
  23   2.0000      -6.429435      -174.9538
  24   2.0000      -6.423230      -174.7850
  25   2.0000      -5.718246      -155.6014
  26   2.0000      -5.715176      -155.5179
  27   2.0000      -5.715159      -155.5174
  28   2.0000      -5.711889      -155.4284
  29   2.0000      -5.707512      -155.3093
  30   2.0000      -5.704547      -155.2286
  31   2.0000      -5.667662      -154.2249
  32   2.0000      -5.659579      -154.0050
  33   2.0000      -5.659227      -153.9954
  34   2.0000      -5.657711      -153.9541
  35   2.0000      -5.649332      -153.7261
  36   2.0000      -5.648720      -153.7095
  37   2.0000      -4.651859      -126.5835
  38   2.0000      -4.651208      -126.5658
  39   2.0000      -4.649929      -126.5310
  40   2.0000      -4.645904      -126.4215
  41   2.0000      -4.644977      -126.3963
  42   2.0000      -4.643612      -126.3591
  43   2.0000      -0.994749       -27.0685
  44   2.0000      -0.986185       -26.8355
  45   2.0000      -0.954027       -25.9604
  46   2.0000      -0.943466       -25.6730
  47   2.0000      -0.765115       -20.8198
  48   2.0000      -0.725463       -19.7409
  49   2.0000      -0.714428       -19.4406
  50   2.0000      -0.694622       -18.9016
  51   2.0000      -0.689418       -18.7600
  52   2.0000      -0.676556       -18.4100
  53   2.0000      -0.651140       -17.7184
  54   2.0000      -0.638411       -17.3721
  55   2.0000      -0.604590       -16.4517
  56   2.0000      -0.597340       -16.2544
  57   2.0000      -0.572673       -15.5832
  58   2.0000      -0.570500       -15.5241
  59   2.0000      -0.561373       -15.2757
  60   2.0000      -0.509894       -13.8749
  61   2.0000      -0.496676       -13.5152
  62   2.0000      -0.483997       -13.1702
  63   2.0000      -0.476831       -12.9752
  64   2.0000      -0.462183       -12.5766
  65   2.0000      -0.450050       -12.2465
  66   2.0000      -0.442132       -12.0310
  67   2.0000      -0.440745       -11.9933
  68   2.0000      -0.430682       -11.7194
  69   2.0000      -0.418423       -11.3859
  70   2.0000      -0.407026       -11.0758
  71   2.0000      -0.403662       -10.9842
  72   2.0000      -0.394781       -10.7425
  73   2.0000      -0.386511       -10.5175
  74   2.0000      -0.383621       -10.4389
  75   2.0000      -0.377633       -10.2759
  76   2.0000      -0.366502        -9.9730
  77   2.0000      -0.362234        -9.8569
  78   2.0000      -0.357346        -9.7239
  79   2.0000      -0.355042        -9.6612
  80   2.0000      -0.352949        -9.6042
  81   2.0000      -0.350982        -9.5507
  82   2.0000      -0.344762        -9.3815
  83   2.0000      -0.341837        -9.3019
  84   2.0000      -0.329810        -8.9746
  85   2.0000      -0.324027        -8.8172
  86   2.0000      -0.314440        -8.5563
  87   2.0000      -0.306098        -8.3294
  88   2.0000      -0.293307        -7.9813
  89   2.0000      -0.292043        -7.9469
  90   2.0000      -0.287501        -7.8233
  91   2.0000      -0.282196        -7.6789
  92   2.0000      -0.276075        -7.5124
  93   2.0000      -0.268570        -7.3082
  94   2.0000      -0.256425        -6.9777
  95   2.0000      -0.236662        -6.4399
  96   2.0000      -0.220464        -5.9991
  97   2.0000      -0.216146        -5.8816
  98   2.0000      -0.206899        -5.6300
  99   2.0000      -0.203221        -5.5299
 100   2.0000      -0.198488        -5.4011
 101   0.0000      -0.046771        -1.2727
 102   0.0000      -0.027786        -0.7561
 103   0.0000      -0.008317        -0.2263
 104   0.0000       0.001657         0.0451
 105   0.0000       0.012676         0.3449

MULLIKEN ATOMIC CHARGES
-----------------------
   0 C :   -0.317403
   1 C :   -0.007159
   2 O :   -0.359311
   3 P :    0.600874
   4 S :   -0.309350
   5 O :   -0.373248
   6 C :   -0.003603
   7 C :   -0.320453
   8 S :   -0.119849
   9 C :   -0.362359
  10 S :   -0.081179
  11 P :    0.615221
  12 S :   -0.333849
  13 O :   -0.374767
  14 C :   -0.015304
  15 C :   -0.281894
  16 O :   -0.353438
  17 C :   -0.000470
  18 C :   -0.310398
  19 H :    0.115346
  20 H :    0.127222
  21 H :    0.127589
  22 H :    0.117210
  23 H :    0.115220
  24 H :    0.103826
  25 H :    0.103543
  26 H :    0.149796
  27 H :    0.104102
  28 H :    0.104204
  29 H :    0.195638
  30 H :    0.197395
  31 H :    0.107000
  32 H :    0.109119
  33 H :    0.114833
  34 H :    0.119927
  35 H :    0.118308
  36 H :    0.114063
  37 H :    0.106470
  38 H :    0.118328
  39 H :    0.124511
  40 H :    0.114287
Sum of atomic charges:   -0.0000000

LOEWDIN ATOMIC CHARGES
----------------------
   0 C :   -0.367675
   1 C :   -0.111859
   2 O :   -0.233432
   3 P :    0.571340
   4 S :   -0.304338
   5 O :   -0.245775
   6 C :   -0.117634
   7 C :   -0.368802
   8 S :    0.065014
   9 C :   -0.489282
  10 S :    0.090163
  11 P :    0.571941
  12 S :   -0.320331
  13 O :   -0.245338
  14 C :   -0.119882
  15 C :   -0.350149
  16 O :   -0.230240
  17 C :   -0.115710
  18 C :   -0.365147
  19 H :    0.132239
  20 H :    0.131199
  21 H :    0.118767
  22 H :    0.111997
  23 H :    0.125038
  24 H :    0.117011
  25 H :    0.102553
  26 H :    0.120511
  27 H :    0.120671
  28 H :    0.128088
  29 H :    0.128448
  30 H :    0.128140
  31 H :    0.112302
  32 H :    0.109683
  33 H :    0.132368
  34 H :    0.128131
  35 H :    0.127833
  36 H :    0.111855
  37 H :    0.119139
  38 H :    0.127121
  39 H :    0.122409
  40 H :    0.131632

  Mayer bond orders larger than 0.100000
B(  0-C ,  1-C ) :   1.1690 B(  0-C , 19-H ) :   0.9344 B(  0-C , 20-H ) :   0.9420
B(  0-C , 21-H ) :   0.9366 B(  1-C ,  2-O ) :   0.9006 B(  1-C , 22-H ) :   0.9223
B(  1-C , 23-H ) :   0.9340 B(  2-O ,  3-P ) :   1.1550 B(  3-P ,  4-S ) :   1.6393
B(  3-P ,  5-O ) :   1.0924 B(  3-P ,  8-S ) :   0.9261 B(  4-S ,  8-S ) :   0.1117
B(  4-S , 30-H ) :   0.1053 B(  5-O ,  6-C ) :   0.9031 B(  6-C ,  7-C ) :   1.1646
B(  6-C , 24-H ) :   0.9353 B(  6-C , 25-H ) :   0.9024 B(  7-C , 26-H ) :   0.9207
B(  7-C , 27-H ) :   0.9461 B(  7-C , 28-H ) :   0.9404 B(  8-S ,  9-C ) :   1.0182
B(  9-C , 10-S ) :   1.0015 B(  9-C , 29-H ) :   0.8678 B(  9-C , 30-H ) :   0.8564
B( 10-S , 11-P ) :   0.9663 B( 10-S , 12-S ) :   0.1084 B( 11-P , 12-S ) :   1.5982
B( 11-P , 13-O ) :   1.1129 B( 11-P , 16-O ) :   1.1261 B( 13-O , 14-C ) :   0.9008
B( 14-C , 15-C ) :   1.1617 B( 14-C , 31-H ) :   0.9295 B( 14-C , 32-H ) :   0.9097
B( 15-C , 33-H ) :   0.9414 B( 15-C , 34-H ) :   0.9513 B( 15-C , 35-H ) :   0.9502
B( 16-O , 17-C ) :   0.8971 B( 17-C , 18-C ) :   1.1649 B( 17-C , 36-H ) :   0.9166
B( 17-C , 37-H ) :   0.9334 B( 18-C , 38-H ) :   0.9459 B( 18-C , 39-H ) :   0.9345
B( 18-C , 40-H ) :   0.9386

Dispersion correction           -0.064030342
FINAL SINGLE POINT ENERGY     -2929.522388347387

DIPOLE MOMENT
-------------

Method             : SCF
Type of density    : Electron Density
Multiplicity       :   1
Irrep              :   0
Energy             : -2929.6435543825173227 Eh
Relativity type    :
Basis              : AO
                                X                 Y                 Z
Electronic contribution:     14.393328916      16.555053674     -10.128281226
Nuclear contribution   :    -15.399100841     -18.029148088      10.727191026
                        -----------------------------------------
Total Dipole Moment    :     -1.005771925      -1.474094414       0.598909800
                        -----------------------------------------
Magnitude (a.u.)       :      1.882345466
Magnitude (Debye)      :      4.784541942

Rotational constants in cm-1:             0.012913             0.004566             0.004299
Rotational constants in MHz :           387.134559           136.891056           128.869292

                             ****ORCA TERMINATED NORMALLY****
TOTAL RUN TIME: 0 days 0 hours 0 minutes 20 seconds 983 msec
