                         Program Version 6.0.0  -   RELEASE  -
|  1> ! r2scan-3c def2/J RI DEFGRID2 scfconv6 printgap
|  2> %output
|  3>     printlevel normal
|  4> end
|  5> * xyz 0 1
|  6> C 5.0819522867 -2.3849766261 -1.4456588898
|  7> C 4.0883401205 -1.2463528912 -1.5594625699
|  8> O 3.0779073465 -1.4365432434 -0.5491524439
|  9> P 2.1748264605 -0.2393748064 -0.0310030274
| 10> S 3.1347732209 1.4130003319 0.4234270417
| 11> O 1.3640982601 -0.9267213081 1.138187964
| 12> C 1.7842599921 -0.8226427404 2.5163547829
| 13> C 3.0686425005 -1.5839755718 2.7635234521
| 14> S 0.6970422213 -0.0606489822 -1.5362591057
| 15> C 0.0406315876 1.5294523552 -0.964649373
| 16> S -0.8788158892 1.3885495041 0.5817153852
| 17> P -2.5678222307 0.385341504 -0.264127948
| 18> S -3.0756333795 0.9636723155 -2.0613844474
| 19> O -3.6429366341 0.4684538219 0.9030818014
| 20> C -4.0318621474 1.6685895929 1.5990608624
| 21> C -4.4693150611 2.7751167361 0.6629808181
| 22> O -2.2499639642 -1.1566556358 -0.279900933
| 23> C -1.9135945266 -1.9220554261 0.9046925323
| 24> C -1.1054207844 -3.1255924915 0.4665297947
| 25> H 5.5657723839 -2.3655321487 -0.4732680005
| 26> H 4.5703002546 -3.3352845408 -1.5663133422
| 27> H 5.8334850848 -2.2796937063 -2.221158007
| 28> H 3.5966034578 -1.2406072284 -2.5359523434
| 29> H 4.569027475 -0.2757672108 -1.3956464663
| 30> H 1.9053661735 0.2369729527 2.7626460861
| 31> H 0.9490586112 -1.2413330991 3.0790019088
| 32> H 3.8814676111 -1.1232631206 2.2032139594
| 33> H 3.3086894822 -1.5537917701 3.8216671575
| 34> H 2.9620269883 -2.6167828576 2.4431947739
| 35> H -0.6259323118 1.8935592163 -1.7475414163
| 36> H 0.8657670535 2.218990515 -0.7845100297
| 37> H -4.8523621063 1.337955761 2.2382644672
| 38> H -3.1875050933 1.9931232797 2.2135042525
| 39> H -3.6313160313 3.1014262192 0.0485830835
| 40> H -5.2600805579 2.4247334719 0.0039031208
| 41> H -4.8310149535 3.6172726546 1.2440479669
| 42> H -1.3434620031 -1.2827128985 1.5853545925
| 43> H -2.8505162761 -2.2158258347 1.3815520279
| 44> H -0.1638981743 -2.8062794545 0.0257907817
| 45> H -0.9027405362 -3.7530107351 1.3284809689
| 46> H -1.6613867131 -3.6944041908 -0.2731971135
| 47> *
| 48>
| 49>                          ****END OF INPUT****

CARTESIAN COORDINATES (ANGSTROEM)
---------------------------------
  C      5.081952   -2.384977   -1.445659
  C      4.088340   -1.246353   -1.559463
  O      3.077907   -1.436543   -0.549152
  P      2.174826   -0.239375   -0.031003
  S      3.134773    1.413000    0.423427
  O      1.364098   -0.926721    1.138188
  C      1.784260   -0.822643    2.516355
  C      3.068643   -1.583976    2.763523
  S      0.697042   -0.060649   -1.536259
  C      0.040632    1.529452   -0.964649
  S     -0.878816    1.388550    0.581715
  P     -2.567822    0.385342   -0.264128
  S     -3.075633    0.963672   -2.061384
  O     -3.642937    0.468454    0.903082
  C     -4.031862    1.668590    1.599061
  C     -4.469315    2.775117    0.662981
  O     -2.249964   -1.156656   -0.279901
  C     -1.913595   -1.922055    0.904693
  C     -1.105421   -3.125592    0.466530
  H      5.565772   -2.365532   -0.473268
  H      4.570300   -3.335285   -1.566313
  H      5.833485   -2.279694   -2.221158
  H      3.596603   -1.240607   -2.535952
  H      4.569027   -0.275767   -1.395646
  H      1.905366    0.236973    2.762646
  H      0.949059   -1.241333    3.079002
  H      3.881468   -1.123263    2.203214
  H      3.308689   -1.553792    3.821667
  H      2.962027   -2.616783    2.443195
  H     -0.625932    1.893559   -1.747541
  H      0.865767    2.218991   -0.784510
  H     -4.852362    1.337956    2.238264
  H     -3.187505    1.993123    2.213504
  H     -3.631316    3.101426    0.048583
  H     -5.260081    2.424733    0.003903
  H     -4.831015    3.617273    1.244048
  H     -1.343462   -1.282713    1.585355
  H     -2.850516   -2.215826    1.381552
  H     -0.163898   -2.806279    0.025791
  H     -0.902741   -3.753011    1.328481
  H     -1.661387   -3.694404   -0.273197

 Total Charge           Charge          ....    0
 Multiplicity           Mult            ....    1
 Number of Electrons    NEL             ....  202
 Basis Dimension        Dim             ....  539

ORBITAL ENERGIES
----------------

  NO   OCC          E(Eh)            E(eV)
   0   2.0000     -88.575639     -2410.2657
   1   2.0000     -88.575193     -2410.2535
   2   2.0000     -88.524292     -2408.8685
   3   2.0000     -88.515015     -2408.6160
   4   2.0000     -76.917012     -2093.0183
   5   2.0000     -76.912025     -2092.8826
   6   2.0000     -18.997646      -516.9522
   7   2.0000     -18.996543      -516.9222
   8   2.0000     -18.994448      -516.8652
   9   2.0000     -18.986444      -516.6474
  10   2.0000     -10.105441      -274.9830
  11   2.0000     -10.103963      -274.9428
  12   2.0000     -10.102595      -274.9056
  13   2.0000     -10.102419      -274.9008
  14   2.0000     -10.097596      -274.7696
  15   2.0000     -10.036725      -273.1132
  16   2.0000     -10.033984      -273.0386
  17   2.0000     -10.027568      -272.8640
  18   2.0000     -10.026929      -272.8466
  19   2.0000      -7.869726      -214.1461
  20   2.0000      -7.869523      -214.1406
  21   2.0000      -7.819077      -212.7679
  22   2.0000      -7.809865      -212.5172
  23   2.0000      -6.595761      -179.4798
  24   2.0000      -6.590335      -179.3321
  25   2.0000      -5.816581      -158.2772
  26   2.0000      -5.816243      -158.2680
  27   2.0000      -5.813656      -158.1976
  28   2.0000      -5.813283      -158.1875
  29   2.0000      -5.806900      -158.0138
  30   2.0000      -5.806840      -158.0122
  31   2.0000      -5.766630      -156.9180
  32   2.0000      -5.759376      -156.7206
  33   2.0000      -5.759147      -156.7144
  34   2.0000      -5.757672      -156.6742
  35   2.0000      -5.750101      -156.4682
  36   2.0000      -5.749746      -156.4585
  37   2.0000      -4.741168      -129.0137
  38   2.0000      -4.740685      -129.0006
  39   2.0000      -4.739526      -128.9691
  40   2.0000      -4.736168      -128.8777
  41   2.0000      -4.735548      -128.8608
  42   2.0000      -4.733531      -128.8059
  43   2.0000      -1.056040       -28.7363
  44   2.0000      -1.050279       -28.5796
  45   2.0000      -1.017343       -27.6833
  46   2.0000      -1.007956       -27.4279
  47   2.0000      -0.802552       -21.8386
  48   2.0000      -0.762008       -20.7353
  49   2.0000      -0.752633       -20.4802
  50   2.0000      -0.738033       -20.0829
  51   2.0000      -0.733350       -19.9555
  52   2.0000      -0.711755       -19.3678
  53   2.0000      -0.684977       -18.6392
  54   2.0000      -0.669213       -18.2102
  55   2.0000      -0.634566       -17.2674
  56   2.0000      -0.620563       -16.8864
  57   2.0000      -0.604750       -16.4561
  58   2.0000      -0.602050       -16.3826
  59   2.0000      -0.596024       -16.2186
  60   2.0000      -0.535573       -14.5737
  61   2.0000      -0.526391       -14.3238
  62   2.0000      -0.502536       -13.6747
  63   2.0000      -0.493269       -13.4225
  64   2.0000      -0.479136       -13.0380
  65   2.0000      -0.469024       -12.7628
  66   2.0000      -0.458851       -12.4860
  67   2.0000      -0.453925       -12.3519
  68   2.0000      -0.447463       -12.1761
  69   2.0000      -0.436404       -11.8751
  70   2.0000      -0.430636       -11.7182
  71   2.0000      -0.420541       -11.4435
  72   2.0000      -0.407322       -11.0838
  73   2.0000      -0.401167       -10.9163
  74   2.0000      -0.399840       -10.8802
  75   2.0000      -0.391373       -10.6498
  76   2.0000      -0.379423       -10.3246
  77   2.0000      -0.376563       -10.2468
  78   2.0000      -0.367327        -9.9955
  79   2.0000      -0.366953        -9.9853
  80   2.0000      -0.364333        -9.9140
  81   2.0000      -0.361149        -9.8274
  82   2.0000      -0.359471        -9.7817
  83   2.0000      -0.352371        -9.5885
  84   2.0000      -0.351122        -9.5545
  85   2.0000      -0.336063        -9.1447
  86   2.0000      -0.327483        -8.9113
  87   2.0000      -0.319408        -8.6915
  88   2.0000      -0.312040        -8.4911
  89   2.0000      -0.309431        -8.4201
  90   2.0000      -0.306404        -8.3377
  91   2.0000      -0.295390        -8.0380
  92   2.0000      -0.289322        -7.8729
  93   2.0000      -0.281625        -7.6634
  94   2.0000      -0.270903        -7.3716
  95   2.0000      -0.248191        -6.7536
  96   2.0000      -0.233307        -6.3486
  97   2.0000      -0.227147        -6.1810
  98   2.0000      -0.217183        -5.9099
  99   2.0000      -0.212728        -5.7886
 100   2.0000      -0.210173        -5.7191
 101   0.0000      -0.046619        -1.2686
 102   0.0000      -0.024543        -0.6678
 103   0.0000      -0.004299        -0.1170
 104   0.0000       0.000336         0.0091
 105   0.0000       0.014879         0.4049

MULLIKEN ATOMIC CHARGES
-----------------------
   0 C :   -0.439982
   1 C :   -0.153439
   2 O :   -0.290654
   3 P :    0.679622
   4 S :   -0.489794
   5 O :   -0.261851
   6 C :   -0.145972
   7 C :   -0.448434
   8 S :   -0.120479
   9 C :   -0.233723
  10 S :   -0.183159
  11 P :    0.656697
  12 S :   -0.433677
  13 O :   -0.294505
  14 C :   -0.159764
  15 C :   -0.427570
  16 O :   -0.258491
  17 C :   -0.106181
  18 C :   -0.461857
  19 H :    0.154291
  20 H :    0.154745
  21 H :    0.148546
  22 H :    0.153744
  23 H :    0.170952
  24 H :    0.175708
  25 H :    0.148309
  26 H :    0.170769
  27 H :    0.148853
  28 H :    0.156550
  29 H :    0.217646
  30 H :    0.215196
  31 H :    0.149472
  32 H :    0.150905
  33 H :    0.169944
  34 H :    0.165531
  35 H :    0.146206
  36 H :    0.152895
  37 H :    0.153381
  38 H :    0.173934
  39 H :    0.140516
  40 H :    0.155118
Sum of atomic charges:    0.0000000

LOEWDIN ATOMIC CHARGES
----------------------
   0 C :   -0.385256
   1 C :    0.021711
   2 O :   -0.664320
   3 P :    0.371698
   4 S :   -0.136971
   5 O :   -0.680266
   6 C :    0.017591
   7 C :   -0.399077
   8 S :    0.178754
   9 C :   -0.424519
  10 S :    0.134978
  11 P :    0.379290
  12 S :   -0.102024
  13 O :   -0.662663
  14 C :    0.023879
  15 C :   -0.405893
  16 O :   -0.653232
  17 C :    0.024108
  18 C :   -0.389695
  19 H :    0.159836
  20 H :    0.160345
  21 H :    0.160831
  22 H :    0.173058
  23 H :    0.181143
  24 H :    0.182365
  25 H :    0.177983
  26 H :    0.166404
  27 H :    0.160194
  28 H :    0.160702
  29 H :    0.194391
  30 H :    0.191705
  31 H :    0.181154
  32 H :    0.171209
  33 H :    0.167195
  34 H :    0.166030
  35 H :    0.158329
  36 H :    0.176487
  37 H :    0.172834
  38 H :    0.169459
  39 H :    0.158321
  40 H :    0.161933

  Mayer bond orders larger than 0.100000
B(  0-C ,  1-C ) :   0.9576 B(  0-C , 19-H ) :   0.9712 B(  0-C , 20-H ) :   0.9714
B(  0-C , 21-H ) :   0.9641 B(  1-C ,  2-O ) :   0.7772 B(  1-C , 22-H ) :   0.9453
B(  1-C , 23-H ) :   0.9519 B(  2-O ,  3-P ) :   1.0884 B(  3-P ,  4-S ) :   1.7477
B(  3-P ,  5-O ) :   1.1346 B(  3-P ,  8-S ) :   1.0802 B(  5-O ,  6-C ) :   0.7691
B(  6-C ,  7-C ) :   0.9197 B(  6-C , 24-H ) :   0.9584 B(  6-C , 25-H ) :   0.9629
B(  7-C , 26-H ) :   0.9590 B(  7-C , 27-H ) :   0.9626 B(  7-C , 28-H ) :   0.9734
B(  8-S ,  9-C ) :   0.9218 B(  9-C , 10-S ) :   0.9170 B(  9-C , 29-H ) :   0.9013
B(  9-C , 30-H ) :   0.9052 B( 10-S , 11-P ) :   0.9802 B( 11-P , 12-S ) :   1.8589
B( 11-P , 13-O ) :   1.0405 B( 11-P , 16-O ) :   1.1624 B( 13-O , 14-C ) :   0.8046
B( 14-C , 15-C ) :   0.9434 B( 14-C , 31-H ) :   0.9584 B( 14-C , 32-H ) :   0.9618
B( 15-C , 33-H ) :   0.9543 B( 15-C , 34-H ) :   0.9655 B( 15-C , 35-H ) :   0.9617
B( 16-O , 17-C ) :   0.7358 B( 17-C , 18-C ) :   0.9456 B( 17-C , 36-H ) :   0.9539
B( 17-C , 37-H ) :   0.9462 B( 18-C , 38-H ) :   0.9648 B( 18-C , 39-H ) :   0.9683
B( 18-C , 40-H ) :   0.9701

Dispersion correction           -0.021473454
FINAL SINGLE POINT ENERGY     -2932.463648761149

DIPOLE MOMENT
-------------

Method             : SCF
Type of density    : Electron Density
Multiplicity       :   1
Irrep              :   0
Energy             : -2932.4885668622464436 Eh
Relativity type    :
Basis              : AO
                                X                 Y                 Z
Electronic contribution:     -7.959740999      11.574554836     -11.368158014
Nuclear contribution   :      8.492813948     -12.441797417      12.910957111
                        -----------------------------------------
Total Dipole Moment    :      0.533072949      -0.867242581       1.542799097
                        -----------------------------------------
Magnitude (a.u.)       :      1.848379159
Magnitude (Debye)      :      4.698206450

Rotational constants in cm-1:             0.013505             0.004575             0.004492
Rotational constants in MHz :           404.860082           137.148732           134.655636

                             ****ORCA TERMINATED NORMALLY****
TOTAL RUN TIME: 0 days 0 hours 1 minutes 19 seconds 846 msec
