                         Program Version 6.0.0  -   RELEASE  -
|  1> ! r2scan-3c def2/J RI DEFGRID2 scfconv6 printgap
|  2> %output
|  3>     printlevel normal
|  4> end
|  5> %cpcm
|  6>     smd true
|  7>     smdsolvent "water"
|  8> end
|  9> * xyz 0 1
| 10> C 5.0819522867 -2.3849766261 -1.4456588898
| 11> C 4.0883401205 -1.2463528912 -1.5594625699
| 12> O 3.0779073465 -1.4365432434 -0.5491524439
| 13> P 2.1748264605 -0.2393748064 -0.0310030274
| 14> S 3.1347732209 1.4130003319 0.4234270417
| 15> O 1.3640982601 -0.9267213081 1.138187964
| 16> C 1.7842599921 -0.8226427404 2.5163547829
| 17> C 3.0686425005 -1.5839755718 2.7635234521
| 18> S 0.6970422213 -0.0606489822 -1.5362591057
| 19> C 0.0406315876 1.5294523552 -0.964649373
| 20> S -0.8788158892 1.3885495041 0.5817153852
| 21> P -2.5678222307 0.385341504 -0.264127948
| 22> S -3.0756333795 0.9636723155 -2.0613844474
| 23> O -3.6429366341 0.4684538219 0.9030818014
| 24> C -4.0318621474 1.6685895929 1.5990608624
| 25> C -4.4693150611 2.7751167361 0.6629808181
| 26> O -2.2499639642 -1.1566556358 -0.279900933
| 27> C -1.9135945266 -1.9220554261 0.9046925323
| 28> C -1.1054207844 -3.1255924915 0.4665297947
| 29> H 5.5657723839 -2.3655321487 -0.4732680005
| 30> H 4.5703002546 -3.3352845408 -1.5663133422
| 31> H 5.8334850848 -2.2796937063 -2.221158007
| 32> H 3.5966034578 -1.2406072284 -2.5359523434
| 33> H 4.569027475 -0.2757672108 -1.3956464663
| 34> H 1.9053661735 0.2369729527 2.7626460861
| 35> H 0.9490586112 -1.2413330991 3.0790019088
| 36> H 3.8814676111 -1.1232631206 2.2032139594
| 37> H 3.3086894822 -1.5537917701 3.8216671575
| 38> H 2.9620269883 -2.6167828576 2.4431947739
| 39> H -0.6259323118 1.8935592163 -1.7475414163
| 40> H 0.8657670535 2.218990515 -0.7845100297
| 41> H -4.8523621063 1.337955761 2.2382644672
| 42> H -3.1875050933 1.9931232797 2.2135042525
| 43> H -3.6313160313 3.1014262192 0.0485830835
| 44> H -5.2600805579 2.4247334719 0.0039031208
| 45> H -4.8310149535 3.6172726546 1.2440479669
| 46> H -1.3434620031 -1.2827128985 1.5853545925
| 47> H -2.8505162761 -2.2158258347 1.3815520279
| 48> H -0.1638981743 -2.8062794545 0.0257907817
| 49> H -0.9027405362 -3.7530107351 1.3284809689
| 50> H -1.6613867131 -3.6944041908 -0.2731971135
| 51> *
| 52>
| 53>                          ****END OF INPUT****

CARTESIAN COORDINATES (ANGSTROEM)
---------------------------------
  C      5.081952   -2.384977   -1.445659
  C      4.088340   -1.246353   -1.559463
  O      3.077907   -1.436543   -0.549152
  P      2.174826   -0.239375   -0.031003
  S      3.134773    1.413000    0.423427
  O      1.364098   -0.926721    1.138188
  C      1.784260   -0.822643    2.516355
  C      3.068643   -1.583976    2.763523
  S      0.697042   -0.060649   -1.536259
  C      0.040632    1.529452   -0.964649
  S     -0.878816    1.388550    0.581715
  P     -2.567822    0.385342   -0.264128
  S     -3.075633    0.963672   -2.061384
  O     -3.642937    0.468454    0.903082
  C     -4.031862    1.668590    1.599061
  C     -4.469315    2.775117    0.662981
  O     -2.249964   -1.156656   -0.279901
  C     -1.913595   -1.922055    0.904693
  C     -1.105421   -3.125592    0.466530
  H      5.565772   -2.365532   -0.473268
  H      4.570300   -3.335285   -1.566313
  H      5.833485   -2.279694   -2.221158
  H      3.596603   -1.240607   -2.535952
  H      4.569027   -0.275767   -1.395646
  H      1.905366    0.236973    2.762646
  H      0.949059   -1.241333    3.079002
  H      3.881468   -1.123263    2.203214
  H      3.308689   -1.553792    3.821667
  H      2.962027   -2.616783    2.443195
  H     -0.625932    1.893559   -1.747541
  H      0.865767    2.218991   -0.784510
  H     -4.852362    1.337956    2.238264
  H     -3.187505    1.993123    2.213504
  H     -3.631316    3.101426    0.048583
  H     -5.260081    2.424733    0.003903
  H     -4.831015    3.617273    1.244048
  H     -1.343462   -1.282713    1.585355
  H     -2.850516   -2.215826    1.381552
  H     -0.163898   -2.806279    0.025791
  H     -0.902741   -3.753011    1.328481
  H     -1.661387   -3.694404   -0.273197

 Total Charge           Charge          ....    0
 Multiplicity           Mult            ....    1
 Number of Electrons    NEL             ....  202
 Basis Dimension        Dim             ....  539

ORBITAL ENERGIES
----------------

  NO   OCC          E(Eh)            E(eV)
   0   2.0000     -88.580084     -2410.3866
   1   2.0000     -88.579362     -2410.3670
   2   2.0000     -88.529343     -2409.0059
   3   2.0000     -88.528009     -2408.9696
   4   2.0000     -76.920404     -2093.1106
   5   2.0000     -76.919834     -2093.0951
   6   2.0000     -18.997185      -516.9397
   7   2.0000     -18.996933      -516.9328
   8   2.0000     -18.994823      -516.8754
   9   2.0000     -18.993385      -516.8363
  10   2.0000     -10.103898      -274.9410
  11   2.0000     -10.093732      -274.6644
  12   2.0000     -10.090889      -274.5870
  13   2.0000     -10.090680      -274.5814
  14   2.0000     -10.090255      -274.5698
  15   2.0000     -10.019882      -272.6549
  16   2.0000     -10.019069      -272.6327
  17   2.0000     -10.018954      -272.6296
  18   2.0000     -10.018752      -272.6241
  19   2.0000      -7.874296      -214.2705
  20   2.0000      -7.873623      -214.2522
  21   2.0000      -7.824410      -212.9130
  22   2.0000      -7.823248      -212.8814
  23   2.0000      -6.598760      -179.5614
  24   2.0000      -6.598582      -179.5566
  25   2.0000      -5.821094      -158.4000
  26   2.0000      -5.820382      -158.3807
  27   2.0000      -5.818207      -158.3215
  28   2.0000      -5.817415      -158.2999
  29   2.0000      -5.811481      -158.1384
  30   2.0000      -5.810938      -158.1236
  31   2.0000      -5.771910      -157.0617
  32   2.0000      -5.770917      -157.0346
  33   2.0000      -5.764703      -156.8655
  34   2.0000      -5.764486      -156.8596
  35   2.0000      -5.763489      -156.8325
  36   2.0000      -5.763186      -156.8243
  37   2.0000      -4.744528      -129.1052
  38   2.0000      -4.743928      -129.0888
  39   2.0000      -4.743912      -129.0884
  40   2.0000      -4.743510      -129.0775
  41   2.0000      -4.742462      -129.0489
  42   2.0000      -4.742106      -129.0393
  43   2.0000      -1.054725       -28.7005
  44   2.0000      -1.054295       -28.6888
  45   2.0000      -1.015105       -27.6224
  46   2.0000      -1.011767       -27.5316
  47   2.0000      -0.805629       -21.9223
  48   2.0000      -0.757961       -20.6252
  49   2.0000      -0.746830       -20.3223
  50   2.0000      -0.726184       -19.7605
  51   2.0000      -0.725060       -19.7299
  52   2.0000      -0.711105       -19.3501
  53   2.0000      -0.688772       -18.7424
  54   2.0000      -0.675401       -18.3786
  55   2.0000      -0.628566       -17.1041
  56   2.0000      -0.618393       -16.8273
  57   2.0000      -0.599965       -16.3259
  58   2.0000      -0.595600       -16.2071
  59   2.0000      -0.592132       -16.1127
  60   2.0000      -0.531484       -14.4624
  61   2.0000      -0.522430       -14.2160
  62   2.0000      -0.496512       -13.5108
  63   2.0000      -0.489993       -13.3334
  64   2.0000      -0.477856       -13.0031
  65   2.0000      -0.463512       -12.6128
  66   2.0000      -0.450786       -12.2665
  67   2.0000      -0.448658       -12.2086
  68   2.0000      -0.442349       -12.0369
  69   2.0000      -0.434237       -11.8162
  70   2.0000      -0.428305       -11.6548
  71   2.0000      -0.413696       -11.2572
  72   2.0000      -0.404857       -11.0167
  73   2.0000      -0.398930       -10.8554
  74   2.0000      -0.397558       -10.8181
  75   2.0000      -0.385290       -10.4843
  76   2.0000      -0.379857       -10.3364
  77   2.0000      -0.365068        -9.9340
  78   2.0000      -0.362397        -9.8613
  79   2.0000      -0.358926        -9.7669
  80   2.0000      -0.354632        -9.6500
  81   2.0000      -0.353575        -9.6213
  82   2.0000      -0.351346        -9.5606
  83   2.0000      -0.348362        -9.4794
  84   2.0000      -0.346146        -9.4191
  85   2.0000      -0.330143        -8.9837
  86   2.0000      -0.323339        -8.7985
  87   2.0000      -0.313400        -8.5281
  88   2.0000      -0.311293        -8.4707
  89   2.0000      -0.308658        -8.3990
  90   2.0000      -0.300976        -8.1900
  91   2.0000      -0.290469        -7.9041
  92   2.0000      -0.288243        -7.8435
  93   2.0000      -0.279991        -7.6190
  94   2.0000      -0.273071        -7.4306
  95   2.0000      -0.252315        -6.8658
  96   2.0000      -0.239635        -6.5208
  97   2.0000      -0.234084        -6.3697
  98   2.0000      -0.225791        -6.1441
  99   2.0000      -0.223176        -6.0729
 100   2.0000      -0.221613        -6.0304
 101   0.0000      -0.052230        -1.4213
 102   0.0000      -0.031422        -0.8550
 103   0.0000      -0.008983        -0.2444
 104   0.0000      -0.004060        -0.1105
 105   0.0000       0.014643         0.3985

MULLIKEN ATOMIC CHARGES
-----------------------
   0 C :   -0.483244
   1 C :   -0.145216
   2 O :   -0.314777
   3 P :    0.715706
   4 S :   -0.533070
   5 O :   -0.283043
   6 C :   -0.140498
   7 C :   -0.490007
   8 S :   -0.147659
   9 C :   -0.240763
  10 S :   -0.175439
  11 P :    0.673662
  12 S :   -0.496387
  13 O :   -0.315787
  14 C :   -0.159414
  15 C :   -0.465986
  16 O :   -0.290063
  17 C :   -0.105693
  18 C :   -0.505449
  19 H :    0.166304
  20 H :    0.166476
  21 H :    0.170118
  22 H :    0.172228
  23 H :    0.172259
  24 H :    0.177267
  25 H :    0.181789
  26 H :    0.168779
  27 H :    0.173556
  28 H :    0.171209
  29 H :    0.230569
  30 H :    0.235408
  31 H :    0.177654
  32 H :    0.172627
  33 H :    0.164814
  34 H :    0.170661
  35 H :    0.173792
  36 H :    0.173622
  37 H :    0.175459
  38 H :    0.169657
  39 H :    0.172528
  40 H :    0.166352
Sum of atomic charges:   -0.0000000

LOEWDIN ATOMIC CHARGES
----------------------
   0 C :   -0.389051
   1 C :    0.026092
   2 O :   -0.674590
   3 P :    0.377502
   4 S :   -0.164129
   5 O :   -0.686444
   6 C :    0.023792
   7 C :   -0.402439
   8 S :    0.161835
   9 C :   -0.420929
  10 S :    0.145381
  11 P :    0.381742
  12 S :   -0.149390
  13 O :   -0.669804
  14 C :    0.031519
  15 C :   -0.409483
  16 O :   -0.677059
  17 C :    0.030433
  18 C :   -0.394246
  19 H :    0.162697
  20 H :    0.163482
  21 H :    0.169167
  22 H :    0.180269
  23 H :    0.182009
  24 H :    0.182763
  25 H :    0.191422
  26 H :    0.163057
  27 H :    0.169348
  28 H :    0.164365
  29 H :    0.197847
  30 H :    0.197380
  31 H :    0.193281
  32 H :    0.179679
  33 H :    0.162038
  34 H :    0.164429
  35 H :    0.168832
  36 H :    0.184124
  37 H :    0.182962
  38 H :    0.165356
  39 H :    0.170717
  40 H :    0.164044

  Mayer bond orders larger than 0.100000
B(  0-C ,  1-C ) :   0.9530 B(  0-C , 19-H ) :   0.9686 B(  0-C , 20-H ) :   0.9688
B(  0-C , 21-H ) :   0.9584 B(  1-C ,  2-O ) :   0.7696 B(  1-C , 22-H ) :   0.9370
B(  1-C , 23-H ) :   0.9488 B(  2-O ,  3-P ) :   1.0967 B(  3-P ,  4-S ) :   1.7139
B(  3-P ,  5-O ) :   1.1476 B(  3-P ,  8-S ) :   1.0842 B(  5-O ,  6-C ) :   0.7561
B(  6-C ,  7-C ) :   0.9059 B(  6-C , 24-H ) :   0.9557 B(  6-C , 25-H ) :   0.9521
B(  7-C , 26-H ) :   0.9590 B(  7-C , 27-H ) :   0.9567 B(  7-C , 28-H ) :   0.9725
B(  8-S ,  9-C ) :   0.9072 B(  9-C , 10-S ) :   0.9052 B(  9-C , 29-H ) :   0.8983
B(  9-C , 30-H ) :   0.9013 B( 10-S , 11-P ) :   0.9961 B( 11-P , 12-S ) :   1.8247
B( 11-P , 13-O ) :   1.0598 B( 11-P , 16-O ) :   1.1682 B( 13-O , 14-C ) :   0.7930
B( 14-C , 15-C ) :   0.9214 B( 14-C , 31-H ) :   0.9486 B( 14-C , 32-H ) :   0.9574
B( 15-C , 33-H ) :   0.9577 B( 15-C , 34-H ) :   0.9666 B( 15-C , 35-H ) :   0.9557
B( 16-O , 17-C ) :   0.7245 B( 17-C , 18-C ) :   0.9317 B( 17-C , 36-H ) :   0.9459
B( 17-C , 37-H ) :   0.9361 B( 18-C , 38-H ) :   0.9666 B( 18-C , 39-H ) :   0.9612
B( 18-C , 40-H ) :   0.9687

Dispersion correction           -0.021473454
FINAL SINGLE POINT ENERGY     -2932.473880516792

DIPOLE MOMENT
-------------

Method             : SCF
Type of density    : Electron Density
Multiplicity       :   1
Irrep              :   0
Energy             : -2932.4987986178894062 Eh
Relativity type    :
Basis              : AO
                                X                 Y                 Z
Electronic contribution:     -7.816361051      11.449951644     -10.558836329
Nuclear contribution   :      8.492813948     -12.441797417      12.910957111
                        -----------------------------------------
Total Dipole Moment    :      0.676452897      -0.991845773       2.352120781
                        -----------------------------------------
Magnitude (a.u.)       :      2.640798881
Magnitude (Debye)      :      6.712377314

Rotational constants in cm-1:             0.013505             0.004575             0.004492
Rotational constants in MHz :           404.860082           137.148732           134.655636

                             ****ORCA TERMINATED NORMALLY****
TOTAL RUN TIME: 0 days 0 hours 1 minutes 50 seconds 519 msec
