                         Program Version 6.0.0  -   RELEASE  -
|  1> ! r2scan-3c def2/J RI DEFGRID2 scfconv6 printgap
|  2> %output
|  3>     printlevel normal
|  4> end
|  5> * xyz 0 1
|  6> C 2.2802436545 -2.1780428859 2.5702767963
|  7> C 1.0253785207 -1.976645463 1.7484360244
|  8> O 0.9795102761 -0.6572616093 1.163235772
|  9> P 1.9988569434 -0.2055990646 0.0411594333
| 10> S 2.7150551412 -1.6038130161 -1.1362086018
| 11> O 3.0781158336 0.5801692164 0.8986175331
| 12> C 4.2797443878 1.1111314241 0.3042809527
| 13> C 5.2740891336 1.3715968821 1.4176998577
| 14> S 0.9228746652 1.3553201985 -0.9015081452
| 15> C 0.11305681 0.324698637 -2.1559196032
| 16> S -0.9361626678 -0.959027743 -1.4419985048
| 17> P -2.3775242285 0.3403766782 -0.544733409
| 18> S -2.7090122971 2.0272355157 -1.4732322478
| 19> O -1.9416760162 0.491460375 0.980700832
| 20> C -1.4129918696 1.6866021784 1.576521299
| 21> C -2.3338695114 2.1307838004 2.6957156503
| 22> O -3.6691521135 -0.5581365339 -0.4759532544
| 23> C -3.7202388956 -1.9863162974 -0.2458803817
| 24> C -3.1234392446 -2.3764420895 1.0886323534
| 25> H 3.1538255586 -2.1446083939 1.9200209792
| 26> H 2.3694015724 -1.3960772927 3.3197198292
| 27> H 2.2402867705 -3.1469203962 3.0580418316
| 28> H 0.1261282965 -2.0204681731 2.3647685276
| 29> H 0.9635013754 -2.7149889299 0.9424790297
| 30> H 4.6643179961 0.3815179318 -0.4164372728
| 31> H 4.0206337616 2.032643809 -0.2240515148
| 32> H 5.5237777004 0.4430981842 1.9231333204
| 33> H 6.1757882799 1.802587835 0.9952955361
| 34> H 4.8482799671 2.0626907982 2.1391721239
| 35> H 0.8677650158 -0.1890099905 -2.7505311987
| 36> H -0.4898394098 0.9983234756 -2.7644637929
| 37> H -0.4170063639 1.434067309 1.9489230855
| 38> H -1.3270171448 2.4650755659 0.8106193859
| 39> H -2.4425463995 1.3380194099 3.4300988965
| 40> H -1.9138468021 3.0100856822 3.1731574323
| 41> H -3.3133083047 2.3771159129 2.2921753733
| 42> H -4.7872868132 -2.2084338977 -0.2950340982
| 43> H -3.1987716483 -2.4845726861 -1.0676113487
| 44> H -2.0642171907 -2.1277614186 1.1047980082
| 45> H -3.6232225634 -1.8457955699 1.8944557559
| 46> H -3.2394750282 -3.4460867465 1.232373754
| 47> *
| 48>
| 49>                          ****END OF INPUT****

CARTESIAN COORDINATES (ANGSTROEM)
---------------------------------
  C      2.280244   -2.178043    2.570277
  C      1.025379   -1.976645    1.748436
  O      0.979510   -0.657262    1.163236
  P      1.998857   -0.205599    0.041159
  S      2.715055   -1.603813   -1.136209
  O      3.078116    0.580169    0.898618
  C      4.279744    1.111131    0.304281
  C      5.274089    1.371597    1.417700
  S      0.922875    1.355320   -0.901508
  C      0.113057    0.324699   -2.155920
  S     -0.936163   -0.959028   -1.441999
  P     -2.377524    0.340377   -0.544733
  S     -2.709012    2.027236   -1.473232
  O     -1.941676    0.491460    0.980701
  C     -1.412992    1.686602    1.576521
  C     -2.333870    2.130784    2.695716
  O     -3.669152   -0.558137   -0.475953
  C     -3.720239   -1.986316   -0.245880
  C     -3.123439   -2.376442    1.088632
  H      3.153826   -2.144608    1.920021
  H      2.369402   -1.396077    3.319720
  H      2.240287   -3.146920    3.058042
  H      0.126128   -2.020468    2.364769
  H      0.963501   -2.714989    0.942479
  H      4.664318    0.381518   -0.416437
  H      4.020634    2.032644   -0.224052
  H      5.523778    0.443098    1.923133
  H      6.175788    1.802588    0.995296
  H      4.848280    2.062691    2.139172
  H      0.867765   -0.189010   -2.750531
  H     -0.489839    0.998323   -2.764464
  H     -0.417006    1.434067    1.948923
  H     -1.327017    2.465076    0.810619
  H     -2.442546    1.338019    3.430099
  H     -1.913847    3.010086    3.173157
  H     -3.313308    2.377116    2.292175
  H     -4.787287   -2.208434   -0.295034
  H     -3.198772   -2.484573   -1.067611
  H     -2.064217   -2.127761    1.104798
  H     -3.623223   -1.845796    1.894456
  H     -3.239475   -3.446087    1.232374

 Total Charge           Charge          ....    0
 Multiplicity           Mult            ....    1
 Number of Electrons    NEL             ....  202
 Basis Dimension        Dim             ....  539

ORBITAL ENERGIES
----------------

  NO   OCC          E(Eh)            E(eV)
   0   2.0000     -88.577223     -2410.3088
   1   2.0000     -88.573486     -2410.2071
   2   2.0000     -88.524291     -2408.8684
   3   2.0000     -88.516132     -2408.6464
   4   2.0000     -76.917016     -2093.0184
   5   2.0000     -76.912807     -2092.9039
   6   2.0000     -18.996926      -516.9326
   7   2.0000     -18.994165      -516.8575
   8   2.0000     -18.991551      -516.7864
   9   2.0000     -18.985182      -516.6131
  10   2.0000     -10.107498      -275.0390
  11   2.0000     -10.105996      -274.9981
  12   2.0000     -10.102507      -274.9032
  13   2.0000     -10.102442      -274.9014
  14   2.0000     -10.088116      -274.5116
  15   2.0000     -10.037040      -273.1217
  16   2.0000     -10.037000      -273.1207
  17   2.0000     -10.032645      -273.0021
  18   2.0000     -10.025074      -272.7961
  19   2.0000      -7.871502      -214.1945
  20   2.0000      -7.867867      -214.0955
  21   2.0000      -7.819049      -212.7671
  22   2.0000      -7.811057      -212.5497
  23   2.0000      -6.595684      -179.4777
  24   2.0000      -6.590866      -179.3466
  25   2.0000      -5.818344      -158.3252
  26   2.0000      -5.815372      -158.2443
  27   2.0000      -5.814811      -158.2291
  28   2.0000      -5.811680      -158.1439
  29   2.0000      -5.808666      -158.0618
  30   2.0000      -5.804947      -157.9606
  31   2.0000      -5.766657      -156.9187
  32   2.0000      -5.759333      -156.7194
  33   2.0000      -5.759088      -156.7128
  34   2.0000      -5.758814      -156.7053
  35   2.0000      -5.751404      -156.5037
  36   2.0000      -5.750846      -156.4885
  37   2.0000      -4.741043      -129.0103
  38   2.0000      -4.740628      -128.9991
  39   2.0000      -4.739498      -128.9683
  40   2.0000      -4.736612      -128.8898
  41   2.0000      -4.735692      -128.8647
  42   2.0000      -4.734517      -128.8328
  43   2.0000      -1.054707       -28.7000
  44   2.0000      -1.046452       -28.4754
  45   2.0000      -1.015578       -27.6353
  46   2.0000      -1.007150       -27.4059
  47   2.0000      -0.803234       -21.8571
  48   2.0000      -0.761747       -20.7282
  49   2.0000      -0.754148       -20.5214
  50   2.0000      -0.737224       -20.0609
  51   2.0000      -0.733562       -19.9612
  52   2.0000      -0.709440       -19.3048
  53   2.0000      -0.685597       -18.6560
  54   2.0000      -0.670379       -18.2419
  55   2.0000      -0.633732       -17.2447
  56   2.0000      -0.627195       -17.0668
  57   2.0000      -0.605106       -16.4658
  58   2.0000      -0.602725       -16.4010
  59   2.0000      -0.595859       -16.2142
  60   2.0000      -0.534024       -14.5315
  61   2.0000      -0.519917       -14.1477
  62   2.0000      -0.500376       -13.6159
  63   2.0000      -0.497745       -13.5443
  64   2.0000      -0.476734       -12.9726
  65   2.0000      -0.469048       -12.7634
  66   2.0000      -0.458463       -12.4754
  67   2.0000      -0.456439       -12.4203
  68   2.0000      -0.445707       -12.1283
  69   2.0000      -0.432163       -11.7597
  70   2.0000      -0.425896       -11.5892
  71   2.0000      -0.419414       -11.4128
  72   2.0000      -0.409431       -11.1412
  73   2.0000      -0.401327       -10.9206
  74   2.0000      -0.396602       -10.7921
  75   2.0000      -0.391139       -10.6434
  76   2.0000      -0.385340       -10.4856
  77   2.0000      -0.377026       -10.2594
  78   2.0000      -0.372867       -10.1462
  79   2.0000      -0.370861       -10.0917
  80   2.0000      -0.366586        -9.9753
  81   2.0000      -0.363883        -9.9018
  82   2.0000      -0.361704        -9.8425
  83   2.0000      -0.358128        -9.7452
  84   2.0000      -0.348305        -9.4779
  85   2.0000      -0.333714        -9.0808
  86   2.0000      -0.325703        -8.8628
  87   2.0000      -0.319641        -8.6979
  88   2.0000      -0.311128        -8.4662
  89   2.0000      -0.304438        -8.2842
  90   2.0000      -0.299914        -8.1611
  91   2.0000      -0.295192        -8.0326
  92   2.0000      -0.289535        -7.8786
  93   2.0000      -0.280781        -7.6404
  94   2.0000      -0.269203        -7.3254
  95   2.0000      -0.248619        -6.7653
  96   2.0000      -0.229176        -6.2362
  97   2.0000      -0.227706        -6.1962
  98   2.0000      -0.222092        -6.0434
  99   2.0000      -0.211976        -5.7682
 100   2.0000      -0.210167        -5.7189
 101   0.0000      -0.049270        -1.3407
 102   0.0000      -0.027358        -0.7444
 103   0.0000      -0.000557        -0.0152
 104   0.0000       0.005435         0.1479
 105   0.0000       0.009138         0.2487

MULLIKEN ATOMIC CHARGES
-----------------------
   0 C :   -0.455953
   1 C :   -0.158800
   2 O :   -0.253279
   3 P :    0.691754
   4 S :   -0.481838
   5 O :   -0.284312
   6 C :   -0.156013
   7 C :   -0.439576
   8 S :   -0.147170
   9 C :   -0.229224
  10 S :   -0.172687
  11 P :    0.654701
  12 S :   -0.465148
  13 O :   -0.220698
  14 C :   -0.119613
  15 C :   -0.485517
  16 O :   -0.279302
  17 C :   -0.172751
  18 C :   -0.432788
  19 H :    0.172546
  20 H :    0.156499
  21 H :    0.148042
  22 H :    0.152649
  23 H :    0.179799
  24 H :    0.171290
  25 H :    0.153463
  26 H :    0.154751
  27 H :    0.148286
  28 H :    0.153980
  29 H :    0.211923
  30 H :    0.211477
  31 H :    0.163075
  32 H :    0.177671
  33 H :    0.148542
  34 H :    0.145477
  35 H :    0.163573
  36 H :    0.156810
  37 H :    0.165157
  38 H :    0.159814
  39 H :    0.161183
  40 H :    0.152210
Sum of atomic charges:   -0.0000000

LOEWDIN ATOMIC CHARGES
----------------------
   0 C :   -0.399897
   1 C :    0.015034
   2 O :   -0.675170
   3 P :    0.375108
   4 S :   -0.129016
   5 O :   -0.665503
   6 C :    0.020198
   7 C :   -0.385299
   8 S :    0.167274
   9 C :   -0.420410
  10 S :    0.142983
  11 P :    0.391720
  12 S :   -0.106733
  13 O :   -0.670374
  14 C :    0.003273
  15 C :   -0.391519
  16 O :   -0.651289
  17 C :    0.023789
  18 C :   -0.400644
  19 H :    0.166725
  20 H :    0.160699
  21 H :    0.160031
  22 H :    0.179958
  23 H :    0.182080
  24 H :    0.180888
  25 H :    0.172627
  26 H :    0.160049
  27 H :    0.160641
  28 H :    0.160031
  29 H :    0.190165
  30 H :    0.192109
  31 H :    0.179603
  32 H :    0.183692
  33 H :    0.156093
  34 H :    0.158764
  35 H :    0.162547
  36 H :    0.184397
  37 H :    0.175501
  38 H :    0.165713
  39 H :    0.163962
  40 H :    0.160204

  Mayer bond orders larger than 0.100000
B(  0-C ,  1-C ) :   0.9262 B(  0-C , 19-H ) :   0.9591 B(  0-C , 20-H ) :   0.9725
B(  0-C , 21-H ) :   0.9614 B(  1-C ,  2-O ) :   0.7811 B(  1-C , 22-H ) :   0.9583
B(  1-C , 23-H ) :   0.9613 B(  2-O ,  3-P ) :   1.1578 B(  3-P ,  4-S ) :   1.7423
B(  3-P ,  5-O ) :   1.0914 B(  3-P ,  8-S ) :   1.0581 B(  5-O ,  6-C ) :   0.7778
B(  6-C ,  7-C ) :   0.9570 B(  6-C , 24-H ) :   0.9516 B(  6-C , 25-H ) :   0.9455
B(  7-C , 26-H ) :   0.9713 B(  7-C , 27-H ) :   0.9641 B(  7-C , 28-H ) :   0.9718
B(  8-S ,  9-C ) :   0.8942 B(  9-C , 10-S ) :   0.9092 B(  9-C , 29-H ) :   0.9113
B(  9-C , 30-H ) :   0.9089 B( 10-S , 11-P ) :   0.9823 B( 11-P , 12-S ) :   1.8234
B( 11-P , 13-O ) :   1.0495 B( 11-P , 16-O ) :   1.1968 B( 13-O , 14-C ) :   0.7196
B( 14-C , 15-C ) :   0.9416 B( 14-C , 31-H ) :   0.9515 B( 14-C , 32-H ) :   0.9478
B( 15-C , 33-H ) :   0.9797 B( 15-C , 34-H ) :   0.9675 B( 15-C , 35-H ) :   0.9730
B( 16-O , 17-C ) :   0.7984 B( 17-C , 18-C ) :   0.9290 B( 17-C , 36-H ) :   0.9553
B( 17-C , 37-H ) :   0.9670 B( 18-C , 38-H ) :   0.9548 B( 18-C , 39-H ) :   0.9694
B( 18-C , 40-H ) :   0.9627

Dispersion correction           -0.021883055
FINAL SINGLE POINT ENERGY     -2932.462062636164

DIPOLE MOMENT
-------------

Method             : SCF
Type of density    : Electron Density
Multiplicity       :   1
Irrep              :   0
Energy             : -2932.4866122776634256 Eh
Relativity type    :
Basis              : AO
                                X                 Y                 Z
Electronic contribution:     -7.258193523       4.542050810     -22.531277162
Nuclear contribution   :      7.949609854      -5.193175205      24.114807500
                        -----------------------------------------
Total Dipole Moment    :      0.691416331      -0.651124395       1.583530338
                        -----------------------------------------
Magnitude (a.u.)       :      1.846506933
Magnitude (Debye)      :      4.693447629

Rotational constants in cm-1:             0.011762             0.005286             0.005075
Rotational constants in MHz :           352.617759           158.470569           152.156261

                             ****ORCA TERMINATED NORMALLY****
TOTAL RUN TIME: 0 days 0 hours 1 minutes 23 seconds 406 msec
