                         Program Version 6.0.0  -   RELEASE  -
|  1> ! r2scan-3c def2/J RI DEFGRID2 scfconv6 printgap
|  2> %output
|  3>     printlevel normal
|  4> end
|  5> %cpcm
|  6>     smd true
|  7>     smdsolvent "water"
|  8> end
|  9> * xyz 0 1
| 10> C 2.2802436545 -2.1780428859 2.5702767963
| 11> C 1.0253785207 -1.976645463 1.7484360244
| 12> O 0.9795102761 -0.6572616093 1.163235772
| 13> P 1.9988569434 -0.2055990646 0.0411594333
| 14> S 2.7150551412 -1.6038130161 -1.1362086018
| 15> O 3.0781158336 0.5801692164 0.8986175331
| 16> C 4.2797443878 1.1111314241 0.3042809527
| 17> C 5.2740891336 1.3715968821 1.4176998577
| 18> S 0.9228746652 1.3553201985 -0.9015081452
| 19> C 0.11305681 0.324698637 -2.1559196032
| 20> S -0.9361626678 -0.959027743 -1.4419985048
| 21> P -2.3775242285 0.3403766782 -0.544733409
| 22> S -2.7090122971 2.0272355157 -1.4732322478
| 23> O -1.9416760162 0.491460375 0.980700832
| 24> C -1.4129918696 1.6866021784 1.576521299
| 25> C -2.3338695114 2.1307838004 2.6957156503
| 26> O -3.6691521135 -0.5581365339 -0.4759532544
| 27> C -3.7202388956 -1.9863162974 -0.2458803817
| 28> C -3.1234392446 -2.3764420895 1.0886323534
| 29> H 3.1538255586 -2.1446083939 1.9200209792
| 30> H 2.3694015724 -1.3960772927 3.3197198292
| 31> H 2.2402867705 -3.1469203962 3.0580418316
| 32> H 0.1261282965 -2.0204681731 2.3647685276
| 33> H 0.9635013754 -2.7149889299 0.9424790297
| 34> H 4.6643179961 0.3815179318 -0.4164372728
| 35> H 4.0206337616 2.032643809 -0.2240515148
| 36> H 5.5237777004 0.4430981842 1.9231333204
| 37> H 6.1757882799 1.802587835 0.9952955361
| 38> H 4.8482799671 2.0626907982 2.1391721239
| 39> H 0.8677650158 -0.1890099905 -2.7505311987
| 40> H -0.4898394098 0.9983234756 -2.7644637929
| 41> H -0.4170063639 1.434067309 1.9489230855
| 42> H -1.3270171448 2.4650755659 0.8106193859
| 43> H -2.4425463995 1.3380194099 3.4300988965
| 44> H -1.9138468021 3.0100856822 3.1731574323
| 45> H -3.3133083047 2.3771159129 2.2921753733
| 46> H -4.7872868132 -2.2084338977 -0.2950340982
| 47> H -3.1987716483 -2.4845726861 -1.0676113487
| 48> H -2.0642171907 -2.1277614186 1.1047980082
| 49> H -3.6232225634 -1.8457955699 1.8944557559
| 50> H -3.2394750282 -3.4460867465 1.232373754
| 51> *
| 52>
| 53>                          ****END OF INPUT****

CARTESIAN COORDINATES (ANGSTROEM)
---------------------------------
  C      2.280244   -2.178043    2.570277
  C      1.025379   -1.976645    1.748436
  O      0.979510   -0.657262    1.163236
  P      1.998857   -0.205599    0.041159
  S      2.715055   -1.603813   -1.136209
  O      3.078116    0.580169    0.898618
  C      4.279744    1.111131    0.304281
  C      5.274089    1.371597    1.417700
  S      0.922875    1.355320   -0.901508
  C      0.113057    0.324699   -2.155920
  S     -0.936163   -0.959028   -1.441999
  P     -2.377524    0.340377   -0.544733
  S     -2.709012    2.027236   -1.473232
  O     -1.941676    0.491460    0.980701
  C     -1.412992    1.686602    1.576521
  C     -2.333870    2.130784    2.695716
  O     -3.669152   -0.558137   -0.475953
  C     -3.720239   -1.986316   -0.245880
  C     -3.123439   -2.376442    1.088632
  H      3.153826   -2.144608    1.920021
  H      2.369402   -1.396077    3.319720
  H      2.240287   -3.146920    3.058042
  H      0.126128   -2.020468    2.364769
  H      0.963501   -2.714989    0.942479
  H      4.664318    0.381518   -0.416437
  H      4.020634    2.032644   -0.224052
  H      5.523778    0.443098    1.923133
  H      6.175788    1.802588    0.995296
  H      4.848280    2.062691    2.139172
  H      0.867765   -0.189010   -2.750531
  H     -0.489839    0.998323   -2.764464
  H     -0.417006    1.434067    1.948923
  H     -1.327017    2.465076    0.810619
  H     -2.442546    1.338019    3.430099
  H     -1.913847    3.010086    3.173157
  H     -3.313308    2.377116    2.292175
  H     -4.787287   -2.208434   -0.295034
  H     -3.198772   -2.484573   -1.067611
  H     -2.064217   -2.127761    1.104798
  H     -3.623223   -1.845796    1.894456
  H     -3.239475   -3.446087    1.232374

 Total Charge           Charge          ....    0
 Multiplicity           Mult            ....    1
 Number of Electrons    NEL             ....  202
 Basis Dimension        Dim             ....  539

ORBITAL ENERGIES
----------------

  NO   OCC          E(Eh)            E(eV)
   0   2.0000     -88.579678     -2410.3756
   1   2.0000     -88.578414     -2410.3412
   2   2.0000     -88.528907     -2408.9940
   3   2.0000     -88.528894     -2408.9937
   4   2.0000     -76.921482     -2093.1399
   5   2.0000     -76.919429     -2093.0841
   6   2.0000     -18.996440      -516.9194
   7   2.0000     -18.996135      -516.9111
   8   2.0000     -18.993676      -516.8442
   9   2.0000     -18.991644      -516.7889
  10   2.0000     -10.105566      -274.9864
  11   2.0000     -10.095738      -274.7190
  12   2.0000     -10.090450      -274.5751
  13   2.0000     -10.089999      -274.5628
  14   2.0000     -10.085789      -274.4483
  15   2.0000     -10.021329      -272.6942
  16   2.0000     -10.019788      -272.6523
  17   2.0000     -10.018736      -272.6237
  18   2.0000     -10.016997      -272.5763
  19   2.0000      -7.874021      -214.2630
  20   2.0000      -7.872742      -214.2282
  21   2.0000      -7.824187      -212.9070
  22   2.0000      -7.823932      -212.9000
  23   2.0000      -6.599608      -179.5845
  24   2.0000      -6.598114      -179.5438
  25   2.0000      -5.820833      -158.3929
  26   2.0000      -5.819685      -158.3617
  27   2.0000      -5.817887      -158.3127
  28   2.0000      -5.816541      -158.2761
  29   2.0000      -5.811214      -158.1312
  30   2.0000      -5.809849      -158.0940
  31   2.0000      -5.771826      -157.0594
  32   2.0000      -5.771484      -157.0501
  33   2.0000      -5.764514      -156.8604
  34   2.0000      -5.764205      -156.8520
  35   2.0000      -5.764042      -156.8476
  36   2.0000      -5.763987      -156.8460
  37   2.0000      -4.745320      -129.1267
  38   2.0000      -4.744412      -129.1020
  39   2.0000      -4.743417      -129.0749
  40   2.0000      -4.743353      -129.0732
  41   2.0000      -4.743062      -129.0653
  42   2.0000      -4.742016      -129.0368
  43   2.0000      -1.053820       -28.6759
  44   2.0000      -1.051643       -28.6167
  45   2.0000      -1.014007       -27.5925
  46   2.0000      -1.012047       -27.5392
  47   2.0000      -0.805329       -21.9141
  48   2.0000      -0.757505       -20.6128
  49   2.0000      -0.746589       -20.3157
  50   2.0000      -0.727387       -19.7932
  51   2.0000      -0.724535       -19.7156
  52   2.0000      -0.708516       -19.2797
  53   2.0000      -0.688651       -18.7391
  54   2.0000      -0.676098       -18.3976
  55   2.0000      -0.629467       -17.1287
  56   2.0000      -0.624015       -16.9803
  57   2.0000      -0.599799       -16.3214
  58   2.0000      -0.594960       -16.1897
  59   2.0000      -0.591308       -16.0903
  60   2.0000      -0.529654       -14.4126
  61   2.0000      -0.517811       -14.0903
  62   2.0000      -0.496413       -13.5081
  63   2.0000      -0.493619       -13.4321
  64   2.0000      -0.474913       -12.9230
  65   2.0000      -0.464320       -12.6348
  66   2.0000      -0.453306       -12.3351
  67   2.0000      -0.448081       -12.1929
  68   2.0000      -0.441715       -12.0197
  69   2.0000      -0.430975       -11.7274
  70   2.0000      -0.421908       -11.4807
  71   2.0000      -0.413535       -11.2529
  72   2.0000      -0.406895       -11.0722
  73   2.0000      -0.398761       -10.8508
  74   2.0000      -0.393173       -10.6988
  75   2.0000      -0.385033       -10.4773
  76   2.0000      -0.384260       -10.4562
  77   2.0000      -0.371605       -10.1119
  78   2.0000      -0.363077        -9.8798
  79   2.0000      -0.360691        -9.8149
  80   2.0000      -0.357162        -9.7189
  81   2.0000      -0.353827        -9.6281
  82   2.0000      -0.352660        -9.5964
  83   2.0000      -0.348611        -9.4862
  84   2.0000      -0.344100        -9.3634
  85   2.0000      -0.328769        -8.9462
  86   2.0000      -0.321112        -8.7379
  87   2.0000      -0.313418        -8.5285
  88   2.0000      -0.308617        -8.3979
  89   2.0000      -0.301415        -8.2019
  90   2.0000      -0.299429        -8.1479
  91   2.0000      -0.291819        -7.9408
  92   2.0000      -0.289338        -7.8733
  93   2.0000      -0.278538        -7.5794
  94   2.0000      -0.272363        -7.4114
  95   2.0000      -0.251668        -6.8482
  96   2.0000      -0.238088        -6.4787
  97   2.0000      -0.234677        -6.3859
  98   2.0000      -0.229371        -6.2415
  99   2.0000      -0.222110        -6.0439
 100   2.0000      -0.219194        -5.9646
 101   0.0000      -0.053848        -1.4653
 102   0.0000      -0.033571        -0.9135
 103   0.0000      -0.003296        -0.0897
 104   0.0000       0.000269         0.0073
 105   0.0000       0.008672         0.2360

MULLIKEN ATOMIC CHARGES
-----------------------
   0 C :   -0.496125
   1 C :   -0.145940
   2 O :   -0.281624
   3 P :    0.726438
   4 S :   -0.526780
   5 O :   -0.310814
   6 C :   -0.146742
   7 C :   -0.482710
   8 S :   -0.158035
   9 C :   -0.240323
  10 S :   -0.177476
  11 P :    0.661896
  12 S :   -0.518015
  13 O :   -0.247149
  14 C :   -0.098121
  15 C :   -0.524360
  16 O :   -0.315938
  17 C :   -0.163900
  18 C :   -0.467794
  19 H :    0.169965
  20 H :    0.170943
  21 H :    0.173221
  22 H :    0.180754
  23 H :    0.181114
  24 H :    0.172401
  25 H :    0.171763
  26 H :    0.166178
  27 H :    0.169637
  28 H :    0.166290
  29 H :    0.235598
  30 H :    0.229333
  31 H :    0.175526
  32 H :    0.175139
  33 H :    0.166838
  34 H :    0.168852
  35 H :    0.165840
  36 H :    0.181613
  37 H :    0.177076
  38 H :    0.162986
  39 H :    0.173729
  40 H :    0.178716
Sum of atomic charges:   -0.0000000

LOEWDIN ATOMIC CHARGES
----------------------
   0 C :   -0.403213
   1 C :    0.021312
   2 O :   -0.686209
   3 P :    0.380386
   4 S :   -0.156981
   5 O :   -0.676346
   6 C :    0.024959
   7 C :   -0.389023
   8 S :    0.161998
   9 C :   -0.415725
  10 S :    0.144262
  11 P :    0.390799
  12 S :   -0.147633
  13 O :   -0.680611
  14 C :    0.007777
  15 C :   -0.394802
  16 O :   -0.672959
  17 C :    0.030622
  18 C :   -0.400293
  19 H :    0.163313
  20 H :    0.164409
  21 H :    0.169313
  22 H :    0.191670
  23 H :    0.183023
  24 H :    0.181727
  25 H :    0.179892
  26 H :    0.162681
  27 H :    0.168954
  28 H :    0.163403
  29 H :    0.197509
  30 H :    0.197091
  31 H :    0.184952
  32 H :    0.182873
  33 H :    0.162333
  34 H :    0.167585
  35 H :    0.161899
  36 H :    0.195129
  37 H :    0.181171
  38 H :    0.165265
  39 H :    0.166161
  40 H :    0.171326

  Mayer bond orders larger than 0.100000
B(  0-C ,  1-C ) :   0.9123 B(  0-C , 19-H ) :   0.9592 B(  0-C , 20-H ) :   0.9711
B(  0-C , 21-H ) :   0.9557 B(  1-C ,  2-O ) :   0.7707 B(  1-C , 22-H ) :   0.9480
B(  1-C , 23-H ) :   0.9579 B(  2-O ,  3-P ) :   1.1669 B(  3-P ,  4-S ) :   1.7037
B(  3-P ,  5-O ) :   1.0997 B(  3-P ,  8-S ) :   1.0682 B(  5-O ,  6-C ) :   0.7711
B(  6-C ,  7-C ) :   0.9525 B(  6-C , 24-H ) :   0.9484 B(  6-C , 25-H ) :   0.9373
B(  7-C , 26-H ) :   0.9690 B(  7-C , 27-H ) :   0.9583 B(  7-C , 28-H ) :   0.9691
B(  8-S ,  9-C ) :   0.8854 B(  9-C , 10-S ) :   0.8953 B(  9-C , 29-H ) :   0.9045
B(  9-C , 30-H ) :   0.9045 B( 10-S , 11-P ) :   1.0038 B( 11-P , 12-S ) :   1.8043
B( 11-P , 13-O ) :   1.0502 B( 11-P , 16-O ) :   1.2013 B( 13-O , 14-C ) :   0.7106
B( 14-C , 15-C ) :   0.9402 B( 14-C , 31-H ) :   0.9425 B( 14-C , 32-H ) :   0.9466
B( 15-C , 33-H ) :   0.9745 B( 15-C , 34-H ) :   0.9614 B( 15-C , 35-H ) :   0.9718
B( 16-O , 17-C ) :   0.7876 B( 17-C , 18-C ) :   0.9148 B( 17-C , 36-H ) :   0.9447
B( 17-C , 37-H ) :   0.9565 B( 18-C , 38-H ) :   0.9511 B( 18-C , 39-H ) :   0.9704
B( 18-C , 40-H ) :   0.9554

Dispersion correction           -0.021883055
FINAL SINGLE POINT ENERGY     -2932.471969292299

DIPOLE MOMENT
-------------

Method             : SCF
Type of density    : Electron Density
Multiplicity       :   1
Irrep              :   0
Energy             : -2932.4965189337981428 Eh
Relativity type    :
Basis              : AO
                                X                 Y                 Z
Electronic contribution:     -6.999531019       4.249876162     -22.086495509
Nuclear contribution   :      7.949609854      -5.193175205      24.114807500
                        -----------------------------------------
Total Dipole Moment    :      0.950078835      -0.943299044       2.028311991
                        -----------------------------------------
Magnitude (a.u.)       :      2.430331749
Magnitude (Debye)      :      6.177412379

Rotational constants in cm-1:             0.011762             0.005286             0.005075
Rotational constants in MHz :           352.617759           158.470569           152.156261

                             ****ORCA TERMINATED NORMALLY****
TOTAL RUN TIME: 0 days 0 hours 1 minutes 52 seconds 610 msec
