                         Program Version 6.0.0  -   RELEASE  -
|  1> ! r2scan-3c def2/J RI DEFGRID2 scfconv6 printgap
|  2> %output
|  3>     printlevel normal
|  4> end
|  5> * xyz 0 1
|  6> C 0.9555695839 -1.1890366645 -2.515626094
|  7> C 2.3794414166 -1.1749593034 -1.9962033175
|  8> O 2.5621052416 -0.1241285128 -1.0141428814
|  9> P 2.5951649319 -0.3370772249 0.5504062294
| 10> S 3.211741121 1.2722239889 1.4738238482
| 11> O 3.5237992489 -1.6222124332 0.6826717233
| 12> C 4.1956885707 -1.9711683363 1.9079197719
| 13> C 3.2290489656 -2.3583509697 3.0079145206
| 14> S 0.6724377733 -1.0464610757 1.133465659
| 15> C -0.0671932796 0.5803808727 1.3866111103
| 16> S -0.2457047145 1.5350895913 -0.1572982147
| 17> P -2.139340068 0.8086000844 -0.7344715888
| 18> S -2.7868030045 1.4032514056 -2.484176685
| 19> O -3.1064733952 1.1361224807 0.4987792953
| 20> C -3.8602693975 2.3613522751 0.5737213631
| 21> C -5.2956481225 2.11925454 0.1492020455
| 22> O -1.9172528913 -0.7440481697 -0.542402454
| 23> C -2.9879705742 -1.6825300209 -0.8124083246
| 24> C -2.382092501 -3.0696123268 -0.8524258209
| 25> H 0.260631817 -1.4665053282 -1.7265981895
| 26> H 0.680196878 -0.2048777846 -2.8904149246
| 27> H 0.8803463227 -1.9088515312 -3.3247969708
| 28> H 3.0847057395 -0.9241104628 -2.7904286181
| 29> H 2.6508890153 -2.1328431841 -1.5495391246
| 30> H 4.8360319502 -2.8063315189 1.6203357019
| 31> H 4.8097477466 -1.1198544521 2.2166284969
| 32> H 3.789087901 -2.7446514504 3.8534312729
| 33> H 2.6623089885 -1.486504919 3.3299598554
| 34> H 2.5366805674 -3.1182238126 2.6547565223
| 35> H 0.5873123868 1.1715087591 2.0275364466
| 36> H -1.0438561726 0.4284846825 1.8380553125
| 37> H -3.7984499218 2.6740379863 1.6175960563
| 38> H -3.3900797109 3.1154318612 -0.0639664429
| 39> H -5.8636287471 3.0359301718 0.2699778214
| 40> H -5.3275393701 1.817706886 -0.8956573527
| 41> H -5.7399754802 1.3372078265 0.7581976511
| 42> H -3.7259101142 -1.5906326453 -0.0124471018
| 43> H -3.4534381466 -1.4112247141 -1.765415468
| 44> H -1.6969846099 -3.1591359542 -1.6903637148
| 45> H -1.838679178 -3.2596138651 0.0692683144
| 46> H -3.1765384878 -3.8005561017 -0.9618659612
| 47> *
| 48>
| 49>                          ****END OF INPUT****

CARTESIAN COORDINATES (ANGSTROEM)
---------------------------------
  C      0.955570   -1.189037   -2.515626
  C      2.379441   -1.174959   -1.996203
  O      2.562105   -0.124129   -1.014143
  P      2.595165   -0.337077    0.550406
  S      3.211741    1.272224    1.473824
  O      3.523799   -1.622212    0.682672
  C      4.195689   -1.971168    1.907920
  C      3.229049   -2.358351    3.007915
  S      0.672438   -1.046461    1.133466
  C     -0.067193    0.580381    1.386611
  S     -0.245705    1.535090   -0.157298
  P     -2.139340    0.808600   -0.734472
  S     -2.786803    1.403251   -2.484177
  O     -3.106473    1.136122    0.498779
  C     -3.860269    2.361352    0.573721
  C     -5.295648    2.119255    0.149202
  O     -1.917253   -0.744048   -0.542402
  C     -2.987971   -1.682530   -0.812408
  C     -2.382093   -3.069612   -0.852426
  H      0.260632   -1.466505   -1.726598
  H      0.680197   -0.204878   -2.890415
  H      0.880346   -1.908852   -3.324797
  H      3.084706   -0.924110   -2.790429
  H      2.650889   -2.132843   -1.549539
  H      4.836032   -2.806332    1.620336
  H      4.809748   -1.119854    2.216628
  H      3.789088   -2.744651    3.853431
  H      2.662309   -1.486505    3.329960
  H      2.536681   -3.118224    2.654757
  H      0.587312    1.171509    2.027536
  H     -1.043856    0.428485    1.838055
  H     -3.798450    2.674038    1.617596
  H     -3.390080    3.115432   -0.063966
  H     -5.863629    3.035930    0.269978
  H     -5.327539    1.817707   -0.895657
  H     -5.739975    1.337208    0.758198
  H     -3.725910   -1.590633   -0.012447
  H     -3.453438   -1.411225   -1.765415
  H     -1.696985   -3.159136   -1.690364
  H     -1.838679   -3.259614    0.069268
  H     -3.176538   -3.800556   -0.961866

 Total Charge           Charge          ....    0
 Multiplicity           Mult            ....    1
 Number of Electrons    NEL             ....  202
 Basis Dimension        Dim             ....  539

ORBITAL ENERGIES
----------------

  NO   OCC          E(Eh)            E(eV)
   0   2.0000     -88.575235     -2410.2547
   1   2.0000     -88.574674     -2410.2394
   2   2.0000     -88.521295     -2408.7869
   3   2.0000     -88.520334     -2408.7608
   4   2.0000     -76.915262     -2092.9707
   5   2.0000     -76.914599     -2092.9526
   6   2.0000     -18.995641      -516.8977
   7   2.0000     -18.995318      -516.8889
   8   2.0000     -18.992453      -516.8109
   9   2.0000     -18.986642      -516.6528
  10   2.0000     -10.107178      -275.0303
  11   2.0000     -10.104613      -274.9605
  12   2.0000     -10.102141      -274.8932
  13   2.0000     -10.100759      -274.8556
  14   2.0000     -10.097894      -274.7777
  15   2.0000     -10.038149      -273.1519
  16   2.0000     -10.031222      -272.9634
  17   2.0000     -10.028839      -272.8986
  18   2.0000     -10.020831      -272.6807
  19   2.0000      -7.869211      -214.1321
  20   2.0000      -7.869039      -214.1274
  21   2.0000      -7.815911      -212.6817
  22   2.0000      -7.815108      -212.6599
  23   2.0000      -6.593596      -179.4209
  24   2.0000      -6.592869      -179.4011
  25   2.0000      -5.816331      -158.2704
  26   2.0000      -5.815980      -158.2609
  27   2.0000      -5.813152      -158.1839
  28   2.0000      -5.812639      -158.1700
  29   2.0000      -5.806315      -157.9979
  30   2.0000      -5.806079      -157.9915
  31   2.0000      -5.763581      -156.8350
  32   2.0000      -5.762804      -156.8139
  33   2.0000      -5.756296      -156.6368
  34   2.0000      -5.755820      -156.6238
  35   2.0000      -5.755407      -156.6126
  36   2.0000      -5.755040      -156.6026
  37   2.0000      -4.739158      -128.9590
  38   2.0000      -4.738796      -128.9492
  39   2.0000      -4.738659      -128.9455
  40   2.0000      -4.737617      -128.9171
  41   2.0000      -4.737172      -128.9050
  42   2.0000      -4.736430      -128.8848
  43   2.0000      -1.053161       -28.6580
  44   2.0000      -1.050425       -28.5835
  45   2.0000      -1.012335       -27.5470
  46   2.0000      -1.008152       -27.4332
  47   2.0000      -0.801993       -21.8233
  48   2.0000      -0.762268       -20.7424
  49   2.0000      -0.750658       -20.4264
  50   2.0000      -0.735131       -20.0039
  51   2.0000      -0.732946       -19.9445
  52   2.0000      -0.711417       -19.3586
  53   2.0000      -0.688189       -18.7266
  54   2.0000      -0.667980       -18.1767
  55   2.0000      -0.628688       -17.1075
  56   2.0000      -0.620954       -16.8970
  57   2.0000      -0.610198       -16.6043
  58   2.0000      -0.605465       -16.4755
  59   2.0000      -0.590192       -16.0600
  60   2.0000      -0.536323       -14.5941
  61   2.0000      -0.525381       -14.2963
  62   2.0000      -0.503430       -13.6990
  63   2.0000      -0.491735       -13.3808
  64   2.0000      -0.477446       -12.9920
  65   2.0000      -0.465461       -12.6658
  66   2.0000      -0.461562       -12.5597
  67   2.0000      -0.453675       -12.3451
  68   2.0000      -0.448552       -12.2057
  69   2.0000      -0.440004       -11.9731
  70   2.0000      -0.425161       -11.5692
  71   2.0000      -0.420307       -11.4371
  72   2.0000      -0.408263       -11.1094
  73   2.0000      -0.402267       -10.9462
  74   2.0000      -0.390931       -10.6378
  75   2.0000      -0.387494       -10.5442
  76   2.0000      -0.379269       -10.3204
  77   2.0000      -0.378323       -10.2947
  78   2.0000      -0.371832       -10.1181
  79   2.0000      -0.368771       -10.0348
  80   2.0000      -0.366990        -9.9863
  81   2.0000      -0.358014        -9.7420
  82   2.0000      -0.356325        -9.6961
  83   2.0000      -0.351930        -9.5765
  84   2.0000      -0.345896        -9.4123
  85   2.0000      -0.337887        -9.1944
  86   2.0000      -0.326682        -8.8895
  87   2.0000      -0.319184        -8.6854
  88   2.0000      -0.313588        -8.5332
  89   2.0000      -0.311219        -8.4687
  90   2.0000      -0.307837        -8.3767
  91   2.0000      -0.292522        -7.9599
  92   2.0000      -0.283648        -7.7185
  93   2.0000      -0.279332        -7.6010
  94   2.0000      -0.273491        -7.4421
  95   2.0000      -0.244341        -6.6489
  96   2.0000      -0.231950        -6.3117
  97   2.0000      -0.222170        -6.0456
  98   2.0000      -0.220231        -5.9928
  99   2.0000      -0.215055        -5.8519
 100   2.0000      -0.212792        -5.7904
 101   0.0000      -0.043896        -1.1945
 102   0.0000      -0.022788        -0.6201
 103   0.0000      -0.013353        -0.3633
 104   0.0000       0.003788         0.1031
 105   0.0000       0.009127         0.2484

MULLIKEN ATOMIC CHARGES
-----------------------
   0 C :   -0.455138
   1 C :   -0.142284
   2 O :   -0.260500
   3 P :    0.681655
   4 S :   -0.443235
   5 O :   -0.310006
   6 C :   -0.164337
   7 C :   -0.446384
   8 S :   -0.151866
   9 C :   -0.250306
  10 S :   -0.108738
  11 P :    0.656733
  12 S :   -0.461294
  13 O :   -0.304440
  14 C :   -0.118086
  15 C :   -0.457675
  16 O :   -0.261284
  17 C :   -0.145511
  18 C :   -0.452486
  19 H :    0.173905
  20 H :    0.173821
  21 H :    0.141292
  22 H :    0.151943
  23 H :    0.158574
  24 H :    0.148568
  25 H :    0.175204
  26 H :    0.147893
  27 H :    0.179526
  28 H :    0.152123
  29 H :    0.222714
  30 H :    0.200470
  31 H :    0.147885
  32 H :    0.158587
  33 H :    0.146150
  34 H :    0.178987
  35 H :    0.147841
  36 H :    0.153815
  37 H :    0.170670
  38 H :    0.159388
  39 H :    0.159073
  40 H :    0.146753
Sum of atomic charges:    0.0000000

LOEWDIN ATOMIC CHARGES
----------------------
   0 C :   -0.405118
   1 C :    0.029634
   2 O :   -0.649848
   3 P :    0.379479
   4 S :   -0.102010
   5 O :   -0.676859
   6 C :    0.023164
   7 C :   -0.409308
   8 S :    0.147365
   9 C :   -0.414302
  10 S :    0.194650
  11 P :    0.360242
  12 S :   -0.114836
  13 O :   -0.686941
  14 C :    0.021353
  15 C :   -0.399588
  16 O :   -0.695490
  17 C :    0.025957
  18 C :   -0.387623
  19 H :    0.170616
  20 H :    0.169001
  21 H :    0.156246
  22 H :    0.181608
  23 H :    0.177424
  24 H :    0.179582
  25 H :    0.180770
  26 H :    0.159455
  27 H :    0.166247
  28 H :    0.159445
  29 H :    0.193779
  30 H :    0.190087
  31 H :    0.175853
  32 H :    0.179330
  33 H :    0.159433
  34 H :    0.167421
  35 H :    0.156151
  36 H :    0.172540
  37 H :    0.181322
  38 H :    0.160757
  39 H :    0.162873
  40 H :    0.160141

  Mayer bond orders larger than 0.100000
B(  0-C ,  1-C ) :   0.9462 B(  0-C , 19-H ) :   0.9539 B(  0-C , 20-H ) :   0.9629
B(  0-C , 21-H ) :   0.9631 B(  1-C ,  2-O ) :   0.7582 B(  1-C , 22-H ) :   0.9605
B(  1-C , 23-H ) :   0.9763 B(  2-O ,  3-P ) :   1.1539 B(  3-P ,  4-S ) :   1.8288
B(  3-P ,  5-O ) :   1.0450 B(  3-P ,  8-S ) :   0.9875 B(  5-O ,  6-C ) :   0.8209
B(  6-C ,  7-C ) :   0.9177 B(  6-C , 24-H ) :   0.9619 B(  6-C , 25-H ) :   0.9693
B(  7-C , 26-H ) :   0.9563 B(  7-C , 27-H ) :   0.9639 B(  7-C , 28-H ) :   0.9671
B(  8-S ,  9-C ) :   0.9104 B(  9-C , 10-S ) :   0.8986 B(  9-C , 29-H ) :   0.9086
B(  9-C , 30-H ) :   0.9170 B( 10-S , 11-P ) :   1.1019 B( 11-P , 12-S ) :   1.8085
B( 11-P , 13-O ) :   1.0209 B( 11-P , 16-O ) :   1.1265 B( 13-O , 14-C ) :   0.7796
B( 14-C , 15-C ) :   0.9511 B( 14-C , 31-H ) :   0.9622 B( 14-C , 32-H ) :   0.9633
B( 15-C , 33-H ) :   0.9643 B( 15-C , 34-H ) :   0.9611 B( 15-C , 35-H ) :   0.9754
B( 16-O , 17-C ) :   0.7757 B( 17-C , 18-C ) :   0.9567 B( 17-C , 36-H ) :   0.9478
B( 17-C , 37-H ) :   0.9489 B( 18-C , 38-H ) :   0.9705 B( 18-C , 39-H ) :   0.9698
B( 18-C , 40-H ) :   0.9617

Dispersion correction           -0.021384106
FINAL SINGLE POINT ENERGY     -2932.461558600213

DIPOLE MOMENT
-------------

Method             : SCF
Type of density    : Electron Density
Multiplicity       :   1
Irrep              :   0
Energy             : -2932.4865573525548825 Eh
Relativity type    :
Basis              : AO
                                X                 Y                 Z
Electronic contribution:     11.138738056      15.168473257      -1.730617473
Nuclear contribution   :    -11.934271448     -17.001258609       2.584367730
                        -----------------------------------------
Total Dipole Moment    :     -0.795533392      -1.832785353       0.853750258
                        -----------------------------------------
Magnitude (a.u.)       :      2.172755170
Magnitude (Debye)      :      5.522704746

Rotational constants in cm-1:             0.013387             0.004500             0.004297
Rotational constants in MHz :           401.334482           134.908582           128.834355

                             ****ORCA TERMINATED NORMALLY****
TOTAL RUN TIME: 0 days 0 hours 1 minutes 20 seconds 996 msec
