                         Program Version 6.0.0  -   RELEASE  -
|  1> ! r2scan-3c def2/J RI DEFGRID2 scfconv6 printgap
|  2> %output
|  3>     printlevel normal
|  4> end
|  5> %cpcm
|  6>     smd true
|  7>     smdsolvent "water"
|  8> end
|  9> * xyz 0 1
| 10> C 0.9555695839 -1.1890366645 -2.515626094
| 11> C 2.3794414166 -1.1749593034 -1.9962033175
| 12> O 2.5621052416 -0.1241285128 -1.0141428814
| 13> P 2.5951649319 -0.3370772249 0.5504062294
| 14> S 3.211741121 1.2722239889 1.4738238482
| 15> O 3.5237992489 -1.6222124332 0.6826717233
| 16> C 4.1956885707 -1.9711683363 1.9079197719
| 17> C 3.2290489656 -2.3583509697 3.0079145206
| 18> S 0.6724377733 -1.0464610757 1.133465659
| 19> C -0.0671932796 0.5803808727 1.3866111103
| 20> S -0.2457047145 1.5350895913 -0.1572982147
| 21> P -2.139340068 0.8086000844 -0.7344715888
| 22> S -2.7868030045 1.4032514056 -2.484176685
| 23> O -3.1064733952 1.1361224807 0.4987792953
| 24> C -3.8602693975 2.3613522751 0.5737213631
| 25> C -5.2956481225 2.11925454 0.1492020455
| 26> O -1.9172528913 -0.7440481697 -0.542402454
| 27> C -2.9879705742 -1.6825300209 -0.8124083246
| 28> C -2.382092501 -3.0696123268 -0.8524258209
| 29> H 0.260631817 -1.4665053282 -1.7265981895
| 30> H 0.680196878 -0.2048777846 -2.8904149246
| 31> H 0.8803463227 -1.9088515312 -3.3247969708
| 32> H 3.0847057395 -0.9241104628 -2.7904286181
| 33> H 2.6508890153 -2.1328431841 -1.5495391246
| 34> H 4.8360319502 -2.8063315189 1.6203357019
| 35> H 4.8097477466 -1.1198544521 2.2166284969
| 36> H 3.789087901 -2.7446514504 3.8534312729
| 37> H 2.6623089885 -1.486504919 3.3299598554
| 38> H 2.5366805674 -3.1182238126 2.6547565223
| 39> H 0.5873123868 1.1715087591 2.0275364466
| 40> H -1.0438561726 0.4284846825 1.8380553125
| 41> H -3.7984499218 2.6740379863 1.6175960563
| 42> H -3.3900797109 3.1154318612 -0.0639664429
| 43> H -5.8636287471 3.0359301718 0.2699778214
| 44> H -5.3275393701 1.817706886 -0.8956573527
| 45> H -5.7399754802 1.3372078265 0.7581976511
| 46> H -3.7259101142 -1.5906326453 -0.0124471018
| 47> H -3.4534381466 -1.4112247141 -1.765415468
| 48> H -1.6969846099 -3.1591359542 -1.6903637148
| 49> H -1.838679178 -3.2596138651 0.0692683144
| 50> H -3.1765384878 -3.8005561017 -0.9618659612
| 51> *
| 52>
| 53>                          ****END OF INPUT****

CARTESIAN COORDINATES (ANGSTROEM)
---------------------------------
  C      0.955570   -1.189037   -2.515626
  C      2.379441   -1.174959   -1.996203
  O      2.562105   -0.124129   -1.014143
  P      2.595165   -0.337077    0.550406
  S      3.211741    1.272224    1.473824
  O      3.523799   -1.622212    0.682672
  C      4.195689   -1.971168    1.907920
  C      3.229049   -2.358351    3.007915
  S      0.672438   -1.046461    1.133466
  C     -0.067193    0.580381    1.386611
  S     -0.245705    1.535090   -0.157298
  P     -2.139340    0.808600   -0.734472
  S     -2.786803    1.403251   -2.484177
  O     -3.106473    1.136122    0.498779
  C     -3.860269    2.361352    0.573721
  C     -5.295648    2.119255    0.149202
  O     -1.917253   -0.744048   -0.542402
  C     -2.987971   -1.682530   -0.812408
  C     -2.382093   -3.069612   -0.852426
  H      0.260632   -1.466505   -1.726598
  H      0.680197   -0.204878   -2.890415
  H      0.880346   -1.908852   -3.324797
  H      3.084706   -0.924110   -2.790429
  H      2.650889   -2.132843   -1.549539
  H      4.836032   -2.806332    1.620336
  H      4.809748   -1.119854    2.216628
  H      3.789088   -2.744651    3.853431
  H      2.662309   -1.486505    3.329960
  H      2.536681   -3.118224    2.654757
  H      0.587312    1.171509    2.027536
  H     -1.043856    0.428485    1.838055
  H     -3.798450    2.674038    1.617596
  H     -3.390080    3.115432   -0.063966
  H     -5.863629    3.035930    0.269978
  H     -5.327539    1.817707   -0.895657
  H     -5.739975    1.337208    0.758198
  H     -3.725910   -1.590633   -0.012447
  H     -3.453438   -1.411225   -1.765415
  H     -1.696985   -3.159136   -1.690364
  H     -1.838679   -3.259614    0.069268
  H     -3.176538   -3.800556   -0.961866

 Total Charge           Charge          ....    0
 Multiplicity           Mult            ....    1
 Number of Electrons    NEL             ....  202
 Basis Dimension        Dim             ....  539

ORBITAL ENERGIES
----------------

  NO   OCC          E(Eh)            E(eV)
   0   2.0000     -88.579541     -2410.3719
   1   2.0000     -88.576176     -2410.2803
   2   2.0000     -88.530188     -2409.0289
   3   2.0000     -88.528964     -2408.9956
   4   2.0000     -76.920159     -2093.1039
   5   2.0000     -76.919031     -2093.0732
   6   2.0000     -18.995962      -516.9064
   7   2.0000     -18.992660      -516.8166
   8   2.0000     -18.992038      -516.7996
   9   2.0000     -18.991199      -516.7768
  10   2.0000     -10.104913      -274.9687
  11   2.0000     -10.090905      -274.5875
  12   2.0000     -10.090787      -274.5843
  13   2.0000     -10.090623      -274.5798
  14   2.0000     -10.089124      -274.5390
  15   2.0000     -10.019749      -272.6512
  16   2.0000     -10.018471      -272.6164
  17   2.0000     -10.016667      -272.5674
  18   2.0000     -10.015031      -272.5229
  19   2.0000      -7.873565      -214.2506
  20   2.0000      -7.870562      -214.1689
  21   2.0000      -7.825338      -212.9383
  22   2.0000      -7.823965      -212.9009
  23   2.0000      -6.598511      -179.5546
  24   2.0000      -6.597330      -179.5225
  25   2.0000      -5.820784      -158.3916
  26   2.0000      -5.817377      -158.2989
  27   2.0000      -5.817111      -158.2916
  28   2.0000      -5.814526      -158.2213
  29   2.0000      -5.810720      -158.1177
  30   2.0000      -5.807622      -158.0334
  31   2.0000      -5.772906      -157.0888
  32   2.0000      -5.771527      -157.0512
  33   2.0000      -5.765610      -156.8902
  34   2.0000      -5.765350      -156.8831
  35   2.0000      -5.764337      -156.8556
  36   2.0000      -5.763925      -156.8444
  37   2.0000      -4.744394      -129.1015
  38   2.0000      -4.743211      -129.0693
  39   2.0000      -4.742796      -129.0580
  40   2.0000      -4.742368      -129.0464
  41   2.0000      -4.742189      -129.0415
  42   2.0000      -4.741087      -129.0115
  43   2.0000      -1.052666       -28.6445
  44   2.0000      -1.050737       -28.5920
  45   2.0000      -1.010546       -27.4983
  46   2.0000      -1.009353       -27.4659
  47   2.0000      -0.802432       -21.8353
  48   2.0000      -0.757246       -20.6057
  49   2.0000      -0.744425       -20.2568
  50   2.0000      -0.724817       -19.7233
  51   2.0000      -0.722942       -19.6723
  52   2.0000      -0.709570       -19.3084
  53   2.0000      -0.691723       -18.8228
  54   2.0000      -0.674051       -18.3419
  55   2.0000      -0.626026       -17.0350
  56   2.0000      -0.613397       -16.6914
  57   2.0000      -0.603681       -16.4270
  58   2.0000      -0.598428       -16.2841
  59   2.0000      -0.586455       -15.9582
  60   2.0000      -0.529231       -14.4011
  61   2.0000      -0.521153       -14.1813
  62   2.0000      -0.496668       -13.5150
  63   2.0000      -0.487901       -13.2765
  64   2.0000      -0.476450       -12.9649
  65   2.0000      -0.458591       -12.4789
  66   2.0000      -0.457129       -12.4391
  67   2.0000      -0.446438       -12.1482
  68   2.0000      -0.440425       -11.9846
  69   2.0000      -0.434289       -11.8176
  70   2.0000      -0.422324       -11.4920
  71   2.0000      -0.414290       -11.2734
  72   2.0000      -0.404983       -11.0202
  73   2.0000      -0.393955       -10.7201
  74   2.0000      -0.388026       -10.5587
  75   2.0000      -0.384763       -10.4699
  76   2.0000      -0.376354       -10.2411
  77   2.0000      -0.366584        -9.9753
  78   2.0000      -0.364508        -9.9188
  79   2.0000      -0.363091        -9.8802
  80   2.0000      -0.356857        -9.7106
  81   2.0000      -0.353198        -9.6110
  82   2.0000      -0.345813        -9.4100
  83   2.0000      -0.343857        -9.3568
  84   2.0000      -0.340401        -9.2628
  85   2.0000      -0.333162        -9.0658
  86   2.0000      -0.324165        -8.8210
  87   2.0000      -0.314369        -8.5544
  88   2.0000      -0.309060        -8.4100
  89   2.0000      -0.305058        -8.3011
  90   2.0000      -0.303364        -8.2550
  91   2.0000      -0.285808        -7.7772
  92   2.0000      -0.281685        -7.6650
  93   2.0000      -0.277913        -7.5624
  94   2.0000      -0.274942        -7.4815
  95   2.0000      -0.248308        -6.7568
  96   2.0000      -0.238742        -6.4965
  97   2.0000      -0.232857        -6.3364
  98   2.0000      -0.229337        -6.2406
  99   2.0000      -0.223204        -6.0737
 100   2.0000      -0.219300        -5.9675
 101   0.0000      -0.047332        -1.2880
 102   0.0000      -0.028260        -0.7690
 103   0.0000      -0.017141        -0.4664
 104   0.0000      -0.000171        -0.0047
 105   0.0000       0.008613         0.2344

MULLIKEN ATOMIC CHARGES
-----------------------
   0 C :   -0.482506
   1 C :   -0.141131
   2 O :   -0.294328
   3 P :    0.694649
   4 S :   -0.503197
   5 O :   -0.328956
   6 C :   -0.157123
   7 C :   -0.482940
   8 S :   -0.138937
   9 C :   -0.251313
  10 S :   -0.155615
  11 P :    0.693872
  12 S :   -0.525044
  13 O :   -0.317924
  14 C :   -0.116372
  15 C :   -0.491621
  16 O :   -0.277134
  17 C :   -0.132470
  18 C :   -0.495793
  19 H :    0.175407
  20 H :    0.165295
  21 H :    0.167682
  22 H :    0.174433
  23 H :    0.179590
  24 H :    0.175870
  25 H :    0.179158
  26 H :    0.172358
  27 H :    0.174292
  28 H :    0.168147
  29 H :    0.235530
  30 H :    0.237620
  31 H :    0.174369
  32 H :    0.164619
  33 H :    0.168770
  34 H :    0.169379
  35 H :    0.165387
  36 H :    0.175028
  37 H :    0.172579
  38 H :    0.170500
  39 H :    0.168485
  40 H :    0.169385
Sum of atomic charges:    0.0000000

LOEWDIN ATOMIC CHARGES
----------------------
   0 C :   -0.407820
   1 C :    0.035683
   2 O :   -0.673801
   3 P :    0.381945
   4 S :   -0.147086
   5 O :   -0.681921
   6 C :    0.028687
   7 C :   -0.411371
   8 S :    0.161939
   9 C :   -0.404725
  10 S :    0.167031
  11 P :    0.367132
  12 S :   -0.158425
  13 O :   -0.687630
  14 C :    0.025707
  15 C :   -0.403389
  16 O :   -0.698713
  17 C :    0.032624
  18 C :   -0.390594
  19 H :    0.169345
  20 H :    0.163522
  21 H :    0.166577
  22 H :    0.190790
  23 H :    0.186452
  24 H :    0.191342
  25 H :    0.181582
  26 H :    0.168469
  27 H :    0.161826
  28 H :    0.163781
  29 H :    0.198079
  30 H :    0.203637
  31 H :    0.187027
  32 H :    0.180610
  33 H :    0.167388
  34 H :    0.161869
  35 H :    0.161963
  36 H :    0.181410
  37 H :    0.182347
  38 H :    0.162922
  39 H :    0.164874
  40 H :    0.168918

  Mayer bond orders larger than 0.100000
B(  0-C ,  1-C ) :   0.9431 B(  0-C , 19-H ) :   0.9532 B(  0-C , 20-H ) :   0.9644
B(  0-C , 21-H ) :   0.9564 B(  1-C ,  2-O ) :   0.7503 B(  1-C , 22-H ) :   0.9515
B(  1-C , 23-H ) :   0.9666 B(  2-O ,  3-P ) :   1.1546 B(  3-P ,  4-S ) :   1.8007
B(  3-P ,  5-O ) :   1.0550 B(  3-P ,  8-S ) :   1.0066 B(  5-O ,  6-C ) :   0.8086
B(  6-C ,  7-C ) :   0.9066 B(  6-C , 24-H ) :   0.9509 B(  6-C , 25-H ) :   0.9676
B(  7-C , 26-H ) :   0.9512 B(  7-C , 27-H ) :   0.9651 B(  7-C , 28-H ) :   0.9641
B(  8-S ,  9-C ) :   0.9060 B(  9-C , 10-S ) :   0.8904 B(  9-C , 29-H ) :   0.9042
B(  9-C , 30-H ) :   0.9061 B( 10-S , 11-P ) :   1.1039 B( 11-P , 12-S ) :   1.7572
B( 11-P , 13-O ) :   1.0373 B( 11-P , 16-O ) :   1.1474 B( 13-O , 14-C ) :   0.7641
B( 14-C , 15-C ) :   0.9428 B( 14-C , 31-H ) :   0.9525 B( 14-C , 32-H ) :   0.9608
B( 15-C , 33-H ) :   0.9602 B( 15-C , 34-H ) :   0.9646 B( 15-C , 35-H ) :   0.9710
B( 16-O , 17-C ) :   0.7661 B( 17-C , 18-C ) :   0.9493 B( 17-C , 36-H ) :   0.9384
B( 17-C , 37-H ) :   0.9455 B( 18-C , 38-H ) :   0.9677 B( 18-C , 39-H ) :   0.9683
B( 18-C , 40-H ) :   0.9561

Dispersion correction           -0.021384106
FINAL SINGLE POINT ENERGY     -2932.472107339521

DIPOLE MOMENT
-------------

Method             : SCF
Type of density    : Electron Density
Multiplicity       :   1
Irrep              :   0
Energy             : -2932.4971060918628609 Eh
Relativity type    :
Basis              : AO
                                X                 Y                 Z
Electronic contribution:     10.774436334      14.351900819      -1.207193385
Nuclear contribution   :    -11.934271448     -17.001258609       2.584367730
                        -----------------------------------------
Total Dipole Moment    :     -1.159835114      -2.649357791       1.377174346
                        -----------------------------------------
Magnitude (a.u.)       :      3.203267609
Magnitude (Debye)      :      8.142059201

Rotational constants in cm-1:             0.013387             0.004500             0.004297
Rotational constants in MHz :           401.334482           134.908582           128.834355

                             ****ORCA TERMINATED NORMALLY****
TOTAL RUN TIME: 0 days 0 hours 1 minutes 55 seconds 859 msec
