                         Program Version 6.0.0  -   RELEASE  -
|  1> ! pbe def2-sv(p) def2/J RI DEFGRID1 loosescf d4 GCP(DFT/SV(P)) printgap
|  2> %output
|  3>     printlevel normal
|  4> end
|  5> * xyz 0 1
|  6> C 5.0234236571 -1.1865094374 -1.8224169681
|  7> C 4.6672003087 -0.28910493 -0.6545775126
|  8> O 3.5018361555 0.5131703538 -0.9681710037
|  9> P 2.0591024112 0.2187532166 -0.3821281429
| 10> S 0.8300990863 1.6121432099 -0.9885445069
| 11> O 2.2017494392 0.0521193852 1.2033070225
| 12> C 2.0998234455 1.173348715 2.0987052804
| 13> C 3.3089049787 2.0797024447 1.9985978033
| 14> S 1.7449358923 -1.806166102 -0.8716716494
| 15> C 0.1786952045 -2.1518535938 -0.0292975973
| 16> S -1.2962836995 -1.7910104789 -1.0389772491
| 17> P -2.1470747275 -0.1744388548 0.0172310736
| 18> S -1.2629249107 0.2444970511 1.7227654362
| 19> O -3.6852830031 -0.5632481335 0.1721636161
| 20> C -4.1653316024 -1.4206313741 1.2268564541
| 21> C -4.8004423727 -0.5969800857 2.3304589978
| 22> O -2.2354997562 0.8886563847 -1.1426928889
| 23> C -3.1204137143 2.0294224163 -1.1541709562
| 24> C -2.8158709699 2.9975514033 -0.030498255
| 25> H 5.9426081754 -1.7166981923 -1.5944728083
| 26> H 4.2297352074 -1.9081197832 -2.0034226913
| 27> H 5.1652496879 -0.5892876603 -2.7187985666
| 28> H 5.4577678001 0.4384584683 -0.4616986898
| 29> H 4.4688789603 -0.8711215914 0.2486517916
| 30> H 1.181448033 1.7222134001 1.8679934816
| 31> H 2.0062479934 0.7160591596 3.0847604008
| 32> H 4.2192760877 1.5205032478 2.1985095092
| 33> H 3.3643679299 2.5089771386 0.9983214497
| 34> H 3.2133172507 2.88325063 2.7219492668
| 35> H 0.1235836226 -1.5752860812 0.898668552
| 36> H 0.1812623271 -3.2210073129 0.164183491
| 37> H -4.892949461 -2.0769633177 0.7465789701
| 38> H -3.3352886478 -2.0160525341 1.6166445053
| 39> H -4.051709521 0.0375272682 2.8000069563
| 40> H -5.5905733438 0.028498419 1.9246626704
| 41> H -5.2174071159 -1.2634344203 3.0783718731
| 42> H -2.931514512 2.4807740688 -2.1295957111
| 43> H -4.1494366347 1.6664428215 -1.0995353351
| 44> H -3.0231565288 2.5347450177 0.9335411552
| 45> H -1.7644986452 3.2780483463 -0.0624800405
| 46> H -3.4299686093 3.8856612007 -0.139243065
| 47> *
| 48>
| 49>                          ****END OF INPUT****

CARTESIAN COORDINATES (ANGSTROEM)
---------------------------------
  C      5.023424   -1.186509   -1.822417
  C      4.667200   -0.289105   -0.654578
  O      3.501836    0.513170   -0.968171
  P      2.059102    0.218753   -0.382128
  S      0.830099    1.612143   -0.988545
  O      2.201749    0.052119    1.203307
  C      2.099823    1.173349    2.098705
  C      3.308905    2.079702    1.998598
  S      1.744936   -1.806166   -0.871672
  C      0.178695   -2.151854   -0.029298
  S     -1.296284   -1.791010   -1.038977
  P     -2.147075   -0.174439    0.017231
  S     -1.262925    0.244497    1.722765
  O     -3.685283   -0.563248    0.172164
  C     -4.165332   -1.420631    1.226856
  C     -4.800442   -0.596980    2.330459
  O     -2.235500    0.888656   -1.142693
  C     -3.120414    2.029422   -1.154171
  C     -2.815871    2.997551   -0.030498
  H      5.942608   -1.716698   -1.594473
  H      4.229735   -1.908120   -2.003423
  H      5.165250   -0.589288   -2.718799
  H      5.457768    0.438458   -0.461699
  H      4.468879   -0.871122    0.248652
  H      1.181448    1.722213    1.867993
  H      2.006248    0.716059    3.084760
  H      4.219276    1.520503    2.198510
  H      3.364368    2.508977    0.998321
  H      3.213317    2.883251    2.721949
  H      0.123584   -1.575286    0.898669
  H      0.181262   -3.221007    0.164183
  H     -4.892949   -2.076963    0.746579
  H     -3.335289   -2.016053    1.616645
  H     -4.051710    0.037527    2.800007
  H     -5.590573    0.028498    1.924663
  H     -5.217407   -1.263434    3.078372
  H     -2.931515    2.480774   -2.129596
  H     -4.149437    1.666443   -1.099535
  H     -3.023157    2.534745    0.933541
  H     -1.764499    3.278048   -0.062480
  H     -3.429969    3.885661   -0.139243

 Total Charge           Charge          ....    0
 Multiplicity           Mult            ....    1
 Number of Electrons    NEL             ....  202
 Basis Dimension        Dim             ....  334

ORBITAL ENERGIES
----------------

  NO   OCC          E(Eh)            E(eV)
   0   2.0000     -88.038579     -2395.6515
   1   2.0000     -88.037617     -2395.6254
   2   2.0000     -87.986526     -2394.2351
   3   2.0000     -87.971569     -2393.8281
   4   2.0000     -76.424899     -2079.6272
   5   2.0000     -76.416752     -2079.4056
   6   2.0000     -18.788680      -511.2660
   7   2.0000     -18.788090      -511.2499
   8   2.0000     -18.785023      -511.1665
   9   2.0000     -18.783502      -511.1251
  10   2.0000      -9.954331      -270.8711
  11   2.0000      -9.953240      -270.8414
  12   2.0000      -9.953169      -270.8395
  13   2.0000      -9.950099      -270.7560
  14   2.0000      -9.940273      -270.4886
  15   2.0000      -9.886404      -269.0227
  16   2.0000      -9.882748      -268.9232
  17   2.0000      -9.879682      -268.8398
  18   2.0000      -9.877268      -268.7741
  19   2.0000      -7.684102      -209.0951
  20   2.0000      -7.683210      -209.0708
  21   2.0000      -7.631250      -207.6569
  22   2.0000      -7.616776      -207.2630
  23   2.0000      -6.422123      -174.7548
  24   2.0000      -6.414649      -174.5515
  25   2.0000      -5.712053      -155.4329
  26   2.0000      -5.711076      -155.4063
  27   2.0000      -5.708450      -155.3348
  28   2.0000      -5.707638      -155.3127
  29   2.0000      -5.701058      -155.1337
  30   2.0000      -5.700197      -155.1102
  31   2.0000      -5.659938      -154.0147
  32   2.0000      -5.652280      -153.8063
  33   2.0000      -5.651179      -153.7764
  34   2.0000      -5.645880      -153.6322
  35   2.0000      -5.637367      -153.4006
  36   2.0000      -5.636701      -153.3824
  37   2.0000      -4.644854      -126.3929
  38   2.0000      -4.643567      -126.3579
  39   2.0000      -4.642804      -126.3371
  40   2.0000      -4.637633      -126.1964
  41   2.0000      -4.636240      -126.1585
  42   2.0000      -4.634891      -126.1218
  43   2.0000      -0.984398       -26.7868
  44   2.0000      -0.978672       -26.6310
  45   2.0000      -0.939558       -25.5667
  46   2.0000      -0.938197       -25.5296
  47   2.0000      -0.757943       -20.6247
  48   2.0000      -0.718902       -19.5623
  49   2.0000      -0.706518       -19.2253
  50   2.0000      -0.687541       -18.7090
  51   2.0000      -0.684952       -18.6385
  52   2.0000      -0.669826       -18.2269
  53   2.0000      -0.649270       -17.6675
  54   2.0000      -0.631217       -17.1763
  55   2.0000      -0.593670       -16.1546
  56   2.0000      -0.580997       -15.8097
  57   2.0000      -0.573737       -15.6122
  58   2.0000      -0.572508       -15.5787
  59   2.0000      -0.557934       -15.1821
  60   2.0000      -0.500704       -13.6248
  61   2.0000      -0.494337       -13.4516
  62   2.0000      -0.472675       -12.8621
  63   2.0000      -0.469383       -12.7726
  64   2.0000      -0.450341       -12.2544
  65   2.0000      -0.445194       -12.1143
  66   2.0000      -0.436692       -11.8830
  67   2.0000      -0.432865       -11.7789
  68   2.0000      -0.422030       -11.4840
  69   2.0000      -0.409815       -11.1516
  70   2.0000      -0.406650       -11.0655
  71   2.0000      -0.399392       -10.8680
  72   2.0000      -0.394420       -10.7327
  73   2.0000      -0.385115       -10.4795
  74   2.0000      -0.376105       -10.2343
  75   2.0000      -0.367525       -10.0009
  76   2.0000      -0.362887        -9.8746
  77   2.0000      -0.354570        -9.6483
  78   2.0000      -0.351536        -9.5658
  79   2.0000      -0.348829        -9.4921
  80   2.0000      -0.342934        -9.3317
  81   2.0000      -0.340023        -9.2525
  82   2.0000      -0.335935        -9.1413
  83   2.0000      -0.332551        -9.0492
  84   2.0000      -0.331109        -9.0099
  85   2.0000      -0.313917        -8.5421
  86   2.0000      -0.308298        -8.3892
  87   2.0000      -0.300604        -8.1799
  88   2.0000      -0.296748        -8.0749
  89   2.0000      -0.286196        -7.7878
  90   2.0000      -0.273980        -7.4554
  91   2.0000      -0.269012        -7.3202
  92   2.0000      -0.266482        -7.2514
  93   2.0000      -0.261314        -7.1107
  94   2.0000      -0.257743        -7.0135
  95   2.0000      -0.234783        -6.3888
  96   2.0000      -0.220071        -5.9884
  97   2.0000      -0.206501        -5.6192
  98   2.0000      -0.202377        -5.5069
  99   2.0000      -0.187875        -5.1123
 100   2.0000      -0.179621        -4.8877
 101   0.0000      -0.032100        -0.8735
 102   0.0000      -0.026265        -0.7147
 103   0.0000      -0.011052        -0.3007
 104   0.0000       0.010461         0.2847
 105   0.0000       0.016180         0.4403

MULLIKEN ATOMIC CHARGES
-----------------------
   0 C :   -0.290107
   1 C :   -0.033214
   2 O :   -0.367214
   3 P :    0.609972
   4 S :   -0.303194
   5 O :   -0.387494
   6 C :   -0.015855
   7 C :   -0.311145
   8 S :   -0.105762
   9 C :   -0.354521
  10 S :   -0.074185
  11 P :    0.637519
  12 S :   -0.330379
  13 O :   -0.384622
  14 C :    0.004048
  15 C :   -0.292951
  16 O :   -0.354390
  17 C :    0.002104
  18 C :   -0.323225
  19 H :    0.109792
  20 H :    0.131066
  21 H :    0.122928
  22 H :    0.109753
  23 H :    0.109472
  24 H :    0.128999
  25 H :    0.100040
  26 H :    0.107698
  27 H :    0.129692
  28 H :    0.111517
  29 H :    0.204332
  30 H :    0.180815
  31 H :    0.106067
  32 H :    0.092613
  33 H :    0.125888
  34 H :    0.110534
  35 H :    0.107587
  36 H :    0.110774
  37 H :    0.106481
  38 H :    0.125255
  39 H :    0.135632
  40 H :    0.107682
Sum of atomic charges:   -0.0000000

LOEWDIN ATOMIC CHARGES
----------------------
   0 C :   -0.359709
   1 C :   -0.122063
   2 O :   -0.242071
   3 P :    0.560018
   4 S :   -0.304571
   5 O :   -0.253780
   6 C :   -0.125850
   7 C :   -0.366369
   8 S :    0.082152
   9 C :   -0.481654
  10 S :    0.085682
  11 P :    0.572548
  12 S :   -0.296433
  13 O :   -0.253098
  14 C :   -0.115947
  15 C :   -0.361596
  16 O :   -0.226403
  17 C :   -0.107730
  18 C :   -0.368505
  19 H :    0.130200
  20 H :    0.120231
  21 H :    0.130540
  22 H :    0.119691
  23 H :    0.108728
  24 H :    0.108808
  25 H :    0.116111
  26 H :    0.119987
  27 H :    0.125781
  28 H :    0.130645
  29 H :    0.123908
  30 H :    0.136904
  31 H :    0.117929
  32 H :    0.105296
  33 H :    0.124151
  34 H :    0.123764
  35 H :    0.128764
  36 H :    0.123016
  37 H :    0.110929
  38 H :    0.120187
  39 H :    0.131783
  40 H :    0.128027

  Mayer bond orders larger than 0.100000
B(  0-C ,  1-C ) :   1.1674 B(  0-C , 19-H ) :   0.9393 B(  0-C , 20-H ) :   0.9370
B(  0-C , 21-H ) :   0.9455 B(  1-C ,  2-O ) :   0.8982 B(  1-C , 22-H ) :   0.9319
B(  1-C , 23-H ) :   0.9139 B(  2-O ,  3-P ) :   1.1084 B(  3-P ,  4-S ) :   1.6736
B(  3-P ,  5-O ) :   1.0657 B(  3-P ,  8-S ) :   0.9630 B(  4-S ,  8-S ) :   0.1076
B(  5-O ,  6-C ) :   0.9041 B(  6-C ,  7-C ) :   1.1588 B(  6-C , 24-H ) :   0.9046
B(  6-C , 25-H ) :   0.9361 B(  7-C , 26-H ) :   0.9453 B(  7-C , 27-H ) :   0.9354
B(  7-C , 28-H ) :   0.9404 B(  8-S ,  9-C ) :   0.9956 B(  9-C , 10-S ) :   1.0058
B(  9-C , 29-H ) :   0.8436 B(  9-C , 30-H ) :   0.9124 B( 10-S , 11-P ) :   0.9740
B( 10-S , 12-S ) :   0.1234 B( 11-P , 12-S ) :   1.5760 B( 11-P , 13-O ) :   1.0785
B( 11-P , 16-O ) :   1.1517 B( 12-S , 29-H ) :   0.1082 B( 13-O , 14-C ) :   0.9041
B( 14-C , 15-C ) :   1.1664 B( 14-C , 31-H ) :   0.9354 B( 14-C , 32-H ) :   0.9118
B( 15-C , 33-H ) :   0.9353 B( 15-C , 34-H ) :   0.9480 B( 15-C , 35-H ) :   0.9405
B( 16-O , 17-C ) :   0.9034 B( 17-C , 18-C ) :   1.1658 B( 17-C , 36-H ) :   0.9340
B( 17-C , 37-H ) :   0.9290 B( 18-C , 38-H ) :   0.9359 B( 18-C , 39-H ) :   0.9410
B( 18-C , 40-H ) :   0.9363

Dispersion correction           -0.066382834
FINAL SINGLE POINT ENERGY     -2929.516140135050

DIPOLE MOMENT
-------------

Method             : SCF
Type of density    : Electron Density
Multiplicity       :   1
Irrep              :   0
Energy             : -2929.6347825310499502 Eh
Relativity type    :
Basis              : AO
                                X                 Y                 Z
Electronic contribution:     -1.217487054      -8.438990009     -11.790227319
Nuclear contribution   :      1.170000540       7.963904619      12.614480584
                        -----------------------------------------
Total Dipole Moment    :     -0.047486514      -0.475085390       0.824253265
                        -----------------------------------------
Magnitude (a.u.)       :      0.952551596
Magnitude (Debye)      :      2.421193740

Rotational constants in cm-1:             0.013354             0.004981             0.004591
Rotational constants in MHz :           400.339266           149.336190           137.629221

                             ****ORCA TERMINATED NORMALLY****
TOTAL RUN TIME: 0 days 0 hours 0 minutes 21 seconds 20 msec
