                         Program Version 6.0.0  -   RELEASE  -
|  1> ! pbe def2-sv(p) def2/J RI DEFGRID1 loosescf d4 GCP(DFT/SV(P)) printgap
|  2> %output
|  3>     printlevel normal
|  4> end
|  5> * xyz 0 1
|  6> C 3.4624421249 -0.287735189 -2.8562588959
|  7> C 4.0722820016 0.571921084 -1.7663254846
|  8> O 3.8538176807 0.0219689918 -0.4568205538
|  9> P 2.410929755 -0.0729434331 0.1811812812
| 10> S 1.2242265279 1.4480450293 -0.2270371742
| 11> O 2.9215324871 -0.2289886421 1.671273442
| 12> C 2.0386158885 -0.5075090741 2.7754495501
| 13> C 1.5375449439 0.7781632914 3.4056373697
| 14> S 1.6979471929 -2.0157262722 -0.3110734186
| 15> C -0.0099910113 -1.6727420918 -0.8048024008
| 16> S -1.0578137916 -1.1283929361 0.5808800974
| 17> P -2.0937028523 0.496741844 -0.3413265447
| 18> S -1.6570746678 0.8413679615 -2.2198766826
| 19> O -1.8869617144 1.7430195975 0.6009280271
| 20> C -2.6163796013 1.994522676 1.8282394177
| 21> C -2.4665739259 0.8779056267 2.8393559255
| 22> O -3.6368918189 0.1744534345 -0.0936856545
| 23> C -4.4282663629 -0.5962435409 -1.012230127
| 24> C -3.9514730416 -2.0297806967 -1.1285007008
| 25> H 3.7727388203 0.0865541799 -3.8266561023
| 26> H 3.7830565708 -1.3206862911 -2.7465298025
| 27> H 2.3745796178 -0.2450440368 -2.7993872458
| 28> H 3.65338871 1.5833050303 -1.7959366125
| 29> H 5.1587179211 0.6191424218 -1.8516362619
| 30> H 1.203818756 -1.1294786868 2.4328697545
| 31> H 2.6520656978 -1.0784784093 3.4748913463
| 32> H 0.9527464619 1.3467213891 2.684492568
| 33> H 0.9203929999 0.5409196079 4.2665384026
| 34> H 2.3779755155 1.3896743196 3.722159689
| 35> H -0.3874852742 -2.6194618557 -1.1832773773
| 36> H -0.0406596835 -0.8968704088 -1.5750758955
| 37> H -2.1772096798 2.9268341287 2.187231572
| 38> H -3.6660458892 2.1516343915 1.5715262999
| 39> H -1.4170445849 0.6995467044 3.0565399885
| 40> H -2.9790042277 1.1592130812 3.754054403
| 41> H -2.9049161224 -0.0409079361 2.4537676724
| 42> H -5.4351507033 -0.5385761944 -0.5961430682
| 43> H -4.3992381471 -0.1039518132 -1.9892490124
| 44> H -3.8612608321 -2.4831348388 -0.1446378553
| 45> H -4.6624378623 -2.5948238403 -1.7226257332
| 46> H -2.982231842 -2.0549837248 -1.624723587
| 47> *
| 48>
| 49>                          ****END OF INPUT****

CARTESIAN COORDINATES (ANGSTROEM)
---------------------------------
  C      3.462442   -0.287735   -2.856259
  C      4.072282    0.571921   -1.766325
  O      3.853818    0.021969   -0.456821
  P      2.410930   -0.072943    0.181181
  S      1.224227    1.448045   -0.227037
  O      2.921532   -0.228989    1.671273
  C      2.038616   -0.507509    2.775450
  C      1.537545    0.778163    3.405637
  S      1.697947   -2.015726   -0.311073
  C     -0.009991   -1.672742   -0.804802
  S     -1.057814   -1.128393    0.580880
  P     -2.093703    0.496742   -0.341327
  S     -1.657075    0.841368   -2.219877
  O     -1.886962    1.743020    0.600928
  C     -2.616380    1.994523    1.828239
  C     -2.466574    0.877906    2.839356
  O     -3.636892    0.174453   -0.093686
  C     -4.428266   -0.596244   -1.012230
  C     -3.951473   -2.029781   -1.128501
  H      3.772739    0.086554   -3.826656
  H      3.783057   -1.320686   -2.746530
  H      2.374580   -0.245044   -2.799387
  H      3.653389    1.583305   -1.795937
  H      5.158718    0.619142   -1.851636
  H      1.203819   -1.129479    2.432870
  H      2.652066   -1.078478    3.474891
  H      0.952746    1.346721    2.684493
  H      0.920393    0.540920    4.266538
  H      2.377976    1.389674    3.722160
  H     -0.387485   -2.619462   -1.183277
  H     -0.040660   -0.896870   -1.575076
  H     -2.177210    2.926834    2.187232
  H     -3.666046    2.151634    1.571526
  H     -1.417045    0.699547    3.056540
  H     -2.979004    1.159213    3.754054
  H     -2.904916   -0.040908    2.453768
  H     -5.435151   -0.538576   -0.596143
  H     -4.399238   -0.103952   -1.989249
  H     -3.861261   -2.483135   -0.144638
  H     -4.662438   -2.594824   -1.722626
  H     -2.982232   -2.054984   -1.624724

 Total Charge           Charge          ....    0
 Multiplicity           Mult            ....    1
 Number of Electrons    NEL             ....  202
 Basis Dimension        Dim             ....  334

ORBITAL ENERGIES
----------------

  NO   OCC          E(Eh)            E(eV)
   0   2.0000     -88.043857     -2395.7951
   1   2.0000     -88.041201     -2395.7229
   2   2.0000     -87.984567     -2394.1818
   3   2.0000     -87.981895     -2394.1091
   4   2.0000     -76.426908     -2079.6819
   5   2.0000     -76.421533     -2079.5356
   6   2.0000     -18.791708      -511.3484
   7   2.0000     -18.790288      -511.3097
   8   2.0000     -18.783861      -511.1348
   9   2.0000     -18.783758      -511.1320
  10   2.0000      -9.957549      -270.9587
  11   2.0000      -9.953812      -270.8570
  12   2.0000      -9.953571      -270.8504
  13   2.0000      -9.950141      -270.7571
  14   2.0000      -9.947082      -270.6739
  15   2.0000      -9.891626      -269.1648
  16   2.0000      -9.886582      -269.0276
  17   2.0000      -9.879631      -268.8384
  18   2.0000      -9.879451      -268.8335
  19   2.0000      -7.688782      -209.2224
  20   2.0000      -7.685469      -209.1323
  21   2.0000      -7.629642      -207.6131
  22   2.0000      -7.626208      -207.5197
  23   2.0000      -6.423809      -174.8007
  24   2.0000      -6.418779      -174.6639
  25   2.0000      -5.716736      -155.5603
  26   2.0000      -5.713400      -155.4695
  27   2.0000      -5.713003      -155.4587
  28   2.0000      -5.710165      -155.3815
  29   2.0000      -5.705998      -155.2681
  30   2.0000      -5.702338      -155.1685
  31   2.0000      -5.658682      -153.9806
  32   2.0000      -5.655152      -153.8845
  33   2.0000      -5.650116      -153.7475
  34   2.0000      -5.649782      -153.7384
  35   2.0000      -5.646733      -153.6554
  36   2.0000      -5.646567      -153.6509
  37   2.0000      -4.646828      -126.4466
  38   2.0000      -4.645241      -126.4034
  39   2.0000      -4.644278      -126.3772
  40   2.0000      -4.641008      -126.2883
  41   2.0000      -4.640921      -126.2859
  42   2.0000      -4.639163      -126.2380
  43   2.0000      -0.987620       -26.8745
  44   2.0000      -0.984014       -26.7764
  45   2.0000      -0.942546       -25.6480
  46   2.0000      -0.939608       -25.5680
  47   2.0000      -0.759404       -20.6644
  48   2.0000      -0.718410       -19.5489
  49   2.0000      -0.709373       -19.3030
  50   2.0000      -0.692563       -18.8456
  51   2.0000      -0.679218       -18.4825
  52   2.0000      -0.677386       -18.4326
  53   2.0000      -0.650370       -17.6975
  54   2.0000      -0.632874       -17.2214
  55   2.0000      -0.600196       -16.3322
  56   2.0000      -0.591231       -16.0882
  57   2.0000      -0.581375       -15.8200
  58   2.0000      -0.566418       -15.4130
  59   2.0000      -0.558507       -15.1977
  60   2.0000      -0.497118       -13.5273
  61   2.0000      -0.493099       -13.4179
  62   2.0000      -0.469824       -12.7846
  63   2.0000      -0.464622       -12.6430
  64   2.0000      -0.452886       -12.3237
  65   2.0000      -0.447679       -12.1820
  66   2.0000      -0.444196       -12.0872
  67   2.0000      -0.433265       -11.7897
  68   2.0000      -0.426039       -11.5931
  69   2.0000      -0.417495       -11.3606
  70   2.0000      -0.410999       -11.1839
  71   2.0000      -0.402853       -10.9622
  72   2.0000      -0.396875       -10.7995
  73   2.0000      -0.388675       -10.5764
  74   2.0000      -0.381870       -10.3912
  75   2.0000      -0.370672       -10.0865
  76   2.0000      -0.365041        -9.9333
  77   2.0000      -0.358942        -9.7673
  78   2.0000      -0.355055        -9.6615
  79   2.0000      -0.349084        -9.4990
  80   2.0000      -0.346405        -9.4262
  81   2.0000      -0.343602        -9.3499
  82   2.0000      -0.341471        -9.2919
  83   2.0000      -0.333944        -9.0871
  84   2.0000      -0.330782        -9.0010
  85   2.0000      -0.313615        -8.5339
  86   2.0000      -0.310115        -8.4387
  87   2.0000      -0.297964        -8.1080
  88   2.0000      -0.295678        -8.0458
  89   2.0000      -0.293314        -7.9815
  90   2.0000      -0.285518        -7.7693
  91   2.0000      -0.275065        -7.4849
  92   2.0000      -0.265727        -7.2308
  93   2.0000      -0.260380        -7.0853
  94   2.0000      -0.254106        -6.9146
  95   2.0000      -0.235662        -6.4127
  96   2.0000      -0.220766        -6.0074
  97   2.0000      -0.213397        -5.8068
  98   2.0000      -0.199745        -5.4353
  99   2.0000      -0.192689        -5.2433
 100   2.0000      -0.183982        -5.0064
 101   0.0000      -0.044228        -1.2035
 102   0.0000      -0.037387        -1.0174
 103   0.0000      -0.012844        -0.3495
 104   0.0000       0.005819         0.1583
 105   0.0000       0.011302         0.3075

MULLIKEN ATOMIC CHARGES
-----------------------
   0 C :   -0.326720
   1 C :    0.001089
   2 O :   -0.356190
   3 P :    0.585499
   4 S :   -0.306144
   5 O :   -0.353444
   6 C :   -0.019298
   7 C :   -0.307319
   8 S :   -0.111717
   9 C :   -0.345467
  10 S :   -0.124773
  11 P :    0.627328
  12 S :   -0.296561
  13 O :   -0.361187
  14 C :    0.016430
  15 C :   -0.360927
  16 O :   -0.387741
  17 C :    0.005491
  18 C :   -0.320441
  19 H :    0.112486
  20 H :    0.117644
  21 H :    0.134925
  22 H :    0.114471
  23 H :    0.105491
  24 H :    0.107696
  25 H :    0.105484
  26 H :    0.143681
  27 H :    0.109007
  28 H :    0.115674
  29 H :    0.181018
  30 H :    0.216321
  31 H :    0.113408
  32 H :    0.109244
  33 H :    0.141925
  34 H :    0.116885
  35 H :    0.128871
  36 H :    0.102283
  37 H :    0.112319
  38 H :    0.119398
  39 H :    0.113113
  40 H :    0.120746
Sum of atomic charges:   -0.0000000

LOEWDIN ATOMIC CHARGES
----------------------
   0 C :   -0.370142
   1 C :   -0.117810
   2 O :   -0.235103
   3 P :    0.560972
   4 S :   -0.295855
   5 O :   -0.235753
   6 C :   -0.118196
   7 C :   -0.366813
   8 S :    0.076650
   9 C :   -0.481802
  10 S :    0.066854
  11 P :    0.581273
  12 S :   -0.290545
  13 O :   -0.232787
  14 C :   -0.105205
  15 C :   -0.375678
  16 O :   -0.252013
  17 C :   -0.117141
  18 C :   -0.371107
  19 H :    0.130806
  20 H :    0.123852
  21 H :    0.122966
  22 H :    0.111968
  23 H :    0.119133
  24 H :    0.097267
  25 H :    0.118207
  26 H :    0.124438
  27 H :    0.125429
  28 H :    0.127674
  29 H :    0.133041
  30 H :    0.122035
  31 H :    0.124530
  32 H :    0.114990
  33 H :    0.128432
  34 H :    0.134056
  35 H :    0.118665
  36 H :    0.117413
  37 H :    0.111774
  38 H :    0.123665
  39 H :    0.130854
  40 H :    0.119008

  Mayer bond orders larger than 0.100000
B(  0-C ,  1-C ) :   1.1623 B(  0-C , 19-H ) :   0.9376 B(  0-C , 20-H ) :   0.9435
B(  0-C , 21-H ) :   0.9337 B(  1-C ,  2-O ) :   0.9135 B(  1-C , 22-H ) :   0.9163
B(  1-C , 23-H ) :   0.9342 B(  2-O ,  3-P ) :   1.1281 B(  3-P ,  4-S ) :   1.6266
B(  3-P ,  5-O ) :   1.1273 B(  3-P ,  8-S ) :   0.9324 B(  4-S ,  8-S ) :   0.1232
B(  5-O ,  6-C ) :   0.9154 B(  6-C ,  7-C ) :   1.1734 B(  6-C , 24-H ) :   0.9032
B(  6-C , 25-H ) :   0.9358 B(  7-C , 26-H ) :   0.9200 B(  7-C , 27-H ) :   0.9324
B(  7-C , 28-H ) :   0.9419 B(  8-S ,  9-C ) :   1.0059 B(  9-C , 10-S ) :   0.9968
B(  9-C , 29-H ) :   0.9017 B(  9-C , 30-H ) :   0.8438 B( 10-S , 11-P ) :   0.9322
B( 10-S , 12-S ) :   0.1187 B( 11-P , 12-S ) :   1.6211 B( 11-P , 13-O ) :   1.1349
B( 11-P , 16-O ) :   1.0576 B( 12-S , 30-H ) :   0.1053 B( 13-O , 14-C ) :   0.9002
B( 14-C , 15-C ) :   1.1710 B( 14-C , 31-H ) :   0.9318 B( 14-C , 32-H ) :   0.9283
B( 15-C , 33-H ) :   0.9295 B( 15-C , 34-H ) :   0.9341 B( 15-C , 35-H ) :   0.9305
B( 16-O , 17-C ) :   0.9139 B( 17-C , 18-C ) :   1.1648 B( 17-C , 36-H ) :   0.9343
B( 17-C , 37-H ) :   0.9166 B( 18-C , 38-H ) :   0.9423 B( 18-C , 39-H ) :   0.9366
B( 18-C , 40-H ) :   0.9347

Dispersion correction           -0.067934648
FINAL SINGLE POINT ENERGY     -2929.515145987698

DIPOLE MOMENT
-------------

Method             : SCF
Type of density    : Electron Density
Multiplicity       :   1
Irrep              :   0
Energy             : -2929.6324167428861074 Eh
Relativity type    :
Basis              : AO
                                X                 Y                 Z
Electronic contribution:      7.023531877       2.028611303      -6.697327893
Nuclear contribution   :     -7.835579739      -2.770515649       7.500746866
                        -----------------------------------------
Total Dipole Moment    :     -0.812047862      -0.741904346       0.803418974
                        -----------------------------------------
Magnitude (a.u.)       :      1.362103460
Magnitude (Debye)      :      3.462191850

Rotational constants in cm-1:             0.011682             0.005714             0.004965
Rotational constants in MHz :           350.222350           171.288202           148.857022

                             ****ORCA TERMINATED NORMALLY****
TOTAL RUN TIME: 0 days 0 hours 0 minutes 21 seconds 353 msec
