                         Program Version 6.0.1  -  RELEASE   -
|  1> ! pbe def2-sv(p) def2/J RI DEFGRID1 loosescf d4 GCP(DFT/SV(P)) printgap
|  2> %output
|  3>     printlevel normal
|  4> end
|  5> * xyz 0 1
|  6> C 1.5338822342 -3.8158540732 -2.0608217421
|  7> C 2.1954557939 -3.6715522152 -0.6991864915
|  8> O 1.8600660981 -2.4089522401 -0.0905478586
|  9> C 2.5452959048 -1.3420628167 -0.4528222562
| 10> O 3.4736763554 -1.3476929675 -1.2281211629
| 11> C 2.0025755499 -0.0870787684 0.2050339525
| 12> C 1.0372930196 0.5976645146 -0.7684116915
| 13> H 1.558505077 0.8221616132 -1.7035124129
| 14> C 0.482608822 1.8855637463 -0.1883193814
| 15> O -0.7093837827 2.0665366003 -0.0310273412
| 16> O 1.4217922092 2.7309403197 0.1184342828
| 17> C 1.0444775312 3.9987083626 0.7028488604
| 18> C 0.6779151163 5.005388603 -0.374350783
| 19> S -0.3698765623 -0.4610611326 -1.2394049484
| 20> P -1.6585605003 -0.24165817 0.4382636112
| 21> S -0.9593286939 0.1612341311 2.2365688974
| 22> O -2.983012867 0.4901057673 -0.0332437405
| 23> C -3.4478028167 1.7562485552 0.4380569828
| 24> O -2.3220539856 -1.7010202631 0.3964421034
| 25> C -1.5766982981 -2.848093057 0.8133628998
| 26> H 0.458675975 -3.6792607705 -1.978683596
| 27> H 1.926429169 -3.0695520701 -2.747310289
| 28> H 1.741026494 -4.8045853497 -2.4561085191
| 29> H 3.2833381803 -3.731963682 -0.7923589728
| 30> H 1.8314480297 -4.4190935948 0.0057734974
| 31> H 2.8267037909 0.5961136739 0.41165824
| 32> H 1.4871484149 -0.3504123242 1.1300444726
| 33> H 0.2084953476 3.8294378785 1.3867350621
| 34> H 1.930907357 4.309192296 1.2551918138
| 35> H 0.4589587017 5.9604743428 0.0912436521
| 36> H 1.5035098958 5.1271172823 -1.0699475892
| 37> H -0.2007990992 4.6711755327 -0.9210828698
| 38> H -3.0086658908 1.9868426477 1.4100598498
| 39> H -4.5287391274 1.6667214253 0.522030964
| 40> H -3.1758432184 2.5279875761 -0.279467234
| 41> H -2.2301557825 -3.6993073144 0.6424448844
| 42> H -1.3262337273 -2.7618578426 1.8722143154
| 43> H -0.6591889066 -2.9420248983 0.2309933991
| 44> *
| 45>
| 46>                          ****END OF INPUT****

CARTESIAN COORDINATES (ANGSTROEM)
---------------------------------
  C      1.533882   -3.815854   -2.060822
  C      2.195456   -3.671552   -0.699186
  O      1.860066   -2.408952   -0.090548
  C      2.545296   -1.342063   -0.452822
  O      3.473676   -1.347693   -1.228121
  C      2.002576   -0.087079    0.205034
  C      1.037293    0.597665   -0.768412
  H      1.558505    0.822162   -1.703512
  C      0.482609    1.885564   -0.188319
  O     -0.709384    2.066537   -0.031027
  O      1.421792    2.730940    0.118434
  C      1.044478    3.998708    0.702849
  C      0.677915    5.005389   -0.374351
  S     -0.369877   -0.461061   -1.239405
  P     -1.658561   -0.241658    0.438264
  S     -0.959329    0.161234    2.236569
  O     -2.983013    0.490106   -0.033244
  C     -3.447803    1.756249    0.438057
  O     -2.322054   -1.701020    0.396442
  C     -1.576698   -2.848093    0.813363
  H      0.458676   -3.679261   -1.978684
  H      1.926429   -3.069552   -2.747310
  H      1.741026   -4.804585   -2.456109
  H      3.283338   -3.731964   -0.792359
  H      1.831448   -4.419094    0.005773
  H      2.826704    0.596114    0.411658
  H      1.487148   -0.350412    1.130044
  H      0.208495    3.829438    1.386735
  H      1.930907    4.309192    1.255192
  H      0.458959    5.960474    0.091244
  H      1.503510    5.127117   -1.069948
  H     -0.200799    4.671176   -0.921083
  H     -3.008666    1.986843    1.410060
  H     -4.528739    1.666721    0.522031
  H     -3.175843    2.527988   -0.279467
  H     -2.230156   -3.699307    0.642445
  H     -1.326234   -2.761858    1.872214
  H     -0.659189   -2.942025    0.230993

 Total Charge           Charge          ....    0
 Multiplicity           Mult            ....    1
 Number of Electrons    NEL             ....  174
 Basis Dimension        Dim             ....  316

ORBITAL ENERGIES
----------------

  NO   OCC          E(Eh)            E(eV)
   0   2.0000     -88.036178     -2395.5862
   1   2.0000     -87.975772     -2393.9425
   2   2.0000     -76.421571     -2079.5367
   3   2.0000     -18.829471      -512.3760
   4   2.0000     -18.804731      -511.7028
   5   2.0000     -18.780855      -511.0531
   6   2.0000     -18.774422      -510.8780
   7   2.0000     -18.764469      -510.6071
   8   2.0000     -18.739239      -509.9206
   9   2.0000     -10.034831      -273.0616
  10   2.0000     -10.010677      -272.4044
  11   2.0000      -9.964340      -271.1435
  12   2.0000      -9.957063      -270.9455
  13   2.0000      -9.949258      -270.7331
  14   2.0000      -9.934140      -270.3217
  15   2.0000      -9.931018      -270.2367
  16   2.0000      -9.907143      -269.5871
  17   2.0000      -9.900217      -269.3986
  18   2.0000      -9.885871      -269.0082
  19   2.0000      -7.681177      -209.0154
  20   2.0000      -7.620837      -207.3735
  21   2.0000      -6.417144      -174.6194
  22   2.0000      -5.709332      -155.3588
  23   2.0000      -5.705746      -155.2612
  24   2.0000      -5.697750      -155.0437
  25   2.0000      -5.649917      -153.7420
  26   2.0000      -5.641820      -153.5217
  27   2.0000      -5.640439      -153.4841
  28   2.0000      -4.639521      -126.2478
  29   2.0000      -4.639354      -126.2432
  30   2.0000      -4.637763      -126.2000
  31   2.0000      -1.039389       -28.2832
  32   2.0000      -1.012185       -27.5430
  33   2.0000      -0.973834       -26.4994
  34   2.0000      -0.943982       -25.6871
  35   2.0000      -0.928015       -25.2526
  36   2.0000      -0.917328       -24.9618
  37   2.0000      -0.770199       -20.9582
  38   2.0000      -0.721001       -19.6194
  39   2.0000      -0.708372       -19.2758
  40   2.0000      -0.688169       -18.7260
  41   2.0000      -0.653287       -17.7769
  42   2.0000      -0.634307       -17.2604
  43   2.0000      -0.623820       -16.9750
  44   2.0000      -0.611704       -16.6453
  45   2.0000      -0.599601       -16.3160
  46   2.0000      -0.570017       -15.5109
  47   2.0000      -0.517484       -14.0814
  48   2.0000      -0.506132       -13.7725
  49   2.0000      -0.498566       -13.5667
  50   2.0000      -0.491388       -13.3714
  51   2.0000      -0.466443       -12.6926
  52   2.0000      -0.458918       -12.4878
  53   2.0000      -0.449720       -12.2375
  54   2.0000      -0.443254       -12.0616
  55   2.0000      -0.432302       -11.7635
  56   2.0000      -0.426492       -11.6055
  57   2.0000      -0.421224       -11.4621
  58   2.0000      -0.415616       -11.3095
  59   2.0000      -0.405853       -11.0438
  60   2.0000      -0.400575       -10.9002
  61   2.0000      -0.393336       -10.7032
  62   2.0000      -0.389963       -10.6114
  63   2.0000      -0.387755       -10.5513
  64   2.0000      -0.383461       -10.4345
  65   2.0000      -0.372367       -10.1326
  66   2.0000      -0.367246        -9.9933
  67   2.0000      -0.358707        -9.7609
  68   2.0000      -0.353658        -9.6235
  69   2.0000      -0.345446        -9.4001
  70   2.0000      -0.336708        -9.1623
  71   2.0000      -0.336075        -9.1451
  72   2.0000      -0.327039        -8.8992
  73   2.0000      -0.314467        -8.5571
  74   2.0000      -0.306559        -8.3419
  75   2.0000      -0.296843        -8.0775
  76   2.0000      -0.294707        -8.0194
  77   2.0000      -0.287863        -7.8331
  78   2.0000      -0.278942        -7.5904
  79   2.0000      -0.264550        -7.1988
  80   2.0000      -0.262636        -7.1467
  81   2.0000      -0.249072        -6.7776
  82   2.0000      -0.245966        -6.6931
  83   2.0000      -0.224283        -6.1031
  84   2.0000      -0.217077        -5.9070
  85   2.0000      -0.195648        -5.3239
  86   2.0000      -0.188508        -5.1296
  87   0.0000      -0.051346        -1.3972
  88   0.0000      -0.039334        -1.0703
  89   0.0000      -0.021070        -0.5733
  90   0.0000       0.002979         0.0811
  91   0.0000       0.030981         0.8430

MULLIKEN ATOMIC CHARGES
-----------------------
   0 C :   -0.311127
   1 C :   -0.009013
   2 O :   -0.222170
   3 C :    0.119013
   4 O :   -0.202782
   5 C :   -0.059645
   6 C :   -0.344875
   7 H :    0.155652
   8 C :    0.241382
   9 O :   -0.193556
  10 O :   -0.215381
  11 C :   -0.010982
  12 C :   -0.311571
  13 S :   -0.083928
  14 P :    0.621542
  15 S :   -0.351724
  16 O :   -0.366361
  17 C :   -0.085974
  18 O :   -0.372678
  19 C :   -0.128556
  20 H :    0.124003
  21 H :    0.125526
  22 H :    0.112221
  23 H :    0.110849
  24 H :    0.103328
  25 H :    0.114176
  26 H :    0.119433
  27 H :    0.122127
  28 H :    0.112553
  29 H :    0.120953
  30 H :    0.120327
  31 H :    0.130200
  32 H :    0.115388
  33 H :    0.119336
  34 H :    0.115312
  35 H :    0.117970
  36 H :    0.113974
  37 H :    0.135060
Sum of atomic charges:    0.0000000

LOEWDIN ATOMIC CHARGES
----------------------
   0 C :   -0.357884
   1 C :   -0.111746
   2 O :   -0.051813
   3 C :    0.024901
   4 O :   -0.167900
   5 C :   -0.252917
   6 C :   -0.259236
   7 H :    0.152546
   8 C :    0.027130
   9 O :   -0.154791
  10 O :   -0.031342
  11 C :   -0.104672
  12 C :   -0.355907
  13 S :    0.109497
  14 P :    0.589921
  15 S :   -0.337449
  16 O :   -0.237438
  17 C :   -0.207387
  18 O :   -0.257989
  19 C :   -0.226218
  20 H :    0.124596
  21 H :    0.130373
  22 H :    0.130140
  23 H :    0.120720
  24 H :    0.117003
  25 H :    0.142696
  26 H :    0.130323
  27 H :    0.126596
  28 H :    0.123449
  29 H :    0.135079
  30 H :    0.128031
  31 H :    0.131083
  32 H :    0.108454
  33 H :    0.117523
  34 H :    0.112172
  35 H :    0.118694
  36 H :    0.109664
  37 H :    0.104098

  Mayer bond orders larger than 0.100000
B(  0-C ,  1-C ) :   1.1767 B(  0-C , 20-H ) :   0.9486 B(  0-C , 21-H ) :   0.9416
B(  0-C , 22-H ) :   0.9425 B(  1-C ,  2-O ) :   0.9026 B(  1-C , 23-H ) :   0.9146
B(  1-C , 24-H ) :   0.9359 B(  2-O ,  3-C ) :   1.2258 B(  3-C ,  4-O ) :   2.0504
B(  3-C ,  5-C ) :   1.0077 B(  5-C ,  6-C ) :   1.0567 B(  5-C , 25-H ) :   0.8787
B(  5-C , 26-H ) :   0.8702 B(  6-C ,  7-H ) :   0.8625 B(  6-C ,  8-C ) :   0.9108
B(  6-C , 13-S ) :   1.0383 B(  8-C ,  9-O ) :   1.9300 B(  8-C , 10-O ) :   1.2863
B(  9-O , 14-P ) :   0.1096 B( 10-O , 11-C ) :   0.8957 B( 11-C , 12-C ) :   1.1745
B( 11-C , 27-H ) :   0.9154 B( 11-C , 28-H ) :   0.9357 B( 12-C , 29-H ) :   0.9430
B( 12-C , 30-H ) :   0.9471 B( 12-C , 31-H ) :   0.9451 B( 13-S , 14-P ) :   0.9285
B( 13-S , 15-S ) :   0.1182 B( 14-P , 15-S ) :   1.5454 B( 14-P , 16-O ) :   1.1415
B( 14-P , 18-O ) :   1.0865 B( 16-O , 17-C ) :   0.9284 B( 17-C , 32-H ) :   0.9347
B( 17-C , 33-H ) :   0.9545 B( 17-C , 34-H ) :   0.9540 B( 18-O , 19-C ) :   0.9421
B( 19-C , 35-H ) :   0.9573 B( 19-C , 36-H ) :   0.9383 B( 19-C , 37-H ) :   0.9227

Dispersion correction           -0.053338227
FINAL SINGLE POINT ENERGY     -1979.014764107382

DIPOLE MOMENT
-------------

Method             : SCF
Type of density    : Electron Density
Multiplicity       :   1
Irrep              :   0
Energy             : -1979.1449193464654854 Eh
Relativity type    :
Basis              : AO
                                X                 Y                 Z
Electronic contribution:     -5.083053084      -1.418999449       3.037747615
Nuclear contribution   :      5.364307077       2.135171316      -3.238522725
                        -----------------------------------------
Total Dipole Moment    :      0.281253993       0.716171867      -0.200775110
                        -----------------------------------------
Magnitude (a.u.)       :      0.795183373
Magnitude (Debye)      :      2.021195507

Rotational constants in cm-1:             0.012202             0.008311             0.005832
Rotational constants in MHz :           365.800082           249.151023           174.848013

                             ****ORCA TERMINATED NORMALLY****
TOTAL RUN TIME: 0 days 0 hours 0 minutes 44 seconds 94 msec
