                         Program Version 6.0.0  -   RELEASE  -
|  1> ! pbe def2-sv(p) def2/J RI DEFGRID1 loosescf d4 GCP(DFT/SV(P)) printgap
|  2> %output
|  3>     printlevel normal
|  4> end
|  5> * xyz 0 1
|  6> C 2.9491445088 0.474702577 -2.9947128841
|  7> C 2.6307411383 -0.9350736906 -2.5384492321
|  8> O 1.7301927237 -0.9444540551 -1.4114589083
|  9> P 2.1481841443 -0.5952573987 0.0744004035
| 10> S 2.7511246223 1.2144933253 0.5569167689
| 11> O 3.2734829383 -1.7013634553 0.3109406406
| 12> C 4.189703342 -1.6464105519 1.4156994807
| 13> C 3.4920497112 -1.863133138 2.743120322
| 14> S 0.4336474042 -1.317749029 1.0574007214
| 15> C -0.1484924153 0.2151401872 1.8718768582
| 16> S -1.9307137472 0.4323223062 1.7416741209
| 17> P -2.1268913944 0.9279529731 -0.3260658276
| 18> S -0.4570512981 1.4401659583 -1.2169961902
| 19> O -3.1502625786 2.1176731474 -0.4264065809
| 20> C -4.5815897749 2.0271278771 -0.2146871795
| 21> C -4.9361568697 1.6413372952 1.2053126373
| 22> O -2.9824146979 -0.2629821371 -0.9494975372
| 23> C -2.6180987476 -1.6534448145 -0.9317163657
| 24> C -1.6344557979 -1.9929325331 -2.0336043709
| 25> H 3.5002260911 0.4384567448 -3.9288426926
| 26> H 2.0261605553 1.033324851 -3.1385221148
| 27> H 3.5465816265 0.9941062573 -2.2478056741
| 28> H 3.5379381125 -1.4814613967 -2.2687387803
| 29> H 2.0813848967 -1.482878459 -3.3063957646
| 30> H 4.9069731834 -2.4397625564 1.2013966226
| 31> H 4.6907320819 -0.6731103283 1.4005915726
| 32> H 2.8963908599 -2.7719753714 2.7138780864
| 33> H 4.2342270764 -1.9407294926 3.5309868557
| 34> H 2.838912164 -1.0177534232 2.9569078686
| 35> H 0.371724774 1.0630914792 1.4186468002
| 36> H 0.0593770111 0.1475277074 2.9368309635
| 37> H -4.9292204472 3.0326552309 -0.4566511563
| 38> H -4.9867887391 1.3107466976 -0.931156638
| 39> H -6.0140577813 1.6891478917 1.3254459913
| 40> H -4.6003018338 0.6287041518 1.4216383286
| 41> H -4.4666113879 2.3208779402 1.9116609906
| 42> H -2.2052098321 -1.9062055813 0.0503163089
| 43> H -3.5667342613 -2.1742481374 -1.0761128676
| 44> H -1.4448485447 -3.0614259571 -2.0265043558
| 45> H -2.0365795708 -1.7013215676 -3.0002822314
| 46> H -0.693400698 -1.468604457 -1.8782186205
| 47> *
| 48>
| 49>                          ****END OF INPUT****

CARTESIAN COORDINATES (ANGSTROEM)
---------------------------------
  C      2.949145    0.474703   -2.994713
  C      2.630741   -0.935074   -2.538449
  O      1.730193   -0.944454   -1.411459
  P      2.148184   -0.595257    0.074400
  S      2.751125    1.214493    0.556917
  O      3.273483   -1.701363    0.310941
  C      4.189703   -1.646411    1.415699
  C      3.492050   -1.863133    2.743120
  S      0.433647   -1.317749    1.057401
  C     -0.148492    0.215140    1.871877
  S     -1.930714    0.432322    1.741674
  P     -2.126891    0.927953   -0.326066
  S     -0.457051    1.440166   -1.216996
  O     -3.150263    2.117673   -0.426407
  C     -4.581590    2.027128   -0.214687
  C     -4.936157    1.641337    1.205313
  O     -2.982415   -0.262982   -0.949498
  C     -2.618099   -1.653445   -0.931716
  C     -1.634456   -1.992933   -2.033604
  H      3.500226    0.438457   -3.928843
  H      2.026161    1.033325   -3.138522
  H      3.546582    0.994106   -2.247806
  H      3.537938   -1.481461   -2.268739
  H      2.081385   -1.482878   -3.306396
  H      4.906973   -2.439763    1.201397
  H      4.690732   -0.673110    1.400592
  H      2.896391   -2.771975    2.713878
  H      4.234227   -1.940729    3.530987
  H      2.838912   -1.017753    2.956908
  H      0.371725    1.063091    1.418647
  H      0.059377    0.147528    2.936831
  H     -4.929220    3.032655   -0.456651
  H     -4.986789    1.310747   -0.931157
  H     -6.014058    1.689148    1.325446
  H     -4.600302    0.628704    1.421638
  H     -4.466611    2.320878    1.911661
  H     -2.205210   -1.906206    0.050316
  H     -3.566734   -2.174248   -1.076113
  H     -1.444849   -3.061426   -2.026504
  H     -2.036580   -1.701322   -3.000282
  H     -0.693401   -1.468604   -1.878219

 Total Charge           Charge          ....    0
 Multiplicity           Mult            ....    1
 Number of Electrons    NEL             ....  202
 Basis Dimension        Dim             ....  334

ORBITAL ENERGIES
----------------

  NO   OCC          E(Eh)            E(eV)
   0   2.0000     -88.044249     -2395.8058
   1   2.0000     -88.041512     -2395.7313
   2   2.0000     -87.985204     -2394.1991
   3   2.0000     -87.975302     -2393.9297
   4   2.0000     -76.425091     -2079.6325
   5   2.0000     -76.421935     -2079.5466
   6   2.0000     -18.789429      -511.2864
   7   2.0000     -18.788760      -511.2682
   8   2.0000     -18.788329      -511.2564
   9   2.0000     -18.786984      -511.2198
  10   2.0000      -9.955932      -270.9147
  11   2.0000      -9.952099      -270.8104
  12   2.0000      -9.950389      -270.7638
  13   2.0000      -9.949820      -270.7484
  14   2.0000      -9.949581      -270.7419
  15   2.0000      -9.891561      -269.1631
  16   2.0000      -9.883408      -268.9412
  17   2.0000      -9.874542      -268.7000
  18   2.0000      -9.872960      -268.6569
  19   2.0000      -7.688904      -209.2257
  20   2.0000      -7.686388      -209.1572
  21   2.0000      -7.630018      -207.6233
  22   2.0000      -7.620116      -207.3539
  23   2.0000      -6.422202      -174.7570
  24   2.0000      -6.419114      -174.6730
  25   2.0000      -5.716925      -155.5654
  26   2.0000      -5.714252      -155.4927
  27   2.0000      -5.713100      -155.4613
  28   2.0000      -5.711016      -155.4046
  29   2.0000      -5.706150      -155.2722
  30   2.0000      -5.703235      -155.1929
  31   2.0000      -5.658946      -153.9877
  32   2.0000      -5.650827      -153.7668
  33   2.0000      -5.649993      -153.7441
  34   2.0000      -5.649277      -153.7246
  35   2.0000      -5.640441      -153.4842
  36   2.0000      -5.640327      -153.4811
  37   2.0000      -4.644792      -126.3912
  38   2.0000      -4.643782      -126.3637
  39   2.0000      -4.642882      -126.3392
  40   2.0000      -4.641986      -126.3149
  41   2.0000      -4.640994      -126.2879
  42   2.0000      -4.639231      -126.2399
  43   2.0000      -0.985063       -26.8049
  44   2.0000      -0.984685       -26.7946
  45   2.0000      -0.940507       -25.5925
  46   2.0000      -0.940180       -25.5836
  47   2.0000      -0.760515       -20.6947
  48   2.0000      -0.719689       -19.5837
  49   2.0000      -0.709114       -19.2960
  50   2.0000      -0.688085       -18.7237
  51   2.0000      -0.684154       -18.6168
  52   2.0000      -0.673126       -18.3167
  53   2.0000      -0.648648       -17.6506
  54   2.0000      -0.632453       -17.2099
  55   2.0000      -0.595526       -16.2051
  56   2.0000      -0.585515       -15.9327
  57   2.0000      -0.575756       -15.6671
  58   2.0000      -0.573935       -15.6176
  59   2.0000      -0.559354       -15.2208
  60   2.0000      -0.497701       -13.5431
  61   2.0000      -0.494152       -13.4466
  62   2.0000      -0.470990       -12.8163
  63   2.0000      -0.465401       -12.6642
  64   2.0000      -0.451804       -12.2942
  65   2.0000      -0.448162       -12.1951
  66   2.0000      -0.439858       -11.9691
  67   2.0000      -0.431681       -11.7466
  68   2.0000      -0.425149       -11.5689
  69   2.0000      -0.415276       -11.3002
  70   2.0000      -0.412406       -11.2221
  71   2.0000      -0.402423       -10.9505
  72   2.0000      -0.394767       -10.7422
  73   2.0000      -0.386611       -10.5202
  74   2.0000      -0.385614       -10.4931
  75   2.0000      -0.368289       -10.0216
  76   2.0000      -0.359632        -9.7861
  77   2.0000      -0.351586        -9.5671
  78   2.0000      -0.351291        -9.5591
  79   2.0000      -0.349672        -9.5151
  80   2.0000      -0.344191        -9.3659
  81   2.0000      -0.340699        -9.2709
  82   2.0000      -0.338646        -9.2150
  83   2.0000      -0.333433        -9.0732
  84   2.0000      -0.326772        -8.8919
  85   2.0000      -0.313760        -8.5378
  86   2.0000      -0.308465        -8.3938
  87   2.0000      -0.295871        -8.0511
  88   2.0000      -0.291936        -7.9440
  89   2.0000      -0.289010        -7.8644
  90   2.0000      -0.283812        -7.7229
  91   2.0000      -0.273914        -7.4536
  92   2.0000      -0.272103        -7.4043
  93   2.0000      -0.261536        -7.1168
  94   2.0000      -0.255514        -6.9529
  95   2.0000      -0.238346        -6.4857
  96   2.0000      -0.217064        -5.9066
  97   2.0000      -0.210492        -5.7278
  98   2.0000      -0.199432        -5.4268
  99   2.0000      -0.189401        -5.1539
 100   2.0000      -0.184311        -5.0154
 101   0.0000      -0.041768        -1.1366
 102   0.0000      -0.034519        -0.9393
 103   0.0000      -0.009696        -0.2638
 104   0.0000       0.007504         0.2042
 105   0.0000       0.015527         0.4225

MULLIKEN ATOMIC CHARGES
-----------------------
   0 C :   -0.316237
   1 C :    0.001537
   2 O :   -0.357238
   3 P :    0.639969
   4 S :   -0.314207
   5 O :   -0.379635
   6 C :   -0.002057
   7 C :   -0.311615
   8 S :   -0.110548
   9 C :   -0.330312
  10 S :   -0.136809
  11 P :    0.610226
  12 S :   -0.299810
  13 O :   -0.356983
  14 C :    0.003184
  15 C :   -0.331809
  16 O :   -0.382983
  17 C :   -0.010172
  18 C :   -0.325880
  19 H :    0.105877
  20 H :    0.134496
  21 H :    0.127613
  22 H :    0.103058
  23 H :    0.105908
  24 H :    0.102135
  25 H :    0.109749
  26 H :    0.117898
  27 H :    0.111818
  28 H :    0.117667
  29 H :    0.215078
  30 H :    0.179541
  31 H :    0.111868
  32 H :    0.111559
  33 H :    0.117632
  34 H :    0.129688
  35 H :    0.129815
  36 H :    0.107357
  37 H :    0.098483
  38 H :    0.101710
  39 H :    0.108726
  40 H :    0.163703
Sum of atomic charges:    0.0000000

LOEWDIN ATOMIC CHARGES
----------------------
   0 C :   -0.367603
   1 C :   -0.109008
   2 O :   -0.230504
   3 P :    0.573771
   4 S :   -0.297622
   5 O :   -0.249369
   6 C :   -0.121583
   7 C :   -0.368700
   8 S :    0.084312
   9 C :   -0.479605
  10 S :    0.073981
  11 P :    0.560551
  12 S :   -0.291750
  13 O :   -0.235080
  14 C :   -0.110078
  15 C :   -0.371105
  16 O :   -0.247067
  17 C :   -0.118480
  18 C :   -0.371310
  19 H :    0.127301
  20 H :    0.131429
  21 H :    0.122175
  22 H :    0.109815
  23 H :    0.119071
  24 H :    0.117036
  25 H :    0.108870
  26 H :    0.124363
  27 H :    0.130048
  28 H :    0.118411
  29 H :    0.126772
  30 H :    0.133501
  31 H :    0.123409
  32 H :    0.115031
  33 H :    0.133685
  34 H :    0.116487
  35 H :    0.129886
  36 H :    0.097073
  37 H :    0.114793
  38 H :    0.126890
  39 H :    0.124049
  40 H :    0.126152

  Mayer bond orders larger than 0.100000
B(  0-C ,  1-C ) :   1.1661 B(  0-C , 19-H ) :   0.9380 B(  0-C , 20-H ) :   0.9418
B(  0-C , 21-H ) :   0.9353 B(  1-C ,  2-O ) :   0.9022 B(  1-C , 22-H ) :   0.9260
B(  1-C , 23-H ) :   0.9349 B(  2-O ,  3-P ) :   1.1274 B(  3-P ,  4-S ) :   1.6030
B(  3-P ,  5-O ) :   1.0836 B(  3-P ,  8-S ) :   0.9586 B(  4-S ,  8-S ) :   0.1199
B(  5-O ,  6-C ) :   0.9162 B(  6-C ,  7-C ) :   1.1649 B(  6-C , 24-H ) :   0.9333
B(  6-C , 25-H ) :   0.9130 B(  7-C , 26-H ) :   0.9440 B(  7-C , 27-H ) :   0.9382
B(  7-C , 28-H ) :   0.9367 B(  8-S ,  9-C ) :   0.9856 B(  9-C , 10-S ) :   1.0146
B(  9-C , 29-H ) :   0.8462 B(  9-C , 30-H ) :   0.9060 B( 10-S , 11-P ) :   0.9227
B( 10-S , 12-S ) :   0.1117 B( 11-P , 12-S ) :   1.6829 B( 11-P , 13-O ) :   1.1398
B( 11-P , 16-O ) :   1.0696 B( 13-O , 14-C ) :   0.9015 B( 14-C , 15-C ) :   1.1697
B( 14-C , 31-H ) :   0.9336 B( 14-C , 32-H ) :   0.9262 B( 15-C , 33-H ) :   0.9355
B( 15-C , 34-H ) :   0.9311 B( 15-C , 35-H ) :   0.9431 B( 16-O , 17-C ) :   0.9137
B( 17-C , 18-C ) :   1.1679 B( 17-C , 36-H ) :   0.9068 B( 17-C , 37-H ) :   0.9349
B( 18-C , 38-H ) :   0.9386 B( 18-C , 39-H ) :   0.9450 B( 18-C , 40-H ) :   0.9183

Dispersion correction           -0.067294794
FINAL SINGLE POINT ENERGY     -2929.516322522396

DIPOLE MOMENT
-------------

Method             : SCF
Type of density    : Electron Density
Multiplicity       :   1
Irrep              :   0
Energy             : -2929.6348910212172996 Eh
Relativity type    :
Basis              : AO
                                X                 Y                 Z
Electronic contribution:     -0.264547866       7.960235013       3.319025656
Nuclear contribution   :     -0.296291528      -9.236087639      -3.055005309
                        -----------------------------------------
Total Dipole Moment    :     -0.560839395      -1.275852626       0.264020346
                        -----------------------------------------
Magnitude (a.u.)       :      1.418466599
Magnitude (Debye)      :      3.605455564

Rotational constants in cm-1:             0.013294             0.005067             0.004652
Rotational constants in MHz :           398.545385           151.915768           139.468219

                             ****ORCA TERMINATED NORMALLY****
TOTAL RUN TIME: 0 days 0 hours 0 minutes 21 seconds 110 msec
