                         Program Version 6.0.0  -   RELEASE  -
|  1> ! pbe def2-sv(p) def2/J RI DEFGRID1 loosescf d4 GCP(DFT/SV(P)) printgap
|  2> %output
|  3>     printlevel normal
|  4> end
|  5> * xyz 0 1
|  6> C 2.3880317849 -2.9485484587 -2.1856779857
|  7> C 1.4791923141 -2.5656797814 -1.0365669905
|  8> O 1.1860077183 -1.1436907401 -1.0695245101
|  9> P 1.9263080898 -0.088084194 -0.1595865515
| 10> S 1.3491892411 1.744807459 -0.5324387938
| 11> O 3.4572140144 -0.3995312178 -0.4515233979
| 12> C 4.5130424172 0.524383912 -0.1344874067
| 13> C 4.663769259 0.7393004788 1.3573029804
| 14> S 1.6545347314 -0.7937822024 1.8298859584
| 15> C -0.0352897713 -0.2063829158 2.0734563418
| 16> S -1.2462905364 -1.0435006441 1.0009991528
| 17> P -2.0966283109 0.6328810857 -0.0025644717
| 18> S -1.8968330437 2.3662856024 0.877191195
| 19> O -3.6038520759 0.1669955057 -0.2312884174
| 20> C -4.6516504462 0.416254098 0.7234318185
| 21> C -4.4425878166 -0.3281128362 2.0260469169
| 22> O -1.5508559936 0.588497638 -1.4819095319
| 23> C -1.8086014676 -0.535771613 -2.3617413638
| 24> C -0.9224914174 -0.3811010427 -3.578926811
| 25> H 3.3457650428 -2.4438410248 -2.0913549071
| 26> H 2.5454049266 -4.0223561164 -2.1671879338
| 27> H 1.9352710415 -2.6690394167 -3.1330161501
| 28> H 1.9330399192 -2.8117452355 -0.0728989098
| 29> H 0.5046199499 -3.0516002288 -1.1156604531
| 30> H 5.4013856483 0.0607451768 -0.5659187098
| 31> H 4.3035929079 1.4719960746 -0.6401483266
| 32> H 3.7985241791 1.2747292279 1.7456079415
| 33> H 4.7472799305 -0.2146071091 1.8720425286
| 34> H 5.5539784476 1.331016053 1.5451784879
| 35> H -0.0908866959 0.8691661101 1.881728511
| 36> H -0.2840252117 -0.4333498161 3.1069650499
| 37> H -4.7023518387 1.4945886007 0.9020928416
| 38> H -5.5526918493 0.0813038967 0.2075353022
| 39> H -4.2702366283 -1.3846396493 1.8372704686
| 40> H -3.5838474765 0.0835571933 2.5540432614
| 41> H -5.3245331842 -0.2104225579 2.6473548731
| 42> H -1.5863456027 -1.456848487 -1.8146217403
| 43> H -2.8677663187 -0.5190270547 -2.6259235375
| 44> H 0.1211383246 -0.3670514239 -3.2754365363
| 45> H -1.0957802226 -1.2122451356 -4.2548060473
| 46> H -1.1465588719 0.5533884347 -4.085538554
| 47> *
| 48>
| 49>                          ****END OF INPUT****

CARTESIAN COORDINATES (ANGSTROEM)
---------------------------------
  C      2.388032   -2.948548   -2.185678
  C      1.479192   -2.565680   -1.036567
  O      1.186008   -1.143691   -1.069525
  P      1.926308   -0.088084   -0.159587
  S      1.349189    1.744807   -0.532439
  O      3.457214   -0.399531   -0.451523
  C      4.513042    0.524384   -0.134487
  C      4.663769    0.739300    1.357303
  S      1.654535   -0.793782    1.829886
  C     -0.035290   -0.206383    2.073456
  S     -1.246291   -1.043501    1.000999
  P     -2.096628    0.632881   -0.002564
  S     -1.896833    2.366286    0.877191
  O     -3.603852    0.166996   -0.231288
  C     -4.651650    0.416254    0.723432
  C     -4.442588   -0.328113    2.026047
  O     -1.550856    0.588498   -1.481910
  C     -1.808601   -0.535772   -2.361741
  C     -0.922491   -0.381101   -3.578927
  H      3.345765   -2.443841   -2.091355
  H      2.545405   -4.022356   -2.167188
  H      1.935271   -2.669039   -3.133016
  H      1.933040   -2.811745   -0.072899
  H      0.504620   -3.051600   -1.115660
  H      5.401386    0.060745   -0.565919
  H      4.303593    1.471996   -0.640148
  H      3.798524    1.274729    1.745608
  H      4.747280   -0.214607    1.872043
  H      5.553978    1.331016    1.545178
  H     -0.090887    0.869166    1.881729
  H     -0.284025   -0.433350    3.106965
  H     -4.702352    1.494589    0.902093
  H     -5.552692    0.081304    0.207535
  H     -4.270237   -1.384640    1.837270
  H     -3.583847    0.083557    2.554043
  H     -5.324533   -0.210423    2.647355
  H     -1.586346   -1.456848   -1.814622
  H     -2.867766   -0.519027   -2.625924
  H      0.121138   -0.367051   -3.275437
  H     -1.095780   -1.212245   -4.254806
  H     -1.146559    0.553388   -4.085539

 Total Charge           Charge          ....    0
 Multiplicity           Mult            ....    1
 Number of Electrons    NEL             ....  202
 Basis Dimension        Dim             ....  334

ORBITAL ENERGIES
----------------

  NO   OCC          E(Eh)            E(eV)
   0   2.0000     -88.042952     -2395.7705
   1   2.0000     -88.038547     -2395.6507
   2   2.0000     -87.980481     -2394.0706
   3   2.0000     -87.980278     -2394.0651
   4   2.0000     -76.424012     -2079.6031
   5   2.0000     -76.419993     -2079.4937
   6   2.0000     -18.794852      -511.4339
   7   2.0000     -18.792137      -511.3600
   8   2.0000     -18.787285      -511.2280
   9   2.0000     -18.781481      -511.0701
  10   2.0000      -9.956626      -270.9336
  11   2.0000      -9.954331      -270.8711
  12   2.0000      -9.952824      -270.8301
  13   2.0000      -9.949204      -270.7316
  14   2.0000      -9.947940      -270.6972
  15   2.0000      -9.888971      -269.0926
  16   2.0000      -9.884860      -268.9807
  17   2.0000      -9.881054      -268.8771
  18   2.0000      -9.877661      -268.7848
  19   2.0000      -7.687984      -209.2007
  20   2.0000      -7.683267      -209.0723
  21   2.0000      -7.625646      -207.5044
  22   2.0000      -7.625211      -207.4925
  23   2.0000      -6.421448      -174.7365
  24   2.0000      -6.417426      -174.6270
  25   2.0000      -5.715826      -155.5355
  26   2.0000      -5.712337      -155.4406
  27   2.0000      -5.711100      -155.4069
  28   2.0000      -5.707797      -155.3170
  29   2.0000      -5.705157      -155.2452
  30   2.0000      -5.700276      -155.1124
  31   2.0000      -5.654685      -153.8718
  32   2.0000      -5.654261      -153.8603
  33   2.0000      -5.646179      -153.6403
  34   2.0000      -5.645736      -153.6283
  35   2.0000      -5.645671      -153.6265
  36   2.0000      -5.645424      -153.6198
  37   2.0000      -4.644381      -126.3800
  38   2.0000      -4.643221      -126.3485
  39   2.0000      -4.641537      -126.3026
  40   2.0000      -4.640215      -126.2667
  41   2.0000      -4.639002      -126.2337
  42   2.0000      -4.637901      -126.2037
  43   2.0000      -0.989334       -26.9211
  44   2.0000      -0.981338       -26.7036
  45   2.0000      -0.946488       -25.7552
  46   2.0000      -0.935919       -25.4677
  47   2.0000      -0.760143       -20.6845
  48   2.0000      -0.717995       -19.5376
  49   2.0000      -0.708629       -19.2828
  50   2.0000      -0.691737       -18.8231
  51   2.0000      -0.684109       -18.6156
  52   2.0000      -0.675387       -18.3782
  53   2.0000      -0.648283       -17.6407
  54   2.0000      -0.631158       -17.1747
  55   2.0000      -0.596233       -16.2243
  56   2.0000      -0.586657       -15.9637
  57   2.0000      -0.576478       -15.6868
  58   2.0000      -0.563856       -15.3433
  59   2.0000      -0.559712       -15.2305
  60   2.0000      -0.503535       -13.7019
  61   2.0000      -0.497751       -13.5445
  62   2.0000      -0.475448       -12.9376
  63   2.0000      -0.468184       -12.7399
  64   2.0000      -0.451906       -12.2970
  65   2.0000      -0.447412       -12.1747
  66   2.0000      -0.442722       -12.0471
  67   2.0000      -0.433113       -11.7856
  68   2.0000      -0.429524       -11.6879
  69   2.0000      -0.420019       -11.4293
  70   2.0000      -0.412506       -11.2249
  71   2.0000      -0.395009       -10.7487
  72   2.0000      -0.385556       -10.4915
  73   2.0000      -0.384582       -10.4650
  74   2.0000      -0.379426       -10.3247
  75   2.0000      -0.365438        -9.9441
  76   2.0000      -0.360938        -9.8216
  77   2.0000      -0.358086        -9.7440
  78   2.0000      -0.354344        -9.6422
  79   2.0000      -0.349343        -9.5061
  80   2.0000      -0.349081        -9.4990
  81   2.0000      -0.344878        -9.3846
  82   2.0000      -0.340871        -9.2756
  83   2.0000      -0.334545        -9.1034
  84   2.0000      -0.329582        -8.9684
  85   2.0000      -0.315952        -8.5975
  86   2.0000      -0.308527        -8.3954
  87   2.0000      -0.299070        -8.1381
  88   2.0000      -0.295123        -8.0307
  89   2.0000      -0.292592        -7.9618
  90   2.0000      -0.290700        -7.9104
  91   2.0000      -0.272578        -7.4172
  92   2.0000      -0.262836        -7.1521
  93   2.0000      -0.261071        -7.1041
  94   2.0000      -0.254982        -6.9384
  95   2.0000      -0.234027        -6.3682
  96   2.0000      -0.218153        -5.9362
  97   2.0000      -0.212881        -5.7928
  98   2.0000      -0.200553        -5.4573
  99   2.0000      -0.190265        -5.1774
 100   2.0000      -0.183449        -4.9919
 101   0.0000      -0.038294        -1.0420
 102   0.0000      -0.030023        -0.8170
 103   0.0000      -0.009517        -0.2590
 104   0.0000       0.011636         0.3166
 105   0.0000       0.020080         0.5464

MULLIKEN ATOMIC CHARGES
-----------------------
   0 C :   -0.288437
   1 C :   -0.014664
   2 O :   -0.352290
   3 P :    0.583855
   4 S :   -0.272929
   5 O :   -0.382676
   6 C :    0.001016
   7 C :   -0.323093
   8 S :   -0.103805
   9 C :   -0.348085
  10 S :   -0.123786
  11 P :    0.612784
  12 S :   -0.288159
  13 O :   -0.391550
  14 C :    0.002532
  15 C :   -0.310669
  16 O :   -0.348398
  17 C :   -0.014721
  18 C :   -0.290872
  19 H :    0.121969
  20 H :    0.109479
  21 H :    0.119253
  22 H :    0.103392
  23 H :    0.109679
  24 H :    0.103628
  25 H :    0.113241
  26 H :    0.133576
  27 H :    0.117067
  28 H :    0.115383
  29 H :    0.205653
  30 H :    0.180498
  31 H :    0.111211
  32 H :    0.101439
  33 H :    0.115520
  34 H :    0.120130
  35 H :    0.110795
  36 H :    0.098624
  37 H :    0.105802
  38 H :    0.139021
  39 H :    0.099838
  40 H :    0.118749
Sum of atomic charges:    0.0000000

LOEWDIN ATOMIC CHARGES
----------------------
   0 C :   -0.358262
   1 C :   -0.118367
   2 O :   -0.231376
   3 P :    0.559667
   4 S :   -0.282779
   5 O :   -0.249359
   6 C :   -0.117025
   7 C :   -0.372252
   8 S :    0.073279
   9 C :   -0.481459
  10 S :    0.062333
  11 P :    0.574322
  12 S :   -0.291713
  13 O :   -0.252626
  14 C :   -0.116624
  15 C :   -0.370900
  16 O :   -0.229438
  17 C :   -0.113269
  18 C :   -0.355217
  19 H :    0.127221
  20 H :    0.129558
  21 H :    0.126863
  22 H :    0.104172
  23 H :    0.114817
  24 H :    0.117740
  25 H :    0.113636
  26 H :    0.123707
  27 H :    0.122588
  28 H :    0.132356
  29 H :    0.125458
  30 H :    0.136104
  31 H :    0.111906
  32 H :    0.116975
  33 H :    0.122115
  34 H :    0.119326
  35 H :    0.129570
  36 H :    0.101370
  37 H :    0.111862
  38 H :    0.129037
  39 H :    0.124951
  40 H :    0.129731

  Mayer bond orders larger than 0.100000
B(  0-C ,  1-C ) :   1.1643 B(  0-C , 19-H ) :   0.9419 B(  0-C , 20-H ) :   0.9401
B(  0-C , 21-H ) :   0.9474 B(  1-C ,  2-O ) :   0.8864 B(  1-C , 22-H ) :   0.9100
B(  1-C , 23-H ) :   0.9283 B(  2-O ,  3-P ) :   1.1150 B(  3-P ,  4-S ) :   1.6763
B(  3-P ,  5-O ) :   1.0755 B(  3-P ,  8-S ) :   0.9417 B(  4-S ,  8-S ) :   0.1077
B(  5-O ,  6-C ) :   0.9057 B(  6-C ,  7-C ) :   1.1666 B(  6-C , 24-H ) :   0.9339
B(  6-C , 25-H ) :   0.9172 B(  7-C , 26-H ) :   0.9337 B(  7-C , 27-H ) :   0.9433
B(  7-C , 28-H ) :   0.9369 B(  8-S ,  9-C ) :   0.9981 B(  9-C , 10-S ) :   0.9972
B(  9-C , 29-H ) :   0.8457 B(  9-C , 30-H ) :   0.9111 B( 10-S , 11-P ) :   0.9433
B( 10-S , 12-S ) :   0.1145 B( 11-P , 12-S ) :   1.6337 B( 11-P , 13-O ) :   1.0699
B( 11-P , 16-O ) :   1.1404 B( 13-O , 14-C ) :   0.9133 B( 14-C , 15-C ) :   1.1670
B( 14-C , 31-H ) :   0.9179 B( 14-C , 32-H ) :   0.9345 B( 15-C , 33-H ) :   0.9427
B( 15-C , 34-H ) :   0.9366 B( 15-C , 35-H ) :   0.9372 B( 16-O , 17-C ) :   0.8961
B( 17-C , 18-C ) :   1.1653 B( 17-C , 36-H ) :   0.9126 B( 17-C , 37-H ) :   0.9280
B( 18-C , 38-H ) :   0.9349 B( 18-C , 39-H ) :   0.9402 B( 18-C , 40-H ) :   0.9475

Dispersion correction           -0.068164820
FINAL SINGLE POINT ENERGY     -2929.517304151273

DIPOLE MOMENT
-------------

Method             : SCF
Type of density    : Electron Density
Multiplicity       :   1
Irrep              :   0
Energy             : -2929.6359955959901527 Eh
Relativity type    :
Basis              : AO
                                X                 Y                 Z
Electronic contribution:     -3.335481508      11.466590173       6.972687709
Nuclear contribution   :      3.605783013     -13.301151239      -7.071284377
                        -----------------------------------------
Total Dipole Moment    :      0.270301505      -1.834561066      -0.098596669
                        -----------------------------------------
Magnitude (a.u.)       :      1.856986406
Magnitude (Debye)      :      4.720084332

Rotational constants in cm-1:             0.012339             0.005590             0.005090
Rotational constants in MHz :           369.906126           167.591487           152.599876

                             ****ORCA TERMINATED NORMALLY****
TOTAL RUN TIME: 0 days 0 hours 0 minutes 21 seconds 867 msec
