                         Program Version 6.0.1  -  RELEASE   -
|  1> ! pbe def2-sv(p) def2/J RI DEFGRID1 loosescf d4 GCP(DFT/SV(P)) printgap
|  2> %output
|  3>     printlevel normal
|  4> end
|  5> * xyz 0 1
|  6> C 4.664474275 -4.2903276169 -1.1707777246
|  7> C 3.5873282818 -3.3895754619 -1.7418977129
|  8> O 3.3171567644 -2.352311363 -0.7778507327
|  9> C 2.3149702649 -1.5335961018 -1.0193730099
| 10> O 1.6041903428 -1.5943748381 -1.9981724215
| 11> C 2.1752437727 -0.4972174904 0.0802888686
| 12> C 0.8067539668 0.1615104433 0.017345531
| 13> H 0.5825092531 0.4338032114 -1.0227024735
| 14> C 0.6772584826 1.4190885724 0.8544903691
| 15> O -0.2986155963 1.6395082302 1.5423485708
| 16> O 1.7061500066 2.2116953615 0.722649925
| 17> C 1.6548815157 3.5084344095 1.3584261833
| 18> C 0.9678592468 4.5151039261 0.4509885004
| 19> S -0.4957294158 -0.9979371767 0.557669508
| 20> P -2.1693064106 0.2618623781 0.2012454688
| 21> S -1.9585319388 1.7287415268 -1.0767764323
| 22> O -3.2462265628 -0.8286511649 -0.2949923566
| 23> C -3.1187869701 -1.4664457994 -1.5670232854
| 24> O -2.8517332376 0.6786881605 1.5607838331
| 25> C -3.115911412 -0.2643013841 2.6177117216
| 26> H 5.5642999804 -3.7154128761 -0.9745084122
| 27> H 4.3233050008 -4.7360005284 -0.2413498905
| 28> H 4.8895744899 -5.0765348582 -1.883558726
| 29> H 2.6569318682 -3.9330240187 -1.9328835915
| 30> H 3.9064700931 -2.9157495938 -2.6752582235
| 31> H 2.9447878096 0.2637047333 -0.0687634247
| 32> H 2.3430421217 -0.9798284932 1.042998769
| 33> H 1.1210404155 3.4107923756 2.3072268452
| 34> H 2.6997021466 3.7676658723 1.5275295128
| 35> H 0.9571801002 5.4869620313 0.9327561242
| 36> H 1.4932087685 4.5881512421 -0.4971015704
| 37> H -0.058011495 4.20643647 0.2554155948
| 38> H -4.0299650859 -2.0439342338 -1.6985312454
| 39> H -2.2445423196 -2.1186325781 -1.5749423112
| 40> H -3.0238003485 -0.7163601853 -2.3540763739
| 41> H -2.1875800682 -0.746645554 2.9238231607
| 42> H -3.8338685919 -1.0092131067 2.27900674
| 43> H -3.5244901528 0.3319461615 3.4292896147
| 44> *
| 45>
| 46>                          ****END OF INPUT****

CARTESIAN COORDINATES (ANGSTROEM)
---------------------------------
  C      4.664474   -4.290328   -1.170778
  C      3.587328   -3.389575   -1.741898
  O      3.317157   -2.352311   -0.777851
  C      2.314970   -1.533596   -1.019373
  O      1.604190   -1.594375   -1.998172
  C      2.175244   -0.497217    0.080289
  C      0.806754    0.161510    0.017346
  H      0.582509    0.433803   -1.022702
  C      0.677258    1.419089    0.854490
  O     -0.298616    1.639508    1.542349
  O      1.706150    2.211695    0.722650
  C      1.654882    3.508434    1.358426
  C      0.967859    4.515104    0.450989
  S     -0.495729   -0.997937    0.557670
  P     -2.169306    0.261862    0.201245
  S     -1.958532    1.728742   -1.076776
  O     -3.246227   -0.828651   -0.294992
  C     -3.118787   -1.466446   -1.567023
  O     -2.851733    0.678688    1.560784
  C     -3.115911   -0.264301    2.617712
  H      5.564300   -3.715413   -0.974508
  H      4.323305   -4.736001   -0.241350
  H      4.889574   -5.076535   -1.883559
  H      2.656932   -3.933024   -1.932884
  H      3.906470   -2.915750   -2.675258
  H      2.944788    0.263705   -0.068763
  H      2.343042   -0.979828    1.042999
  H      1.121040    3.410792    2.307227
  H      2.699702    3.767666    1.527530
  H      0.957180    5.486962    0.932756
  H      1.493209    4.588151   -0.497102
  H     -0.058011    4.206436    0.255416
  H     -4.029965   -2.043934   -1.698531
  H     -2.244542   -2.118633   -1.574942
  H     -3.023800   -0.716360   -2.354076
  H     -2.187580   -0.746646    2.923823
  H     -3.833869   -1.009213    2.279007
  H     -3.524490    0.331946    3.429290

 Total Charge           Charge          ....    0
 Multiplicity           Mult            ....    1
 Number of Electrons    NEL             ....  174
 Basis Dimension        Dim             ....  316

ORBITAL ENERGIES
----------------

  NO   OCC          E(Eh)            E(eV)
   0   2.0000     -88.032770     -2395.4935
   1   2.0000     -87.971559     -2393.8278
   2   2.0000     -76.415548     -2079.3728
   3   2.0000     -18.815698      -512.0012
   4   2.0000     -18.808015      -511.7921
   5   2.0000     -18.779461      -511.0151
   6   2.0000     -18.776470      -510.9337
   7   2.0000     -18.745744      -510.0976
   8   2.0000     -18.742168      -510.0003
   9   2.0000     -10.017703      -272.5956
  10   2.0000     -10.015220      -272.5280
  11   2.0000      -9.954260      -270.8692
  12   2.0000      -9.952768      -270.8286
  13   2.0000      -9.941903      -270.5329
  14   2.0000      -9.940376      -270.4914
  15   2.0000      -9.930226      -270.2152
  16   2.0000      -9.918610      -269.8991
  17   2.0000      -9.894579      -269.2452
  18   2.0000      -9.884047      -268.9586
  19   2.0000      -7.677628      -208.9189
  20   2.0000      -7.616778      -207.2631
  21   2.0000      -6.411913      -174.4770
  22   2.0000      -5.705355      -155.2506
  23   2.0000      -5.702392      -155.1700
  24   2.0000      -5.694548      -154.9565
  25   2.0000      -5.645964      -153.6345
  26   2.0000      -5.637396      -153.4013
  27   2.0000      -5.636601      -153.3797
  28   2.0000      -4.634617      -126.1143
  29   2.0000      -4.633959      -126.0964
  30   2.0000      -4.632255      -126.0501
  31   2.0000      -1.023081       -27.8394
  32   2.0000      -1.017109       -27.6770
  33   2.0000      -0.973247       -26.4834
  34   2.0000      -0.928499       -25.2657
  35   2.0000      -0.924007       -25.1435
  36   2.0000      -0.921620       -25.0786
  37   2.0000      -0.763465       -20.7749
  38   2.0000      -0.718587       -19.5538
  39   2.0000      -0.707490       -19.2518
  40   2.0000      -0.688467       -18.7342
  41   2.0000      -0.657598       -17.8941
  42   2.0000      -0.624985       -17.0067
  43   2.0000      -0.620780       -16.8923
  44   2.0000      -0.610383       -16.6094
  45   2.0000      -0.592223       -16.1152
  46   2.0000      -0.560821       -15.2607
  47   2.0000      -0.515980       -14.0405
  48   2.0000      -0.508038       -13.8244
  49   2.0000      -0.498636       -13.5686
  50   2.0000      -0.477810       -13.0019
  51   2.0000      -0.466735       -12.7005
  52   2.0000      -0.462055       -12.5732
  53   2.0000      -0.449212       -12.2237
  54   2.0000      -0.436256       -11.8711
  55   2.0000      -0.435117       -11.8401
  56   2.0000      -0.421093       -11.4585
  57   2.0000      -0.415003       -11.2928
  58   2.0000      -0.412733       -11.2310
  59   2.0000      -0.411574       -11.1995
  60   2.0000      -0.402015       -10.9394
  61   2.0000      -0.395735       -10.7685
  62   2.0000      -0.388857       -10.5814
  63   2.0000      -0.384341       -10.4584
  64   2.0000      -0.370692       -10.0871
  65   2.0000      -0.364554        -9.9200
  66   2.0000      -0.363735        -9.8977
  67   2.0000      -0.354957        -9.6589
  68   2.0000      -0.351610        -9.5678
  69   2.0000      -0.340312        -9.2604
  70   2.0000      -0.331130        -9.0105
  71   2.0000      -0.329981        -8.9793
  72   2.0000      -0.321846        -8.7579
  73   2.0000      -0.310529        -8.4499
  74   2.0000      -0.306948        -8.3525
  75   2.0000      -0.301373        -8.2008
  76   2.0000      -0.289801        -7.8859
  77   2.0000      -0.285218        -7.7612
  78   2.0000      -0.269204        -7.3254
  79   2.0000      -0.267477        -7.2784
  80   2.0000      -0.259961        -7.0739
  81   2.0000      -0.247903        -6.7458
  82   2.0000      -0.232693        -6.3319
  83   2.0000      -0.229488        -6.2447
  84   2.0000      -0.213050        -5.7974
  85   2.0000      -0.193070        -5.2537
  86   2.0000      -0.186107        -5.0642
  87   0.0000      -0.038881        -1.0580
  88   0.0000      -0.030438        -0.8283
  89   0.0000      -0.020587        -0.5602
  90   0.0000       0.012585         0.3424
  91   0.0000       0.029925         0.8143

MULLIKEN ATOMIC CHARGES
-----------------------
   0 C :   -0.272568
   1 C :   -0.030594
   2 O :   -0.232716
   3 C :    0.133382
   4 O :   -0.198099
   5 C :   -0.126141
   6 C :   -0.301537
   7 H :    0.164844
   8 C :    0.224903
   9 O :   -0.181718
  10 O :   -0.228209
  11 C :   -0.011534
  12 C :   -0.308799
  13 S :   -0.108319
  14 P :    0.625929
  15 S :   -0.328466
  16 O :   -0.395285
  17 C :   -0.100742
  18 O :   -0.352602
  19 C :   -0.102225
  20 H :    0.115873
  21 H :    0.116978
  22 H :    0.113685
  23 H :    0.111905
  24 H :    0.107794
  25 H :    0.140704
  26 H :    0.116752
  27 H :    0.113459
  28 H :    0.103233
  29 H :    0.112726
  30 H :    0.114498
  31 H :    0.144394
  32 H :    0.117762
  33 H :    0.115985
  34 H :    0.116708
  35 H :    0.117909
  36 H :    0.120487
  37 H :    0.129644
Sum of atomic charges:   -0.0000000

LOEWDIN ATOMIC CHARGES
----------------------
   0 C :   -0.350373
   1 C :   -0.105657
   2 O :   -0.063627
   3 C :    0.028504
   4 O :   -0.156598
   5 C :   -0.254716
   6 C :   -0.269335
   7 H :    0.149221
   8 C :    0.014778
   9 O :   -0.158192
  10 O :   -0.043953
  11 C :   -0.106799
  12 C :   -0.356864
  13 S :    0.093324
  14 P :    0.589932
  15 S :   -0.320469
  16 O :   -0.268224
  17 C :   -0.220441
  18 O :   -0.230885
  19 C :   -0.208093
  20 H :    0.127225
  21 H :    0.127661
  22 H :    0.131872
  23 H :    0.119444
  24 H :    0.117703
  25 H :    0.155384
  26 H :    0.139598
  27 H :    0.122814
  28 H :    0.117730
  29 H :    0.131007
  30 H :    0.125769
  31 H :    0.136208
  32 H :    0.118458
  33 H :    0.107628
  34 H :    0.110640
  35 H :    0.109650
  36 H :    0.113952
  37 H :    0.125725

  Mayer bond orders larger than 0.100000
B(  0-C ,  1-C ) :   1.1530 B(  0-C , 20-H ) :   0.9491 B(  0-C , 21-H ) :   0.9505
B(  0-C , 22-H ) :   0.9436 B(  1-C ,  2-O ) :   0.9024 B(  1-C , 23-H ) :   0.9294
B(  1-C , 24-H ) :   0.9340 B(  2-O ,  3-C ) :   1.2402 B(  3-C ,  4-O ) :   2.0469
B(  3-C ,  5-C ) :   1.0024 B(  5-C ,  6-C ) :   1.0883 B(  5-C , 25-H ) :   0.8709
B(  5-C , 26-H ) :   0.9004 B(  6-C ,  7-H ) :   0.8300 B(  6-C ,  8-C ) :   0.8939
B(  6-C , 13-S ) :   1.0228 B(  8-C ,  9-O ) :   2.0131 B(  8-C , 10-O ) :   1.2611
B( 10-O , 11-C ) :   0.8992 B( 11-C , 12-C ) :   1.1799 B( 11-C , 27-H ) :   0.9125
B( 11-C , 28-H ) :   0.9366 B( 12-C , 29-H ) :   0.9421 B( 12-C , 30-H ) :   0.9485
B( 12-C , 31-H ) :   0.9356 B( 13-S , 14-P ) :   0.9437 B( 13-S , 15-S ) :   0.1120
B( 14-P , 15-S ) :   1.6161 B( 14-P , 16-O ) :   1.0538 B( 14-P , 18-O ) :   1.1372
B( 16-O , 17-C ) :   0.9391 B( 17-C , 32-H ) :   0.9587 B( 17-C , 33-H ) :   0.9428
B( 17-C , 34-H ) :   0.9367 B( 18-O , 19-C ) :   0.9226 B( 19-C , 35-H ) :   0.9392
B( 19-C , 36-H ) :   0.9470 B( 19-C , 37-H ) :   0.9603

Dispersion correction           -0.049449215
FINAL SINGLE POINT ENERGY     -1979.017592160539

DIPOLE MOMENT
-------------

Method             : SCF
Type of density    : Electron Density
Multiplicity       :   1
Irrep              :   0
Energy             : -1979.1487603070099794 Eh
Relativity type    :
Basis              : AO
                                X                 Y                 Z
Electronic contribution:    -14.147642287       4.499595786       1.064409713
Nuclear contribution   :     15.691101666      -5.420467026      -0.365287808
                        -----------------------------------------
Total Dipole Moment    :      1.543459379      -0.920871239       0.699121905
                        -----------------------------------------
Magnitude (a.u.)       :      1.928481821
Magnitude (Debye)      :      4.901811235

Rotational constants in cm-1:             0.011541             0.006417             0.004899
Rotational constants in MHz :           345.991881           192.377313           146.874846

                             ****ORCA TERMINATED NORMALLY****
TOTAL RUN TIME: 0 days 0 hours 0 minutes 40 seconds 77 msec
