                         Program Version 6.0.0  -   RELEASE  -
|  1> ! r2scan-3c def2/J RI DEFGRID2 scfconv6 printgap
|  2> %output
|  3>     printlevel normal
|  4> end
|  5> * xyz 0 1
|  6> C 3.6198556803 1.7408501185 -1.1467384808
|  7> C 3.7322313504 0.7894589064 0.0277319076
|  8> O 3.0053359693 -0.4271567251 -0.2359365443
|  9> P 1.7659643149 -0.9666595511 0.6067306102
| 10> S 1.255161197 0.165684599 2.1267250236
| 11> O 2.1241755803 -2.4628007753 1.0076126219
| 12> C 2.7191714192 -2.7969775532 2.2750948294
| 13> C 4.1530613372 -2.3146300595 2.3643715106
| 14> S 0.4282595441 -1.5608203465 -0.9137595347
| 15> C 0.462843961 -0.0688361026 -1.9480930229
| 16> S -0.004106347 1.4361817388 -1.0443675888
| 17> P -1.9752524103 0.8609785146 -0.5962963166
| 18> S -2.9225177113 -0.1484990623 -1.9889510482
| 19> O -2.6490479134 2.2247373977 -0.1349174647
| 20> C -3.0251882041 3.257332324 -1.0722032047
| 21> C -4.4876807273 3.1325453133 -1.4522582994
| 22> O -1.8041011604 0.1276532667 0.7919875213
| 23> C -2.7569154347 -0.82309796 1.316071221
| 24> C -1.9997474133 -1.9199822685 2.03661146
| 25> H 2.5924461674 2.0808490885 -1.2664293338
| 26> H 4.2538766931 2.6016935176 -0.9607814401
| 27> H 3.9459018955 1.2500011937 -2.059612095
| 28> H 3.3384380486 1.2452596568 0.9428129589
| 29> H 4.7684694513 0.4836837261 0.1866995247
| 30> H 2.1139237285 -2.353444412 3.0725282905
| 31> H 2.6528363465 -3.8848254014 2.3188518816
| 32> H 4.723146961 -2.675534524 1.5121808175
| 33> H 4.1748236762 -1.2252776089 2.373242333
| 34> H 4.6015270844 -2.6832149852 3.2815533023
| 35> H -0.2541273794 -0.245522765 -2.7504210903
| 36> H 1.4649730053 0.0903837341 -2.3382500879
| 37> H -2.8277695345 4.1917388555 -0.5437305174
| 38> H -2.382993549 3.1945670366 -1.9552155629
| 39> H -4.6628332317 2.1937411123 -1.9731281624
| 40> H -5.1083793137 3.1601466663 -0.561070141
| 41> H -4.7579765544 3.9559939272 -2.1052727067
| 42> H -3.4119054341 -0.2777847206 1.9989178978
| 43> H -3.3467700766 -1.2243855802 0.4843572123
| 44> H -2.7086338562 -2.5964706844 2.5023729969
| 45> H -1.3799609414 -2.4760867581 1.3356190567
| 46> H -1.359837459 -1.4836384269 2.7998341006
| 47> *
| 48>
| 49>                          ****END OF INPUT****

CARTESIAN COORDINATES (ANGSTROEM)
---------------------------------
  C      3.619856    1.740850   -1.146738
  C      3.732231    0.789459    0.027732
  O      3.005336   -0.427157   -0.235937
  P      1.765964   -0.966660    0.606731
  S      1.255161    0.165685    2.126725
  O      2.124176   -2.462801    1.007613
  C      2.719171   -2.796978    2.275095
  C      4.153061   -2.314630    2.364372
  S      0.428260   -1.560820   -0.913760
  C      0.462844   -0.068836   -1.948093
  S     -0.004106    1.436182   -1.044368
  P     -1.975252    0.860979   -0.596296
  S     -2.922518   -0.148499   -1.988951
  O     -2.649048    2.224737   -0.134917
  C     -3.025188    3.257332   -1.072203
  C     -4.487681    3.132545   -1.452258
  O     -1.804101    0.127653    0.791988
  C     -2.756915   -0.823098    1.316071
  C     -1.999747   -1.919982    2.036611
  H      2.592446    2.080849   -1.266429
  H      4.253877    2.601694   -0.960781
  H      3.945902    1.250001   -2.059612
  H      3.338438    1.245260    0.942813
  H      4.768469    0.483684    0.186700
  H      2.113924   -2.353444    3.072528
  H      2.652836   -3.884825    2.318852
  H      4.723147   -2.675535    1.512181
  H      4.174824   -1.225278    2.373242
  H      4.601527   -2.683215    3.281553
  H     -0.254127   -0.245523   -2.750421
  H      1.464973    0.090384   -2.338250
  H     -2.827770    4.191739   -0.543731
  H     -2.382994    3.194567   -1.955216
  H     -4.662833    2.193741   -1.973128
  H     -5.108379    3.160147   -0.561070
  H     -4.757977    3.955994   -2.105273
  H     -3.411905   -0.277785    1.998918
  H     -3.346770   -1.224386    0.484357
  H     -2.708634   -2.596471    2.502373
  H     -1.379961   -2.476087    1.335619
  H     -1.359837   -1.483638    2.799834

 Total Charge           Charge          ....    0
 Multiplicity           Mult            ....    1
 Number of Electrons    NEL             ....  202
 Basis Dimension        Dim             ....  539

ORBITAL ENERGIES
----------------

  NO   OCC          E(Eh)            E(eV)
   0   2.0000     -88.576507     -2410.2893
   1   2.0000     -88.572551     -2410.1816
   2   2.0000     -88.517310     -2408.6785
   3   2.0000     -88.515319     -2408.6243
   4   2.0000     -76.911876     -2092.8785
   5   2.0000     -76.911501     -2092.8683
   6   2.0000     -18.993258      -516.8328
   7   2.0000     -18.989268      -516.7243
   8   2.0000     -18.988124      -516.6931
   9   2.0000     -18.980858      -516.4954
  10   2.0000     -10.108217      -275.0586
  11   2.0000     -10.099758      -274.8284
  12   2.0000     -10.098796      -274.8022
  13   2.0000     -10.096268      -274.7334
  14   2.0000     -10.088375      -274.5186
  15   2.0000     -10.036280      -273.1011
  16   2.0000     -10.031243      -272.9640
  17   2.0000     -10.023942      -272.7653
  18   2.0000     -10.017334      -272.5855
  19   2.0000      -7.871140      -214.1846
  20   2.0000      -7.866823      -214.0671
  21   2.0000      -7.812246      -212.5820
  22   2.0000      -7.810122      -212.5242
  23   2.0000      -6.590083      -179.3253
  24   2.0000      -6.589862      -179.3193
  25   2.0000      -5.818035      -158.3168
  26   2.0000      -5.814903      -158.2315
  27   2.0000      -5.814069      -158.2089
  28   2.0000      -5.810560      -158.1134
  29   2.0000      -5.808265      -158.0509
  30   2.0000      -5.803667      -157.9258
  31   2.0000      -5.759782      -156.7316
  32   2.0000      -5.757851      -156.6791
  33   2.0000      -5.752574      -156.5355
  34   2.0000      -5.752278      -156.5275
  35   2.0000      -5.750345      -156.4748
  36   2.0000      -5.750092      -156.4680
  37   2.0000      -4.735684      -128.8645
  38   2.0000      -4.735293      -128.8539
  39   2.0000      -4.735029      -128.8467
  40   2.0000      -4.734804      -128.8406
  41   2.0000      -4.733692      -128.8103
  42   2.0000      -4.733669      -128.8097
  43   2.0000      -1.046085       -28.4654
  44   2.0000      -1.043957       -28.4075
  45   2.0000      -1.011058       -27.5123
  46   2.0000      -1.003892       -27.3173
  47   2.0000      -0.802570       -21.8390
  48   2.0000      -0.760142       -20.6845
  49   2.0000      -0.747276       -20.3344
  50   2.0000      -0.734629       -19.9903
  51   2.0000      -0.724686       -19.7197
  52   2.0000      -0.704818       -19.1791
  53   2.0000      -0.683657       -18.6033
  54   2.0000      -0.668886       -18.2013
  55   2.0000      -0.630466       -17.1559
  56   2.0000      -0.618690       -16.8354
  57   2.0000      -0.609011       -16.5720
  58   2.0000      -0.601079       -16.3562
  59   2.0000      -0.586217       -15.9518
  60   2.0000      -0.527227       -14.3466
  61   2.0000      -0.521612       -14.1938
  62   2.0000      -0.497634       -13.5413
  63   2.0000      -0.493345       -13.4246
  64   2.0000      -0.475506       -12.9392
  65   2.0000      -0.458798       -12.4845
  66   2.0000      -0.454946       -12.3797
  67   2.0000      -0.451213       -12.2781
  68   2.0000      -0.440140       -11.9768
  69   2.0000      -0.425703       -11.5840
  70   2.0000      -0.417948       -11.3729
  71   2.0000      -0.415434       -11.3045
  72   2.0000      -0.411597       -11.2001
  73   2.0000      -0.405142       -11.0245
  74   2.0000      -0.394931       -10.7466
  75   2.0000      -0.389555       -10.6003
  76   2.0000      -0.383325       -10.4308
  77   2.0000      -0.377181       -10.2636
  78   2.0000      -0.368704       -10.0330
  79   2.0000      -0.364072        -9.9069
  80   2.0000      -0.359220        -9.7749
  81   2.0000      -0.357872        -9.7382
  82   2.0000      -0.351428        -9.5629
  83   2.0000      -0.346138        -9.4189
  84   2.0000      -0.344894        -9.3850
  85   2.0000      -0.336395        -9.1538
  86   2.0000      -0.321945        -8.7606
  87   2.0000      -0.310446        -8.4477
  88   2.0000      -0.308947        -8.4069
  89   2.0000      -0.299168        -8.1408
  90   2.0000      -0.297225        -8.0879
  91   2.0000      -0.291231        -7.9248
  92   2.0000      -0.282605        -7.6901
  93   2.0000      -0.278787        -7.5862
  94   2.0000      -0.275781        -7.5044
  95   2.0000      -0.249441        -6.7876
  96   2.0000      -0.227874        -6.2008
  97   2.0000      -0.219757        -5.9799
  98   2.0000      -0.214842        -5.8461
  99   2.0000      -0.209221        -5.6932
 100   2.0000      -0.205620        -5.5952
 101   0.0000      -0.051489        -1.4011
 102   0.0000      -0.025089        -0.6827
 103   0.0000      -0.003391        -0.0923
 104   0.0000       0.005201         0.1415
 105   0.0000       0.017729         0.4824

MULLIKEN ATOMIC CHARGES
-----------------------
   0 C :   -0.488522
   1 C :   -0.124388
   2 O :   -0.312273
   3 P :    0.743533
   4 S :   -0.470764
   5 O :   -0.307529
   6 C :   -0.149656
   7 C :   -0.450199
   8 S :   -0.124466
   9 C :   -0.230449
  10 S :   -0.145302
  11 P :    0.711674
  12 S :   -0.493295
  13 O :   -0.305057
  14 C :   -0.128957
  15 C :   -0.452235
  16 O :   -0.249440
  17 C :   -0.123952
  18 C :   -0.473593
  19 H :    0.164026
  20 H :    0.150933
  21 H :    0.160039
  22 H :    0.184322
  23 H :    0.147779
  24 H :    0.173961
  25 H :    0.149508
  26 H :    0.159397
  27 H :    0.163752
  28 H :    0.148547
  29 H :    0.214906
  30 H :    0.192438
  31 H :    0.150858
  32 H :    0.150579
  33 H :    0.181133
  34 H :    0.151990
  35 H :    0.143903
  36 H :    0.146182
  37 H :    0.166366
  38 H :    0.139906
  39 H :    0.163681
  40 H :    0.170665
Sum of atomic charges:    0.0000000

LOEWDIN ATOMIC CHARGES
----------------------
   0 C :   -0.398467
   1 C :    0.013444
   2 O :   -0.676548
   3 P :    0.389946
   4 S :   -0.107116
   5 O :   -0.681979
   6 C :    0.018132
   7 C :   -0.399443
   8 S :    0.198819
   9 C :   -0.412237
  10 S :    0.155225
  11 P :    0.371539
  12 S :   -0.136987
  13 O :   -0.655723
  14 C :    0.021555
  15 C :   -0.400915
  16 O :   -0.666948
  17 C :    0.025901
  18 C :   -0.396877
  19 H :    0.162457
  20 H :    0.162405
  21 H :    0.158365
  22 H :    0.185837
  23 H :    0.174814
  24 H :    0.180052
  25 H :    0.179545
  26 H :    0.160758
  27 H :    0.162251
  28 H :    0.160046
  29 H :    0.192793
  30 H :    0.182569
  31 H :    0.178453
  32 H :    0.174945
  33 H :    0.168907
  34 H :    0.158583
  35 H :    0.157571
  36 H :    0.171794
  37 H :    0.181248
  38 H :    0.155835
  39 H :    0.162763
  40 H :    0.166691

  Mayer bond orders larger than 0.100000
B(  0-C ,  1-C ) :   0.9348 B(  0-C , 19-H ) :   0.9627 B(  0-C , 20-H ) :   0.9600
B(  0-C , 21-H ) :   0.9760 B(  1-C ,  2-O ) :   0.7548 B(  1-C , 22-H ) :   0.9512
B(  1-C , 23-H ) :   0.9568 B(  2-O ,  3-P ) :   1.0954 B(  3-P ,  4-S ) :   1.7340
B(  3-P ,  5-O ) :   1.1404 B(  3-P ,  8-S ) :   1.0837 B(  5-O ,  6-C ) :   0.8078
B(  6-C ,  7-C ) :   0.9160 B(  6-C , 24-H ) :   0.9650 B(  6-C , 25-H ) :   0.9594
B(  7-C , 26-H ) :   0.9713 B(  7-C , 27-H ) :   0.9616 B(  7-C , 28-H ) :   0.9625
B(  8-S ,  9-C ) :   0.9028 B(  9-C , 10-S ) :   0.9090 B(  9-C , 29-H ) :   0.9104
B(  9-C , 30-H ) :   0.9098 B( 10-S , 11-P ) :   1.0783 B( 11-P , 12-S ) :   1.7227
B( 11-P , 13-O ) :   1.0731 B( 11-P , 16-O ) :   1.1940 B( 13-O , 14-C ) :   0.7745
B( 14-C , 15-C ) :   0.9578 B( 14-C , 31-H ) :   0.9641 B( 14-C , 32-H ) :   0.9629
B( 15-C , 33-H ) :   0.9568 B( 15-C , 34-H ) :   0.9746 B( 15-C , 35-H ) :   0.9652
B( 16-O , 17-C ) :   0.7711 B( 17-C , 18-C ) :   0.9653 B( 17-C , 36-H ) :   0.9479
B( 17-C , 37-H ) :   0.9591 B( 18-C , 38-H ) :   0.9627 B( 18-C , 39-H ) :   0.9685
B( 18-C , 40-H ) :   0.9632

Dispersion correction           -0.022037376
FINAL SINGLE POINT ENERGY     -2932.456853470648

DIPOLE MOMENT
-------------

Method             : SCF
Type of density    : Electron Density
Multiplicity       :   1
Irrep              :   0
Energy             : -2932.4815714987043975 Eh
Relativity type    :
Basis              : AO
                                X                 Y                 Z
Electronic contribution:     -5.309285720      -2.781671013      -5.791203856
Nuclear contribution   :      6.264675669       3.206062871       5.970378214
                        -----------------------------------------
Total Dipole Moment    :      0.955389949       0.424391858       0.179174358
                        -----------------------------------------
Magnitude (a.u.)       :      1.060651618
Magnitude (Debye)      :      2.695962161

Rotational constants in cm-1:             0.013329             0.005200             0.004595
Rotational constants in MHz :           399.603216           155.884994           137.740546

                             ****ORCA TERMINATED NORMALLY****
TOTAL RUN TIME: 0 days 0 hours 1 minutes 23 seconds 837 msec
