                         Program Version 6.0.0  -   RELEASE  -
|  1> ! r2scan-3c def2/J RI DEFGRID2 scfconv6 printgap
|  2> %output
|  3>     printlevel normal
|  4> end
|  5> %cpcm
|  6>     smd true
|  7>     smdsolvent "water"
|  8> end
|  9> * xyz 0 1
| 10> C 3.6198556803 1.7408501185 -1.1467384808
| 11> C 3.7322313504 0.7894589064 0.0277319076
| 12> O 3.0053359693 -0.4271567251 -0.2359365443
| 13> P 1.7659643149 -0.9666595511 0.6067306102
| 14> S 1.255161197 0.165684599 2.1267250236
| 15> O 2.1241755803 -2.4628007753 1.0076126219
| 16> C 2.7191714192 -2.7969775532 2.2750948294
| 17> C 4.1530613372 -2.3146300595 2.3643715106
| 18> S 0.4282595441 -1.5608203465 -0.9137595347
| 19> C 0.462843961 -0.0688361026 -1.9480930229
| 20> S -0.004106347 1.4361817388 -1.0443675888
| 21> P -1.9752524103 0.8609785146 -0.5962963166
| 22> S -2.9225177113 -0.1484990623 -1.9889510482
| 23> O -2.6490479134 2.2247373977 -0.1349174647
| 24> C -3.0251882041 3.257332324 -1.0722032047
| 25> C -4.4876807273 3.1325453133 -1.4522582994
| 26> O -1.8041011604 0.1276532667 0.7919875213
| 27> C -2.7569154347 -0.82309796 1.316071221
| 28> C -1.9997474133 -1.9199822685 2.03661146
| 29> H 2.5924461674 2.0808490885 -1.2664293338
| 30> H 4.2538766931 2.6016935176 -0.9607814401
| 31> H 3.9459018955 1.2500011937 -2.059612095
| 32> H 3.3384380486 1.2452596568 0.9428129589
| 33> H 4.7684694513 0.4836837261 0.1866995247
| 34> H 2.1139237285 -2.353444412 3.0725282905
| 35> H 2.6528363465 -3.8848254014 2.3188518816
| 36> H 4.723146961 -2.675534524 1.5121808175
| 37> H 4.1748236762 -1.2252776089 2.373242333
| 38> H 4.6015270844 -2.6832149852 3.2815533023
| 39> H -0.2541273794 -0.245522765 -2.7504210903
| 40> H 1.4649730053 0.0903837341 -2.3382500879
| 41> H -2.8277695345 4.1917388555 -0.5437305174
| 42> H -2.382993549 3.1945670366 -1.9552155629
| 43> H -4.6628332317 2.1937411123 -1.9731281624
| 44> H -5.1083793137 3.1601466663 -0.561070141
| 45> H -4.7579765544 3.9559939272 -2.1052727067
| 46> H -3.4119054341 -0.2777847206 1.9989178978
| 47> H -3.3467700766 -1.2243855802 0.4843572123
| 48> H -2.7086338562 -2.5964706844 2.5023729969
| 49> H -1.3799609414 -2.4760867581 1.3356190567
| 50> H -1.359837459 -1.4836384269 2.7998341006
| 51> *
| 52>
| 53>                          ****END OF INPUT****

CARTESIAN COORDINATES (ANGSTROEM)
---------------------------------
  C      3.619856    1.740850   -1.146738
  C      3.732231    0.789459    0.027732
  O      3.005336   -0.427157   -0.235937
  P      1.765964   -0.966660    0.606731
  S      1.255161    0.165685    2.126725
  O      2.124176   -2.462801    1.007613
  C      2.719171   -2.796978    2.275095
  C      4.153061   -2.314630    2.364372
  S      0.428260   -1.560820   -0.913760
  C      0.462844   -0.068836   -1.948093
  S     -0.004106    1.436182   -1.044368
  P     -1.975252    0.860979   -0.596296
  S     -2.922518   -0.148499   -1.988951
  O     -2.649048    2.224737   -0.134917
  C     -3.025188    3.257332   -1.072203
  C     -4.487681    3.132545   -1.452258
  O     -1.804101    0.127653    0.791988
  C     -2.756915   -0.823098    1.316071
  C     -1.999747   -1.919982    2.036611
  H      2.592446    2.080849   -1.266429
  H      4.253877    2.601694   -0.960781
  H      3.945902    1.250001   -2.059612
  H      3.338438    1.245260    0.942813
  H      4.768469    0.483684    0.186700
  H      2.113924   -2.353444    3.072528
  H      2.652836   -3.884825    2.318852
  H      4.723147   -2.675535    1.512181
  H      4.174824   -1.225278    2.373242
  H      4.601527   -2.683215    3.281553
  H     -0.254127   -0.245523   -2.750421
  H      1.464973    0.090384   -2.338250
  H     -2.827770    4.191739   -0.543731
  H     -2.382994    3.194567   -1.955216
  H     -4.662833    2.193741   -1.973128
  H     -5.108379    3.160147   -0.561070
  H     -4.757977    3.955994   -2.105273
  H     -3.411905   -0.277785    1.998918
  H     -3.346770   -1.224386    0.484357
  H     -2.708634   -2.596471    2.502373
  H     -1.379961   -2.476087    1.335619
  H     -1.359837   -1.483638    2.799834

 Total Charge           Charge          ....    0
 Multiplicity           Mult            ....    1
 Number of Electrons    NEL             ....  202
 Basis Dimension        Dim             ....  539

ORBITAL ENERGIES
----------------

  NO   OCC          E(Eh)            E(eV)
   0   2.0000     -88.580308     -2410.3927
   1   2.0000     -88.577220     -2410.3087
   2   2.0000     -88.526144     -2408.9188
   3   2.0000     -88.521799     -2408.8006
   4   2.0000     -76.918162     -2093.0496
   5   2.0000     -76.916615     -2093.0075
   6   2.0000     -18.994369      -516.8631
   7   2.0000     -18.993556      -516.8409
   8   2.0000     -18.991593      -516.7875
   9   2.0000     -18.987595      -516.6787
  10   2.0000     -10.105932      -274.9964
  11   2.0000     -10.091193      -274.5953
  12   2.0000     -10.087909      -274.5060
  13   2.0000     -10.087469      -274.4940
  14   2.0000     -10.086972      -274.4805
  15   2.0000     -10.020053      -272.6595
  16   2.0000     -10.018466      -272.6163
  17   2.0000     -10.016595      -272.5654
  18   2.0000     -10.015176      -272.5268
  19   2.0000      -7.874871      -214.2861
  20   2.0000      -7.871586      -214.1968
  21   2.0000      -7.821348      -212.8297
  22   2.0000      -7.816885      -212.7083
  23   2.0000      -6.596623      -179.5032
  24   2.0000      -6.594841      -179.4547
  25   2.0000      -5.821771      -158.4184
  26   2.0000      -5.818759      -158.3365
  27   2.0000      -5.818623      -158.3328
  28   2.0000      -5.815268      -158.2415
  29   2.0000      -5.812021      -158.1531
  30   2.0000      -5.808565      -158.0591
  31   2.0000      -5.768823      -156.9777
  32   2.0000      -5.764572      -156.8620
  33   2.0000      -5.761666      -156.7829
  34   2.0000      -5.761401      -156.7757
  35   2.0000      -5.757091      -156.6584
  36   2.0000      -5.756863      -156.6522
  37   2.0000      -4.742045      -129.0376
  38   2.0000      -4.741552      -129.0242
  39   2.0000      -4.740467      -128.9947
  40   2.0000      -4.740352      -128.9915
  41   2.0000      -4.739800      -128.9765
  42   2.0000      -4.738558      -128.9427
  43   2.0000      -1.049662       -28.5627
  44   2.0000      -1.047551       -28.5053
  45   2.0000      -1.011767       -27.5316
  46   2.0000      -1.009182       -27.4612
  47   2.0000      -0.804191       -21.8832
  48   2.0000      -0.757233       -20.6054
  49   2.0000      -0.743359       -20.2278
  50   2.0000      -0.723865       -19.6974
  51   2.0000      -0.721075       -19.6214
  52   2.0000      -0.704894       -19.1812
  53   2.0000      -0.687100       -18.6969
  54   2.0000      -0.675462       -18.3803
  55   2.0000      -0.628436       -17.1006
  56   2.0000      -0.617410       -16.8006
  57   2.0000      -0.600540       -16.3415
  58   2.0000      -0.597639       -16.2626
  59   2.0000      -0.585143       -15.9226
  60   2.0000      -0.526377       -14.3235
  61   2.0000      -0.516554       -14.0561
  62   2.0000      -0.494843       -13.4654
  63   2.0000      -0.493422       -13.4267
  64   2.0000      -0.474155       -12.9024
  65   2.0000      -0.454926       -12.3792
  66   2.0000      -0.452970       -12.3259
  67   2.0000      -0.445519       -12.1232
  68   2.0000      -0.438665       -11.9367
  69   2.0000      -0.424817       -11.5599
  70   2.0000      -0.417973       -11.3736
  71   2.0000      -0.412496       -11.2246
  72   2.0000      -0.409368       -11.1395
  73   2.0000      -0.399172       -10.8620
  74   2.0000      -0.395215       -10.7543
  75   2.0000      -0.388300       -10.5662
  76   2.0000      -0.380403       -10.3513
  77   2.0000      -0.368087       -10.0162
  78   2.0000      -0.363186        -9.8828
  79   2.0000      -0.356624        -9.7042
  80   2.0000      -0.353958        -9.6317
  81   2.0000      -0.350784        -9.5453
  82   2.0000      -0.345037        -9.3889
  83   2.0000      -0.343946        -9.3592
  84   2.0000      -0.343604        -9.3499
  85   2.0000      -0.333320        -9.0701
  86   2.0000      -0.320893        -8.7319
  87   2.0000      -0.307421        -8.3654
  88   2.0000      -0.303629        -8.2622
  89   2.0000      -0.302060        -8.2195
  90   2.0000      -0.298640        -8.1264
  91   2.0000      -0.289365        -7.8740
  92   2.0000      -0.285495        -7.7687
  93   2.0000      -0.280523        -7.6334
  94   2.0000      -0.275749        -7.5035
  95   2.0000      -0.253900        -6.9090
  96   2.0000      -0.233330        -6.3492
  97   2.0000      -0.228600        -6.2205
  98   2.0000      -0.224022        -6.0960
  99   2.0000      -0.215903        -5.8750
 100   2.0000      -0.212531        -5.7833
 101   0.0000      -0.056211        -1.5296
 102   0.0000      -0.030585        -0.8323
 103   0.0000      -0.007567        -0.2059
 104   0.0000       0.001680         0.0457
 105   0.0000       0.014516         0.3950

MULLIKEN ATOMIC CHARGES
-----------------------
   0 C :   -0.492658
   1 C :   -0.131015
   2 O :   -0.327778
   3 P :    0.779478
   4 S :   -0.520017
   5 O :   -0.340205
   6 C :   -0.150009
   7 C :   -0.482039
   8 S :   -0.157542
   9 C :   -0.240837
  10 S :   -0.147777
  11 P :    0.728373
  12 S :   -0.539419
  13 O :   -0.334008
  14 C :   -0.122807
  15 C :   -0.492518
  16 O :   -0.269188
  17 C :   -0.129491
  18 C :   -0.499962
  19 H :    0.155410
  20 H :    0.172839
  21 H :    0.172704
  22 H :    0.179705
  23 H :    0.173915
  24 H :    0.176031
  25 H :    0.174090
  26 H :    0.169786
  27 H :    0.168839
  28 H :    0.171997
  29 H :    0.233409
  30 H :    0.232634
  31 H :    0.176622
  32 H :    0.164090
  33 H :    0.171299
  34 H :    0.167166
  35 H :    0.169663
  36 H :    0.170695
  37 H :    0.168864
  38 H :    0.165230
  39 H :    0.166216
  40 H :    0.168212
Sum of atomic charges:    0.0000000

LOEWDIN ATOMIC CHARGES
----------------------
   0 C :   -0.397215
   1 C :    0.020325
   2 O :   -0.682731
   3 P :    0.394285
   4 S :   -0.137565
   5 O :   -0.698869
   6 C :    0.022102
   7 C :   -0.401703
   8 S :    0.180227
   9 C :   -0.402574
  10 S :    0.157205
  11 P :    0.373181
  12 S :   -0.167047
  13 O :   -0.672447
  14 C :    0.027112
  15 C :   -0.405347
  16 O :   -0.681328
  17 C :    0.028316
  18 C :   -0.399575
  19 H :    0.159736
  20 H :    0.170160
  21 H :    0.164343
  22 H :    0.184702
  23 H :    0.186102
  24 H :    0.180918
  25 H :    0.189533
  26 H :    0.164210
  27 H :    0.162868
  28 H :    0.168590
  29 H :    0.198470
  30 H :    0.197336
  31 H :    0.189567
  32 H :    0.180071
  33 H :    0.162735
  34 H :    0.162443
  35 H :    0.167393
  36 H :    0.181123
  37 H :    0.182143
  38 H :    0.165086
  39 H :    0.161666
  40 H :    0.164454

  Mayer bond orders larger than 0.100000
B(  0-C ,  1-C ) :   0.9416 B(  0-C , 19-H ) :   0.9598 B(  0-C , 20-H ) :   0.9563
B(  0-C , 21-H ) :   0.9699 B(  1-C ,  2-O ) :   0.7452 B(  1-C , 22-H ) :   0.9518
B(  1-C , 23-H ) :   0.9480 B(  2-O ,  3-P ) :   1.1112 B(  3-P ,  4-S ) :   1.6922
B(  3-P ,  5-O ) :   1.1450 B(  3-P ,  8-S ) :   1.0961 B(  5-O ,  6-C ) :   0.7964
B(  6-C ,  7-C ) :   0.9095 B(  6-C , 24-H ) :   0.9612 B(  6-C , 25-H ) :   0.9508
B(  7-C , 26-H ) :   0.9689 B(  7-C , 27-H ) :   0.9591 B(  7-C , 28-H ) :   0.9572
B(  8-S ,  9-C ) :   0.8896 B(  9-C , 10-S ) :   0.9083 B(  9-C , 29-H ) :   0.9056
B(  9-C , 30-H ) :   0.8992 B( 10-S , 11-P ) :   1.0987 B( 11-P , 12-S ) :   1.6872
B( 11-P , 13-O ) :   1.0748 B( 11-P , 16-O ) :   1.1962 B( 13-O , 14-C ) :   0.7617
B( 14-C , 15-C ) :   0.9460 B( 14-C , 31-H ) :   0.9538 B( 14-C , 32-H ) :   0.9553
B( 15-C , 33-H ) :   0.9615 B( 15-C , 34-H ) :   0.9722 B( 15-C , 35-H ) :   0.9597
B( 16-O , 17-C ) :   0.7610 B( 17-C , 18-C ) :   0.9603 B( 17-C , 36-H ) :   0.9389
B( 17-C , 37-H ) :   0.9572 B( 18-C , 38-H ) :   0.9587 B( 18-C , 39-H ) :   0.9675
B( 18-C , 40-H ) :   0.9634

Dispersion correction           -0.022037376
FINAL SINGLE POINT ENERGY     -2932.464953636310

DIPOLE MOMENT
-------------

Method             : SCF
Type of density    : Electron Density
Multiplicity       :   1
Irrep              :   0
Energy             : -2932.4896716643670516 Eh
Relativity type    :
Basis              : AO
                                X                 Y                 Z
Electronic contribution:     -4.864605057      -2.557365626      -5.891338441
Nuclear contribution   :      6.264675669       3.206062871       5.970378214
                        -----------------------------------------
Total Dipole Moment    :      1.400070612       0.648697245       0.079039774
                        -----------------------------------------
Magnitude (a.u.)       :      1.545073824
Magnitude (Debye)      :      3.927265555

Rotational constants in cm-1:             0.013329             0.005200             0.004595
Rotational constants in MHz :           399.603216           155.884994           137.740546

                             ****ORCA TERMINATED NORMALLY****
TOTAL RUN TIME: 0 days 0 hours 1 minutes 48 seconds 724 msec
