                         Program Version 6.0.0  -   RELEASE  -
|  1> ! pbe def2-sv(p) def2/J RI DEFGRID1 loosescf d4 GCP(DFT/SV(P)) printgap
|  2> %output
|  3>     printlevel normal
|  4> end
|  5> * xyz 0 1
|  6> C 4.7407077935 -1.6785614512 -0.2074713198
|  7> C 4.5309888267 -0.2871878844 -0.7730103692
|  8> O 3.5265789015 0.4350819556 -0.0344122063
|  9> P 2.0133027133 0.5378414934 -0.5181819878
| 10> S 1.7944682925 0.9680343392 -2.4115210426
| 11> O 1.4458399598 1.6261817915 0.4675319811
| 12> C 1.5896332589 1.5434472805 1.9072358876
| 13> C 2.7371507973 2.409554859 2.3823826585
| 14> S 1.2022150754 -1.3341365602 0.0908965521
| 15> C -0.0498152099 -1.6107024985 -1.2038281373
| 16> S -1.7011723135 -1.888748939 -0.5313266737
| 17> P -2.0337654553 0.0654582268 0.2364844683
| 18> S -1.4502706723 1.553669881 -0.9006413042
| 19> O -1.3330843403 0.1129019555 1.6493956208
| 20> C -1.2832909373 -0.9570799946 2.6315235815
| 21> C -2.6481203618 -1.5043227352 2.9850117677
| 22> O -3.5781742141 0.0873068881 0.6043780608
| 23> C -4.5948906953 0.4671166552 -0.3376197243
| 24> C -4.7313196894 -0.5299823119 -1.4702858307
| 25> H 3.8469826943 -2.2847934469 -0.3299448295
| 26> H 5.5641176601 -2.149895027 -0.7343215761
| 27> H 4.9802873405 -1.617850502 0.8503066501
| 28> H 4.2367632387 -0.3192853623 -1.8271748995
| 29> H 5.4334255579 0.3186962299 -0.6710335159
| 30> H 0.6311537561 1.8963532196 2.2944521665
| 31> H 1.7378115515 0.4963727054 2.187532491
| 32> H 2.5903287671 3.4339167321 2.0506073042
| 33> H 2.7732366587 2.3842648707 3.4670160271
| 34> H 3.6774159658 2.0419980488 1.9805236427
| 35> H 0.2151059278 -2.5165370421 -1.7429777543
| 36> H -0.051839927 -0.742317304 -1.8687688358
| 37> H -0.6338759516 -1.7457581334 2.2404155093
| 38> H -0.8071325893 -0.4797620628 3.4893077039
| 39> H -2.5393675503 -2.2167863325 3.7969744437
| 40> H -3.3088620813 -0.6999434875 3.2970497803
| 41> H -3.0878452849 -2.0091787252 2.1276300327
| 42> H -5.5018029751 0.5172784546 0.2665780419
| 43> H -4.3516358217 1.4605123244 -0.7278851053
| 44> H -5.596750017 -0.2716659094 -2.0721020716
| 45> H -3.8443673675 -0.4998841152 -2.101495191
| 46> H -4.8507908652 -1.5366138243 -1.078010742
| 47> *
| 48>
| 49>                          ****END OF INPUT****

CARTESIAN COORDINATES (ANGSTROEM)
---------------------------------
  C      4.740708   -1.678561   -0.207471
  C      4.530989   -0.287188   -0.773010
  O      3.526579    0.435082   -0.034412
  P      2.013303    0.537841   -0.518182
  S      1.794468    0.968034   -2.411521
  O      1.445840    1.626182    0.467532
  C      1.589633    1.543447    1.907236
  C      2.737151    2.409555    2.382383
  S      1.202215   -1.334137    0.090897
  C     -0.049815   -1.610702   -1.203828
  S     -1.701172   -1.888749   -0.531327
  P     -2.033765    0.065458    0.236484
  S     -1.450271    1.553670   -0.900641
  O     -1.333084    0.112902    1.649396
  C     -1.283291   -0.957080    2.631524
  C     -2.648120   -1.504323    2.985012
  O     -3.578174    0.087307    0.604378
  C     -4.594891    0.467117   -0.337620
  C     -4.731320   -0.529982   -1.470286
  H      3.846983   -2.284793   -0.329945
  H      5.564118   -2.149895   -0.734322
  H      4.980287   -1.617851    0.850307
  H      4.236763   -0.319285   -1.827175
  H      5.433426    0.318696   -0.671034
  H      0.631154    1.896353    2.294452
  H      1.737812    0.496373    2.187532
  H      2.590329    3.433917    2.050607
  H      2.773237    2.384265    3.467016
  H      3.677416    2.041998    1.980524
  H      0.215106   -2.516537   -1.742978
  H     -0.051840   -0.742317   -1.868769
  H     -0.633876   -1.745758    2.240416
  H     -0.807133   -0.479762    3.489308
  H     -2.539368   -2.216786    3.796974
  H     -3.308862   -0.699943    3.297050
  H     -3.087845   -2.009179    2.127630
  H     -5.501803    0.517278    0.266578
  H     -4.351636    1.460512   -0.727885
  H     -5.596750   -0.271666   -2.072102
  H     -3.844367   -0.499884   -2.101495
  H     -4.850791   -1.536614   -1.078011

 Total Charge           Charge          ....    0
 Multiplicity           Mult            ....    1
 Number of Electrons    NEL             ....  202
 Basis Dimension        Dim             ....  334

ORBITAL ENERGIES
----------------

  NO   OCC          E(Eh)            E(eV)
   0   2.0000     -88.045755     -2395.8468
   1   2.0000     -88.042021     -2395.7452
   2   2.0000     -87.979470     -2394.0431
   3   2.0000     -87.977353     -2393.9855
   4   2.0000     -76.423776     -2079.5967
   5   2.0000     -76.421601     -2079.5375
   6   2.0000     -18.791968      -511.3555
   7   2.0000     -18.791155      -511.3333
   8   2.0000     -18.790496      -511.3154
   9   2.0000     -18.783643      -511.1289
  10   2.0000      -9.956672      -270.9348
  11   2.0000      -9.954439      -270.8740
  12   2.0000      -9.951791      -270.8020
  13   2.0000      -9.950228      -270.7595
  14   2.0000      -9.949910      -270.7508
  15   2.0000      -9.888992      -269.0931
  16   2.0000      -9.884007      -268.9575
  17   2.0000      -9.883453      -268.9424
  18   2.0000      -9.881672      -268.8940
  19   2.0000      -7.690611      -209.2722
  20   2.0000      -7.686503      -209.1604
  21   2.0000      -7.624731      -207.4795
  22   2.0000      -7.622250      -207.4120
  23   2.0000      -6.421025      -174.7250
  24   2.0000      -6.419126      -174.6733
  25   2.0000      -5.718422      -155.6062
  26   2.0000      -5.714958      -155.5119
  27   2.0000      -5.714294      -155.4938
  28   2.0000      -5.710903      -155.4016
  29   2.0000      -5.707844      -155.3183
  30   2.0000      -5.703691      -155.2053
  31   2.0000      -5.653816      -153.8481
  32   2.0000      -5.651313      -153.7800
  33   2.0000      -5.645128      -153.6117
  34   2.0000      -5.644887      -153.6052
  35   2.0000      -5.642723      -153.5463
  36   2.0000      -5.642436      -153.5385
  37   2.0000      -4.643819      -126.3647
  38   2.0000      -4.642908      -126.3400
  39   2.0000      -4.641901      -126.3125
  40   2.0000      -4.641173      -126.2927
  41   2.0000      -4.640860      -126.2842
  42   2.0000      -4.639435      -126.2455
  43   2.0000      -0.986161       -26.8348
  44   2.0000      -0.983807       -26.7708
  45   2.0000      -0.944974       -25.7141
  46   2.0000      -0.939242       -25.5581
  47   2.0000      -0.762151       -20.7392
  48   2.0000      -0.718355       -19.5474
  49   2.0000      -0.710036       -19.3211
  50   2.0000      -0.690845       -18.7989
  51   2.0000      -0.687545       -18.7091
  52   2.0000      -0.677205       -18.4277
  53   2.0000      -0.647481       -17.6189
  54   2.0000      -0.631077       -17.1725
  55   2.0000      -0.597171       -16.2498
  56   2.0000      -0.589214       -16.0333
  57   2.0000      -0.577690       -15.7197
  58   2.0000      -0.569011       -15.4836
  59   2.0000      -0.561600       -15.2819
  60   2.0000      -0.501127       -13.6364
  61   2.0000      -0.491315       -13.3694
  62   2.0000      -0.475811       -12.9475
  63   2.0000      -0.471327       -12.8255
  64   2.0000      -0.449341       -12.2272
  65   2.0000      -0.448440       -12.2027
  66   2.0000      -0.442144       -12.0314
  67   2.0000      -0.437280       -11.8990
  68   2.0000      -0.431602       -11.7445
  69   2.0000      -0.420289       -11.4366
  70   2.0000      -0.410611       -11.1733
  71   2.0000      -0.400094       -10.8871
  72   2.0000      -0.387250       -10.5376
  73   2.0000      -0.384463       -10.4618
  74   2.0000      -0.379367       -10.3231
  75   2.0000      -0.369098       -10.0437
  76   2.0000      -0.364028        -9.9057
  77   2.0000      -0.360039        -9.7972
  78   2.0000      -0.353818        -9.6279
  79   2.0000      -0.353336        -9.6148
  80   2.0000      -0.350273        -9.5314
  81   2.0000      -0.346668        -9.4333
  82   2.0000      -0.341595        -9.2953
  83   2.0000      -0.335163        -9.1203
  84   2.0000      -0.331819        -9.0293
  85   2.0000      -0.316232        -8.6051
  86   2.0000      -0.313130        -8.5207
  87   2.0000      -0.294978        -8.0268
  88   2.0000      -0.290333        -7.9004
  89   2.0000      -0.290071        -7.8932
  90   2.0000      -0.288200        -7.8423
  91   2.0000      -0.274891        -7.4802
  92   2.0000      -0.268353        -7.3023
  93   2.0000      -0.260900        -7.0995
  94   2.0000      -0.257191        -6.9985
  95   2.0000      -0.237143        -6.4530
  96   2.0000      -0.220271        -5.9939
  97   2.0000      -0.210859        -5.7378
  98   2.0000      -0.198004        -5.3880
  99   2.0000      -0.189430        -5.1547
 100   2.0000      -0.182903        -4.9770
 101   0.0000      -0.041211        -1.1214
 102   0.0000      -0.030967        -0.8427
 103   0.0000      -0.009616        -0.2617
 104   0.0000       0.008453         0.2300
 105   0.0000       0.018340         0.4991

MULLIKEN ATOMIC CHARGES
-----------------------
   0 C :   -0.300151
   1 C :   -0.003468
   2 O :   -0.383929
   3 P :    0.608903
   4 S :   -0.287304
   5 O :   -0.339496
   6 C :   -0.022773
   7 C :   -0.281351
   8 S :   -0.132760
   9 C :   -0.338414
  10 S :   -0.114940
  11 P :    0.584146
  12 S :   -0.279416
  13 O :   -0.358259
  14 C :   -0.009125
  15 C :   -0.298832
  16 O :   -0.374598
  17 C :   -0.000436
  18 C :   -0.319889
  19 H :    0.123404
  20 H :    0.109909
  21 H :    0.109520
  22 H :    0.102774
  23 H :    0.106389
  24 H :    0.120408
  25 H :    0.097685
  26 H :    0.121965
  27 H :    0.104311
  28 H :    0.118071
  29 H :    0.179816
  30 H :    0.209513
  31 H :    0.113784
  32 H :    0.103466
  33 H :    0.112281
  34 H :    0.121873
  35 H :    0.119066
  36 H :    0.103311
  37 H :    0.114027
  38 H :    0.114395
  39 H :    0.131659
  40 H :    0.114468
Sum of atomic charges:   -0.0000000

LOEWDIN ATOMIC CHARGES
----------------------
   0 C :   -0.365999
   1 C :   -0.119229
   2 O :   -0.249532
   3 P :    0.570438
   4 S :   -0.291780
   5 O :   -0.223208
   6 C :   -0.113721
   7 C :   -0.358951
   8 S :    0.064803
   9 C :   -0.479454
  10 S :    0.073225
  11 P :    0.562450
  12 S :   -0.288114
  13 O :   -0.235525
  14 C :   -0.117480
  15 C :   -0.366095
  16 O :   -0.242862
  17 C :   -0.118333
  18 C :   -0.371403
  19 H :    0.117764
  20 H :    0.129853
  21 H :    0.123421
  22 H :    0.106990
  23 H :    0.118896
  24 H :    0.122288
  25 H :    0.100434
  26 H :    0.130137
  27 H :    0.127073
  28 H :    0.124807
  29 H :    0.136679
  30 H :    0.126400
  31 H :    0.102115
  32 H :    0.118166
  33 H :    0.131143
  34 H :    0.128616
  35 H :    0.118087
  36 H :    0.117887
  37 H :    0.113105
  38 H :    0.131848
  39 H :    0.123094
  40 H :    0.121967

  Mayer bond orders larger than 0.100000
B(  0-C ,  1-C ) :   1.1663 B(  0-C , 19-H ) :   0.9337 B(  0-C , 20-H ) :   0.9400
B(  0-C , 21-H ) :   0.9488 B(  1-C ,  2-O ) :   0.9051 B(  1-C , 22-H ) :   0.9030
B(  1-C , 23-H ) :   0.9356 B(  2-O ,  3-P ) :   1.0715 B(  3-P ,  4-S ) :   1.6503
B(  3-P ,  5-O ) :   1.1474 B(  3-P ,  8-S ) :   0.9375 B(  4-S ,  8-S ) :   0.1127
B(  5-O ,  6-C ) :   0.8952 B(  6-C ,  7-C ) :   1.1583 B(  6-C , 24-H ) :   0.9280
B(  6-C , 25-H ) :   0.9154 B(  7-C , 26-H ) :   0.9466 B(  7-C , 27-H ) :   0.9403
B(  7-C , 28-H ) :   0.9412 B(  8-S ,  9-C ) :   0.9942 B(  9-C , 10-S ) :   1.0028
B(  9-C , 29-H ) :   0.9105 B(  9-C , 30-H ) :   0.8443 B( 10-S , 11-P ) :   0.9299
B( 10-S , 12-S ) :   0.1070 B( 11-P , 12-S ) :   1.6607 B( 11-P , 13-O ) :   1.1269
B( 11-P , 16-O ) :   1.0883 B( 13-O , 14-C ) :   0.8970 B( 14-C , 15-C ) :   1.1737
B( 14-C , 31-H ) :   0.9094 B( 14-C , 32-H ) :   0.9325 B( 15-C , 33-H ) :   0.9352
B( 15-C , 34-H ) :   0.9426 B( 15-C , 35-H ) :   0.9376 B( 16-O , 17-C ) :   0.9055
B( 17-C , 18-C ) :   1.1661 B( 17-C , 36-H ) :   0.9338 B( 17-C , 37-H ) :   0.9143
B( 18-C , 38-H ) :   0.9376 B( 18-C , 39-H ) :   0.9337 B( 18-C , 40-H ) :   0.9449

Dispersion correction           -0.067923125
FINAL SINGLE POINT ENERGY     -2929.515291367279

DIPOLE MOMENT
-------------

Method             : SCF
Type of density    : Electron Density
Multiplicity       :   1
Irrep              :   0
Energy             : -2929.6340643949306468 Eh
Relativity type    :
Basis              : AO
                                X                 Y                 Z
Electronic contribution:     -1.148315565       5.358585626     -12.878050000
Nuclear contribution   :      1.067252714      -6.621729323      14.373886913
                        -----------------------------------------
Total Dipole Moment    :     -0.081062851      -1.263143697       1.495836913
                        -----------------------------------------
Magnitude (a.u.)       :      1.959497705
Magnitude (Debye)      :      4.980647347

Rotational constants in cm-1:             0.012814             0.005258             0.005032
Rotational constants in MHz :           384.145590           157.622732           150.856333

                             ****ORCA TERMINATED NORMALLY****
TOTAL RUN TIME: 0 days 0 hours 0 minutes 22 seconds 219 msec
