                         Program Version 6.0.0  -   RELEASE  -
|  1> ! r2scan-3c def2/J RI DEFGRID2 scfconv6 printgap
|  2> %output
|  3>     printlevel normal
|  4> end
|  5> * xyz 0 1
|  6> C -0.1964348117 1.2659776345 -4.71014e-05
|  7> C 1.2486248298 1.1995631666 0.0001167821
|  8> O 2.0004381032 2.1590055731 2.93539e-05
|  9> N 1.7633566206 -0.0900288716 -8.44388e-05
| 10> C 1.0548675803 -1.2591082955 5.21201e-05
| 11> O 1.5746915213 -2.3553280665 5.10446e-05
| 12> N -0.3153543599 -1.1009914784 -4.20696e-05
| 13> C -0.9093426654 0.1216669639 -0.0001807326
| 14> Cl -2.6266089006 0.1059739263 4.14444e-05
| 15> H -0.6564671368 2.2370506476 3.20977e-05
| 16> H 2.7759572043 -0.1756074835 -0.0003292699
| 17> H -0.8754891294 -1.9475747093 2.34705e-05
| 18> *
| 19>
| 20>                          ****END OF INPUT****

CARTESIAN COORDINATES (ANGSTROEM)
---------------------------------
  C     -0.196435    1.265978   -0.000047
  C      1.248625    1.199563    0.000117
  O      2.000438    2.159006    0.000029
  N      1.763357   -0.090029   -0.000084
  C      1.054868   -1.259108    0.000052
  O      1.574692   -2.355328    0.000051
  N     -0.315354   -1.100991   -0.000042
  C     -0.909343    0.121667   -0.000181
  Cl    -2.626609    0.105974    0.000041
  H     -0.656467    2.237051    0.000032
  H      2.775957   -0.175607   -0.000329
  H     -0.875489   -1.947575    0.000023

 Total Charge           Charge          ....    0
 Multiplicity           Mult            ....    1
 Number of Electrons    NEL             ....   74
 Basis Dimension        Dim             ....  214

ORBITAL ENERGIES
----------------

  NO   OCC          E(Eh)            E(eV)
   0   2.0000    -101.270735     -2755.7168
   1   2.0000     -18.947127      -515.5775
   2   2.0000     -18.937405      -515.3130
   3   2.0000     -14.256552      -387.9405
   4   2.0000     -14.232454      -387.2848
   5   2.0000     -10.199244      -277.5356
   6   2.0000     -10.185860      -277.1713
   7   2.0000     -10.162316      -276.5307
   8   2.0000     -10.068934      -273.9896
   9   2.0000      -9.426465      -256.5071
  10   2.0000      -7.172987      -195.1869
  11   2.0000      -7.162626      -194.9050
  12   2.0000      -7.162109      -194.8909
  13   2.0000      -1.066851       -29.0305
  14   2.0000      -1.023076       -27.8393
  15   2.0000      -0.981666       -26.7125
  16   2.0000      -0.921267       -25.0690
  17   2.0000      -0.869086       -23.6490
  18   2.0000      -0.774610       -21.0782
  19   2.0000      -0.669543       -18.2192
  20   2.0000      -0.650316       -17.6960
  21   2.0000      -0.590044       -16.0559
  22   2.0000      -0.556737       -15.1496
  23   2.0000      -0.505738       -13.7618
  24   2.0000      -0.478260       -13.0141
  25   2.0000      -0.464308       -12.6345
  26   2.0000      -0.435299       -11.8451
  27   2.0000      -0.411315       -11.1925
  28   2.0000      -0.403372       -10.9763
  29   2.0000      -0.401774       -10.9328
  30   2.0000      -0.390639       -10.6298
  31   2.0000      -0.340775        -9.2730
  32   2.0000      -0.322703        -8.7812
  33   2.0000      -0.279010        -7.5922
  34   2.0000      -0.277079        -7.5397
  35   2.0000      -0.246636        -6.7113
  36   2.0000      -0.244296        -6.6476
  37   0.0000      -0.086864        -2.3637
  38   0.0000      -0.035492        -0.9658
  39   0.0000      -0.034406        -0.9362
  40   0.0000       0.038841         1.0569
  41   0.0000       0.068848         1.8734

MULLIKEN ATOMIC CHARGES
-----------------------
   0 C :   -0.312158
   1 C :    0.205454
   2 O :   -0.385665
   3 N :   -0.107116
   4 C :    0.231853
   5 O :   -0.414992
   6 N :   -0.037479
   7 C :    0.128409
   8 Cl:   -0.064292
   9 H :    0.187674
  10 H :    0.279259
  11 H :    0.289052
Sum of atomic charges:    0.0000000

LOEWDIN ATOMIC CHARGES
----------------------
   0 C :   -0.139176
   1 C :    0.351453
   2 O :   -0.422054
   3 N :   -0.442091
   4 C :    0.445780
   5 O :   -0.379252
   6 N :   -0.526935
   7 C :    0.074520
   8 Cl:    0.233780
   9 H :    0.198787
  10 H :    0.303726
  11 H :    0.301462

  Mayer bond orders larger than 0.100000
B(  0-C ,  1-C ) :   1.0701 B(  0-C ,  7-C ) :   1.5684 B(  0-C ,  8-Cl) :   0.1109
B(  0-C ,  9-H ) :   0.9134 B(  1-C ,  2-O ) :   1.9715 B(  1-C ,  3-N ) :   1.0577
B(  3-N ,  4-C ) :   1.1057 B(  3-N , 10-H ) :   0.9000 B(  4-C ,  5-O ) :   1.9807
B(  4-C ,  6-N ) :   1.0562 B(  6-N ,  7-C ) :   1.1001 B(  6-N , 11-H ) :   0.8969
B(  7-C ,  8-Cl) :   1.0823

Dispersion correction           -0.004364532
FINAL SINGLE POINT ENERGY      -874.329793680324

DIPOLE MOMENT
-------------

Method             : SCF
Type of density    : Electron Density
Multiplicity       :   1
Irrep              :   0
Energy             :  -874.3389346590383866 Eh
Relativity type    :
Basis              : AO
                                X                 Y                 Z
Electronic contribution:     -5.994699385      -0.345002742       0.000256976
Nuclear contribution   :      4.753401848      -0.044873233      -0.000311914
                        -----------------------------------------
Total Dipole Moment    :     -1.241297537      -0.389875975      -0.000054938
                        -----------------------------------------
Magnitude (a.u.)       :      1.301085260
Magnitude (Debye)      :      3.307095913

Rotational constants in cm-1:             0.068674             0.037908             0.024425
Rotational constants in MHz :          2058.788769          1136.458758           732.252670

                             ****ORCA TERMINATED NORMALLY****
TOTAL RUN TIME: 0 days 0 hours 0 minutes 27 seconds 134 msec
