                         Program Version 6.0.0  -   RELEASE  -
|  1> ! r2scan-3c def2/J RI DEFGRID2 scfconv6 printgap
|  2> %output
|  3>     printlevel normal
|  4> end
|  5> %cpcm
|  6>     smd true
|  7>     smdsolvent "water"
|  8> end
|  9> * xyz 0 1
| 10> C -0.1964348117 1.2659776345 -4.71014e-05
| 11> C 1.2486248298 1.1995631666 0.0001167821
| 12> O 2.0004381032 2.1590055731 2.93539e-05
| 13> N 1.7633566206 -0.0900288716 -8.44388e-05
| 14> C 1.0548675803 -1.2591082955 5.21201e-05
| 15> O 1.5746915213 -2.3553280665 5.10446e-05
| 16> N -0.3153543599 -1.1009914784 -4.20696e-05
| 17> C -0.9093426654 0.1216669639 -0.0001807326
| 18> Cl -2.6266089006 0.1059739263 4.14444e-05
| 19> H -0.6564671368 2.2370506476 3.20977e-05
| 20> H 2.7759572043 -0.1756074835 -0.0003292699
| 21> H -0.8754891294 -1.9475747093 2.34705e-05
| 22> *
| 23>
| 24>                          ****END OF INPUT****

CARTESIAN COORDINATES (ANGSTROEM)
---------------------------------
  C     -0.196435    1.265978   -0.000047
  C      1.248625    1.199563    0.000117
  O      2.000438    2.159006    0.000029
  N      1.763357   -0.090029   -0.000084
  C      1.054868   -1.259108    0.000052
  O      1.574692   -2.355328    0.000051
  N     -0.315354   -1.100991   -0.000042
  C     -0.909343    0.121667   -0.000181
  Cl    -2.626609    0.105974    0.000041
  H     -0.656467    2.237051    0.000032
  H      2.775957   -0.175607   -0.000329
  H     -0.875489   -1.947575    0.000023

 Total Charge           Charge          ....    0
 Multiplicity           Mult            ....    1
 Number of Electrons    NEL             ....   74
 Basis Dimension        Dim             ....  214

ORBITAL ENERGIES
----------------

  NO   OCC          E(Eh)            E(eV)
   0   2.0000    -101.255791     -2755.3102
   1   2.0000     -18.948658      -515.6192
   2   2.0000     -18.943366      -515.4752
   3   2.0000     -14.241297      -387.5254
   4   2.0000     -14.224769      -387.0757
   5   2.0000     -10.196532      -277.4618
   6   2.0000     -10.174079      -276.8508
   7   2.0000     -10.163342      -276.5586
   8   2.0000     -10.056466      -273.6504
   9   2.0000      -9.411438      -256.0982
  10   2.0000      -7.158025      -194.7798
  11   2.0000      -7.147665      -194.4979
  12   2.0000      -7.146967      -194.4789
  13   2.0000      -1.063326       -28.9346
  14   2.0000      -1.028721       -27.9929
  15   2.0000      -0.972065       -26.4512
  16   2.0000      -0.914374       -24.8814
  17   2.0000      -0.854557       -23.2537
  18   2.0000      -0.762925       -20.7602
  19   2.0000      -0.657670       -17.8961
  20   2.0000      -0.642001       -17.4697
  21   2.0000      -0.573655       -15.6099
  22   2.0000      -0.547722       -14.9043
  23   2.0000      -0.490777       -13.3547
  24   2.0000      -0.468565       -12.7503
  25   2.0000      -0.458355       -12.4725
  26   2.0000      -0.436944       -11.8898
  27   2.0000      -0.412046       -11.2123
  28   2.0000      -0.403748       -10.9865
  29   2.0000      -0.396051       -10.7771
  30   2.0000      -0.387405       -10.5418
  31   2.0000      -0.325246        -8.8504
  32   2.0000      -0.309806        -8.4302
  33   2.0000      -0.284409        -7.7392
  34   2.0000      -0.278702        -7.5839
  35   2.0000      -0.253502        -6.8981
  36   2.0000      -0.238520        -6.4905
  37   0.0000      -0.078062        -2.1242
  38   0.0000      -0.032380        -0.8811
  39   0.0000      -0.018447        -0.5020
  40   0.0000       0.059675         1.6238
  41   0.0000       0.076148         2.0721

MULLIKEN ATOMIC CHARGES
-----------------------
   0 C :   -0.329927
   1 C :    0.230491
   2 O :   -0.486568
   3 N :   -0.111178
   4 C :    0.260361
   5 O :   -0.495345
   6 N :   -0.032401
   7 C :    0.139592
   8 Cl:   -0.060923
   9 H :    0.219918
  10 H :    0.324630
  11 H :    0.341351
Sum of atomic charges:   -0.0000000

LOEWDIN ATOMIC CHARGES
----------------------
   0 C :   -0.138821
   1 C :    0.356931
   2 O :   -0.499503
   3 N :   -0.418579
   4 C :    0.455344
   5 O :   -0.438079
   6 N :   -0.491883
   7 C :    0.088742
   8 Cl:    0.242205
   9 H :    0.208677
  10 H :    0.316731
  11 H :    0.318235

  Mayer bond orders larger than 0.100000
B(  0-C ,  1-C ) :   1.0967 B(  0-C ,  7-C ) :   1.5689 B(  0-C ,  8-Cl) :   0.1175
B(  0-C ,  9-H ) :   0.8955 B(  1-C ,  2-O ) :   1.8963 B(  1-C ,  3-N ) :   1.0793
B(  3-N ,  4-C ) :   1.1160 B(  3-N , 10-H ) :   0.8801 B(  4-C ,  5-O ) :   1.9184
B(  4-C ,  6-N ) :   1.0806 B(  6-N ,  7-C ) :   1.1047 B(  6-N , 11-H ) :   0.8724
B(  7-C ,  8-Cl) :   1.0760

Dispersion correction           -0.004364532
FINAL SINGLE POINT ENERGY      -874.348610137117

DIPOLE MOMENT
-------------

Method             : SCF
Type of density    : Electron Density
Multiplicity       :   1
Irrep              :   0
Energy             :  -874.3577511158314337 Eh
Relativity type    :
Basis              : AO
                                X                 Y                 Z
Electronic contribution:     -6.513662958      -0.578854356       0.000232744
Nuclear contribution   :      4.753401848      -0.044873233      -0.000311914
                        -----------------------------------------
Total Dipole Moment    :     -1.760261110      -0.623727589      -0.000079170
                        -----------------------------------------
Magnitude (a.u.)       :      1.867499742
Magnitude (Debye)      :      4.746807110

Rotational constants in cm-1:             0.068674             0.037908             0.024425
Rotational constants in MHz :          2058.788769          1136.458758           732.252670

                             ****ORCA TERMINATED NORMALLY****
TOTAL RUN TIME: 0 days 0 hours 0 minutes 31 seconds 944 msec
