                         Program Version 6.0.0  -   RELEASE  -
|  1> ! wb97x-v def2-tzvp def2/J RIJCOSX DEFGRID2 scfconv7 GCP(DFT/TZ) printgap
|  2> %output
|  3>     printlevel normal
|  4> end
|  5> * xyz 0 1
|  6> C 2.364245222194953 -1.3947675324312967 0.0012115696508536702
|  7> C 1.1708860137062271 -0.6966771480617339 0.0028759089861041787
|  8> C 1.1708861689258836 0.6966773731367509 0.0029362169907323037
|  9> C 2.3642454987510755 1.3947673645821648 0.0014224161952403436
| 10> C 3.5687788429338685 0.6971503278478224 -0.00010850742953575997
| 11> C 3.5687787048900232 -0.6971501991474003 -0.00024096360155876031
| 12> Cl 5.058548470788181 -1.6019240531418826 -0.00227179543195441
| 13> Cl 5.058548001205215 1.6019256094133394 -0.0018990744546861522
| 14> O -9.741552520230963e-07 1.4325754402536328 0.004647906157989988
| 15> C -1.1708879757213309 0.6966781629473695 0.002894262016737968
| 16> C -2.364247631888637 1.3947680226623187 0.0012478587481393342
| 17> C -3.568780038424151 0.697149310497311 -0.00020662652627263678
| 18> C -3.5687814168658654 -0.697150789979069 -9.922840205459425e-05
| 19> C -2.3642475046558458 -1.394766778084981 0.0014142074339701135
| 20> C -1.170888326704577 -0.6966764219756034 0.0029319563320677846
| 21> O -1.0190754914463803e-06 -1.4325744447113347 0.004625650467033813
| 22> Cl -5.058547955992715 -1.6019245816191665 -0.0018920530904994314
| 23> Cl -5.058551064035298 1.601925066063424 -0.002200462653831685
| 24> H 2.347267757329298 -2.478465375387245 0.0011383548245430693
| 25> H 2.347267626017318 2.4784648104477727 0.0015272944998528618
| 26> H -2.3472707881895283 2.478465646537902 0.0011935648245554908
| 27> H -2.3472696046972223 -2.4784641222073804 0.0015028710708446936
| 28> *
| 29>
| 30>                          ****END OF INPUT****

CARTESIAN COORDINATES (ANGSTROEM)
---------------------------------
  C      2.364245   -1.394768    0.001212
  C      1.170886   -0.696677    0.002876
  C      1.170886    0.696677    0.002936
  C      2.364245    1.394767    0.001422
  C      3.568779    0.697150   -0.000109
  C      3.568779   -0.697150   -0.000241
  Cl     5.058548   -1.601924   -0.002272
  Cl     5.058548    1.601926   -0.001899
  O     -0.000001    1.432575    0.004648
  C     -1.170888    0.696678    0.002894
  C     -2.364248    1.394768    0.001248
  C     -3.568780    0.697149   -0.000207
  C     -3.568781   -0.697151   -0.000099
  C     -2.364248   -1.394767    0.001414
  C     -1.170888   -0.696676    0.002932
  O     -0.000001   -1.432574    0.004626
  Cl    -5.058548   -1.601925   -0.001892
  Cl    -5.058551    1.601925   -0.002200
  H      2.347268   -2.478465    0.001138
  H      2.347268    2.478465    0.001527
  H     -2.347271    2.478466    0.001194
  H     -2.347270   -2.478464    0.001503

 Total Charge           Charge          ....    0
 Multiplicity           Mult            ....    1
 Number of Electrons    NEL             ....  160
 Basis Dimension        Dim             ....  606

ORBITAL ENERGIES
----------------

  NO   OCC          E(Eh)            E(eV)
   0   2.0000    -107.160910     -2915.9966
   1   2.0000    -107.160909     -2915.9966
   2   2.0000    -107.160881     -2915.9958
   3   2.0000    -107.160877     -2915.9957
   4   2.0000     -21.756677      -592.0293
   5   2.0000     -21.756630      -592.0280
   6   2.0000     -12.154587      -330.7431
   7   2.0000     -12.154137      -330.7309
   8   2.0000     -12.152288      -330.6806
   9   2.0000     -12.152124      -330.6761
  10   2.0000     -12.144075      -330.4571
  11   2.0000     -12.144051      -330.4564
  12   2.0000     -12.141914      -330.3983
  13   2.0000     -12.141896      -330.3978
  14   2.0000     -12.092382      -329.0504
  15   2.0000     -12.092299      -329.0482
  16   2.0000     -12.092269      -329.0474
  17   2.0000     -12.092267      -329.0473
  18   2.0000     -11.313889      -307.8666
  19   2.0000     -11.313887      -307.8665
  20   2.0000     -11.313847      -307.8654
  21   2.0000     -11.313834      -307.8651
  22   2.0000      -9.105850      -247.7828
  23   2.0000      -9.105820      -247.7820
  24   2.0000      -9.105190      -247.7648
  25   2.0000      -9.105169      -247.7642
  26   2.0000      -9.103104      -247.7081
  27   2.0000      -9.103102      -247.7080
  28   2.0000      -9.102742      -247.6982
  29   2.0000      -9.102731      -247.6979
  30   2.0000      -9.102650      -247.6957
  31   2.0000      -9.102592      -247.6941
  32   2.0000      -9.102260      -247.6851
  33   2.0000      -9.102256      -247.6850
  34   2.0000      -1.788349       -48.6635
  35   2.0000      -1.771825       -48.2138
  36   2.0000      -1.477150       -40.1953
  37   2.0000      -1.471042       -40.0291
  38   2.0000      -1.429071       -38.8870
  39   2.0000      -1.428671       -38.8761
  40   2.0000      -1.428241       -38.8644
  41   2.0000      -1.395893       -37.9842
  42   2.0000      -1.354614       -36.8609
  43   2.0000      -1.322988       -36.0003
  44   2.0000      -1.309353       -35.6293
  45   2.0000      -1.291299       -35.1380
  46   2.0000      -1.238056       -33.6892
  47   2.0000      -1.192381       -32.4463
  48   2.0000      -1.178876       -32.0789
  49   2.0000      -1.148675       -31.2570
  50   2.0000      -1.115022       -30.3413
  51   2.0000      -1.071551       -29.1584
  52   2.0000      -1.063864       -28.9492
  53   2.0000      -1.052509       -28.6402
  54   2.0000      -1.033632       -28.1266
  55   2.0000      -1.018047       -27.7025
  56   2.0000      -1.006141       -27.3785
  57   2.0000      -0.995350       -27.0849
  58   2.0000      -0.977852       -26.6087
  59   2.0000      -0.969330       -26.3768
  60   2.0000      -0.941892       -25.6302
  61   2.0000      -0.935752       -25.4631
  62   2.0000      -0.924515       -25.1573
  63   2.0000      -0.921325       -25.0705
  64   2.0000      -0.891461       -24.2579
  65   2.0000      -0.880638       -23.9634
  66   2.0000      -0.866276       -23.5726
  67   2.0000      -0.860773       -23.4228
  68   2.0000      -0.821551       -22.3555
  69   2.0000      -0.821427       -22.3522
  70   2.0000      -0.812598       -22.1119
  71   2.0000      -0.811934       -22.0938
  72   2.0000      -0.805246       -21.9119
  73   2.0000      -0.804905       -21.9026
  74   2.0000      -0.803564       -21.8661
  75   2.0000      -0.780505       -21.2386
  76   2.0000      -0.695533       -18.9264
  77   2.0000      -0.694606       -18.9012
  78   2.0000      -0.680273       -18.5112
  79   2.0000      -0.673410       -18.3244
  80   0.0000      -0.317655        -8.6438
  81   0.0000      -0.313035        -8.5181
  82   0.0000      -0.306726        -8.3464
  83   0.0000      -0.294520        -8.0143
  84   0.0000      -0.293981        -7.9996

MULLIKEN ATOMIC CHARGES
-----------------------
   0 C :   -0.343073
   1 C :    0.236364
   2 C :    0.236622
   3 C :   -0.343622
   4 C :    0.135297
   5 C :    0.134855
   6 Cl:   -0.058053
   7 Cl:   -0.058133
   8 O :   -0.230761
   9 C :    0.236297
  10 C :   -0.342733
  11 C :    0.134582
  12 C :    0.134969
  13 C :   -0.343440
  14 C :    0.236865
  15 O :   -0.230743
  16 Cl:   -0.058058
  17 Cl:   -0.058093
  18 H :    0.145185
  19 H :    0.145205
  20 H :    0.145235
  21 H :    0.145233
Sum of atomic charges:   -0.0000000

LOEWDIN ATOMIC CHARGES
----------------------
   0 C :   -0.102259
   1 C :   -0.193952
   2 C :   -0.193951
   3 C :   -0.102261
   4 C :   -0.430130
   5 C :   -0.430130
   6 Cl:    0.406540
   7 Cl:    0.406540
   8 O :    0.320061
   9 C :   -0.193952
  10 C :   -0.102259
  11 C :   -0.430129
  12 C :   -0.430133
  13 C :   -0.102260
  14 C :   -0.193950
  15 O :    0.320060
  16 Cl:    0.406543
  17 Cl:    0.406538
  18 H :    0.159771
  19 H :    0.159771
  20 H :    0.159770
  21 H :    0.159771

  Mayer bond orders larger than 0.100000
B(  0-C ,  1-C ) :   1.4033 B(  0-C ,  5-C ) :   1.3750 B(  0-C , 18-H ) :   0.9643
B(  1-C ,  2-C ) :   1.3638 B(  1-C , 15-O ) :   1.0208 B(  2-C ,  3-C ) :   1.4029
B(  2-C ,  8-O ) :   1.0208 B(  3-C ,  4-C ) :   1.3757 B(  3-C , 19-H ) :   0.9645
B(  4-C ,  5-C ) :   1.3291 B(  4-C ,  7-Cl) :   1.0641 B(  5-C ,  6-Cl) :   1.0646
B(  8-O ,  9-C ) :   1.0208 B(  9-C , 10-C ) :   1.4034 B(  9-C , 14-C ) :   1.3636
B( 10-C , 11-C ) :   1.3751 B( 10-C , 20-H ) :   0.9643 B( 11-C , 12-C ) :   1.3293
B( 11-C , 17-Cl) :   1.0649 B( 12-C , 13-C ) :   1.3749 B( 12-C , 16-Cl) :   1.0648
B( 13-C , 14-C ) :   1.4026 B( 13-C , 21-H ) :   0.9645 B( 14-C , 15-O ) :   1.0207

FINAL SINGLE POINT ENERGY     -2450.743588423702

DIPOLE MOMENT
-------------

Method             : SCF
Type of density    : Electron Density
Multiplicity       :   1
Irrep              :   0
Energy             : -2450.7549801569020929 Eh
Relativity type    :
Basis              : AO
                                X                 Y                 Z
Electronic contribution:     -0.000003364      -0.000009956      -0.015855839
Nuclear contribution   :     -0.000002673      -0.000001284       0.016536521
                        -----------------------------------------
Total Dipole Moment    :     -0.000006037      -0.000011240       0.000680683
                        -----------------------------------------
Magnitude (a.u.)       :      0.000680802
Magnitude (Debye)      :      0.001730462

Rotational constants in cm-1:             0.028357             0.003667             0.003247
Rotational constants in MHz :           850.115486           109.928514            97.341368

                             ****ORCA TERMINATED NORMALLY****
TOTAL RUN TIME: 0 days 0 hours 10 minutes 7 seconds 346 msec
