                         Program Version 6.0.0  -   RELEASE  -
|  1> ! wb97x-v def2-tzvp def2/J RIJCOSX DEFGRID2 scfconv7 GCP(DFT/TZ) printgap
|  2> %output
|  3>     printlevel normal
|  4> end
|  5> %cpcm
|  6>     smd true
|  7>     smdsolvent "water"
|  8> end
|  9> * xyz 0 1
| 10> C 2.364245222194953 -1.3947675324312967 0.0012115696508536702
| 11> C 1.1708860137062271 -0.6966771480617339 0.0028759089861041787
| 12> C 1.1708861689258836 0.6966773731367509 0.0029362169907323037
| 13> C 2.3642454987510755 1.3947673645821648 0.0014224161952403436
| 14> C 3.5687788429338685 0.6971503278478224 -0.00010850742953575997
| 15> C 3.5687787048900232 -0.6971501991474003 -0.00024096360155876031
| 16> Cl 5.058548470788181 -1.6019240531418826 -0.00227179543195441
| 17> Cl 5.058548001205215 1.6019256094133394 -0.0018990744546861522
| 18> O -9.741552520230963e-07 1.4325754402536328 0.004647906157989988
| 19> C -1.1708879757213309 0.6966781629473695 0.002894262016737968
| 20> C -2.364247631888637 1.3947680226623187 0.0012478587481393342
| 21> C -3.568780038424151 0.697149310497311 -0.00020662652627263678
| 22> C -3.5687814168658654 -0.697150789979069 -9.922840205459425e-05
| 23> C -2.3642475046558458 -1.394766778084981 0.0014142074339701135
| 24> C -1.170888326704577 -0.6966764219756034 0.0029319563320677846
| 25> O -1.0190754914463803e-06 -1.4325744447113347 0.004625650467033813
| 26> Cl -5.058547955992715 -1.6019245816191665 -0.0018920530904994314
| 27> Cl -5.058551064035298 1.601925066063424 -0.002200462653831685
| 28> H 2.347267757329298 -2.478465375387245 0.0011383548245430693
| 29> H 2.347267626017318 2.4784648104477727 0.0015272944998528618
| 30> H -2.3472707881895283 2.478465646537902 0.0011935648245554908
| 31> H -2.3472696046972223 -2.4784641222073804 0.0015028710708446936
| 32> *
| 33>
| 34>                          ****END OF INPUT****

CARTESIAN COORDINATES (ANGSTROEM)
---------------------------------
  C      2.364245   -1.394768    0.001212
  C      1.170886   -0.696677    0.002876
  C      1.170886    0.696677    0.002936
  C      2.364245    1.394767    0.001422
  C      3.568779    0.697150   -0.000109
  C      3.568779   -0.697150   -0.000241
  Cl     5.058548   -1.601924   -0.002272
  Cl     5.058548    1.601926   -0.001899
  O     -0.000001    1.432575    0.004648
  C     -1.170888    0.696678    0.002894
  C     -2.364248    1.394768    0.001248
  C     -3.568780    0.697149   -0.000207
  C     -3.568781   -0.697151   -0.000099
  C     -2.364248   -1.394767    0.001414
  C     -1.170888   -0.696676    0.002932
  O     -0.000001   -1.432574    0.004626
  Cl    -5.058548   -1.601925   -0.001892
  Cl    -5.058551    1.601925   -0.002200
  H      2.347268   -2.478465    0.001138
  H      2.347268    2.478465    0.001527
  H     -2.347271    2.478466    0.001194
  H     -2.347270   -2.478464    0.001503

 Total Charge           Charge          ....    0
 Multiplicity           Mult            ....    1
 Number of Electrons    NEL             ....  160
 Basis Dimension        Dim             ....  606

ORBITAL ENERGIES
----------------

  NO   OCC          E(Eh)            E(eV)
   0   2.0000    -107.157834     -2915.9129
   1   2.0000    -107.157834     -2915.9129
   2   2.0000    -107.157805     -2915.9121
   3   2.0000    -107.157801     -2915.9120
   4   2.0000     -21.745502      -591.7252
   5   2.0000     -21.745456      -591.7239
   6   2.0000     -12.142821      -330.4230
   7   2.0000     -12.142373      -330.4108
   8   2.0000     -12.140519      -330.3603
   9   2.0000     -12.140356      -330.3559
  10   2.0000     -12.135028      -330.2109
  11   2.0000     -12.135002      -330.2102
  12   2.0000     -12.132869      -330.1522
  13   2.0000     -12.132850      -330.1516
  14   2.0000     -12.078959      -328.6852
  15   2.0000     -12.078876      -328.6829
  16   2.0000     -12.078846      -328.6821
  17   2.0000     -12.078842      -328.6820
  18   2.0000     -11.310924      -307.7859
  19   2.0000     -11.310923      -307.7859
  20   2.0000     -11.310881      -307.7847
  21   2.0000     -11.310869      -307.7844
  22   2.0000      -9.102857      -247.7013
  23   2.0000      -9.102827      -247.7005
  24   2.0000      -9.102212      -247.6838
  25   2.0000      -9.102192      -247.6832
  26   2.0000      -9.100197      -247.6289
  27   2.0000      -9.100194      -247.6289
  28   2.0000      -9.099809      -247.6184
  29   2.0000      -9.099799      -247.6181
  30   2.0000      -9.099736      -247.6164
  31   2.0000      -9.099681      -247.6149
  32   2.0000      -9.099335      -247.6055
  33   2.0000      -9.099331      -247.6054
  34   2.0000      -1.776694       -48.3463
  35   2.0000      -1.760318       -47.9007
  36   2.0000      -1.469348       -39.9830
  37   2.0000      -1.464640       -39.8549
  38   2.0000      -1.424854       -38.7722
  39   2.0000      -1.424542       -38.7638
  40   2.0000      -1.420138       -38.6439
  41   2.0000      -1.386863       -37.7385
  42   2.0000      -1.342652       -36.5354
  43   2.0000      -1.314264       -35.7629
  44   2.0000      -1.297676       -35.3115
  45   2.0000      -1.281646       -34.8754
  46   2.0000      -1.227194       -33.3937
  47   2.0000      -1.180845       -32.1324
  48   2.0000      -1.168425       -31.7945
  49   2.0000      -1.135927       -30.9102
  50   2.0000      -1.104995       -30.0684
  51   2.0000      -1.060382       -28.8545
  52   2.0000      -1.054126       -28.6842
  53   2.0000      -1.042237       -28.3607
  54   2.0000      -1.021919       -27.8078
  55   2.0000      -1.007170       -27.4065
  56   2.0000      -0.994804       -27.0700
  57   2.0000      -0.985071       -26.8051
  58   2.0000      -0.970590       -26.4111
  59   2.0000      -0.961940       -26.1757
  60   2.0000      -0.933006       -25.3884
  61   2.0000      -0.923805       -25.1380
  62   2.0000      -0.911600       -24.8059
  63   2.0000      -0.910861       -24.7858
  64   2.0000      -0.878572       -23.9072
  65   2.0000      -0.867817       -23.6145
  66   2.0000      -0.859503       -23.3883
  67   2.0000      -0.855167       -23.2703
  68   2.0000      -0.819063       -22.2878
  69   2.0000      -0.818975       -22.2854
  70   2.0000      -0.809595       -22.0302
  71   2.0000      -0.808896       -22.0112
  72   2.0000      -0.802740       -21.8437
  73   2.0000      -0.802381       -21.8339
  74   2.0000      -0.795020       -21.6336
  75   2.0000      -0.772361       -21.0170
  76   2.0000      -0.686872       -18.6907
  77   2.0000      -0.682419       -18.5696
  78   2.0000      -0.668328       -18.1861
  79   2.0000      -0.663604       -18.0576
  80   0.0000      -0.309882        -8.4323
  81   0.0000      -0.302910        -8.2426
  82   0.0000      -0.300405        -8.1744
  83   0.0000      -0.284699        -7.7471
  84   0.0000      -0.280912        -7.6440

MULLIKEN ATOMIC CHARGES
-----------------------
   0 C :   -0.358938
   1 C :    0.247671
   2 C :    0.247993
   3 C :   -0.359510
   4 C :    0.139274
   5 C :    0.138824
   6 Cl:   -0.079926
   7 Cl:   -0.080008
   8 O :   -0.248205
   9 C :    0.247730
  10 C :   -0.358708
  11 C :    0.138604
  12 C :    0.138932
  13 C :   -0.359304
  14 C :    0.248149
  15 O :   -0.248192
  16 Cl:   -0.079929
  17 Cl:   -0.079966
  18 H :    0.176351
  19 H :    0.176368
  20 H :    0.176394
  21 H :    0.176397
Sum of atomic charges:   -0.0000000

LOEWDIN ATOMIC CHARGES
----------------------
   0 C :   -0.096305
   1 C :   -0.186751
   2 C :   -0.186751
   3 C :   -0.096307
   4 C :   -0.434921
   5 C :   -0.434922
   6 Cl:    0.389988
   7 Cl:    0.389988
   8 O :    0.315486
   9 C :   -0.186751
  10 C :   -0.096305
  11 C :   -0.434921
  12 C :   -0.434925
  13 C :   -0.096306
  14 C :   -0.186750
  15 O :    0.315485
  16 Cl:    0.389992
  17 Cl:    0.389986
  18 H :    0.170247
  19 H :    0.170247
  20 H :    0.170247
  21 H :    0.170247

  Mayer bond orders larger than 0.100000
B(  0-C ,  1-C ) :   1.3983 B(  0-C ,  5-C ) :   1.3567 B(  0-C , 18-H ) :   0.9637
B(  1-C ,  2-C ) :   1.3612 B(  1-C , 15-O ) :   1.0114 B(  2-C ,  3-C ) :   1.3978
B(  2-C ,  8-O ) :   1.0114 B(  3-C ,  4-C ) :   1.3574 B(  3-C , 19-H ) :   0.9639
B(  4-C ,  5-C ) :   1.3205 B(  4-C ,  7-Cl) :   1.0504 B(  5-C ,  6-Cl) :   1.0508
B(  8-O ,  9-C ) :   1.0114 B(  9-C , 10-C ) :   1.3983 B(  9-C , 14-C ) :   1.3610
B( 10-C , 11-C ) :   1.3567 B( 10-C , 20-H ) :   0.9637 B( 11-C , 12-C ) :   1.3208
B( 11-C , 17-Cl) :   1.0511 B( 12-C , 13-C ) :   1.3566 B( 12-C , 16-Cl) :   1.0511
B( 13-C , 14-C ) :   1.3975 B( 13-C , 21-H ) :   0.9639 B( 14-C , 15-O ) :   1.0114

FINAL SINGLE POINT ENERGY     -2450.746263024824

DIPOLE MOMENT
-------------

Method             : SCF
Type of density    : Electron Density
Multiplicity       :   1
Irrep              :   0
Energy             : -2450.7576547580238184 Eh
Relativity type    :
Basis              : AO
                                X                 Y                 Z
Electronic contribution:     -0.000004447      -0.000012060      -0.015402403
Nuclear contribution   :     -0.000002673      -0.000001284       0.016536521
                        -----------------------------------------
Total Dipole Moment    :     -0.000007120      -0.000013344       0.001134119
                        -----------------------------------------
Magnitude (a.u.)       :      0.001134219
Magnitude (Debye)      :      0.002882957

Rotational constants in cm-1:             0.028357             0.003667             0.003247
Rotational constants in MHz :           850.115486           109.928514            97.341368

                             ****ORCA TERMINATED NORMALLY****
TOTAL RUN TIME: 0 days 0 hours 11 minutes 16 seconds 446 msec
