                         Program Version 6.0.0  -   RELEASE  -
|  1> ! pbe def2-sv(p) def2/J RI DEFGRID1 loosescf d4 GCP(DFT/SV(P)) printgap
|  2> %output
|  3>     printlevel normal
|  4> end
|  5> * xyz 0 1
|  6> C 3.6105827818 -1.823139973 -2.4427444403
|  7> C 3.9246228944 -0.3527050855 -2.2598095013
|  8> O 3.5514003789 0.1271400103 -0.9556507859
|  9> P 2.0366081102 0.208338314 -0.4724825054
| 10> S 0.7786689378 0.8026760231 -1.8477439782
| 11> O 2.1181804046 1.2362451344 0.7189373986
| 12> C 3.1084211748 1.2062410591 1.7800422119
| 13> C 2.5313494704 0.5990371747 3.0437937479
| 14> S 1.7518554018 -1.7133658785 0.3858952126
| 15> C 0.1112169796 -1.5045581795 1.1265116711
| 16> S -1.248229331 -1.4777238299 -0.0793273301
| 17> P -2.0480298761 0.4661332169 0.2867024489
| 18> S -1.0418804883 1.5471594399 1.5735768698
| 19> O -3.5737652021 0.1605210438 0.6446043096
| 20> C -4.0313401192 -0.8063311661 1.6055416204
| 21> C -3.6055090369 -0.4726024102 3.020688369
| 22> O -2.2337697881 1.2721397777 -1.049381497
| 23> C -3.1547802203 0.9621134097 -2.1218512264
| 24> C -2.8270345489 -0.3486618358 -2.8047166197
| 25> H 2.5318916253 -1.973242686 -2.456338995
| 26> H 4.0237416378 -2.1617997613 -3.3873818699
| 27> H 4.036618081 -2.406551402 -1.6303115359
| 28> H 3.401559802 0.248956848 -3.0096773661
| 29> H 4.9969297073 -0.1578789211 -2.3084277207
| 30> H 3.9866575929 0.6606083936 1.4307129731
| 31> H 3.3601179532 2.2572901541 1.930178418
| 32> H 1.5713676276 1.061334054 3.2653567382
| 33> H 2.3962205967 -0.4740054978 2.9340360982
| 34> H 3.2137994388 0.7858936337 3.8667230226
| 35> H 0.0779055005 -0.5694633952 1.6949454347
| 36> H -0.0282815902 -2.3719630787 1.7662964703
| 37> H -5.1173693261 -0.7752393283 1.5004138561
| 38> H -3.6586344161 -1.7911001912 1.3086089392
| 39> H -2.5216973169 -0.5163449645 3.1109411988
| 40> H -3.9277032506 0.5315807998 3.2850311712
| 41> H -4.0499627786 -1.1861650386 3.7068589432
| 42> H -4.1667285672 0.9568178187 -1.7115666637
| 43> H -3.0293378098 1.806344641 -2.8017438058
| 44> H -3.0143319743 -1.1879459763 -2.1365919976
| 45> H -3.4479354084 -0.4541186205 -3.688689622
| 46> H -1.7792117686 -0.3593397502 -3.0984734397
| 47> *
| 48>
| 49>                          ****END OF INPUT****

CARTESIAN COORDINATES (ANGSTROEM)
---------------------------------
  C      3.610583   -1.823140   -2.442744
  C      3.924623   -0.352705   -2.259810
  O      3.551400    0.127140   -0.955651
  P      2.036608    0.208338   -0.472483
  S      0.778669    0.802676   -1.847744
  O      2.118180    1.236245    0.718937
  C      3.108421    1.206241    1.780042
  C      2.531349    0.599037    3.043794
  S      1.751855   -1.713366    0.385895
  C      0.111217   -1.504558    1.126512
  S     -1.248229   -1.477724   -0.079327
  P     -2.048030    0.466133    0.286702
  S     -1.041880    1.547159    1.573577
  O     -3.573765    0.160521    0.644604
  C     -4.031340   -0.806331    1.605542
  C     -3.605509   -0.472602    3.020688
  O     -2.233770    1.272140   -1.049381
  C     -3.154780    0.962113   -2.121851
  C     -2.827035   -0.348662   -2.804717
  H      2.531892   -1.973243   -2.456339
  H      4.023742   -2.161800   -3.387382
  H      4.036618   -2.406551   -1.630312
  H      3.401560    0.248957   -3.009677
  H      4.996930   -0.157879   -2.308428
  H      3.986658    0.660608    1.430713
  H      3.360118    2.257290    1.930178
  H      1.571368    1.061334    3.265357
  H      2.396221   -0.474005    2.934036
  H      3.213799    0.785894    3.866723
  H      0.077906   -0.569463    1.694945
  H     -0.028282   -2.371963    1.766296
  H     -5.117369   -0.775239    1.500414
  H     -3.658634   -1.791100    1.308609
  H     -2.521697   -0.516345    3.110941
  H     -3.927703    0.531581    3.285031
  H     -4.049963   -1.186165    3.706859
  H     -4.166729    0.956818   -1.711567
  H     -3.029338    1.806345   -2.801744
  H     -3.014332   -1.187946   -2.136592
  H     -3.447935   -0.454119   -3.688690
  H     -1.779212   -0.359340   -3.098473

 Total Charge           Charge          ....    0
 Multiplicity           Mult            ....    1
 Number of Electrons    NEL             ....  202
 Basis Dimension        Dim             ....  334

ORBITAL ENERGIES
----------------

  NO   OCC          E(Eh)            E(eV)
   0   2.0000     -88.040354     -2395.6998
   1   2.0000     -88.039916     -2395.6879
   2   2.0000     -87.977072     -2393.9778
   3   2.0000     -87.975418     -2393.9328
   4   2.0000     -76.420902     -2079.5185
   5   2.0000     -76.419141     -2079.4705
   6   2.0000     -18.787362      -511.2301
   7   2.0000     -18.786031      -511.1939
   8   2.0000     -18.782538      -511.0988
   9   2.0000     -18.781429      -511.0687
  10   2.0000      -9.953374      -270.8451
  11   2.0000      -9.952499      -270.8213
  12   2.0000      -9.950440      -270.7652
  13   2.0000      -9.950288      -270.7611
  14   2.0000      -9.950084      -270.7556
  15   2.0000      -9.882882      -268.9269
  16   2.0000      -9.882515      -268.9169
  17   2.0000      -9.881408      -268.8868
  18   2.0000      -9.880818      -268.8707
  19   2.0000      -7.685372      -209.1296
  20   2.0000      -7.684269      -209.0996
  21   2.0000      -7.622298      -207.4133
  22   2.0000      -7.620386      -207.3613
  23   2.0000      -6.417781      -174.6367
  24   2.0000      -6.416547      -174.6031
  25   2.0000      -5.713033      -155.4595
  26   2.0000      -5.712141      -155.4353
  27   2.0000      -5.709878      -155.3737
  28   2.0000      -5.708751      -155.3430
  29   2.0000      -5.702555      -155.1744
  30   2.0000      -5.701403      -155.1431
  31   2.0000      -5.651289      -153.7794
  32   2.0000      -5.649414      -153.7284
  33   2.0000      -5.642906      -153.5513
  34   2.0000      -5.642296      -153.5347
  35   2.0000      -5.640971      -153.4986
  36   2.0000      -5.640454      -153.4845
  37   2.0000      -4.640588      -126.2768
  38   2.0000      -4.639627      -126.2507
  39   2.0000      -4.639584      -126.2495
  40   2.0000      -4.638279      -126.2140
  41   2.0000      -4.638055      -126.2079
  42   2.0000      -4.636640      -126.1694
  43   2.0000      -0.981417       -26.7057
  44   2.0000      -0.981021       -26.6949
  45   2.0000      -0.937723       -25.5167
  46   2.0000      -0.936155       -25.4741
  47   2.0000      -0.758322       -20.6350
  48   2.0000      -0.715756       -19.4767
  49   2.0000      -0.707835       -19.2612
  50   2.0000      -0.686540       -18.6817
  51   2.0000      -0.685768       -18.6607
  52   2.0000      -0.676005       -18.3950
  53   2.0000      -0.647010       -17.6060
  54   2.0000      -0.630335       -17.1523
  55   2.0000      -0.591079       -16.0841
  56   2.0000      -0.584459       -15.9039
  57   2.0000      -0.576790       -15.6953
  58   2.0000      -0.571689       -15.5565
  59   2.0000      -0.558748       -15.2043
  60   2.0000      -0.496059       -13.4984
  61   2.0000      -0.494010       -13.4427
  62   2.0000      -0.466878       -12.7044
  63   2.0000      -0.466581       -12.6963
  64   2.0000      -0.449843       -12.2409
  65   2.0000      -0.444542       -12.0966
  66   2.0000      -0.438822       -11.9409
  67   2.0000      -0.434298       -11.8179
  68   2.0000      -0.426040       -11.5931
  69   2.0000      -0.423902       -11.5349
  70   2.0000      -0.409363       -11.1393
  71   2.0000      -0.402862       -10.9624
  72   2.0000      -0.389584       -10.6011
  73   2.0000      -0.386120       -10.5069
  74   2.0000      -0.373729       -10.1697
  75   2.0000      -0.364240        -9.9115
  76   2.0000      -0.355013        -9.6604
  77   2.0000      -0.351485        -9.5644
  78   2.0000      -0.351070        -9.5531
  79   2.0000      -0.348692        -9.4884
  80   2.0000      -0.347405        -9.4534
  81   2.0000      -0.341651        -9.2968
  82   2.0000      -0.338177        -9.2023
  83   2.0000      -0.334522        -9.1028
  84   2.0000      -0.331570        -9.0225
  85   2.0000      -0.313398        -8.5280
  86   2.0000      -0.311041        -8.4639
  87   2.0000      -0.294273        -8.0076
  88   2.0000      -0.292643        -7.9632
  89   2.0000      -0.288657        -7.8548
  90   2.0000      -0.283413        -7.7121
  91   2.0000      -0.270877        -7.3709
  92   2.0000      -0.263044        -7.1578
  93   2.0000      -0.257549        -7.0083
  94   2.0000      -0.253816        -6.9067
  95   2.0000      -0.236304        -6.4302
  96   2.0000      -0.219340        -5.9685
  97   2.0000      -0.198219        -5.3938
  98   2.0000      -0.194779        -5.3002
  99   2.0000      -0.185767        -5.0550
 100   2.0000      -0.183656        -4.9975
 101   0.0000      -0.036048        -0.9809
 102   0.0000      -0.029634        -0.8064
 103   0.0000      -0.010012        -0.2724
 104   0.0000       0.004564         0.1242
 105   0.0000       0.018112         0.4928

MULLIKEN ATOMIC CHARGES
-----------------------
   0 C :   -0.325419
   1 C :    0.002987
   2 O :   -0.385570
   3 P :    0.603680
   4 S :   -0.298848
   5 O :   -0.347406
   6 C :   -0.009804
   7 C :   -0.307598
   8 S :   -0.112300
   9 C :   -0.359651
  10 S :   -0.111322
  11 P :    0.620571
  12 S :   -0.299526
  13 O :   -0.384086
  14 C :   -0.005244
  15 C :   -0.303991
  16 O :   -0.343277
  17 C :    0.003275
  18 C :   -0.333908
  19 H :    0.132090
  20 H :    0.113845
  21 H :    0.117670
  22 H :    0.111588
  23 H :    0.103101
  24 H :    0.106909
  25 H :    0.111337
  26 H :    0.138098
  27 H :    0.117125
  28 H :    0.108537
  29 H :    0.207132
  30 H :    0.177282
  31 H :    0.103210
  32 H :    0.102213
  33 H :    0.118535
  34 H :    0.123530
  35 H :    0.106917
  36 H :    0.107746
  37 H :    0.111564
  38 H :    0.121797
  39 H :    0.112730
  40 H :    0.144481
Sum of atomic charges:    0.0000000

LOEWDIN ATOMIC CHARGES
----------------------
   0 C :   -0.373563
   1 C :   -0.117441
   2 O :   -0.251135
   3 P :    0.564019
   4 S :   -0.301371
   5 O :   -0.229560
   6 C :   -0.109152
   7 C :   -0.367054
   8 S :    0.070867
   9 C :   -0.489540
  10 S :    0.079385
  11 P :    0.571079
  12 S :   -0.287912
  13 O :   -0.251152
  14 C :   -0.120882
  15 C :   -0.367381
  16 O :   -0.220559
  17 C :   -0.108705
  18 C :   -0.370923
  19 H :    0.123136
  20 H :    0.131653
  21 H :    0.122583
  22 H :    0.112152
  23 H :    0.117718
  24 H :    0.110464
  25 H :    0.123223
  26 H :    0.130713
  27 H :    0.117086
  28 H :    0.128942
  29 H :    0.120363
  30 H :    0.135011
  31 H :    0.117915
  32 H :    0.100673
  33 H :    0.117947
  34 H :    0.130257
  35 H :    0.127650
  36 H :    0.112402
  37 H :    0.124011
  38 H :    0.114096
  39 H :    0.131147
  40 H :    0.131837

  Mayer bond orders larger than 0.100000
B(  0-C ,  1-C ) :   1.1658 B(  0-C , 19-H ) :   0.9325 B(  0-C , 20-H ) :   0.9373
B(  0-C , 21-H ) :   0.9428 B(  1-C ,  2-O ) :   0.9082 B(  1-C , 22-H ) :   0.9161
B(  1-C , 23-H ) :   0.9339 B(  2-O ,  3-P ) :   1.0750 B(  3-P ,  4-S ) :   1.6606
B(  3-P ,  5-O ) :   1.1411 B(  3-P ,  8-S ) :   0.9456 B(  4-S ,  8-S ) :   0.1132
B(  5-O ,  6-C ) :   0.8972 B(  6-C ,  7-C ) :   1.1703 B(  6-C , 24-H ) :   0.9190
B(  6-C , 25-H ) :   0.9349 B(  7-C , 26-H ) :   0.9342 B(  7-C , 27-H ) :   0.9328
B(  7-C , 28-H ) :   0.9379 B(  8-S ,  9-C ) :   0.9888 B(  9-C , 10-S ) :   1.0055
B(  9-C , 29-H ) :   0.8311 B(  9-C , 30-H ) :   0.9108 B( 10-S , 11-P ) :   0.9312
B( 10-S , 12-S ) :   0.1188 B( 11-P , 12-S ) :   1.6311 B( 11-P , 13-O ) :   1.0601
B( 11-P , 16-O ) :   1.1508 B( 12-S , 29-H ) :   0.1234 B( 13-O , 14-C ) :   0.9242
B( 14-C , 15-C ) :   1.1647 B( 14-C , 31-H ) :   0.9336 B( 14-C , 32-H ) :   0.9152
B( 15-C , 33-H ) :   0.9348 B( 15-C , 34-H ) :   0.9451 B( 15-C , 35-H ) :   0.9365
B( 16-O , 17-C ) :   0.9002 B( 17-C , 18-C ) :   1.1682 B( 17-C , 36-H ) :   0.9269
B( 17-C , 37-H ) :   0.9328 B( 18-C , 38-H ) :   0.9349 B( 18-C , 39-H ) :   0.9360
B( 18-C , 40-H ) :   0.9361

Dispersion correction           -0.068479698
FINAL SINGLE POINT ENERGY     -2929.509907915699

DIPOLE MOMENT
-------------

Method             : SCF
Type of density    : Electron Density
Multiplicity       :   1
Irrep              :   0
Energy             : -2929.6269958970060543 Eh
Relativity type    :
Basis              : AO
                                X                 Y                 Z
Electronic contribution:      1.067851960       6.888881778      -3.304889921
Nuclear contribution   :     -1.072426444      -8.113869136       3.505674739
                        -----------------------------------------
Total Dipole Moment    :     -0.004574484      -1.224987358       0.200784819
                        -----------------------------------------
Magnitude (a.u.)       :      1.241341813
Magnitude (Debye)      :      3.155240138

Rotational constants in cm-1:             0.011883             0.005839             0.004992
Rotational constants in MHz :           356.228426           175.035815           149.647408

                             ****ORCA TERMINATED NORMALLY****
TOTAL RUN TIME: 0 days 0 hours 0 minutes 21 seconds 472 msec
