                         Program Version 6.0.0  -   RELEASE  -
|  1> ! pbe def2-sv(p) def2/J RI DEFGRID1 loosescf d4 GCP(DFT/SV(P)) printgap
|  2> %output
|  3>     printlevel normal
|  4> end
|  5> * xyz 0 1
|  6> C 4.2366486464 -2.349400659 -0.5602732169
|  7> C 4.1679948096 -0.9063563681 -1.0226115
|  8> O 3.4956138054 -0.0824491508 -0.0582516263
|  9> P 1.9488124086 0.3025002416 -0.1198352645
| 10> S 1.3330379898 0.6707139179 -1.9449442176
| 11> O 1.9037865634 1.4355108237 0.9750087412
| 12> C 1.9940379051 2.8371794517 0.6521069314
| 13> C 3.3442267872 3.1990307613 0.0708733623
| 14> S 0.958681004 -1.2029373062 1.0011681257
| 15> C 0.2966157626 -2.2206849441 -0.3444319287
| 16> S -1.217731205 -1.5971731838 -1.1720122801
| 17> P -2.0296544419 -0.2580072762 0.2320095328
| 18> S -1.2475512905 1.5192528868 0.561224435
| 19> O -2.1484445025 -1.2213983692 1.4804041579
| 20> C -2.2480556208 -0.7330745465 2.8330338821
| 21> C -3.5857694286 -0.0718230561 3.0886399726
| 22> O -3.5372038823 -0.1606061911 -0.2644536941
| 23> C -3.9862476201 0.8326767125 -1.199746796
| 24> C -3.4072062234 0.6106261075 -2.5823653926
| 25> H 4.8212254575 -2.9234013707 -1.2720721846
| 26> H 4.7077165189 -2.4017096862 0.4174160073
| 27> H 3.241031056 -2.7811045179 -0.4874729482
| 28> H 3.6541188079 -0.8130123908 -1.9859609146
| 29> H 5.1676633206 -0.4753076687 -1.1040949041
| 30> H 1.1836617498 3.0836426338 -0.0419624938
| 31> H 1.8120855442 3.3329028531 1.6067733807
| 32> H 4.1375365693 2.8820227175 0.7428347299
| 33> H 3.4767095662 2.7055198749 -0.8914884847
| 34> H 3.3958268556 4.2736618855 -0.0728491106
| 35> H 0.0589732064 -3.1829145528 0.1029263787
| 36> H 1.0342500237 -2.3232173069 -1.1394126486
| 37> H -2.1092062254 -1.6265118895 3.4428261815
| 38> H -1.4255373559 -0.0320180745 3.0109352511
| 39> H -3.6607643991 0.199321045 4.1369510686
| 40> H -3.6730070089 0.8290495299 2.4820321402
| 41> H -4.3941901847 -0.7496795418 2.8281725884
| 42> H -5.0718676531 0.7273409794 -1.1941409748
| 43> H -3.7038925566 1.8202799167 -0.8194127491
| 44> H -3.6100323944 -0.402859131 -2.9194089958
| 45> H -3.8457438003 1.3193598273 -3.2774567502
| 46> H -2.3268783682 0.7601841586 -2.5632216072
| 47> *
| 48>
| 49>                          ****END OF INPUT****

CARTESIAN COORDINATES (ANGSTROEM)
---------------------------------
  C      4.236649   -2.349401   -0.560273
  C      4.167995   -0.906356   -1.022612
  O      3.495614   -0.082449   -0.058252
  P      1.948812    0.302500   -0.119835
  S      1.333038    0.670714   -1.944944
  O      1.903787    1.435511    0.975009
  C      1.994038    2.837179    0.652107
  C      3.344227    3.199031    0.070873
  S      0.958681   -1.202937    1.001168
  C      0.296616   -2.220685   -0.344432
  S     -1.217731   -1.597173   -1.172012
  P     -2.029654   -0.258007    0.232010
  S     -1.247551    1.519253    0.561224
  O     -2.148445   -1.221398    1.480404
  C     -2.248056   -0.733075    2.833034
  C     -3.585769   -0.071823    3.088640
  O     -3.537204   -0.160606   -0.264454
  C     -3.986248    0.832677   -1.199747
  C     -3.407206    0.610626   -2.582365
  H      4.821225   -2.923401   -1.272072
  H      4.707717   -2.401710    0.417416
  H      3.241031   -2.781105   -0.487473
  H      3.654119   -0.813012   -1.985961
  H      5.167663   -0.475308   -1.104095
  H      1.183662    3.083643   -0.041962
  H      1.812086    3.332903    1.606773
  H      4.137537    2.882023    0.742835
  H      3.476710    2.705520   -0.891488
  H      3.395827    4.273662   -0.072849
  H      0.058973   -3.182915    0.102926
  H      1.034250   -2.323217   -1.139413
  H     -2.109206   -1.626512    3.442826
  H     -1.425537   -0.032018    3.010935
  H     -3.660764    0.199321    4.136951
  H     -3.673007    0.829050    2.482032
  H     -4.394190   -0.749680    2.828173
  H     -5.071868    0.727341   -1.194141
  H     -3.703893    1.820280   -0.819413
  H     -3.610032   -0.402859   -2.919409
  H     -3.845744    1.319360   -3.277457
  H     -2.326878    0.760184   -2.563222

 Total Charge           Charge          ....    0
 Multiplicity           Mult            ....    1
 Number of Electrons    NEL             ....  202
 Basis Dimension        Dim             ....  334

ORBITAL ENERGIES
----------------

  NO   OCC          E(Eh)            E(eV)
   0   2.0000     -88.043937     -2395.7973
   1   2.0000     -88.033015     -2395.5001
   2   2.0000     -87.985422     -2394.2050
   3   2.0000     -87.977964     -2394.0021
   4   2.0000     -76.423868     -2079.5992
   5   2.0000     -76.420565     -2079.5093
   6   2.0000     -18.786271      -511.2004
   7   2.0000     -18.785206      -511.1714
   8   2.0000     -18.784627      -511.1557
   9   2.0000     -18.784102      -511.1414
  10   2.0000      -9.960059      -271.0270
  11   2.0000      -9.950123      -270.7566
  12   2.0000      -9.947335      -270.6807
  13   2.0000      -9.945966      -270.6435
  14   2.0000      -9.945280      -270.6248
  15   2.0000      -9.888005      -269.0663
  16   2.0000      -9.879354      -268.8309
  17   2.0000      -9.878628      -268.8111
  18   2.0000      -9.877554      -268.7819
  19   2.0000      -7.688410      -209.2123
  20   2.0000      -7.678352      -208.9386
  21   2.0000      -7.630267      -207.6301
  22   2.0000      -7.622586      -207.4211
  23   2.0000      -6.420953      -174.7230
  24   2.0000      -6.417636      -174.6328
  25   2.0000      -5.716412      -155.5515
  26   2.0000      -5.713008      -155.4589
  27   2.0000      -5.706600      -155.2845
  28   2.0000      -5.705161      -155.2453
  29   2.0000      -5.702855      -155.1826
  30   2.0000      -5.694899      -154.9661
  31   2.0000      -5.659115      -153.9924
  32   2.0000      -5.651405      -153.7826
  33   2.0000      -5.651387      -153.7821
  34   2.0000      -5.650024      -153.7450
  35   2.0000      -5.643201      -153.5593
  36   2.0000      -5.642898      -153.5511
  37   2.0000      -4.643184      -126.3475
  38   2.0000      -4.642744      -126.3355
  39   2.0000      -4.641750      -126.3084
  40   2.0000      -4.640210      -126.2665
  41   2.0000      -4.639506      -126.2474
  42   2.0000      -4.638092      -126.2089
  43   2.0000      -0.982263       -26.7287
  44   2.0000      -0.980443       -26.6792
  45   2.0000      -0.940501       -25.5923
  46   2.0000      -0.939762       -25.5722
  47   2.0000      -0.759634       -20.6707
  48   2.0000      -0.716592       -19.4995
  49   2.0000      -0.704608       -19.1734
  50   2.0000      -0.685317       -18.6484
  51   2.0000      -0.680836       -18.5265
  52   2.0000      -0.667691       -18.1688
  53   2.0000      -0.650104       -17.6902
  54   2.0000      -0.634573       -17.2676
  55   2.0000      -0.600681       -16.3454
  56   2.0000      -0.589833       -16.0502
  57   2.0000      -0.569301       -15.4915
  58   2.0000      -0.566978       -15.4283
  59   2.0000      -0.561082       -15.2678
  60   2.0000      -0.495010       -13.4699
  61   2.0000      -0.486654       -13.2425
  62   2.0000      -0.471222       -12.8226
  63   2.0000      -0.467030       -12.7085
  64   2.0000      -0.454189       -12.3591
  65   2.0000      -0.438642       -11.9361
  66   2.0000      -0.434581       -11.8256
  67   2.0000      -0.432554       -11.7704
  68   2.0000      -0.424760       -11.5583
  69   2.0000      -0.412862       -11.2346
  70   2.0000      -0.398416       -10.8415
  71   2.0000      -0.393308       -10.7025
  72   2.0000      -0.389326       -10.5941
  73   2.0000      -0.388503       -10.5717
  74   2.0000      -0.383463       -10.4345
  75   2.0000      -0.372932       -10.1480
  76   2.0000      -0.370109       -10.0712
  77   2.0000      -0.357296        -9.7225
  78   2.0000      -0.350506        -9.5378
  79   2.0000      -0.348706        -9.4888
  80   2.0000      -0.344326        -9.3696
  81   2.0000      -0.341949        -9.3049
  82   2.0000      -0.337848        -9.1933
  83   2.0000      -0.334648        -9.1062
  84   2.0000      -0.326593        -8.8870
  85   2.0000      -0.319131        -8.6840
  86   2.0000      -0.307265        -8.3611
  87   2.0000      -0.290563        -7.9066
  88   2.0000      -0.288841        -7.8598
  89   2.0000      -0.282371        -7.6837
  90   2.0000      -0.276400        -7.5212
  91   2.0000      -0.270630        -7.3642
  92   2.0000      -0.267001        -7.2655
  93   2.0000      -0.259826        -7.0702
  94   2.0000      -0.255756        -6.9595
  95   2.0000      -0.236924        -6.4470
  96   2.0000      -0.217795        -5.9265
  97   2.0000      -0.212229        -5.7750
  98   2.0000      -0.190770        -5.1911
  99   2.0000      -0.188805        -5.1376
 100   2.0000      -0.184612        -5.0235
 101   0.0000      -0.049634        -1.3506
 102   0.0000      -0.028601        -0.7783
 103   0.0000      -0.013953        -0.3797
 104   0.0000       0.012530         0.3409
 105   0.0000       0.019427         0.5286

MULLIKEN ATOMIC CHARGES
-----------------------
   0 C :   -0.299856
   1 C :   -0.006937
   2 O :   -0.368788
   3 P :    0.622562
   4 S :   -0.304965
   5 O :   -0.367769
   6 C :   -0.000865
   7 C :   -0.304646
   8 S :   -0.096109
   9 C :   -0.318695
  10 S :   -0.091708
  11 P :    0.616000
  12 S :   -0.330669
  13 O :   -0.370942
  14 C :   -0.001505
  15 C :   -0.302786
  16 O :   -0.370108
  17 C :   -0.000924
  18 C :   -0.331469
  19 H :    0.111019
  20 H :    0.118458
  21 H :    0.115076
  22 H :    0.101055
  23 H :    0.103546
  24 H :    0.121734
  25 H :    0.105387
  26 H :    0.115075
  27 H :    0.122842
  28 H :    0.110632
  29 H :    0.184146
  30 H :    0.177216
  31 H :    0.100066
  32 H :    0.113015
  33 H :    0.109208
  34 H :    0.121920
  35 H :    0.115213
  36 H :    0.102263
  37 H :    0.108276
  38 H :    0.119168
  39 H :    0.112391
  40 H :    0.142474
Sum of atomic charges:   -0.0000000

LOEWDIN ATOMIC CHARGES
----------------------
   0 C :   -0.359183
   1 C :   -0.122976
   2 O :   -0.249402
   3 P :    0.570302
   4 S :   -0.303339
   5 O :   -0.233783
   6 C :   -0.112845
   7 C :   -0.366096
   8 S :    0.098535
   9 C :   -0.468910
  10 S :    0.082656
  11 P :    0.564989
  12 S :   -0.314256
  13 O :   -0.243085
  14 C :   -0.118462
  15 C :   -0.364795
  16 O :   -0.244358
  17 C :   -0.121702
  18 C :   -0.372587
  19 H :    0.129783
  20 H :    0.128473
  21 H :    0.118049
  22 H :    0.102576
  23 H :    0.117973
  24 H :    0.112426
  25 H :    0.120086
  26 H :    0.125701
  27 H :    0.121764
  28 H :    0.130035
  29 H :    0.136395
  30 H :    0.124847
  31 H :    0.116644
  32 H :    0.110234
  33 H :    0.128925
  34 H :    0.122479
  35 H :    0.125867
  36 H :    0.117329
  37 H :    0.108124
  38 H :    0.123930
  39 H :    0.131014
  40 H :    0.126644

  Mayer bond orders larger than 0.100000
B(  0-C ,  1-C ) :   1.1626 B(  0-C , 19-H ) :   0.9405 B(  0-C , 20-H ) :   0.9456
B(  0-C , 21-H ) :   0.9416 B(  1-C ,  2-O ) :   0.9240 B(  1-C , 22-H ) :   0.9032
B(  1-C , 23-H ) :   0.9341 B(  2-O ,  3-P ) :   1.0871 B(  3-P ,  4-S ) :   1.6223
B(  3-P ,  5-O ) :   1.1433 B(  3-P ,  8-S ) :   0.9201 B(  4-S ,  8-S ) :   0.1120
B(  5-O ,  6-C ) :   0.8972 B(  6-C ,  7-C ) :   1.1636 B(  6-C , 24-H ) :   0.9168
B(  6-C , 25-H ) :   0.9361 B(  7-C , 26-H ) :   0.9451 B(  7-C , 27-H ) :   0.9344
B(  7-C , 28-H ) :   0.9385 B(  8-S ,  9-C ) :   1.0252 B(  9-C , 10-S ) :   0.9707
B(  9-C , 29-H ) :   0.9097 B(  9-C , 30-H ) :   0.8923 B( 10-S , 11-P ) :   0.9926
B( 10-S , 12-S ) :   0.1136 B( 11-P , 12-S ) :   1.5847 B( 11-P , 13-O ) :   1.1156
B( 11-P , 16-O ) :   1.1030 B( 13-O , 14-C ) :   0.9020 B( 14-C , 15-C ) :   1.1660
B( 14-C , 31-H ) :   0.9350 B( 14-C , 32-H ) :   0.9147 B( 15-C , 33-H ) :   0.9398
B( 15-C , 34-H ) :   0.9352 B( 15-C , 35-H ) :   0.9461 B( 16-O , 17-C ) :   0.9107
B( 17-C , 18-C ) :   1.1654 B( 17-C , 36-H ) :   0.9328 B( 17-C , 37-H ) :   0.9123
B( 18-C , 38-H ) :   0.9435 B( 18-C , 39-H ) :   0.9380 B( 18-C , 40-H ) :   0.9313

Dispersion correction           -0.068787411
FINAL SINGLE POINT ENERGY     -2929.515008845036

DIPOLE MOMENT
-------------

Method             : SCF
Type of density    : Electron Density
Multiplicity       :   1
Irrep              :   0
Energy             : -2929.6298478883522876 Eh
Relativity type    :
Basis              : AO
                                X                 Y                 Z
Electronic contribution:     -2.436910816      -4.319033719      -0.584440239
Nuclear contribution   :      2.765269216       3.938017232       0.916324313
                        -----------------------------------------
Total Dipole Moment    :      0.328358400      -0.381016487       0.331884074
                        -----------------------------------------
Magnitude (a.u.)       :      0.602610853
Magnitude (Debye)      :      1.531715062

Rotational constants in cm-1:             0.011909             0.005494             0.005334
Rotational constants in MHz :           357.016349           164.704351           159.895417

                             ****ORCA TERMINATED NORMALLY****
TOTAL RUN TIME: 0 days 0 hours 0 minutes 21 seconds 268 msec
