                         Program Version 6.0.0  -   RELEASE  -
|  1> ! r2scan-3c def2/J RI DEFGRID2 scfconv6 printgap
|  2> %output
|  3>     printlevel normal
|  4> end
|  5> * xyz 0 1
|  6> C 5.8177108209 0.1215704032 -0.2698289563
|  7> C 4.5029876248 -0.5370738905 -0.6371222652
|  8> O 3.4514466728 0.1086037281 0.1081526895
|  9> P 1.9507095838 0.1715655151 -0.4212042549
| 10> S 1.8222309919 0.6552933051 -2.3222337501
| 11> O 1.3144314557 1.1459090504 0.6489796401
| 12> C 1.5161017498 2.5743532373 0.5625363103
| 13> C 0.7092299098 3.2192592137 1.6683992151
| 14> S 1.1748097667 -1.6874304067 0.1423105138
| 15> C -0.172983692 -1.8807225861 -1.0768429918
| 16> S -1.8077273936 -1.9749050832 -0.3194054802
| 17> P -2.0083201813 0.0615842364 0.2652114846
| 18> S -1.4251295698 1.3935445522 -1.0444925603
| 19> O -1.2791488389 0.2146949743 1.6544021789
| 20> C -1.6656869028 -0.5104634217 2.8541658883
| 21> C -0.6655609057 -1.6047601312 3.1672941243
| 22> O -3.5373196485 0.1610034752 0.6939162097
| 23> C -4.592920015 0.4661834142 -0.2346460459
| 24> C -4.8014441725 -0.6320621004 -1.2569211554
| 25> H 6.6248063863 -0.3838177658 -0.7897890502
| 26> H 5.806699388 1.1688614458 -0.5595517571
| 27> H 5.9795302075 0.0530892704 0.8020611275
| 28> H 4.4986040914 -1.596503683 -0.3695695064
| 29> H 4.2875890308 -0.4326727002 -1.7060800671
| 30> H 2.5848127431 2.7779190773 0.6675723023
| 31> H 1.1803197081 2.9077588767 -0.4258073587
| 32> H 1.0433538386 2.8529588475 2.6344788698
| 33> H 0.8356854443 4.2958684214 1.6204726094
| 34> H -0.3427074241 2.9743966495 1.5421947071
| 35> H -0.0229704195 -2.8269759548 -1.5898754897
| 36> H -0.1294989635 -1.0417388542 -1.7768634361
| 37> H -1.6763970557 0.2501627773 3.6364568682
| 38> H -2.6709496728 -0.9125653516 2.7187541519
| 39> H 0.3406293979 -1.194456509 3.1954367766
| 40> H -0.90527393 -2.0319856044 4.1358565918
| 41> H -0.6972674763 -2.3894281942 2.4153306551
| 42> H -5.467765573 0.5931717652 0.4047029662
| 43> H -4.3527688253 1.4121866141 -0.729653385
| 44> H -4.9109265273 -1.5944265815 -0.7635229898
| 45> H -5.6957560424 -0.417003521 -1.8329223366
| 46> H -3.9506204879 -0.6786899389 -1.9346255122
| 47> *
| 48>
| 49>                          ****END OF INPUT****

CARTESIAN COORDINATES (ANGSTROEM)
---------------------------------
  C      5.817711    0.121570   -0.269829
  C      4.502988   -0.537074   -0.637122
  O      3.451447    0.108604    0.108153
  P      1.950710    0.171566   -0.421204
  S      1.822231    0.655293   -2.322234
  O      1.314431    1.145909    0.648980
  C      1.516102    2.574353    0.562536
  C      0.709230    3.219259    1.668399
  S      1.174810   -1.687430    0.142311
  C     -0.172984   -1.880723   -1.076843
  S     -1.807727   -1.974905   -0.319405
  P     -2.008320    0.061584    0.265211
  S     -1.425130    1.393545   -1.044493
  O     -1.279149    0.214695    1.654402
  C     -1.665687   -0.510463    2.854166
  C     -0.665561   -1.604760    3.167294
  O     -3.537320    0.161003    0.693916
  C     -4.592920    0.466183   -0.234646
  C     -4.801444   -0.632062   -1.256921
  H      6.624806   -0.383818   -0.789789
  H      5.806699    1.168861   -0.559552
  H      5.979530    0.053089    0.802061
  H      4.498604   -1.596504   -0.369570
  H      4.287589   -0.432673   -1.706080
  H      2.584813    2.777919    0.667572
  H      1.180320    2.907759   -0.425807
  H      1.043354    2.852959    2.634479
  H      0.835685    4.295868    1.620473
  H     -0.342707    2.974397    1.542195
  H     -0.022970   -2.826976   -1.589875
  H     -0.129499   -1.041739   -1.776863
  H     -1.676397    0.250163    3.636457
  H     -2.670950   -0.912565    2.718754
  H      0.340629   -1.194457    3.195437
  H     -0.905274   -2.031986    4.135857
  H     -0.697267   -2.389428    2.415331
  H     -5.467766    0.593172    0.404703
  H     -4.352769    1.412187   -0.729653
  H     -4.910927   -1.594427   -0.763523
  H     -5.695756   -0.417004   -1.832922
  H     -3.950620   -0.678690   -1.934626

 Total Charge           Charge          ....    0
 Multiplicity           Mult            ....    1
 Number of Electrons    NEL             ....  202
 Basis Dimension        Dim             ....  539

ORBITAL ENERGIES
----------------

  NO   OCC          E(Eh)            E(eV)
   0   2.0000     -88.575710     -2410.2676
   1   2.0000     -88.573239     -2410.2004
   2   2.0000     -88.515268     -2408.6229
   3   2.0000     -88.509675     -2408.4707
   4   2.0000     -76.912154     -2092.8861
   5   2.0000     -76.905628     -2092.7085
   6   2.0000     -18.992311      -516.8070
   7   2.0000     -18.987326      -516.6714
   8   2.0000     -18.984064      -516.5826
   9   2.0000     -18.978323      -516.4264
  10   2.0000     -10.106005      -274.9984
  11   2.0000     -10.100811      -274.8570
  12   2.0000     -10.099156      -274.8120
  13   2.0000     -10.091127      -274.5935
  14   2.0000     -10.085986      -274.4536
  15   2.0000     -10.028621      -272.8926
  16   2.0000     -10.028466      -272.8884
  17   2.0000     -10.026236      -272.8278
  18   2.0000     -10.018736      -272.6237
  19   2.0000      -7.870293      -214.1616
  20   2.0000      -7.867977      -214.0986
  21   2.0000      -7.810033      -212.5218
  22   2.0000      -7.804448      -212.3698
  23   2.0000      -6.590448      -179.3352
  24   2.0000      -6.584199      -179.1652
  25   2.0000      -5.817152      -158.2927
  26   2.0000      -5.814805      -158.2289
  27   2.0000      -5.813996      -158.2069
  28   2.0000      -5.811763      -158.1461
  29   2.0000      -5.807522      -158.0307
  30   2.0000      -5.805112      -157.9651
  31   2.0000      -5.757825      -156.6784
  32   2.0000      -5.752098      -156.5225
  33   2.0000      -5.750185      -156.4705
  34   2.0000      -5.750024      -156.4661
  35   2.0000      -5.744922      -156.3273
  36   2.0000      -5.744246      -156.3089
  37   2.0000      -4.736355      -128.8828
  38   2.0000      -4.735329      -128.8548
  39   2.0000      -4.733876      -128.8153
  40   2.0000      -4.729647      -128.7002
  41   2.0000      -4.729063      -128.6844
  42   2.0000      -4.728014      -128.6558
  43   2.0000      -1.049559       -28.5600
  44   2.0000      -1.040841       -28.3227
  45   2.0000      -1.007530       -27.4163
  46   2.0000      -0.999648       -27.2018
  47   2.0000      -0.799221       -21.7479
  48   2.0000      -0.756360       -20.5816
  49   2.0000      -0.747411       -20.3381
  50   2.0000      -0.732788       -19.9402
  51   2.0000      -0.725197       -19.7336
  52   2.0000      -0.709026       -19.2936
  53   2.0000      -0.681943       -18.5566
  54   2.0000      -0.659170       -17.9369
  55   2.0000      -0.626836       -17.0571
  56   2.0000      -0.614122       -16.7111
  57   2.0000      -0.607441       -16.5293
  58   2.0000      -0.595630       -16.2079
  59   2.0000      -0.585396       -15.9294
  60   2.0000      -0.526957       -14.3392
  61   2.0000      -0.524279       -14.2664
  62   2.0000      -0.492329       -13.3970
  63   2.0000      -0.490228       -13.3398
  64   2.0000      -0.467061       -12.7094
  65   2.0000      -0.461500       -12.5581
  66   2.0000      -0.457152       -12.4397
  67   2.0000      -0.449826       -12.2404
  68   2.0000      -0.444829       -12.1044
  69   2.0000      -0.436271       -11.8715
  70   2.0000      -0.425495       -11.5783
  71   2.0000      -0.409143       -11.1333
  72   2.0000      -0.404706       -11.0126
  73   2.0000      -0.393361       -10.7039
  74   2.0000      -0.389704       -10.6044
  75   2.0000      -0.384559       -10.4644
  76   2.0000      -0.375814       -10.2264
  77   2.0000      -0.370888       -10.0924
  78   2.0000      -0.368092       -10.0163
  79   2.0000      -0.364454        -9.9173
  80   2.0000      -0.358583        -9.7576
  81   2.0000      -0.357126        -9.7179
  82   2.0000      -0.350148        -9.5280
  83   2.0000      -0.347543        -9.4571
  84   2.0000      -0.339174        -9.2294
  85   2.0000      -0.327397        -8.9089
  86   2.0000      -0.321245        -8.7415
  87   2.0000      -0.316319        -8.6075
  88   2.0000      -0.308582        -8.3969
  89   2.0000      -0.307365        -8.3638
  90   2.0000      -0.296337        -8.0637
  91   2.0000      -0.283421        -7.7123
  92   2.0000      -0.276404        -7.5213
  93   2.0000      -0.275107        -7.4860
  94   2.0000      -0.270481        -7.3602
  95   2.0000      -0.245968        -6.6931
  96   2.0000      -0.232961        -6.3392
  97   2.0000      -0.226316        -6.1584
  98   2.0000      -0.214814        -5.8454
  99   2.0000      -0.204071        -5.5531
 100   2.0000      -0.194610        -5.2956
 101   0.0000      -0.042187        -1.1480
 102   0.0000      -0.030065        -0.8181
 103   0.0000      -0.008803        -0.2395
 104   0.0000       0.013068         0.3556
 105   0.0000       0.015241         0.4147

MULLIKEN ATOMIC CHARGES
-----------------------
   0 C :   -0.451530
   1 C :   -0.143188
   2 O :   -0.297619
   3 P :    0.664546
   4 S :   -0.474490
   5 O :   -0.256112
   6 C :   -0.125176
   7 C :   -0.467261
   8 S :   -0.133881
   9 C :   -0.229962
  10 S :   -0.142533
  11 P :    0.656244
  12 S :   -0.407618
  13 O :   -0.252918
  14 C :   -0.134778
  15 C :   -0.445138
  16 O :   -0.309553
  17 C :   -0.165566
  18 C :   -0.455323
  19 H :    0.145731
  20 H :    0.157335
  21 H :    0.152341
  22 H :    0.147675
  23 H :    0.172004
  24 H :    0.146484
  25 H :    0.175291
  26 H :    0.145314
  27 H :    0.142123
  28 H :    0.178737
  29 H :    0.197332
  30 H :    0.218756
  31 H :    0.152459
  32 H :    0.161098
  33 H :    0.164695
  34 H :    0.142373
  35 H :    0.165572
  36 H :    0.147047
  37 H :    0.175101
  38 H :    0.152707
  39 H :    0.148467
  40 H :    0.183213
Sum of atomic charges:   -0.0000000

LOEWDIN ATOMIC CHARGES
----------------------
   0 C :   -0.388252
   1 C :    0.016894
   2 O :   -0.669975
   3 P :    0.361473
   4 S :   -0.135330
   5 O :   -0.670626
   6 C :    0.017905
   7 C :   -0.390487
   8 S :    0.172836
   9 C :   -0.412823
  10 S :    0.131213
  11 P :    0.380982
  12 S :   -0.061792
  13 O :   -0.650073
  14 C :    0.028973
  15 C :   -0.405668
  16 O :   -0.679303
  17 C :    0.021227
  18 C :   -0.409207
  19 H :    0.159218
  20 H :    0.160237
  21 H :    0.158721
  22 H :    0.170219
  23 H :    0.181911
  24 H :    0.170591
  25 H :    0.183241
  26 H :    0.156877
  27 H :    0.157730
  28 H :    0.169507
  29 H :    0.181284
  30 H :    0.203129
  31 H :    0.180780
  32 H :    0.179455
  33 H :    0.164745
  34 H :    0.156308
  35 H :    0.162200
  36 H :    0.179095
  37 H :    0.180826
  38 H :    0.159166
  39 H :    0.159633
  40 H :    0.167159

  Mayer bond orders larger than 0.100000
B(  0-C ,  1-C ) :   0.9552 B(  0-C , 19-H ) :   0.9657 B(  0-C , 20-H ) :   0.9727
B(  0-C , 21-H ) :   0.9725 B(  1-C ,  2-O ) :   0.7794 B(  1-C , 22-H ) :   0.9473
B(  1-C , 23-H ) :   0.9497 B(  2-O ,  3-P ) :   1.0749 B(  3-P ,  4-S ) :   1.7489
B(  3-P ,  5-O ) :   1.2069 B(  3-P ,  8-S ) :   1.1118 B(  5-O ,  6-C ) :   0.7576
B(  6-C ,  7-C ) :   0.9365 B(  6-C , 24-H ) :   0.9439 B(  6-C , 25-H ) :   0.9506
B(  7-C , 26-H ) :   0.9726 B(  7-C , 27-H ) :   0.9667 B(  7-C , 28-H ) :   0.9683
B(  8-S ,  9-C ) :   0.8967 B(  9-C , 10-S ) :   0.9124 B(  9-C , 29-H ) :   0.9135
B(  9-C , 30-H ) :   0.9051 B( 10-S , 11-P ) :   1.0016 B( 11-P , 12-S ) :   1.8449
B( 11-P , 13-O ) :   1.1141 B( 11-P , 16-O ) :   1.0532 B( 13-O , 14-C ) :   0.7338
B( 14-C , 15-C ) :   0.9467 B( 14-C , 31-H ) :   0.9614 B( 14-C , 32-H ) :   0.9731
B( 15-C , 33-H ) :   0.9661 B( 15-C , 34-H ) :   0.9624 B( 15-C , 35-H ) :   0.9620
B( 16-O , 17-C ) :   0.8271 B( 17-C , 18-C ) :   0.9161 B( 17-C , 36-H ) :   0.9612
B( 17-C , 37-H ) :   0.9678 B( 18-C , 38-H ) :   0.9675 B( 18-C , 39-H ) :   0.9572
B( 18-C , 40-H ) :   0.9629

Dispersion correction           -0.022144544
FINAL SINGLE POINT ENERGY     -2932.458335699152

DIPOLE MOMENT
-------------

Method             : SCF
Type of density    : Electron Density
Multiplicity       :   1
Irrep              :   0
Energy             : -2932.4827776719475878 Eh
Relativity type    :
Basis              : AO
                                X                 Y                 Z
Electronic contribution:     -2.611019444      -4.024062551      -9.655935981
Nuclear contribution   :      2.270819478       3.414550267      10.884660226
                        -----------------------------------------
Total Dipole Moment    :     -0.340199966      -0.609512284       1.228724245
                        -----------------------------------------
Magnitude (a.u.)       :      1.413154100
Magnitude (Debye)      :      3.591952266

Rotational constants in cm-1:             0.012796             0.005219             0.005161
Rotational constants in MHz :           383.600513           156.469744           154.722853

                             ****ORCA TERMINATED NORMALLY****
TOTAL RUN TIME: 0 days 0 hours 1 minutes 21 seconds 547 msec
