                         Program Version 6.0.0  -   RELEASE  -
|  1> ! r2scan-3c def2/J RI DEFGRID2 scfconv6 printgap
|  2> %output
|  3>     printlevel normal
|  4> end
|  5> %cpcm
|  6>     smd true
|  7>     smdsolvent "water"
|  8> end
|  9> * xyz 0 1
| 10> C 5.8177108209 0.1215704032 -0.2698289563
| 11> C 4.5029876248 -0.5370738905 -0.6371222652
| 12> O 3.4514466728 0.1086037281 0.1081526895
| 13> P 1.9507095838 0.1715655151 -0.4212042549
| 14> S 1.8222309919 0.6552933051 -2.3222337501
| 15> O 1.3144314557 1.1459090504 0.6489796401
| 16> C 1.5161017498 2.5743532373 0.5625363103
| 17> C 0.7092299098 3.2192592137 1.6683992151
| 18> S 1.1748097667 -1.6874304067 0.1423105138
| 19> C -0.172983692 -1.8807225861 -1.0768429918
| 20> S -1.8077273936 -1.9749050832 -0.3194054802
| 21> P -2.0083201813 0.0615842364 0.2652114846
| 22> S -1.4251295698 1.3935445522 -1.0444925603
| 23> O -1.2791488389 0.2146949743 1.6544021789
| 24> C -1.6656869028 -0.5104634217 2.8541658883
| 25> C -0.6655609057 -1.6047601312 3.1672941243
| 26> O -3.5373196485 0.1610034752 0.6939162097
| 27> C -4.592920015 0.4661834142 -0.2346460459
| 28> C -4.8014441725 -0.6320621004 -1.2569211554
| 29> H 6.6248063863 -0.3838177658 -0.7897890502
| 30> H 5.806699388 1.1688614458 -0.5595517571
| 31> H 5.9795302075 0.0530892704 0.8020611275
| 32> H 4.4986040914 -1.596503683 -0.3695695064
| 33> H 4.2875890308 -0.4326727002 -1.7060800671
| 34> H 2.5848127431 2.7779190773 0.6675723023
| 35> H 1.1803197081 2.9077588767 -0.4258073587
| 36> H 1.0433538386 2.8529588475 2.6344788698
| 37> H 0.8356854443 4.2958684214 1.6204726094
| 38> H -0.3427074241 2.9743966495 1.5421947071
| 39> H -0.0229704195 -2.8269759548 -1.5898754897
| 40> H -0.1294989635 -1.0417388542 -1.7768634361
| 41> H -1.6763970557 0.2501627773 3.6364568682
| 42> H -2.6709496728 -0.9125653516 2.7187541519
| 43> H 0.3406293979 -1.194456509 3.1954367766
| 44> H -0.90527393 -2.0319856044 4.1358565918
| 45> H -0.6972674763 -2.3894281942 2.4153306551
| 46> H -5.467765573 0.5931717652 0.4047029662
| 47> H -4.3527688253 1.4121866141 -0.729653385
| 48> H -4.9109265273 -1.5944265815 -0.7635229898
| 49> H -5.6957560424 -0.417003521 -1.8329223366
| 50> H -3.9506204879 -0.6786899389 -1.9346255122
| 51> *
| 52>
| 53>                          ****END OF INPUT****

CARTESIAN COORDINATES (ANGSTROEM)
---------------------------------
  C      5.817711    0.121570   -0.269829
  C      4.502988   -0.537074   -0.637122
  O      3.451447    0.108604    0.108153
  P      1.950710    0.171566   -0.421204
  S      1.822231    0.655293   -2.322234
  O      1.314431    1.145909    0.648980
  C      1.516102    2.574353    0.562536
  C      0.709230    3.219259    1.668399
  S      1.174810   -1.687430    0.142311
  C     -0.172984   -1.880723   -1.076843
  S     -1.807727   -1.974905   -0.319405
  P     -2.008320    0.061584    0.265211
  S     -1.425130    1.393545   -1.044493
  O     -1.279149    0.214695    1.654402
  C     -1.665687   -0.510463    2.854166
  C     -0.665561   -1.604760    3.167294
  O     -3.537320    0.161003    0.693916
  C     -4.592920    0.466183   -0.234646
  C     -4.801444   -0.632062   -1.256921
  H      6.624806   -0.383818   -0.789789
  H      5.806699    1.168861   -0.559552
  H      5.979530    0.053089    0.802061
  H      4.498604   -1.596504   -0.369570
  H      4.287589   -0.432673   -1.706080
  H      2.584813    2.777919    0.667572
  H      1.180320    2.907759   -0.425807
  H      1.043354    2.852959    2.634479
  H      0.835685    4.295868    1.620473
  H     -0.342707    2.974397    1.542195
  H     -0.022970   -2.826976   -1.589875
  H     -0.129499   -1.041739   -1.776863
  H     -1.676397    0.250163    3.636457
  H     -2.670950   -0.912565    2.718754
  H      0.340629   -1.194457    3.195437
  H     -0.905274   -2.031986    4.135857
  H     -0.697267   -2.389428    2.415331
  H     -5.467766    0.593172    0.404703
  H     -4.352769    1.412187   -0.729653
  H     -4.910927   -1.594427   -0.763523
  H     -5.695756   -0.417004   -1.832922
  H     -3.950620   -0.678690   -1.934626

 Total Charge           Charge          ....    0
 Multiplicity           Mult            ....    1
 Number of Electrons    NEL             ....  202
 Basis Dimension        Dim             ....  539

ORBITAL ENERGIES
----------------

  NO   OCC          E(Eh)            E(eV)
   0   2.0000     -88.579044     -2410.3583
   1   2.0000     -88.578014     -2410.3303
   2   2.0000     -88.523929     -2408.8586
   3   2.0000     -88.522585     -2408.8220
   4   2.0000     -76.917510     -2093.0318
   5   2.0000     -76.915963     -2092.9898
   6   2.0000     -18.993272      -516.8332
   7   2.0000     -18.991437      -516.7833
   8   2.0000     -18.991377      -516.7816
   9   2.0000     -18.988860      -516.7131
  10   2.0000     -10.105507      -274.9848
  11   2.0000     -10.091337      -274.5992
  12   2.0000     -10.089608      -274.5522
  13   2.0000     -10.087204      -274.4868
  14   2.0000     -10.086983      -274.4808
  15   2.0000     -10.018696      -272.6226
  16   2.0000     -10.018182      -272.6086
  17   2.0000     -10.017411      -272.5876
  18   2.0000     -10.016559      -272.5644
  19   2.0000      -7.873694      -214.2541
  20   2.0000      -7.872507      -214.2218
  21   2.0000      -7.819044      -212.7670
  22   2.0000      -7.817704      -212.7305
  23   2.0000      -6.595841      -179.4820
  24   2.0000      -6.594573      -179.4475
  25   2.0000      -5.820527      -158.3846
  26   2.0000      -5.819395      -158.3538
  27   2.0000      -5.817469      -158.3014
  28   2.0000      -5.816238      -158.2679
  29   2.0000      -5.810853      -158.1214
  30   2.0000      -5.809695      -158.0898
  31   2.0000      -5.766734      -156.9208
  32   2.0000      -5.765266      -156.8809
  33   2.0000      -5.759205      -156.7159
  34   2.0000      -5.759059      -156.7120
  35   2.0000      -5.758194      -156.6884
  36   2.0000      -5.757509      -156.6698
  37   2.0000      -4.741700      -129.0282
  38   2.0000      -4.740694      -129.0008
  39   2.0000      -4.739987      -128.9816
  40   2.0000      -4.739427      -128.9664
  41   2.0000      -4.739378      -128.9650
  42   2.0000      -4.738467      -128.9403
  43   2.0000      -1.051839       -28.6220
  44   2.0000      -1.049378       -28.5550
  45   2.0000      -1.009568       -27.4717
  46   2.0000      -1.007627       -27.4189
  47   2.0000      -0.801559       -21.8115
  48   2.0000      -0.756329       -20.5808
  49   2.0000      -0.744704       -20.2644
  50   2.0000      -0.724439       -19.7130
  51   2.0000      -0.722666       -19.6647
  52   2.0000      -0.710371       -19.3302
  53   2.0000      -0.687302       -18.7024
  54   2.0000      -0.668303       -18.1855
  55   2.0000      -0.627153       -17.0657
  56   2.0000      -0.613133       -16.6842
  57   2.0000      -0.602390       -16.3919
  58   2.0000      -0.593764       -16.1571
  59   2.0000      -0.585922       -15.9438
  60   2.0000      -0.528650       -14.3853
  61   2.0000      -0.521204       -14.1827
  62   2.0000      -0.496139       -13.5006
  63   2.0000      -0.487043       -13.2531
  64   2.0000      -0.469056       -12.7637
  65   2.0000      -0.460192       -12.5225
  66   2.0000      -0.455505       -12.3949
  67   2.0000      -0.451222       -12.2784
  68   2.0000      -0.441170       -12.0049
  69   2.0000      -0.434228       -11.8160
  70   2.0000      -0.423006       -11.5106
  71   2.0000      -0.412601       -11.2274
  72   2.0000      -0.404779       -11.0146
  73   2.0000      -0.392006       -10.6670
  74   2.0000      -0.387892       -10.5551
  75   2.0000      -0.383554       -10.4370
  76   2.0000      -0.377701       -10.2778
  77   2.0000      -0.366158        -9.9637
  78   2.0000      -0.361377        -9.8336
  79   2.0000      -0.359473        -9.7818
  80   2.0000      -0.354829        -9.6554
  81   2.0000      -0.353642        -9.6231
  82   2.0000      -0.345413        -9.3992
  83   2.0000      -0.344113        -9.3638
  84   2.0000      -0.340953        -9.2778
  85   2.0000      -0.325569        -8.8592
  86   2.0000      -0.324026        -8.8172
  87   2.0000      -0.313379        -8.5275
  88   2.0000      -0.309304        -8.4166
  89   2.0000      -0.304201        -8.2777
  90   2.0000      -0.301052        -8.1920
  91   2.0000      -0.284691        -7.7468
  92   2.0000      -0.280436        -7.6311
  93   2.0000      -0.277191        -7.5428
  94   2.0000      -0.274091        -7.4584
  95   2.0000      -0.250132        -6.8064
  96   2.0000      -0.241034        -6.5589
  97   2.0000      -0.235966        -6.4210
  98   2.0000      -0.225592        -6.1387
  99   2.0000      -0.213979        -5.8227
 100   2.0000      -0.206614        -5.6223
 101   0.0000      -0.046632        -1.2689
 102   0.0000      -0.037082        -1.0091
 103   0.0000      -0.012463        -0.3391
 104   0.0000       0.007246         0.1972
 105   0.0000       0.013388         0.3643

MULLIKEN ATOMIC CHARGES
-----------------------
   0 C :   -0.489217
   1 C :   -0.139198
   2 O :   -0.323532
   3 P :    0.692381
   4 S :   -0.532814
   5 O :   -0.283772
   6 C :   -0.120672
   7 C :   -0.510445
   8 S :   -0.130613
   9 C :   -0.229811
  10 S :   -0.137278
  11 P :    0.674435
  12 S :   -0.461548
  13 O :   -0.286424
  14 C :   -0.130225
  15 C :   -0.481428
  16 O :   -0.330666
  17 C :   -0.159736
  18 C :   -0.491395
  19 H :    0.169092
  20 H :    0.165937
  21 H :    0.165221
  22 H :    0.170164
  23 H :    0.170661
  24 H :    0.170811
  25 H :    0.174178
  26 H :    0.166660
  27 H :    0.169473
  28 H :    0.170618
  29 H :    0.238522
  30 H :    0.211811
  31 H :    0.178032
  32 H :    0.179094
  33 H :    0.167352
  34 H :    0.167927
  35 H :    0.166896
  36 H :    0.174472
  37 H :    0.177936
  38 H :    0.168577
  39 H :    0.172679
  40 H :    0.175844
Sum of atomic charges:   -0.0000000

LOEWDIN ATOMIC CHARGES
----------------------
   0 C :   -0.391638
   1 C :    0.021149
   2 O :   -0.682743
   3 P :    0.364970
   4 S :   -0.173978
   5 O :   -0.689420
   6 C :    0.019990
   7 C :   -0.394306
   8 S :    0.177608
   9 C :   -0.407072
  10 S :    0.142184
  11 P :    0.383820
  12 S :   -0.099167
  13 O :   -0.671507
  14 C :    0.034850
  15 C :   -0.407093
  16 O :   -0.685428
  17 C :    0.026214
  18 C :   -0.411994
  19 H :    0.168390
  20 H :    0.161904
  21 H :    0.162702
  22 H :    0.179241
  23 H :    0.181519
  24 H :    0.180011
  25 H :    0.182622
  26 H :    0.162922
  27 H :    0.168171
  28 H :    0.164155
  29 H :    0.197827
  30 H :    0.200097
  31 H :    0.191220
  32 H :    0.186825
  33 H :    0.163472
  34 H :    0.166329
  35 H :    0.160576
  36 H :    0.190765
  37 H :    0.181125
  38 H :    0.163474
  39 H :    0.168344
  40 H :    0.161869

  Mayer bond orders larger than 0.100000
B(  0-C ,  1-C ) :   0.9526 B(  0-C , 19-H ) :   0.9595 B(  0-C , 20-H ) :   0.9698
B(  0-C , 21-H ) :   0.9693 B(  1-C ,  2-O ) :   0.7706 B(  1-C , 22-H ) :   0.9383
B(  1-C , 23-H ) :   0.9477 B(  2-O ,  3-P ) :   1.0815 B(  3-P ,  4-S ) :   1.6974
B(  3-P ,  5-O ) :   1.2043 B(  3-P ,  8-S ) :   1.1423 B(  5-O ,  6-C ) :   0.7510
B(  6-C ,  7-C ) :   0.9260 B(  6-C , 24-H ) :   0.9354 B(  6-C , 25-H ) :   0.9475
B(  7-C , 26-H ) :   0.9694 B(  7-C , 27-H ) :   0.9605 B(  7-C , 28-H ) :   0.9704
B(  8-S ,  9-C ) :   0.8892 B(  9-C , 10-S ) :   0.9089 B(  9-C , 29-H ) :   0.8971
B(  9-C , 30-H ) :   0.9097 B( 10-S , 11-P ) :   1.0198 B( 11-P , 12-S ) :   1.8134
B( 11-P , 13-O ) :   1.1177 B( 11-P , 16-O ) :   1.0621 B( 13-O , 14-C ) :   0.7226
B( 14-C , 15-C ) :   0.9354 B( 14-C , 31-H ) :   0.9512 B( 14-C , 32-H ) :   0.9634
B( 15-C , 33-H ) :   0.9663 B( 15-C , 34-H ) :   0.9572 B( 15-C , 35-H ) :   0.9624
B( 16-O , 17-C ) :   0.8160 B( 17-C , 18-C ) :   0.9043 B( 17-C , 36-H ) :   0.9510
B( 17-C , 37-H ) :   0.9665 B( 18-C , 38-H ) :   0.9644 B( 18-C , 39-H ) :   0.9521
B( 18-C , 40-H ) :   0.9653

Dispersion correction           -0.022144544
FINAL SINGLE POINT ENERGY     -2932.467464763388

DIPOLE MOMENT
-------------

Method             : SCF
Type of density    : Electron Density
Multiplicity       :   1
Irrep              :   0
Energy             : -2932.4919067361838643 Eh
Relativity type    :
Basis              : AO
                                X                 Y                 Z
Electronic contribution:     -2.766233492      -4.498535058      -9.243823704
Nuclear contribution   :      2.270819478       3.414550267      10.884660226
                        -----------------------------------------
Total Dipole Moment    :     -0.495414013      -1.083984791       1.640836522
                        -----------------------------------------
Magnitude (a.u.)       :      2.028004577
Magnitude (Debye)      :      5.154777978

Rotational constants in cm-1:             0.012796             0.005219             0.005161
Rotational constants in MHz :           383.600513           156.469744           154.722853

                             ****ORCA TERMINATED NORMALLY****
TOTAL RUN TIME: 0 days 0 hours 1 minutes 51 seconds 755 msec
