                         Program Version 6.0.0  -   RELEASE  -
|  1> ! pbe def2-sv(p) def2/J RI DEFGRID1 loosescf d4 GCP(DFT/SV(P)) printgap
|  2> %output
|  3>     printlevel normal
|  4> end
|  5> * xyz 0 1
|  6> C 3.0032003997 -2.9565530246 -1.9753086275
|  7> C 3.1102822344 -2.5746804005 -0.5126785842
|  8> O 3.434845 -1.1705080456 -0.3637057687
|  9> P 2.3590977493 -0.0399423077 -0.0748465073
| 10> S 3.2522223361 1.6736805885 0.1997331413
| 11> O 1.4656714316 -0.5913107094 1.1350688867
| 12> C 1.8327477827 -0.3534428351 2.5120260642
| 13> C 1.0143358648 0.7818616088 3.0923870355
| 14> S 0.9496213874 -0.1786867754 -1.6408141071
| 15> C 0.3059567372 1.5076723261 -1.5073399653
| 16> S -0.5877734607 1.818201641 0.0329049238
| 17> P -2.1083952734 0.3615767916 -0.2795171455
| 18> S -2.7030746147 0.0814568053 -2.1166225845
| 19> O -3.2777388489 0.8733347785 0.6529852401
| 20> C -3.0977926924 1.1296824482 2.0690279586
| 21> C -4.4429073413 1.5354974155 2.6334934761
| 22> O -1.5098139105 -0.9125796255 0.4779643119
| 23> C -1.4836285872 -2.2325602018 -0.091854942
| 24> C -2.807901785 -2.9366760368 0.1244274397
| 25> H 3.9147541786 -2.6809701663 -2.4981321376
| 26> H 2.8566102647 -4.0293818901 -2.0513175637
| 27> H 2.1635680368 -2.4483165479 -2.4448989113
| 28> H 3.9399116131 -3.0941329401 -0.0297258527
| 29> H 2.1797372611 -2.7836357195 0.0208184861
| 30> H 1.6267065423 -1.2949632414 3.0244942461
| 31> H 2.9027197433 -0.1300506253 2.5660635318
| 32> H -0.0454458621 0.5735507671 2.9723098734
| 33> H 1.2462679055 0.8888861614 4.1469735407
| 34> H 1.2464775473 1.7122593364 2.5785113002
| 35> H -0.364507897 1.6441860461 -2.3554619182
| 36> H 1.1346790351 2.2151854591 -1.5324033894
| 37> H -2.7222060939 0.2177232407 2.5390972024
| 38> H -2.3585727961 1.9281494217 2.1795417055
| 39> H -5.1651019429 0.7370369525 2.4895623162
| 40> H -4.3370170998 1.7404569122 3.6938868084
| 41> H -4.8035685755 2.4268968581 2.1285952123
| 42> H -1.2551673429 -2.1574388881 -1.1593934899
| 43> H -0.6656197356 -2.7354744723 0.4264571459
| 44> H -3.5998344303 -2.3883594143 -0.384062369
| 45> H -2.7532886325 -3.9398500978 -0.2859680133
| 46> H -3.0410504741 -2.9920619136 1.1843122512
| 47> *
| 48>
| 49>                          ****END OF INPUT****

CARTESIAN COORDINATES (ANGSTROEM)
---------------------------------
  C      3.003200   -2.956553   -1.975309
  C      3.110282   -2.574680   -0.512679
  O      3.434845   -1.170508   -0.363706
  P      2.359098   -0.039942   -0.074847
  S      3.252222    1.673681    0.199733
  O      1.465671   -0.591311    1.135069
  C      1.832748   -0.353443    2.512026
  C      1.014336    0.781862    3.092387
  S      0.949621   -0.178687   -1.640814
  C      0.305957    1.507672   -1.507340
  S     -0.587773    1.818202    0.032905
  P     -2.108395    0.361577   -0.279517
  S     -2.703075    0.081457   -2.116623
  O     -3.277739    0.873335    0.652985
  C     -3.097793    1.129682    2.069028
  C     -4.442907    1.535497    2.633493
  O     -1.509814   -0.912580    0.477964
  C     -1.483629   -2.232560   -0.091855
  C     -2.807902   -2.936676    0.124427
  H      3.914754   -2.680970   -2.498132
  H      2.856610   -4.029382   -2.051318
  H      2.163568   -2.448317   -2.444899
  H      3.939912   -3.094133   -0.029726
  H      2.179737   -2.783636    0.020818
  H      1.626707   -1.294963    3.024494
  H      2.902720   -0.130051    2.566064
  H     -0.045446    0.573551    2.972310
  H      1.246268    0.888886    4.146974
  H      1.246478    1.712259    2.578511
  H     -0.364508    1.644186   -2.355462
  H      1.134679    2.215185   -1.532403
  H     -2.722206    0.217723    2.539097
  H     -2.358573    1.928149    2.179542
  H     -5.165102    0.737037    2.489562
  H     -4.337017    1.740457    3.693887
  H     -4.803569    2.426897    2.128595
  H     -1.255167   -2.157439   -1.159393
  H     -0.665620   -2.735474    0.426457
  H     -3.599834   -2.388359   -0.384062
  H     -2.753289   -3.939850   -0.285968
  H     -3.041050   -2.992062    1.184312

 Total Charge           Charge          ....    0
 Multiplicity           Mult            ....    1
 Number of Electrons    NEL             ....  202
 Basis Dimension        Dim             ....  334

ORBITAL ENERGIES
----------------

  NO   OCC          E(Eh)            E(eV)
   0   2.0000     -88.045255     -2395.8332
   1   2.0000     -88.039394     -2395.6737
   2   2.0000     -87.988928     -2394.3004
   3   2.0000     -87.986489     -2394.2341
   4   2.0000     -76.426461     -2079.6697
   5   2.0000     -76.426032     -2079.6581
   6   2.0000     -18.795657      -511.4558
   7   2.0000     -18.794866      -511.4343
   8   2.0000     -18.789191      -511.2799
   9   2.0000     -18.788674      -511.2658
  10   2.0000      -9.962793      -271.1014
  11   2.0000      -9.962580      -271.0956
  12   2.0000      -9.955081      -270.8915
  13   2.0000      -9.953826      -270.8574
  14   2.0000      -9.950574      -270.7689
  15   2.0000      -9.894093      -269.2320
  16   2.0000      -9.892506      -269.1888
  17   2.0000      -9.884343      -268.9666
  18   2.0000      -9.881119      -268.8789
  19   2.0000      -7.690047      -209.2568
  20   2.0000      -7.684428      -209.1039
  21   2.0000      -7.634153      -207.7359
  22   2.0000      -7.631810      -207.6721
  23   2.0000      -6.424107      -174.8088
  24   2.0000      -6.424024      -174.8066
  25   2.0000      -5.717891      -155.5917
  26   2.0000      -5.714717      -155.5053
  27   2.0000      -5.712230      -155.4377
  28   2.0000      -5.709109      -155.3528
  29   2.0000      -5.706882      -155.2922
  30   2.0000      -5.701274      -155.1396
  31   2.0000      -5.663169      -154.1027
  32   2.0000      -5.660888      -154.0406
  33   2.0000      -5.654745      -153.8734
  34   2.0000      -5.654190      -153.8583
  35   2.0000      -5.652546      -153.8136
  36   2.0000      -5.651631      -153.7887
  37   2.0000      -4.647002      -126.4513
  38   2.0000      -4.646910      -126.4488
  39   2.0000      -4.645543      -126.4117
  40   2.0000      -4.645374      -126.4070
  41   2.0000      -4.644698      -126.3887
  42   2.0000      -4.644494      -126.3831
  43   2.0000      -0.986775       -26.8515
  44   2.0000      -0.985365       -26.8131
  45   2.0000      -0.944682       -25.7061
  46   2.0000      -0.943011       -25.6606
  47   2.0000      -0.766571       -20.8595
  48   2.0000      -0.725252       -19.7351
  49   2.0000      -0.714312       -19.4374
  50   2.0000      -0.694453       -18.8970
  51   2.0000      -0.690849       -18.7990
  52   2.0000      -0.673693       -18.3321
  53   2.0000      -0.652265       -17.7490
  54   2.0000      -0.641202       -17.4480
  55   2.0000      -0.594978       -16.1902
  56   2.0000      -0.585578       -15.9344
  57   2.0000      -0.580723       -15.8023
  58   2.0000      -0.576398       -15.6846
  59   2.0000      -0.559855       -15.2344
  60   2.0000      -0.512370       -13.9423
  61   2.0000      -0.505887       -13.7659
  62   2.0000      -0.482615       -13.1326
  63   2.0000      -0.477382       -12.9902
  64   2.0000      -0.460109       -12.5202
  65   2.0000      -0.449424       -12.2295
  66   2.0000      -0.444149       -12.0859
  67   2.0000      -0.438689       -11.9373
  68   2.0000      -0.431946       -11.7539
  69   2.0000      -0.413705       -11.2575
  70   2.0000      -0.403596       -10.9824
  71   2.0000      -0.393536       -10.7087
  72   2.0000      -0.392095       -10.6694
  73   2.0000      -0.390099       -10.6151
  74   2.0000      -0.380688       -10.3591
  75   2.0000      -0.372576       -10.1383
  76   2.0000      -0.368936       -10.0393
  77   2.0000      -0.361018        -9.8238
  78   2.0000      -0.360663        -9.8141
  79   2.0000      -0.358529        -9.7561
  80   2.0000      -0.353602        -9.6220
  81   2.0000      -0.348145        -9.4735
  82   2.0000      -0.342018        -9.3068
  83   2.0000      -0.341439        -9.2910
  84   2.0000      -0.335631        -9.1330
  85   2.0000      -0.321602        -8.7512
  86   2.0000      -0.315452        -8.5839
  87   2.0000      -0.309576        -8.4240
  88   2.0000      -0.306034        -8.3276
  89   2.0000      -0.285884        -7.7793
  90   2.0000      -0.283785        -7.7222
  91   2.0000      -0.277259        -7.5446
  92   2.0000      -0.274824        -7.4783
  93   2.0000      -0.270330        -7.3560
  94   2.0000      -0.257020        -6.9939
  95   2.0000      -0.230541        -6.2733
  96   2.0000      -0.216126        -5.8811
  97   2.0000      -0.214756        -5.8438
  98   2.0000      -0.205929        -5.6036
  99   2.0000      -0.201078        -5.4716
 100   2.0000      -0.199473        -5.4279
 101   0.0000      -0.047257        -1.2859
 102   0.0000      -0.025174        -0.6850
 103   0.0000      -0.002769        -0.0754
 104   0.0000      -0.001416        -0.0385
 105   0.0000       0.005114         0.1392

MULLIKEN ATOMIC CHARGES
-----------------------
   0 C :   -0.300013
   1 C :   -0.036478
   2 O :   -0.365003
   3 P :    0.621247
   4 S :   -0.314062
   5 O :   -0.378504
   6 C :   -0.012045
   7 C :   -0.294484
   8 S :   -0.104956
   9 C :   -0.338750
  10 S :   -0.101689
  11 P :    0.625009
  12 S :   -0.311644
  13 O :   -0.366500
  14 C :   -0.055945
  15 C :   -0.266952
  16 O :   -0.381672
  17 C :   -0.019297
  18 C :   -0.292478
  19 H :    0.126416
  20 H :    0.111615
  21 H :    0.135127
  22 H :    0.111816
  23 H :    0.112640
  24 H :    0.097465
  25 H :    0.106723
  26 H :    0.113118
  27 H :    0.104157
  28 H :    0.130478
  29 H :    0.194049
  30 H :    0.192786
  31 H :    0.119340
  32 H :    0.122927
  33 H :    0.121008
  34 H :    0.112174
  35 H :    0.124762
  36 H :    0.114747
  37 H :    0.104110
  38 H :    0.124475
  39 H :    0.108269
  40 H :    0.106015
Sum of atomic charges:   -0.0000000

LOEWDIN ATOMIC CHARGES
----------------------
   0 C :   -0.361146
   1 C :   -0.118626
   2 O :   -0.245748
   3 P :    0.569437
   4 S :   -0.309804
   5 O :   -0.253235
   6 C :   -0.115438
   7 C :   -0.363315
   8 S :    0.096236
   9 C :   -0.477883
  10 S :    0.082651
  11 P :    0.572596
  12 S :   -0.305955
  13 O :   -0.244520
  14 C :   -0.118937
  15 C :   -0.348212
  16 O :   -0.247738
  17 C :   -0.124428
  18 C :   -0.362858
  19 H :    0.132345
  20 H :    0.130948
  21 H :    0.119680
  22 H :    0.121998
  23 H :    0.108110
  24 H :    0.113607
  25 H :    0.109266
  26 H :    0.118822
  27 H :    0.126259
  28 H :    0.124665
  29 H :    0.132293
  30 H :    0.132012
  31 H :    0.111865
  32 H :    0.110213
  33 H :    0.130009
  34 H :    0.131280
  35 H :    0.131992
  36 H :    0.104656
  37 H :    0.111915
  38 H :    0.125201
  39 H :    0.129057
  40 H :    0.120731

  Mayer bond orders larger than 0.100000
B(  0-C ,  1-C ) :   1.1677 B(  0-C , 19-H ) :   0.9458 B(  0-C , 20-H ) :   0.9382
B(  0-C , 21-H ) :   0.9341 B(  1-C ,  2-O ) :   0.9059 B(  1-C , 22-H ) :   0.9335
B(  1-C , 23-H ) :   0.9133 B(  2-O ,  3-P ) :   1.1192 B(  3-P ,  4-S ) :   1.6338
B(  3-P ,  5-O ) :   1.0788 B(  3-P ,  8-S ) :   0.9527 B(  4-S ,  8-S ) :   0.1022
B(  5-O ,  6-C ) :   0.9022 B(  6-C ,  7-C ) :   1.1751 B(  6-C , 24-H ) :   0.9331
B(  6-C , 25-H ) :   0.9124 B(  7-C , 26-H ) :   0.9392 B(  7-C , 27-H ) :   0.9380
B(  7-C , 28-H ) :   0.9352 B(  8-S ,  9-C ) :   1.0029 B(  9-C , 10-S ) :   1.0183
B(  9-C , 29-H ) :   0.8840 B(  9-C , 30-H ) :   0.8811 B( 10-S , 11-P ) :   0.9508
B( 10-S , 12-S ) :   0.1018 B( 11-P , 12-S ) :   1.6280 B( 11-P , 13-O ) :   1.1308
B( 11-P , 16-O ) :   1.0759 B( 13-O , 14-C ) :   0.9040 B( 14-C , 15-C ) :   1.1606
B( 14-C , 31-H ) :   0.9178 B( 14-C , 32-H ) :   0.9179 B( 15-C , 33-H ) :   0.9498
B( 15-C , 34-H ) :   0.9404 B( 15-C , 35-H ) :   0.9487 B( 16-O , 17-C ) :   0.9037
B( 17-C , 18-C ) :   1.1612 B( 17-C , 36-H ) :   0.9073 B( 17-C , 37-H ) :   0.9285
B( 18-C , 38-H ) :   0.9378 B( 18-C , 39-H ) :   0.9409 B( 18-C , 40-H ) :   0.9478

Dispersion correction           -0.066563110
FINAL SINGLE POINT ENERGY     -2929.519450296907

DIPOLE MOMENT
-------------

Method             : SCF
Type of density    : Electron Density
Multiplicity       :   1
Irrep              :   0
Energy             : -2929.6382205997160781 Eh
Relativity type    :
Basis              : AO
                                X                 Y                 Z
Electronic contribution:      7.437407921      14.476600099     -15.118567430
Nuclear contribution   :     -7.660210844     -15.976878138      16.592075016
                        -----------------------------------------
Total Dipole Moment    :     -0.222802922      -1.500278039       1.473507585
                        -----------------------------------------
Magnitude (a.u.)       :      2.114639435
Magnitude (Debye)      :      5.374986287

Rotational constants in cm-1:             0.011025             0.005762             0.005142
Rotational constants in MHz :           330.533578           172.752708           154.146308

                             ****ORCA TERMINATED NORMALLY****
TOTAL RUN TIME: 0 days 0 hours 0 minutes 20 seconds 216 msec
