                         Program Version 6.0.0  -   RELEASE  -
|  1> ! pbe def2-sv(p) def2/J RI DEFGRID1 loosescf d4 GCP(DFT/SV(P)) printgap
|  2> %output
|  3>     printlevel normal
|  4> end
|  5> * xyz 0 1
|  6> C 3.7852056919 0.6830860249 -3.0049608079
|  7> C 2.4932396692 0.4703951821 -2.2432761022
|  8> O 2.8107871402 -0.1999388439 -1.0091970552
|  9> P 2.0398340979 0.0150806339 0.36083226
| 10> S 1.4818495883 1.8415882242 0.7652023429
| 11> O 3.0897146412 -0.4782913663 1.4278958915
| 12> C 3.8070350447 -1.7379990979 1.3332851293
| 13> C 3.3521722058 -2.6826851188 2.4279090971
| 14> S 0.6025858876 -1.5716017878 0.3018347947
| 15> C -0.2476447726 -1.2120344394 1.8544671744
| 16> S -1.3571835337 0.2430495248 1.8072105978
| 17> P -2.0307453142 0.1930514838 -0.1925041401
| 18> S -0.9071058153 0.6866854035 -1.7329021724
| 19> O -3.3431385642 1.0866500709 -0.1008866061
| 20> C -3.3312070497 2.5005939582 -0.3523983509
| 21> C -2.5557098456 3.2573478509 0.7070488181
| 22> O -2.6060958058 -1.279592043 -0.208665267
| 23> C -2.8624950489 -2.0003450388 -1.4325213884
| 24> C -4.0519343028 -1.4304597292 -2.1756964378
| 25> H 4.2689671131 -0.2715235792 -3.189973016
| 26> H 3.5607843981 1.1637768425 -3.9513105737
| 27> H 4.4562706999 1.3160224436 -2.4306025259
| 28> H 1.7940517926 -0.1593093088 -2.7991204084
| 29> H 1.9986199828 1.4202802345 -2.0155120706
| 30> H 3.6486310309 -2.1670891795 0.3421701596
| 31> H 4.8573899351 -1.46866756 1.4526982944
| 32> H 3.9937314232 -3.5581413367 2.4252706138
| 33> H 3.4226643646 -2.1921720713 3.3948593886
| 34> H 2.3250193354 -2.997332828 2.2610644041
| 35> H 0.4805972294 -1.0046570106 2.6378190299
| 36> H -0.8419185856 -2.0926686848 2.0871298754
| 37> H -2.8956832171 2.6740387258 -1.3422952067
| 38> H -4.3864562222 2.7765529528 -0.3554528428
| 39> H -1.4983273679 2.9903010722 0.6625147216
| 40> H -2.6510139253 4.3244853979 0.5343961256
| 41> H -2.9320123654 3.0147672832 1.6979554277
| 42> H -1.9610608666 -1.9610844461 -2.0524774848
| 43> H -3.0409838241 -3.0233243232 -1.0995381981
| 44> H -3.8237235844 -0.4217654393 -2.5180420759
| 45> H -4.2728672783 -2.0541718133 -3.0360902061
| 46> H -4.9191111029 -1.3907570984 -1.5219308043
| 47> *
| 48>
| 49>                          ****END OF INPUT****

CARTESIAN COORDINATES (ANGSTROEM)
---------------------------------
  C      3.785206    0.683086   -3.004961
  C      2.493240    0.470395   -2.243276
  O      2.810787   -0.199939   -1.009197
  P      2.039834    0.015081    0.360832
  S      1.481850    1.841588    0.765202
  O      3.089715   -0.478291    1.427896
  C      3.807035   -1.737999    1.333285
  C      3.352172   -2.682685    2.427909
  S      0.602586   -1.571602    0.301835
  C     -0.247645   -1.212034    1.854467
  S     -1.357184    0.243050    1.807211
  P     -2.030745    0.193051   -0.192504
  S     -0.907106    0.686685   -1.732902
  O     -3.343139    1.086650   -0.100887
  C     -3.331207    2.500594   -0.352398
  C     -2.555710    3.257348    0.707049
  O     -2.606096   -1.279592   -0.208665
  C     -2.862495   -2.000345   -1.432521
  C     -4.051934   -1.430460   -2.175696
  H      4.268967   -0.271524   -3.189973
  H      3.560784    1.163777   -3.951311
  H      4.456271    1.316022   -2.430603
  H      1.794052   -0.159309   -2.799120
  H      1.998620    1.420280   -2.015512
  H      3.648631   -2.167089    0.342170
  H      4.857390   -1.468668    1.452698
  H      3.993731   -3.558141    2.425271
  H      3.422664   -2.192172    3.394859
  H      2.325019   -2.997333    2.261064
  H      0.480597   -1.004657    2.637819
  H     -0.841919   -2.092669    2.087130
  H     -2.895683    2.674039   -1.342295
  H     -4.386456    2.776553   -0.355453
  H     -1.498327    2.990301    0.662515
  H     -2.651014    4.324485    0.534396
  H     -2.932012    3.014767    1.697955
  H     -1.961061   -1.961084   -2.052477
  H     -3.040984   -3.023324   -1.099538
  H     -3.823724   -0.421765   -2.518042
  H     -4.272867   -2.054172   -3.036090
  H     -4.919111   -1.390757   -1.521931

 Total Charge           Charge          ....    0
 Multiplicity           Mult            ....    1
 Number of Electrons    NEL             ....  202
 Basis Dimension        Dim             ....  334

ORBITAL ENERGIES
----------------

  NO   OCC          E(Eh)            E(eV)
   0   2.0000     -88.042422     -2395.7561
   1   2.0000     -88.032896     -2395.4969
   2   2.0000     -87.978871     -2394.0268
   3   2.0000     -87.976776     -2393.9698
   4   2.0000     -76.421864     -2079.5446
   5   2.0000     -76.421648     -2079.5388
   6   2.0000     -18.790277      -511.3094
   7   2.0000     -18.788224      -511.2536
   8   2.0000     -18.787617      -511.2371
   9   2.0000     -18.785250      -511.1726
  10   2.0000      -9.958593      -270.9871
  11   2.0000      -9.955853      -270.9125
  12   2.0000      -9.948510      -270.7127
  13   2.0000      -9.944991      -270.6170
  14   2.0000      -9.944934      -270.6154
  15   2.0000      -9.889309      -269.1018
  16   2.0000      -9.882656      -268.9207
  17   2.0000      -9.880903      -268.8730
  18   2.0000      -9.875774      -268.7335
  19   2.0000      -7.686749      -209.1671
  20   2.0000      -7.678158      -208.9333
  21   2.0000      -7.623593      -207.4485
  22   2.0000      -7.621865      -207.4015
  23   2.0000      -6.419112      -174.6729
  24   2.0000      -6.418750      -174.6631
  25   2.0000      -5.714562      -155.5011
  26   2.0000      -5.711357      -155.4139
  27   2.0000      -5.706384      -155.2786
  28   2.0000      -5.703737      -155.2066
  29   2.0000      -5.702797      -155.1810
  30   2.0000      -5.694590      -154.9577
  31   2.0000      -5.652454      -153.8111
  32   2.0000      -5.651031      -153.7724
  33   2.0000      -5.644258      -153.5881
  34   2.0000      -5.643788      -153.5753
  35   2.0000      -5.642485      -153.5398
  36   2.0000      -5.641743      -153.5196
  37   2.0000      -4.642092      -126.3178
  38   2.0000      -4.641404      -126.2990
  39   2.0000      -4.640863      -126.2843
  40   2.0000      -4.640617      -126.2776
  41   2.0000      -4.639246      -126.2403
  42   2.0000      -4.639131      -126.2372
  43   2.0000      -0.984590       -26.7921
  44   2.0000      -0.981769       -26.7153
  45   2.0000      -0.942136       -25.6368
  46   2.0000      -0.941285       -25.6137
  47   2.0000      -0.760318       -20.6893
  48   2.0000      -0.717709       -19.5298
  49   2.0000      -0.706754       -19.2317
  50   2.0000      -0.689488       -18.7619
  51   2.0000      -0.681461       -18.5435
  52   2.0000      -0.666545       -18.1376
  53   2.0000      -0.648356       -17.6427
  54   2.0000      -0.633738       -17.2449
  55   2.0000      -0.594743       -16.1838
  56   2.0000      -0.580775       -15.8037
  57   2.0000      -0.573712       -15.6115
  58   2.0000      -0.568072       -15.4580
  59   2.0000      -0.560897       -15.2628
  60   2.0000      -0.506456       -13.7814
  61   2.0000      -0.487960       -13.2781
  62   2.0000      -0.478085       -13.0094
  63   2.0000      -0.468575       -12.7506
  64   2.0000      -0.455770       -12.4021
  65   2.0000      -0.441889       -12.0244
  66   2.0000      -0.433903       -11.8071
  67   2.0000      -0.431245       -11.7348
  68   2.0000      -0.429927       -11.6989
  69   2.0000      -0.412256       -11.2181
  70   2.0000      -0.406039       -11.0489
  71   2.0000      -0.390184       -10.6174
  72   2.0000      -0.388069       -10.5599
  73   2.0000      -0.381160       -10.3719
  74   2.0000      -0.379385       -10.3236
  75   2.0000      -0.371424       -10.1070
  76   2.0000      -0.366444        -9.9715
  77   2.0000      -0.358010        -9.7420
  78   2.0000      -0.353841        -9.6285
  79   2.0000      -0.349677        -9.5152
  80   2.0000      -0.348050        -9.4709
  81   2.0000      -0.343283        -9.3412
  82   2.0000      -0.339986        -9.2515
  83   2.0000      -0.335844        -9.1388
  84   2.0000      -0.326435        -8.8827
  85   2.0000      -0.313215        -8.5230
  86   2.0000      -0.310255        -8.4425
  87   2.0000      -0.299585        -8.1521
  88   2.0000      -0.291272        -7.9259
  89   2.0000      -0.289685        -7.8827
  90   2.0000      -0.278614        -7.5815
  91   2.0000      -0.271689        -7.3930
  92   2.0000      -0.265022        -7.2116
  93   2.0000      -0.256268        -6.9734
  94   2.0000      -0.255740        -6.9591
  95   2.0000      -0.244306        -6.6479
  96   2.0000      -0.221608        -6.0303
  97   2.0000      -0.208435        -5.6718
  98   2.0000      -0.186687        -5.0800
  99   2.0000      -0.181438        -4.9372
 100   2.0000      -0.180600        -4.9144
 101   0.0000      -0.049357        -1.3431
 102   0.0000      -0.028131        -0.7655
 103   0.0000      -0.011656        -0.3172
 104   0.0000       0.008430         0.2294
 105   0.0000       0.019139         0.5208

MULLIKEN ATOMIC CHARGES
-----------------------
   0 C :   -0.274846
   1 C :   -0.021928
   2 O :   -0.387779
   3 P :    0.607573
   4 S :   -0.285286
   5 O :   -0.363538
   6 C :   -0.008961
   7 C :   -0.293860
   8 S :   -0.122098
   9 C :   -0.318378
  10 S :   -0.084880
  11 P :    0.620731
  12 S :   -0.335618
  13 O :   -0.369630
  14 C :   -0.002245
  15 C :   -0.338813
  16 O :   -0.371905
  17 C :   -0.000812
  18 C :   -0.304210
  19 H :    0.109498
  20 H :    0.111761
  21 H :    0.116900
  22 H :    0.109098
  23 H :    0.121965
  24 H :    0.107613
  25 H :    0.111032
  26 H :    0.110702
  27 H :    0.120274
  28 H :    0.117438
  29 H :    0.182980
  30 H :    0.185413
  31 H :    0.108783
  32 H :    0.102157
  33 H :    0.152445
  34 H :    0.112339
  35 H :    0.118746
  36 H :    0.108536
  37 H :    0.099932
  38 H :    0.122714
  39 H :    0.109487
  40 H :    0.116670
Sum of atomic charges:    0.0000000

LOEWDIN ATOMIC CHARGES
----------------------
   0 C :   -0.351918
   1 C :   -0.119424
   2 O :   -0.248754
   3 P :    0.564168
   4 S :   -0.293143
   5 O :   -0.243500
   6 C :   -0.113711
   7 C :   -0.360356
   8 S :    0.072848
   9 C :   -0.470198
  10 S :    0.088542
  11 P :    0.570745
  12 S :   -0.318348
  13 O :   -0.243835
  14 C :   -0.122048
  15 C :   -0.373551
  16 O :   -0.243956
  17 C :   -0.118558
  18 C :   -0.364362
  19 H :    0.123293
  20 H :    0.130970
  21 H :    0.127532
  22 H :    0.110094
  23 H :    0.110501
  24 H :    0.109611
  25 H :    0.121646
  26 H :    0.130406
  27 H :    0.128273
  28 H :    0.118896
  29 H :    0.131820
  30 H :    0.135038
  31 H :    0.108287
  32 H :    0.117135
  33 H :    0.126783
  34 H :    0.131335
  35 H :    0.123776
  36 H :    0.108806
  37 H :    0.116286
  38 H :    0.123185
  39 H :    0.129093
  40 H :    0.126593

  Mayer bond orders larger than 0.100000
B(  0-C ,  1-C ) :   1.1533 B(  0-C , 19-H ) :   0.9507 B(  0-C , 20-H ) :   0.9422
B(  0-C , 21-H ) :   0.9496 B(  1-C ,  2-O ) :   0.8954 B(  1-C , 22-H ) :   0.9304
B(  1-C , 23-H ) :   0.9080 B(  2-O ,  3-P ) :   1.0988 B(  3-P ,  4-S ) :   1.6907
B(  3-P ,  5-O ) :   1.1209 B(  3-P ,  8-S ) :   0.9124 B(  4-S ,  8-S ) :   0.1156
B(  5-O ,  6-C ) :   0.8936 B(  6-C ,  7-C ) :   1.1642 B(  6-C , 24-H ) :   0.9172
B(  6-C , 25-H ) :   0.9344 B(  7-C , 26-H ) :   0.9401 B(  7-C , 27-H ) :   0.9458
B(  7-C , 28-H ) :   0.9374 B(  8-S ,  9-C ) :   1.0088 B(  9-C , 10-S ) :   0.9816
B(  9-C , 29-H ) :   0.9005 B(  9-C , 30-H ) :   0.9092 B( 10-S , 11-P ) :   0.9861
B( 10-S , 12-S ) :   0.1171 B( 11-P , 12-S ) :   1.5685 B( 11-P , 13-O ) :   1.1079
B( 11-P , 16-O ) :   1.1153 B( 13-O , 14-C ) :   0.9086 B( 14-C , 15-C ) :   1.1651
B( 14-C , 31-H ) :   0.9126 B( 14-C , 32-H ) :   0.9326 B( 15-C , 33-H ) :   0.9270
B( 15-C , 34-H ) :   0.9377 B( 15-C , 35-H ) :   0.9433 B( 16-O , 17-C ) :   0.9040
B( 17-C , 18-C ) :   1.1664 B( 17-C , 36-H ) :   0.9139 B( 17-C , 37-H ) :   0.9347
B( 18-C , 38-H ) :   0.9358 B( 18-C , 39-H ) :   0.9396 B( 18-C , 40-H ) :   0.9461

Dispersion correction           -0.067724550
FINAL SINGLE POINT ENERGY     -2929.511120279032

DIPOLE MOMENT
-------------

Method             : SCF
Type of density    : Electron Density
Multiplicity       :   1
Irrep              :   0
Energy             : -2929.6270051436899848 Eh
Relativity type    :
Basis              : AO
                                X                 Y                 Z
Electronic contribution:     -1.431013984       3.736613509       8.158905445
Nuclear contribution   :      1.482023399      -5.001799564      -8.453185549
                        -----------------------------------------
Total Dipole Moment    :      0.051009415      -1.265186054      -0.294280104
                        -----------------------------------------
Magnitude (a.u.)       :      1.299960958
Magnitude (Debye)      :      3.304238163

Rotational constants in cm-1:             0.011267             0.005506             0.005282
Rotational constants in MHz :           337.786286           165.080245           158.359422

                             ****ORCA TERMINATED NORMALLY****
TOTAL RUN TIME: 0 days 0 hours 0 minutes 21 seconds 123 msec
