                         Program Version 6.0.0  -   RELEASE  -
|  1> ! wb97x-v def2-tzvp def2/J RIJCOSX DEFGRID2 scfconv7 GCP(DFT/TZ) printgap
|  2> %output
|  3>     printlevel normal
|  4> end
|  5> * xyz 0 1
|  6> C 0.627765891348907 1.715543676190615 -0.04383814462628528
|  7> C 1.3987598625631734 0.42225259687876776 -0.2731589587333456
|  8> H 1.6269646825727722 0.3082050288952242 -1.3393676930658667
|  9> C 0.5658445292451574 -0.7703678511648369 0.18746527797578771
| 10> H 0.42752107335950007 -0.7023414185452711 1.280052674476216
| 11> C -0.7956257058770726 -0.7417849726934425 -0.49796914696351874
| 12> H -0.6488268508513999 -0.8802676110916383 -1.5748520056668944
| 13> C -1.48246484300533 0.6139181763826761 -0.2953351827032117
| 14> H -2.3726218760996898 0.6844346153922048 -0.930001759684504
| 15> O -0.6413873162558965 1.678406157222655 -0.7243409562539367
| 16> O -1.8340917068739213 0.7220436227059771 1.0713909088982654
| 17> O -1.6413643909874174 -1.811019111475963 -0.07511324965029048
| 18> O 1.1978784582283728 -2.0106495747751585 -0.14748996770649764
| 19> O 2.665424754748238 0.4590191799674929 0.3972930314484053
| 20> H 1.1710123443180676 2.565641638614959 -0.46213710998754415
| 21> H 0.48385792667893934 1.881516722065235 1.0332796438292535
| 22> H -2.5133833755655957 1.4051478514035909 1.1520698967740313
| 23> H -1.8375343282990517 -1.668109831886889 0.8621688939909559
| 24> H 2.0814149349407653 -1.9897860423007223 0.24552951865640302
| 25> H 2.4921932982090267 0.556631617482162 1.3456288557693
| 26> *
| 27>
| 28>                          ****END OF INPUT****

CARTESIAN COORDINATES (ANGSTROEM)
---------------------------------
  C      0.627766    1.715544   -0.043838
  C      1.398760    0.422253   -0.273159
  H      1.626965    0.308205   -1.339368
  C      0.565845   -0.770368    0.187465
  H      0.427521   -0.702341    1.280053
  C     -0.795626   -0.741785   -0.497969
  H     -0.648827   -0.880268   -1.574852
  C     -1.482465    0.613918   -0.295335
  H     -2.372622    0.684435   -0.930002
  O     -0.641387    1.678406   -0.724341
  O     -1.834092    0.722044    1.071391
  O     -1.641364   -1.811019   -0.075113
  O      1.197878   -2.010650   -0.147490
  O      2.665425    0.459019    0.397293
  H      1.171012    2.565642   -0.462137
  H      0.483858    1.881517    1.033280
  H     -2.513383    1.405148    1.152070
  H     -1.837534   -1.668110    0.862169
  H      2.081415   -1.989786    0.245530
  H      2.492193    0.556632    1.345629

 Total Charge           Charge          ....    0
 Multiplicity           Mult            ....    1
 Number of Electrons    NEL             ....   80
 Basis Dimension        Dim             ....  370

ORBITAL ENERGIES
----------------

  NO   OCC          E(Eh)            E(eV)
   0   2.0000     -21.703087      -590.5710
   1   2.0000     -21.695392      -590.3616
   2   2.0000     -21.693593      -590.3127
   3   2.0000     -21.674087      -589.7819
   4   2.0000     -21.673272      -589.7597
   5   2.0000     -12.160166      -330.8949
   6   2.0000     -12.109822      -329.5250
   7   2.0000     -12.107809      -329.4702
   8   2.0000     -12.106545      -329.4359
   9   2.0000     -12.105738      -329.4139
  10   2.0000      -1.728760       -47.0419
  11   2.0000      -1.695717       -46.1428
  12   2.0000      -1.685518       -45.8653
  13   2.0000      -1.679647       -45.7055
  14   2.0000      -1.672001       -45.4975
  15   2.0000      -1.333211       -36.2785
  16   2.0000      -1.309915       -35.6446
  17   2.0000      -1.203312       -32.7438
  18   2.0000      -1.192881       -32.4599
  19   2.0000      -1.140089       -31.0234
  20   2.0000      -1.091835       -29.7104
  21   2.0000      -1.066581       -29.0231
  22   2.0000      -1.045952       -28.4618
  23   2.0000      -1.027836       -27.9688
  24   2.0000      -1.014466       -27.6050
  25   2.0000      -1.001984       -27.2654
  26   2.0000      -0.987177       -26.8625
  27   2.0000      -0.976834       -26.5810
  28   2.0000      -0.962999       -26.2045
  29   2.0000      -0.955173       -25.9916
  30   2.0000      -0.940099       -25.5814
  31   2.0000      -0.924733       -25.1633
  32   2.0000      -0.919739       -25.0274
  33   2.0000      -0.901800       -24.5392
  34   2.0000      -0.883107       -24.0306
  35   2.0000      -0.860916       -23.4267
  36   2.0000      -0.832104       -22.6427
  37   2.0000      -0.817713       -22.2511
  38   2.0000      -0.807981       -21.9863
  39   2.0000      -0.782004       -21.2794
  40   0.0000      -0.240557        -6.5459
  41   0.0000      -0.178325        -4.8525
  42   0.0000      -0.170501        -4.6396
  43   0.0000      -0.155304        -4.2260
  44   0.0000      -0.123922        -3.3721

MULLIKEN ATOMIC CHARGES
-----------------------
   0 C :   -0.024352
   1 C :   -0.006271
   2 H :    0.101338
   3 C :    0.024857
   4 H :    0.076936
   5 C :    0.095480
   6 H :    0.098438
   7 C :    0.094928
   8 H :    0.106878
   9 O :   -0.286904
  10 O :   -0.443689
  11 O :   -0.429653
  12 O :   -0.413502
  13 O :   -0.439090
  14 H :    0.128232
  15 H :    0.086350
  16 H :    0.317076
  17 H :    0.305968
  18 H :    0.305724
  19 H :    0.301256
Sum of atomic charges:   -0.0000000

LOEWDIN ATOMIC CHARGES
----------------------
   0 C :   -0.280571
   1 C :   -0.331564
   2 H :    0.151120
   3 C :   -0.324102
   4 H :    0.136518
   5 C :   -0.304254
   6 H :    0.156941
   7 C :   -0.411132
   8 H :    0.133044
   9 O :    0.163324
  10 O :   -0.006912
  11 O :   -0.003233
  12 O :   -0.007925
  13 O :   -0.018878
  14 H :    0.132150
  15 H :    0.120789
  16 H :    0.179355
  17 H :    0.172615
  18 H :    0.171595
  19 H :    0.171120

  Mayer bond orders larger than 0.100000
B(  0-C ,  1-C ) :   0.9760 B(  0-C ,  9-O ) :   0.9744 B(  0-C , 14-H ) :   0.9679
B(  0-C , 15-H ) :   0.9602 B(  1-C ,  2-H ) :   0.9457 B(  1-C ,  3-C ) :   0.9889
B(  1-C , 13-O ) :   0.9836 B(  3-C ,  4-H ) :   0.9440 B(  3-C ,  5-C ) :   0.9808
B(  3-C , 12-O ) :   1.1054 B(  5-C ,  6-H ) :   0.9461 B(  5-C ,  7-C ) :   0.9626
B(  5-C , 11-O ) :   1.0299 B(  7-C ,  8-H ) :   0.9613 B(  7-C ,  9-O ) :   1.0555
B(  7-C , 10-O ) :   1.1766 B( 10-O , 16-H ) :   0.8912 B( 11-O , 17-H ) :   0.8853
B( 12-O , 18-H ) :   0.8892 B( 13-O , 19-H ) :   0.8925

FINAL SINGLE POINT ENERGY      -572.703368287525

DIPOLE MOMENT
-------------

Method             : SCF
Type of density    : Electron Density
Multiplicity       :   1
Irrep              :   0
Energy             :  -572.7189712710253389 Eh
Relativity type    :
Basis              : AO
                                X                 Y                 Z
Electronic contribution:     -1.039887359      -0.882052445      -0.639919753
Nuclear contribution   :      0.810474905       1.907897030       1.590417015
                        -----------------------------------------
Total Dipole Moment    :     -0.229412454       1.025844585       0.950497262
                        -----------------------------------------
Magnitude (a.u.)       :      1.417191671
Magnitude (Debye)      :      3.602214954

Rotational constants in cm-1:             0.056572             0.043861             0.028669
Rotational constants in MHz :          1695.987697          1314.911277           859.484303

                             ****ORCA TERMINATED NORMALLY****
TOTAL RUN TIME: 0 days 0 hours 3 minutes 44 seconds 704 msec
