                         Program Version 6.0.0  -   RELEASE  -
|  1> ! wb97x-v def2-tzvp def2/J RIJCOSX DEFGRID2 scfconv7 GCP(DFT/TZ) printgap
|  2> %output
|  3>     printlevel normal
|  4> end
|  5> %cpcm
|  6>     smd true
|  7>     smdsolvent "water"
|  8> end
|  9> * xyz 0 1
| 10> C 0.627765891348907 1.715543676190615 -0.04383814462628528
| 11> C 1.3987598625631734 0.42225259687876776 -0.2731589587333456
| 12> H 1.6269646825727722 0.3082050288952242 -1.3393676930658667
| 13> C 0.5658445292451574 -0.7703678511648369 0.18746527797578771
| 14> H 0.42752107335950007 -0.7023414185452711 1.280052674476216
| 15> C -0.7956257058770726 -0.7417849726934425 -0.49796914696351874
| 16> H -0.6488268508513999 -0.8802676110916383 -1.5748520056668944
| 17> C -1.48246484300533 0.6139181763826761 -0.2953351827032117
| 18> H -2.3726218760996898 0.6844346153922048 -0.930001759684504
| 19> O -0.6413873162558965 1.678406157222655 -0.7243409562539367
| 20> O -1.8340917068739213 0.7220436227059771 1.0713909088982654
| 21> O -1.6413643909874174 -1.811019111475963 -0.07511324965029048
| 22> O 1.1978784582283728 -2.0106495747751585 -0.14748996770649764
| 23> O 2.665424754748238 0.4590191799674929 0.3972930314484053
| 24> H 1.1710123443180676 2.565641638614959 -0.46213710998754415
| 25> H 0.48385792667893934 1.881516722065235 1.0332796438292535
| 26> H -2.5133833755655957 1.4051478514035909 1.1520698967740313
| 27> H -1.8375343282990517 -1.668109831886889 0.8621688939909559
| 28> H 2.0814149349407653 -1.9897860423007223 0.24552951865640302
| 29> H 2.4921932982090267 0.556631617482162 1.3456288557693
| 30> *
| 31>
| 32>                          ****END OF INPUT****

CARTESIAN COORDINATES (ANGSTROEM)
---------------------------------
  C      0.627766    1.715544   -0.043838
  C      1.398760    0.422253   -0.273159
  H      1.626965    0.308205   -1.339368
  C      0.565845   -0.770368    0.187465
  H      0.427521   -0.702341    1.280053
  C     -0.795626   -0.741785   -0.497969
  H     -0.648827   -0.880268   -1.574852
  C     -1.482465    0.613918   -0.295335
  H     -2.372622    0.684435   -0.930002
  O     -0.641387    1.678406   -0.724341
  O     -1.834092    0.722044    1.071391
  O     -1.641364   -1.811019   -0.075113
  O      1.197878   -2.010650   -0.147490
  O      2.665425    0.459019    0.397293
  H      1.171012    2.565642   -0.462137
  H      0.483858    1.881517    1.033280
  H     -2.513383    1.405148    1.152070
  H     -1.837534   -1.668110    0.862169
  H      2.081415   -1.989786    0.245530
  H      2.492193    0.556632    1.345629

 Total Charge           Charge          ....    0
 Multiplicity           Mult            ....    1
 Number of Electrons    NEL             ....   80
 Basis Dimension        Dim             ....  370

ORBITAL ENERGIES
----------------

  NO   OCC          E(Eh)            E(eV)
   0   2.0000     -21.691926      -590.2673
   1   2.0000     -21.688626      -590.1775
   2   2.0000     -21.683691      -590.0432
   3   2.0000     -21.681750      -589.9904
   4   2.0000     -21.679022      -589.9162
   5   2.0000     -12.150432      -330.6301
   6   2.0000     -12.103572      -329.3549
   7   2.0000     -12.100535      -329.2723
   8   2.0000     -12.099222      -329.2366
   9   2.0000     -12.092515      -329.0541
  10   2.0000      -1.719517       -46.7904
  11   2.0000      -1.688702       -45.9519
  12   2.0000      -1.685423       -45.8627
  13   2.0000      -1.677123       -45.6368
  14   2.0000      -1.676522       -45.6205
  15   2.0000      -1.327069       -36.1114
  16   2.0000      -1.301231       -35.4083
  17   2.0000      -1.196674       -32.5631
  18   2.0000      -1.187598       -32.3162
  19   2.0000      -1.135435       -30.8968
  20   2.0000      -1.083053       -29.4714
  21   2.0000      -1.064274       -28.9604
  22   2.0000      -1.046341       -28.4724
  23   2.0000      -1.020252       -27.7625
  24   2.0000      -1.009433       -27.4681
  25   2.0000      -0.998868       -27.1806
  26   2.0000      -0.986816       -26.8526
  27   2.0000      -0.972748       -26.4698
  28   2.0000      -0.962271       -26.1847
  29   2.0000      -0.957458       -26.0538
  30   2.0000      -0.938354       -25.5339
  31   2.0000      -0.924128       -25.1468
  32   2.0000      -0.914842       -24.8941
  33   2.0000      -0.902545       -24.5595
  34   2.0000      -0.877111       -23.8674
  35   2.0000      -0.853195       -23.2166
  36   2.0000      -0.827104       -22.5067
  37   2.0000      -0.810498       -22.0548
  38   2.0000      -0.800588       -21.7851
  39   2.0000      -0.772583       -21.0231
  40   0.0000      -0.233846        -6.3633
  41   0.0000      -0.171717        -4.6727
  42   0.0000      -0.161017        -4.3815
  43   0.0000      -0.149263        -4.0616
  44   0.0000      -0.114482        -3.1152

MULLIKEN ATOMIC CHARGES
-----------------------
   0 C :   -0.070875
   1 C :    0.051779
   2 H :    0.116562
   3 C :    0.017691
   4 H :    0.122128
   5 C :    0.130927
   6 H :    0.125329
   7 C :    0.112605
   8 H :    0.136834
   9 O :   -0.355430
  10 O :   -0.509524
  11 O :   -0.534983
  12 O :   -0.528032
  13 O :   -0.536135
  14 H :    0.147360
  15 H :    0.124249
  16 H :    0.371212
  17 H :    0.357173
  18 H :    0.357740
  19 H :    0.363389
Sum of atomic charges:   -0.0000000

LOEWDIN ATOMIC CHARGES
----------------------
   0 C :   -0.275987
   1 C :   -0.326976
   2 H :    0.154064
   3 C :   -0.315282
   4 H :    0.151080
   5 C :   -0.307409
   6 H :    0.161207
   7 C :   -0.403069
   8 H :    0.142746
   9 O :    0.138394
  10 O :   -0.020372
  11 O :   -0.044189
  12 O :   -0.050631
  13 O :   -0.048600
  14 H :    0.136798
  15 H :    0.130979
  16 H :    0.200434
  17 H :    0.190163
  18 H :    0.189763
  19 H :    0.196888

  Mayer bond orders larger than 0.100000
B(  0-C ,  1-C ) :   0.9679 B(  0-C ,  9-O ) :   0.9444 B(  0-C , 14-H ) :   0.9591
B(  0-C , 15-H ) :   0.9715 B(  1-C ,  2-H ) :   0.9437 B(  1-C ,  3-C ) :   0.9884
B(  1-C , 13-O ) :   0.9726 B(  3-C ,  4-H ) :   0.9613 B(  3-C ,  5-C ) :   0.9732
B(  3-C , 12-O ) :   1.0364 B(  5-C ,  6-H ) :   0.9387 B(  5-C ,  7-C ) :   0.9643
B(  5-C , 11-O ) :   0.9854 B(  7-C ,  8-H ) :   0.9623 B(  7-C ,  9-O ) :   1.0238
B(  7-C , 10-O ) :   1.1567 B( 10-O , 16-H ) :   0.8550 B( 11-O , 17-H ) :   0.8557
B( 12-O , 18-H ) :   0.8599 B( 13-O , 19-H ) :   0.8582

FINAL SINGLE POINT ENERGY      -572.737579061268

DIPOLE MOMENT
-------------

Method             : SCF
Type of density    : Electron Density
Multiplicity       :   1
Irrep              :   0
Energy             :  -572.7531820447678683 Eh
Relativity type    :
Basis              : AO
                                X                 Y                 Z
Electronic contribution:     -1.079252444      -0.489673324      -0.214169209
Nuclear contribution   :      0.810474905       1.907897030       1.590417015
                        -----------------------------------------
Total Dipole Moment    :     -0.268777539       1.418223705       1.376247805
                        -----------------------------------------
Magnitude (a.u.)       :      1.994406645
Magnitude (Debye)      :      5.069378821

Rotational constants in cm-1:             0.056572             0.043861             0.028669
Rotational constants in MHz :          1695.987697          1314.911277           859.484303

                             ****ORCA TERMINATED NORMALLY****
TOTAL RUN TIME: 0 days 0 hours 4 minutes 11 seconds 833 msec
