                         Program Version 6.0.0  -   RELEASE  -
|  1> ! pbe def2-sv(p) def2/J RI DEFGRID1 loosescf d4 GCP(DFT/SV(P)) printgap
|  2> %output
|  3>     printlevel normal
|  4> end
|  5> * xyz 0 1
|  6> C 2.6587170218 7.07918e-05 0.3928585343
|  7> N 1.3481043711 2.52897e-05 -0.2201379383
|  8> C 0.5903830799 1.190740303 0.127705321
|  9> C -0.7525877027 1.1825861075 -0.611901029
| 10> N -1.5529217135 1.2003e-05 -0.3496739279
| 11> C -0.7526952101 -1.1826865612 -0.6117335168
| 12> C 0.5905218459 -1.1908447456 0.1274937084
| 13> C -2.2004566502 0.0001165843 0.94691461
| 14> H 3.2016254562 -0.885800347 0.0683204643
| 15> H 2.612351618 0.0004986084 1.4947696082
| 16> H 3.2018329463 0.8855369103 0.0676942513
| 17> H 0.4225032598 1.2558282423 1.2200181386
| 18> H 1.1660395398 2.0674085244 -0.1767618072
| 19> H -1.3301719378 2.068466134 -0.3431070414
| 20> H -0.5533757453 1.2036914303 -1.6865948377
| 21> H -1.3302265206 -2.0684351112 -0.342400988
| 22> H -0.553873411 -1.2042509019 -1.6865010082
| 23> H 0.4229592444 -1.2563488947 1.2198277506
| 24> H 1.1661798682 -2.0673405447 -0.1774578104
| 25> H -2.8324394661 -0.8839791143 1.0166813958
| 26> H -2.8321755565 0.884399484 1.0166774571
| 27> H -1.5103574342 1.6113e-05 1.8022837955
| 28> *
| 29>
| 30>                          ****END OF INPUT****

CARTESIAN COORDINATES (ANGSTROEM)
---------------------------------
  C      2.658717    0.000071    0.392859
  N      1.348104    0.000025   -0.220138
  C      0.590383    1.190740    0.127705
  C     -0.752588    1.182586   -0.611901
  N     -1.552922    0.000012   -0.349674
  C     -0.752695   -1.182687   -0.611734
  C      0.590522   -1.190845    0.127494
  C     -2.200457    0.000117    0.946915
  H      3.201625   -0.885800    0.068320
  H      2.612352    0.000499    1.494770
  H      3.201833    0.885537    0.067694
  H      0.422503    1.255828    1.220018
  H      1.166040    2.067409   -0.176762
  H     -1.330172    2.068466   -0.343107
  H     -0.553376    1.203691   -1.686595
  H     -1.330227   -2.068435   -0.342401
  H     -0.553873   -1.204251   -1.686501
  H      0.422959   -1.256349    1.219828
  H      1.166180   -2.067341   -0.177458
  H     -2.832439   -0.883979    1.016681
  H     -2.832176    0.884399    1.016677
  H     -1.510357    0.000016    1.802284

 Total Charge           Charge          ....    0
 Multiplicity           Mult            ....    1
 Number of Electrons    NEL             ....   64
 Basis Dimension        Dim             ....  140

ORBITAL ENERGIES
----------------

  NO   OCC          E(Eh)            E(eV)
   0   2.0000     -13.981715      -380.4618
   1   2.0000     -13.976528      -380.3207
   2   2.0000      -9.904504      -269.5153
   3   2.0000      -9.904493      -269.5150
   4   2.0000      -9.903613      -269.4910
   5   2.0000      -9.903604      -269.4908
   6   2.0000      -9.899066      -269.3673
   7   2.0000      -9.898223      -269.3443
   8   2.0000      -0.858374       -23.3575
   9   2.0000      -0.815881       -22.2013
  10   2.0000      -0.681372       -18.5411
  11   2.0000      -0.657440       -17.8898
  12   2.0000      -0.609247       -16.5785
  13   2.0000      -0.574207       -15.6250
  14   2.0000      -0.546955       -14.8834
  15   2.0000      -0.487179       -13.2568
  16   2.0000      -0.444221       -12.0879
  17   2.0000      -0.420190       -11.4340
  18   2.0000      -0.415572       -11.3083
  19   2.0000      -0.409419       -11.1409
  20   2.0000      -0.398134       -10.8338
  21   2.0000      -0.387104       -10.5336
  22   2.0000      -0.349370        -9.5069
  23   2.0000      -0.345560        -9.4032
  24   2.0000      -0.340893        -9.2762
  25   2.0000      -0.319391        -8.6911
  26   2.0000      -0.319245        -8.6871
  27   2.0000      -0.303268        -8.2523
  28   2.0000      -0.301608        -8.2072
  29   2.0000      -0.290080        -7.8935
  30   2.0000      -0.180820        -4.9204
  31   2.0000      -0.155422        -4.2292
  32   0.0000       0.030916         0.8413
  33   0.0000       0.054572         1.4850
  34   0.0000       0.064540         1.7562
  35   0.0000       0.068554         1.8654
  36   0.0000       0.090186         2.4541

MULLIKEN ATOMIC CHARGES
-----------------------
   0 C :   -0.140860
   1 N :   -0.311326
   2 C :   -0.080952
   3 C :   -0.030530
   4 N :   -0.286796
   5 C :   -0.030583
   6 C :   -0.080915
   7 C :   -0.179537
   8 H :    0.100652
   9 H :    0.064965
  10 H :    0.100654
  11 H :    0.054554
  12 H :    0.082123
  13 H :    0.080145
  14 H :    0.077827
  15 H :    0.080139
  16 H :    0.077843
  17 H :    0.054532
  18 H :    0.082130
  19 H :    0.100326
  20 H :    0.100320
  21 H :    0.085288
Sum of atomic charges:    0.0000000

LOEWDIN ATOMIC CHARGES
----------------------
   0 C :   -0.257115
   1 N :   -0.149133
   2 C :   -0.173919
   3 C :   -0.162883
   4 N :   -0.146032
   5 C :   -0.162879
   6 C :   -0.173921
   7 C :   -0.261326
   8 H :    0.112818
   9 H :    0.087629
  10 H :    0.112818
  11 H :    0.088421
  12 H :    0.114175
  13 H :    0.112865
  14 H :    0.114238
  15 H :    0.112872
  16 H :    0.114235
  17 H :    0.088412
  18 H :    0.114179
  19 H :    0.113841
  20 H :    0.113840
  21 H :    0.086863

  Mayer bond orders larger than 0.100000
B(  0-C ,  1-N ) :   1.0449 B(  0-C ,  8-H ) :   0.9550 B(  0-C ,  9-H ) :   0.9236
B(  0-C , 10-H ) :   0.9550 B(  1-N ,  2-C ) :   1.0223 B(  1-N ,  6-C ) :   1.0224
B(  2-C ,  3-C ) :   1.1150 B(  2-C , 11-H ) :   0.8820 B(  2-C , 12-H ) :   0.9174
B(  3-C ,  4-N ) :   1.0730 B(  3-C , 13-H ) :   0.9219 B(  3-C , 14-H ) :   0.9070
B(  4-N ,  5-C ) :   1.0730 B(  4-N ,  7-C ) :   1.0449 B(  5-C ,  6-C ) :   1.1150
B(  5-C , 15-H ) :   0.9219 B(  5-C , 16-H ) :   0.9070 B(  6-C , 17-H ) :   0.8820
B(  6-C , 18-H ) :   0.9174 B(  7-C , 19-H ) :   0.9545 B(  7-C , 20-H ) :   0.9545
B(  7-C , 21-H ) :   0.9224

Dispersion correction           -0.020760753
FINAL SINGLE POINT ENERGY      -345.712250433646

DIPOLE MOMENT
-------------

Method             : SCF
Type of density    : Electron Density
Multiplicity       :   1
Irrep              :   0
Energy             :  -345.7955876329767761 Eh
Relativity type    :
Basis              : AO
                                X                 Y                 Z
Electronic contribution:     -1.000506592       0.000255395      -2.931862277
Nuclear contribution   :      1.172403296      -0.000290127       3.274313515
                        -----------------------------------------
Total Dipole Moment    :      0.171896703      -0.000034733       0.342451239
                        -----------------------------------------
Magnitude (a.u.)       :      0.383172714
Magnitude (Debye)      :      0.973947638

Rotational constants in cm-1:             0.124710             0.052906             0.045342
Rotational constants in MHz :          3738.707590          1586.083006          1359.332450

                             ****ORCA TERMINATED NORMALLY****
TOTAL RUN TIME: 0 days 0 hours 0 minutes 11 seconds 749 msec
