                         Program Version 6.0.0  -   RELEASE  -
|  1> ! pbe def2-sv(p) def2/J RI DEFGRID1 loosescf d4 GCP(DFT/SV(P)) printgap
|  2> %output
|  3>     printlevel normal
|  4> end
|  5> * xyz 0 1
|  6> C 3.9021377827 -1.6816498597 -2.0545590272
|  7> C 4.1791274964 -0.1996323361 -1.8963054082
|  8> O 3.6590898299 0.3285167504 -0.6679448238
|  9> P 2.1012932903 0.4736247474 -0.3538232179
| 10> S 1.068378728 1.047581132 -1.9163080478
| 11> O 2.1347335838 1.5468046988 0.7919042977
| 12> C 2.4068418894 1.3138754816 2.1934406959
| 13> C 3.7185812101 0.5960934443 2.4209795126
| 14> S 1.536864135 -1.385806217 0.5247978057
| 15> C 0.3014753553 -1.9564004483 -0.6796177493
| 16> S -1.3609503788 -2.1883960741 0.0144456786
| 17> P -2.0316922689 -0.2028800639 0.165607546
| 18> S -0.9832831233 1.0810440743 1.2266895722
| 19> O -3.5094761484 -0.4071218572 0.7069745762
| 20> C -3.7953412112 -0.6178554398 2.1041414818
| 21> C -5.2443558187 -0.2463203579 2.3467829896
| 22> O -2.2651391177 0.1450279757 -1.3570132162
| 23> C -2.448041836 1.4939867788 -1.8296528538
| 24> C -3.7346655242 2.1005638835 -1.31420065
| 25> H 2.8384019172 -1.8466347463 -2.2173930673
| 26> H 4.4493010882 -2.0565537341 -2.9135601178
| 27> H 4.2138308541 -2.2218510323 -1.1644269107
| 28> H 3.7449301449 0.3645427352 -2.7282959406
| 29> H 5.2491384317 0.003355445 -1.8319249031
| 30> H 2.4136287975 2.3212208441 2.612239086
| 31> H 1.5650163321 0.7550692972 2.6118009016
| 32> H 3.9039336651 0.5295661484 3.4884794612
| 33> H 3.6735349764 -0.4097884898 2.0061853848
| 34> H 4.5305772905 1.1391718247 1.9445137876
| 35> H 0.6032376753 -2.9420877824 -1.0240260751
| 36> H 0.2513520421 -1.2367548335 -1.5020250593
| 37> H -3.6098919258 -1.6706127961 2.3321076795
| 38> H -3.1152578796 0.0036066502 2.6968981974
| 39> H -5.8899085998 -0.8438488458 1.7098891736
| 40> H -5.4896569092 -0.4341793696 3.3868288023
| 41> H -5.4058605708 0.8048816102 2.1249295649
| 42> H -1.5814422011 2.0901562161 -1.5252210066
| 43> H -2.4463019292 1.389013736 -2.915358453
| 44> H -3.8832146192 3.0720246281 -1.7752011652
| 45> H -4.5742299531 1.4517918974 -1.5494044967
| 46> H -3.6758043637 2.2260387012 -0.2335381799
| 47> *
| 48>
| 49>                          ****END OF INPUT****

CARTESIAN COORDINATES (ANGSTROEM)
---------------------------------
  C      3.902138   -1.681650   -2.054559
  C      4.179127   -0.199632   -1.896305
  O      3.659090    0.328517   -0.667945
  P      2.101293    0.473625   -0.353823
  S      1.068379    1.047581   -1.916308
  O      2.134734    1.546805    0.791904
  C      2.406842    1.313875    2.193441
  C      3.718581    0.596093    2.420980
  S      1.536864   -1.385806    0.524798
  C      0.301475   -1.956400   -0.679618
  S     -1.360950   -2.188396    0.014446
  P     -2.031692   -0.202880    0.165608
  S     -0.983283    1.081044    1.226690
  O     -3.509476   -0.407122    0.706975
  C     -3.795341   -0.617855    2.104141
  C     -5.244356   -0.246320    2.346783
  O     -2.265139    0.145028   -1.357013
  C     -2.448042    1.493987   -1.829653
  C     -3.734666    2.100564   -1.314201
  H      2.838402   -1.846635   -2.217393
  H      4.449301   -2.056554   -2.913560
  H      4.213831   -2.221851   -1.164427
  H      3.744930    0.364543   -2.728296
  H      5.249138    0.003355   -1.831925
  H      2.413629    2.321221    2.612239
  H      1.565016    0.755069    2.611801
  H      3.903934    0.529566    3.488479
  H      3.673535   -0.409788    2.006185
  H      4.530577    1.139172    1.944514
  H      0.603238   -2.942088   -1.024026
  H      0.251352   -1.236755   -1.502025
  H     -3.609892   -1.670613    2.332108
  H     -3.115258    0.003607    2.696898
  H     -5.889909   -0.843849    1.709889
  H     -5.489657   -0.434179    3.386829
  H     -5.405861    0.804882    2.124930
  H     -1.581442    2.090156   -1.525221
  H     -2.446302    1.389014   -2.915358
  H     -3.883215    3.072025   -1.775201
  H     -4.574230    1.451792   -1.549404
  H     -3.675804    2.226039   -0.233538

 Total Charge           Charge          ....    0
 Multiplicity           Mult            ....    1
 Number of Electrons    NEL             ....  202
 Basis Dimension        Dim             ....  334

ORBITAL ENERGIES
----------------

  NO   OCC          E(Eh)            E(eV)
   0   2.0000     -88.041012     -2395.7177
   1   2.0000     -88.039035     -2395.6639
   2   2.0000     -87.982698     -2394.1309
   3   2.0000     -87.979660     -2394.0482
   4   2.0000     -76.423640     -2079.5930
   5   2.0000     -76.420670     -2079.5122
   6   2.0000     -18.788252      -511.2543
   7   2.0000     -18.786802      -511.2149
   8   2.0000     -18.784152      -511.1428
   9   2.0000     -18.782694      -511.1031
  10   2.0000      -9.955651      -270.9070
  11   2.0000      -9.951264      -270.7877
  12   2.0000      -9.950530      -270.7677
  13   2.0000      -9.948712      -270.7182
  14   2.0000      -9.940698      -270.5002
  15   2.0000      -9.887031      -269.0398
  16   2.0000      -9.886349      -269.0212
  17   2.0000      -9.884671      -268.9756
  18   2.0000      -9.876825      -268.7621
  19   2.0000      -7.685666      -209.1376
  20   2.0000      -7.684898      -209.1167
  21   2.0000      -7.627675      -207.5596
  22   2.0000      -7.624230      -207.4658
  23   2.0000      -6.420695      -174.7160
  24   2.0000      -6.418392      -174.6533
  25   2.0000      -5.713581      -155.4745
  26   2.0000      -5.712712      -155.4508
  27   2.0000      -5.710210      -155.3827
  28   2.0000      -5.709372      -155.3599
  29   2.0000      -5.702632      -155.1765
  30   2.0000      -5.701833      -155.1548
  31   2.0000      -5.656529      -153.9220
  32   2.0000      -5.653011      -153.8262
  33   2.0000      -5.648613      -153.7066
  34   2.0000      -5.647489      -153.6760
  35   2.0000      -5.644844      -153.6040
  36   2.0000      -5.644589      -153.5971
  37   2.0000      -4.643294      -126.3505
  38   2.0000      -4.642455      -126.3276
  39   2.0000      -4.641226      -126.2942
  40   2.0000      -4.640857      -126.2841
  41   2.0000      -4.640217      -126.2667
  42   2.0000      -4.638858      -126.2297
  43   2.0000      -0.982220       -26.7276
  44   2.0000      -0.981539       -26.7090
  45   2.0000      -0.941417       -25.6173
  46   2.0000      -0.938746       -25.5446
  47   2.0000      -0.759494       -20.6669
  48   2.0000      -0.718315       -19.5463
  49   2.0000      -0.708347       -19.2751
  50   2.0000      -0.687398       -18.7050
  51   2.0000      -0.684727       -18.6324
  52   2.0000      -0.672826       -18.3085
  53   2.0000      -0.647528       -17.6201
  54   2.0000      -0.632432       -17.2093
  55   2.0000      -0.599179       -16.3045
  56   2.0000      -0.589980       -16.0542
  57   2.0000      -0.572257       -15.5719
  58   2.0000      -0.564550       -15.3622
  59   2.0000      -0.560617       -15.2552
  60   2.0000      -0.500896       -13.6301
  61   2.0000      -0.488805       -13.3011
  62   2.0000      -0.470974       -12.8158
  63   2.0000      -0.467021       -12.7083
  64   2.0000      -0.451403       -12.2833
  65   2.0000      -0.445707       -12.1283
  66   2.0000      -0.436971       -11.8906
  67   2.0000      -0.435123       -11.8403
  68   2.0000      -0.427033       -11.6202
  69   2.0000      -0.417877       -11.3710
  70   2.0000      -0.406333       -11.0569
  71   2.0000      -0.395852       -10.7717
  72   2.0000      -0.390408       -10.6235
  73   2.0000      -0.386351       -10.5131
  74   2.0000      -0.377124       -10.2621
  75   2.0000      -0.369971       -10.0674
  76   2.0000      -0.365776        -9.9533
  77   2.0000      -0.355477        -9.6730
  78   2.0000      -0.354802        -9.6546
  79   2.0000      -0.350981        -9.5507
  80   2.0000      -0.344698        -9.3797
  81   2.0000      -0.343100        -9.3362
  82   2.0000      -0.339513        -9.2386
  83   2.0000      -0.335636        -9.1331
  84   2.0000      -0.331062        -9.0086
  85   2.0000      -0.310783        -8.4568
  86   2.0000      -0.307607        -8.3704
  87   2.0000      -0.296746        -8.0749
  88   2.0000      -0.290249        -7.8981
  89   2.0000      -0.287191        -7.8149
  90   2.0000      -0.278509        -7.5786
  91   2.0000      -0.269989        -7.3468
  92   2.0000      -0.266254        -7.2451
  93   2.0000      -0.259682        -7.0663
  94   2.0000      -0.256754        -6.9866
  95   2.0000      -0.238971        -6.5027
  96   2.0000      -0.217448        -5.9170
  97   2.0000      -0.205416        -5.5897
  98   2.0000      -0.202170        -5.5013
  99   2.0000      -0.191798        -5.2191
 100   2.0000      -0.185298        -5.0422
 101   0.0000      -0.037927        -1.0320
 102   0.0000      -0.030307        -0.8247
 103   0.0000      -0.011050        -0.3007
 104   0.0000       0.004990         0.1358
 105   0.0000       0.022011         0.5989

MULLIKEN ATOMIC CHARGES
-----------------------
   0 C :   -0.319974
   1 C :    0.002853
   2 O :   -0.373237
   3 P :    0.606620
   4 S :   -0.311397
   5 O :   -0.352237
   6 C :   -0.007610
   7 C :   -0.315571
   8 S :   -0.106928
   9 C :   -0.358324
  10 S :   -0.089077
  11 P :    0.619636
  12 S :   -0.329213
  13 O :   -0.378187
  14 C :   -0.010252
  15 C :   -0.284104
  16 O :   -0.363629
  17 C :   -0.010737
  18 C :   -0.306800
  19 H :    0.121630
  20 H :    0.111647
  21 H :    0.118316
  22 H :    0.110312
  23 H :    0.102397
  24 H :    0.110637
  25 H :    0.125962
  26 H :    0.114833
  27 H :    0.126132
  28 H :    0.123555
  29 H :    0.185001
  30 H :    0.201683
  31 H :    0.102171
  32 H :    0.103973
  33 H :    0.117353
  34 H :    0.111175
  35 H :    0.121384
  36 H :    0.131319
  37 H :    0.102621
  38 H :    0.110647
  39 H :    0.113637
  40 H :    0.121784
Sum of atomic charges:    0.0000000

LOEWDIN ATOMIC CHARGES
----------------------
   0 C :   -0.369316
   1 C :   -0.118726
   2 O :   -0.249117
   3 P :    0.577456
   4 S :   -0.295931
   5 O :   -0.224044
   6 C :   -0.115271
   7 C :   -0.367253
   8 S :    0.072087
   9 C :   -0.482793
  10 S :    0.079353
  11 P :    0.565914
  12 S :   -0.315718
  13 O :   -0.247232
  14 C :   -0.120970
  15 C :   -0.350943
  16 O :   -0.234478
  17 C :   -0.119736
  18 C :   -0.366169
  19 H :    0.119196
  20 H :    0.129981
  21 H :    0.124269
  22 H :    0.109899
  23 H :    0.117760
  24 H :    0.123863
  25 H :    0.110880
  26 H :    0.132354
  27 H :    0.116104
  28 H :    0.129538
  29 H :    0.136605
  30 H :    0.123531
  31 H :    0.110574
  32 H :    0.106521
  33 H :    0.127177
  34 H :    0.130498
  35 H :    0.128362
  36 H :    0.111876
  37 H :    0.118627
  38 H :    0.130009
  39 H :    0.124502
  40 H :    0.120763

  Mayer bond orders larger than 0.100000
B(  0-C ,  1-C ) :   1.1624 B(  0-C , 19-H ) :   0.9383 B(  0-C , 20-H ) :   0.9377
B(  0-C , 21-H ) :   0.9430 B(  1-C ,  2-O ) :   0.9232 B(  1-C , 22-H ) :   0.9146
B(  1-C , 23-H ) :   0.9344 B(  2-O ,  3-P ) :   1.0766 B(  3-P ,  4-S ) :   1.5956
B(  3-P ,  5-O ) :   1.1586 B(  3-P ,  8-S ) :   0.9437 B(  4-S ,  8-S ) :   0.1123
B(  4-S , 30-H ) :   0.1151 B(  5-O ,  6-C ) :   0.8962 B(  6-C ,  7-C ) :   1.1671
B(  6-C , 24-H ) :   0.9342 B(  6-C , 25-H ) :   0.9141 B(  7-C , 26-H ) :   0.9354
B(  7-C , 27-H ) :   0.9363 B(  7-C , 28-H ) :   0.9418 B(  8-S ,  9-C ) :   1.0028
B(  9-C , 10-S ) :   0.9983 B(  9-C , 29-H ) :   0.9078 B(  9-C , 30-H ) :   0.8430
B( 10-S , 11-P ) :   0.9729 B( 10-S , 12-S ) :   0.1149 B( 11-P , 12-S ) :   1.6173
B( 11-P , 13-O ) :   1.0976 B( 11-P , 16-O ) :   1.1413 B( 13-O , 14-C ) :   0.9059
B( 14-C , 15-C ) :   1.1606 B( 14-C , 31-H ) :   0.9308 B( 14-C , 32-H ) :   0.9046
B( 15-C , 33-H ) :   0.9503 B( 15-C , 34-H ) :   0.9418 B( 15-C , 35-H ) :   0.9513
B( 16-O , 17-C ) :   0.8961 B( 17-C , 18-C ) :   1.1617 B( 17-C , 36-H ) :   0.9083
B( 17-C , 37-H ) :   0.9362 B( 18-C , 38-H ) :   0.9388 B( 18-C , 39-H ) :   0.9450
B( 18-C , 40-H ) :   0.9352

Dispersion correction           -0.067189593
FINAL SINGLE POINT ENERGY     -2929.516992189638

DIPOLE MOMENT
-------------

Method             : SCF
Type of density    : Electron Density
Multiplicity       :   1
Irrep              :   0
Energy             : -2929.6349498639469857 Eh
Relativity type    :
Basis              : AO
                                X                 Y                 Z
Electronic contribution:      2.358475010      -2.731430162      -3.081432218
Nuclear contribution   :     -2.165979011       2.158117499       3.479760332
                        -----------------------------------------
Total Dipole Moment    :      0.192495999      -0.573312663       0.398328115
                        -----------------------------------------
Magnitude (a.u.)       :      0.724159793
Magnitude (Debye)      :      1.840667913

Rotational constants in cm-1:             0.013019             0.005015             0.004840
Rotational constants in MHz :           390.306876           150.348051           145.103330

                             ****ORCA TERMINATED NORMALLY****
TOTAL RUN TIME: 0 days 0 hours 0 minutes 21 seconds 205 msec
