                         Program Version 6.0.0  -   RELEASE  -
|  1> ! r2scan-3c def2/J RI DEFGRID2 scfconv6 printgap
|  2> %output
|  3>     printlevel normal
|  4> end
|  5> * xyz 0 1
|  6> C 1.1894869101 -0.5501275781 -3.1633381169
|  7> C 2.2608069541 -0.546525902 -2.0921248142
|  8> O 1.7142940258 -1.127634507 -0.8908347625
|  9> P 2.1890302696 -0.7693726289 0.5828864073
| 10> S 3.4507462678 0.7343626721 0.6868408197
| 11> O 2.7156346841 -2.2040579622 1.0064114224
| 12> C 2.8503072324 -2.6772954448 2.3605501738
| 13> C 3.6768725036 -1.7508192015 3.2279064855
| 14> S 0.3883109171 -0.5797501929 1.6748016962
| 15> C 0.1686203745 1.1986489999 1.4167759969
| 16> S 0.066841967 1.676892667 -0.3362684646
| 17> P -1.9197895309 1.0720923685 -0.7396892241
| 18> S -2.509422152 1.2809389858 -2.594748814
| 19> O -2.668344276 1.9294326869 0.3623468658
| 20> C -4.0795415054 2.2192372329 0.2658684752
| 21> C -4.923598978 0.9687412915 0.3896905625
| 22> O -2.0609337007 -0.3986556627 -0.1493401046
| 23> C -1.8095723196 -1.5901388184 -0.9147008281
| 24> C -2.5670699362 -2.7261062813 -0.2574466188
| 25> H 0.3529136616 0.0844454811 -2.8761803731
| 26> H 1.6123905789 -0.1675833354 -4.0863471252
| 27> H 0.8256859156 -1.5605893603 -3.3263889469
| 28> H 2.6046870167 0.4697261219 -1.8718661815
| 29> H 3.116296183 -1.1563542515 -2.3913591551
| 30> H 1.8475764169 -2.806684469 2.7769688486
| 31> H 3.3311940493 -3.6500434385 2.2440669709
| 32> H 4.6477081722 -1.5702437575 2.7723628968
| 33> H 3.1702119141 -0.7940453829 3.3466625722
| 34> H 3.8164536427 -2.201360155 4.2052800497
| 35> H 1.0384353251 1.7267088441 1.8064720306
| 36> H -0.7422578407 1.4902037199 1.9317338545
| 37> H -4.2573646419 2.9146927916 1.0871816452
| 38> H -4.2640191597 2.7173305386 -0.6908877547
| 39> H -4.7552027499 0.3247356409 -0.4724509963
| 40> H -4.6624685807 0.4253960776 1.2940502543
| 41> H -5.9728054466 1.245342571 0.422538684
| 42> H -2.1407409843 -1.4202942789 -1.9448845328
| 43> H -0.7329260186 -1.7838626558 -0.9122197045
| 44> H -2.360946007 -3.6469194984 -0.7929318599
| 45> H -2.2464539429 -2.8295505101 0.7755001813
| 46> H -3.6352592885 -2.5299059316 -0.2790958513
| 47> *
| 48>
| 49>                          ****END OF INPUT****

CARTESIAN COORDINATES (ANGSTROEM)
---------------------------------
  C      1.189487   -0.550128   -3.163338
  C      2.260807   -0.546526   -2.092125
  O      1.714294   -1.127635   -0.890835
  P      2.189030   -0.769373    0.582886
  S      3.450746    0.734363    0.686841
  O      2.715635   -2.204058    1.006411
  C      2.850307   -2.677295    2.360550
  C      3.676873   -1.750819    3.227906
  S      0.388311   -0.579750    1.674802
  C      0.168620    1.198649    1.416776
  S      0.066842    1.676893   -0.336268
  P     -1.919790    1.072092   -0.739689
  S     -2.509422    1.280939   -2.594749
  O     -2.668344    1.929433    0.362347
  C     -4.079542    2.219237    0.265868
  C     -4.923599    0.968741    0.389691
  O     -2.060934   -0.398656   -0.149340
  C     -1.809572   -1.590139   -0.914701
  C     -2.567070   -2.726106   -0.257447
  H      0.352914    0.084445   -2.876180
  H      1.612391   -0.167583   -4.086347
  H      0.825686   -1.560589   -3.326389
  H      2.604687    0.469726   -1.871866
  H      3.116296   -1.156354   -2.391359
  H      1.847576   -2.806684    2.776969
  H      3.331194   -3.650043    2.244067
  H      4.647708   -1.570244    2.772363
  H      3.170212   -0.794045    3.346663
  H      3.816454   -2.201360    4.205280
  H      1.038435    1.726709    1.806472
  H     -0.742258    1.490204    1.931734
  H     -4.257365    2.914693    1.087182
  H     -4.264019    2.717331   -0.690888
  H     -4.755203    0.324736   -0.472451
  H     -4.662469    0.425396    1.294050
  H     -5.972805    1.245343    0.422539
  H     -2.140741   -1.420294   -1.944885
  H     -0.732926   -1.783863   -0.912220
  H     -2.360946   -3.646919   -0.792932
  H     -2.246454   -2.829551    0.775500
  H     -3.635259   -2.529906   -0.279096

 Total Charge           Charge          ....    0
 Multiplicity           Mult            ....    1
 Number of Electrons    NEL             ....  202
 Basis Dimension        Dim             ....  539

ORBITAL ENERGIES
----------------

  NO   OCC          E(Eh)            E(eV)
   0   2.0000     -88.580133     -2410.3880
   1   2.0000     -88.576188     -2410.2806
   2   2.0000     -88.523914     -2408.8582
   3   2.0000     -88.521324     -2408.7877
   4   2.0000     -76.917002     -2093.0180
   5   2.0000     -76.915608     -2092.9801
   6   2.0000     -18.994247      -516.8597
   7   2.0000     -18.993729      -516.8456
   8   2.0000     -18.991089      -516.7738
   9   2.0000     -18.986943      -516.6610
  10   2.0000     -10.112075      -275.1635
  11   2.0000     -10.106289      -275.0061
  12   2.0000     -10.102023      -274.8900
  13   2.0000     -10.093136      -274.6482
  14   2.0000     -10.090927      -274.5881
  15   2.0000     -10.032538      -272.9992
  16   2.0000     -10.031398      -272.9682
  17   2.0000     -10.029928      -272.9282
  18   2.0000     -10.021520      -272.6994
  19   2.0000      -7.874747      -214.2828
  20   2.0000      -7.870185      -214.1586
  21   2.0000      -7.818509      -212.7524
  22   2.0000      -7.816025      -212.6849
  23   2.0000      -6.595080      -179.4613
  24   2.0000      -6.594005      -179.4320
  25   2.0000      -5.821545      -158.4123
  26   2.0000      -5.818481      -158.3289
  27   2.0000      -5.817502      -158.3023
  28   2.0000      -5.813733      -158.1997
  29   2.0000      -5.812008      -158.1528
  30   2.0000      -5.807218      -158.0224
  31   2.0000      -5.766126      -156.9043
  32   2.0000      -5.763720      -156.8388
  33   2.0000      -5.758914      -156.7080
  34   2.0000      -5.758446      -156.6953
  35   2.0000      -5.756344      -156.6381
  36   2.0000      -5.755968      -156.6278
  37   2.0000      -4.740567      -128.9974
  38   2.0000      -4.740167      -128.9865
  39   2.0000      -4.739316      -128.9634
  40   2.0000      -4.739104      -128.9576
  41   2.0000      -4.738715      -128.9470
  42   2.0000      -4.737771      -128.9213
  43   2.0000      -1.051652       -28.6169
  44   2.0000      -1.049720       -28.5643
  45   2.0000      -1.012144       -27.5418
  46   2.0000      -1.008387       -27.4396
  47   2.0000      -0.805008       -21.9054
  48   2.0000      -0.761866       -20.7314
  49   2.0000      -0.751479       -20.4488
  50   2.0000      -0.734253       -19.9800
  51   2.0000      -0.729418       -19.8485
  52   2.0000      -0.710542       -19.3348
  53   2.0000      -0.690001       -18.7759
  54   2.0000      -0.671491       -18.2722
  55   2.0000      -0.631479       -17.1834
  56   2.0000      -0.626846       -17.0573
  57   2.0000      -0.607545       -16.5321
  58   2.0000      -0.599922       -16.3247
  59   2.0000      -0.591880       -16.1059
  60   2.0000      -0.531970       -14.4756
  61   2.0000      -0.523523       -14.2458
  62   2.0000      -0.498985       -13.5781
  63   2.0000      -0.491469       -13.3735
  64   2.0000      -0.482992       -13.1429
  65   2.0000      -0.465451       -12.6656
  66   2.0000      -0.452380       -12.3099
  67   2.0000      -0.448942       -12.2163
  68   2.0000      -0.445249       -12.1158
  69   2.0000      -0.436694       -11.8831
  70   2.0000      -0.434536       -11.8243
  71   2.0000      -0.420615       -11.4455
  72   2.0000      -0.416171       -11.3246
  73   2.0000      -0.401531       -10.9262
  74   2.0000      -0.398040       -10.8312
  75   2.0000      -0.388894       -10.5823
  76   2.0000      -0.382000       -10.3948
  77   2.0000      -0.373374       -10.1600
  78   2.0000      -0.367621       -10.0035
  79   2.0000      -0.364739        -9.9250
  80   2.0000      -0.364328        -9.9139
  81   2.0000      -0.361867        -9.8469
  82   2.0000      -0.358113        -9.7447
  83   2.0000      -0.350172        -9.5287
  84   2.0000      -0.345677        -9.4064
  85   2.0000      -0.335852        -9.1390
  86   2.0000      -0.328362        -8.9352
  87   2.0000      -0.314142        -8.5482
  88   2.0000      -0.312293        -8.4979
  89   2.0000      -0.307381        -8.3643
  90   2.0000      -0.302072        -8.2198
  91   2.0000      -0.294297        -8.0082
  92   2.0000      -0.289604        -7.8805
  93   2.0000      -0.280582        -7.6350
  94   2.0000      -0.269504        -7.3336
  95   2.0000      -0.245362        -6.6766
  96   2.0000      -0.232193        -6.3183
  97   2.0000      -0.224548        -6.1103
  98   2.0000      -0.221427        -6.0253
  99   2.0000      -0.217242        -5.9115
 100   2.0000      -0.215339        -5.8597
 101   0.0000      -0.048406        -1.3172
 102   0.0000      -0.019986        -0.5439
 103   0.0000      -0.014584        -0.3969
 104   0.0000       0.000048         0.0013
 105   0.0000       0.003136         0.0853

MULLIKEN ATOMIC CHARGES
-----------------------
   0 C :   -0.468026
   1 C :   -0.112796
   2 O :   -0.273619
   3 P :    0.644220
   4 S :   -0.454618
   5 O :   -0.294147
   6 C :   -0.151227
   7 C :   -0.424625
   8 S :   -0.127029
   9 C :   -0.253778
  10 S :   -0.121498
  11 P :    0.670652
  12 S :   -0.468753
  13 O :   -0.306140
  14 C :   -0.157577
  15 C :   -0.437299
  16 O :   -0.253735
  17 C :   -0.128511
  18 C :   -0.472578
  19 H :    0.179091
  20 H :    0.147487
  21 H :    0.146520
  22 H :    0.173687
  23 H :    0.145172
  24 H :    0.150454
  25 H :    0.151289
  26 H :    0.165912
  27 H :    0.167527
  28 H :    0.147066
  29 H :    0.215095
  30 H :    0.203238
  31 H :    0.149196
  32 H :    0.173285
  33 H :    0.169213
  34 H :    0.154857
  35 H :    0.148931
  36 H :    0.168738
  37 H :    0.177612
  38 H :    0.148192
  39 H :    0.158036
  40 H :    0.150486
Sum of atomic charges:    0.0000000

LOEWDIN ATOMIC CHARGES
----------------------
   0 C :   -0.396291
   1 C :    0.014044
   2 O :   -0.680884
   3 P :    0.378662
   4 S :   -0.122040
   5 O :   -0.653041
   6 C :    0.023235
   7 C :   -0.406497
   8 S :    0.168916
   9 C :   -0.408378
  10 S :    0.189590
  11 P :    0.367137
  12 S :   -0.115030
  13 O :   -0.681193
  14 C :    0.024741
  15 C :   -0.400643
  16 O :   -0.687957
  17 C :    0.010589
  18 C :   -0.386476
  19 H :    0.167667
  20 H :    0.160899
  21 H :    0.156642
  22 H :    0.183738
  23 H :    0.171607
  24 H :    0.171008
  25 H :    0.182121
  26 H :    0.165928
  27 H :    0.165517
  28 H :    0.158173
  29 H :    0.193492
  30 H :    0.190652
  31 H :    0.180026
  32 H :    0.180614
  33 H :    0.165559
  34 H :    0.160968
  35 H :    0.159977
  36 H :    0.180990
  37 H :    0.187558
  38 H :    0.159920
  39 H :    0.160602
  40 H :    0.157860

  Mayer bond orders larger than 0.100000
B(  0-C ,  1-C ) :   0.9321 B(  0-C , 19-H ) :   0.9615 B(  0-C , 20-H ) :   0.9639
B(  0-C , 21-H ) :   0.9680 B(  1-C ,  2-O ) :   0.7692 B(  1-C , 22-H ) :   0.9586
B(  1-C , 23-H ) :   0.9427 B(  2-O ,  3-P ) :   1.1457 B(  3-P ,  4-S ) :   1.7806
B(  3-P ,  5-O ) :   1.1181 B(  3-P ,  8-S ) :   1.0469 B(  5-O ,  6-C ) :   0.8049
B(  6-C ,  7-C ) :   0.9390 B(  6-C , 24-H ) :   0.9638 B(  6-C , 25-H ) :   0.9582
B(  7-C , 26-H ) :   0.9658 B(  7-C , 27-H ) :   0.9544 B(  7-C , 28-H ) :   0.9624
B(  8-S ,  9-C ) :   0.9164 B(  9-C , 10-S ) :   0.9021 B(  9-C , 29-H ) :   0.9151
B(  9-C , 30-H ) :   0.9159 B( 10-S , 11-P ) :   1.0810 B( 11-P , 12-S ) :   1.7841
B( 11-P , 13-O ) :   1.1460 B( 11-P , 16-O ) :   1.0557 B( 13-O , 14-C ) :   0.8085
B( 14-C , 15-C ) :   0.9255 B( 14-C , 31-H ) :   0.9613 B( 14-C , 32-H ) :   0.9663
B( 15-C , 33-H ) :   0.9595 B( 15-C , 34-H ) :   0.9698 B( 15-C , 35-H ) :   0.9602
B( 16-O , 17-C ) :   0.7427 B( 17-C , 18-C ) :   0.9370 B( 17-C , 36-H ) :   0.9363
B( 17-C , 37-H ) :   0.9354 B( 18-C , 38-H ) :   0.9680 B( 18-C , 39-H ) :   0.9791
B( 18-C , 40-H ) :   0.9729

Dispersion correction           -0.022127137
FINAL SINGLE POINT ENERGY     -2932.462147586043

DIPOLE MOMENT
-------------

Method             : SCF
Type of density    : Electron Density
Multiplicity       :   1
Irrep              :   0
Energy             : -2932.4865702534930278 Eh
Relativity type    :
Basis              : AO
                                X                 Y                 Z
Electronic contribution:      8.354559843      13.032941921      -1.882505636
Nuclear contribution   :     -9.110706139     -14.196065139       2.993047588
                        -----------------------------------------
Total Dipole Moment    :     -0.756146295      -1.163123218       1.110541952
                        -----------------------------------------
Magnitude (a.u.)       :      1.777052691
Magnitude (Debye)      :      4.516908977

Rotational constants in cm-1:             0.012893             0.005027             0.004802
Rotational constants in MHz :           386.526845           150.692984           143.974080

                             ****ORCA TERMINATED NORMALLY****
TOTAL RUN TIME: 0 days 0 hours 1 minutes 25 seconds 960 msec
