                         Program Version 6.0.0  -   RELEASE  -
|  1> ! r2scan-3c def2/J RI DEFGRID2 scfconv6 printgap
|  2> %output
|  3>     printlevel normal
|  4> end
|  5> %cpcm
|  6>     smd true
|  7>     smdsolvent "water"
|  8> end
|  9> * xyz 0 1
| 10> C 1.1894869101 -0.5501275781 -3.1633381169
| 11> C 2.2608069541 -0.546525902 -2.0921248142
| 12> O 1.7142940258 -1.127634507 -0.8908347625
| 13> P 2.1890302696 -0.7693726289 0.5828864073
| 14> S 3.4507462678 0.7343626721 0.6868408197
| 15> O 2.7156346841 -2.2040579622 1.0064114224
| 16> C 2.8503072324 -2.6772954448 2.3605501738
| 17> C 3.6768725036 -1.7508192015 3.2279064855
| 18> S 0.3883109171 -0.5797501929 1.6748016962
| 19> C 0.1686203745 1.1986489999 1.4167759969
| 20> S 0.066841967 1.676892667 -0.3362684646
| 21> P -1.9197895309 1.0720923685 -0.7396892241
| 22> S -2.509422152 1.2809389858 -2.594748814
| 23> O -2.668344276 1.9294326869 0.3623468658
| 24> C -4.0795415054 2.2192372329 0.2658684752
| 25> C -4.923598978 0.9687412915 0.3896905625
| 26> O -2.0609337007 -0.3986556627 -0.1493401046
| 27> C -1.8095723196 -1.5901388184 -0.9147008281
| 28> C -2.5670699362 -2.7261062813 -0.2574466188
| 29> H 0.3529136616 0.0844454811 -2.8761803731
| 30> H 1.6123905789 -0.1675833354 -4.0863471252
| 31> H 0.8256859156 -1.5605893603 -3.3263889469
| 32> H 2.6046870167 0.4697261219 -1.8718661815
| 33> H 3.116296183 -1.1563542515 -2.3913591551
| 34> H 1.8475764169 -2.806684469 2.7769688486
| 35> H 3.3311940493 -3.6500434385 2.2440669709
| 36> H 4.6477081722 -1.5702437575 2.7723628968
| 37> H 3.1702119141 -0.7940453829 3.3466625722
| 38> H 3.8164536427 -2.201360155 4.2052800497
| 39> H 1.0384353251 1.7267088441 1.8064720306
| 40> H -0.7422578407 1.4902037199 1.9317338545
| 41> H -4.2573646419 2.9146927916 1.0871816452
| 42> H -4.2640191597 2.7173305386 -0.6908877547
| 43> H -4.7552027499 0.3247356409 -0.4724509963
| 44> H -4.6624685807 0.4253960776 1.2940502543
| 45> H -5.9728054466 1.245342571 0.422538684
| 46> H -2.1407409843 -1.4202942789 -1.9448845328
| 47> H -0.7329260186 -1.7838626558 -0.9122197045
| 48> H -2.360946007 -3.6469194984 -0.7929318599
| 49> H -2.2464539429 -2.8295505101 0.7755001813
| 50> H -3.6352592885 -2.5299059316 -0.2790958513
| 51> *
| 52>
| 53>                          ****END OF INPUT****

CARTESIAN COORDINATES (ANGSTROEM)
---------------------------------
  C      1.189487   -0.550128   -3.163338
  C      2.260807   -0.546526   -2.092125
  O      1.714294   -1.127635   -0.890835
  P      2.189030   -0.769373    0.582886
  S      3.450746    0.734363    0.686841
  O      2.715635   -2.204058    1.006411
  C      2.850307   -2.677295    2.360550
  C      3.676873   -1.750819    3.227906
  S      0.388311   -0.579750    1.674802
  C      0.168620    1.198649    1.416776
  S      0.066842    1.676893   -0.336268
  P     -1.919790    1.072092   -0.739689
  S     -2.509422    1.280939   -2.594749
  O     -2.668344    1.929433    0.362347
  C     -4.079542    2.219237    0.265868
  C     -4.923599    0.968741    0.389691
  O     -2.060934   -0.398656   -0.149340
  C     -1.809572   -1.590139   -0.914701
  C     -2.567070   -2.726106   -0.257447
  H      0.352914    0.084445   -2.876180
  H      1.612391   -0.167583   -4.086347
  H      0.825686   -1.560589   -3.326389
  H      2.604687    0.469726   -1.871866
  H      3.116296   -1.156354   -2.391359
  H      1.847576   -2.806684    2.776969
  H      3.331194   -3.650043    2.244067
  H      4.647708   -1.570244    2.772363
  H      3.170212   -0.794045    3.346663
  H      3.816454   -2.201360    4.205280
  H      1.038435    1.726709    1.806472
  H     -0.742258    1.490204    1.931734
  H     -4.257365    2.914693    1.087182
  H     -4.264019    2.717331   -0.690888
  H     -4.755203    0.324736   -0.472451
  H     -4.662469    0.425396    1.294050
  H     -5.972805    1.245343    0.422539
  H     -2.140741   -1.420294   -1.944885
  H     -0.732926   -1.783863   -0.912220
  H     -2.360946   -3.646919   -0.792932
  H     -2.246454   -2.829551    0.775500
  H     -3.635259   -2.529906   -0.279096

 Total Charge           Charge          ....    0
 Multiplicity           Mult            ....    1
 Number of Electrons    NEL             ....  202
 Basis Dimension        Dim             ....  539

ORBITAL ENERGIES
----------------

  NO   OCC          E(Eh)            E(eV)
   0   2.0000     -88.580108     -2410.3873
   1   2.0000     -88.579221     -2410.3631
   2   2.0000     -88.530992     -2409.0508
   3   2.0000     -88.527527     -2408.9565
   4   2.0000     -76.920387     -2093.1102
   5   2.0000     -76.919691     -2093.0912
   6   2.0000     -18.995191      -516.8854
   7   2.0000     -18.993522      -516.8400
   8   2.0000     -18.992423      -516.8101
   9   2.0000     -18.989969      -516.7433
  10   2.0000     -10.107771      -275.0464
  11   2.0000     -10.093196      -274.6498
  12   2.0000     -10.090214      -274.5687
  13   2.0000     -10.087272      -274.4886
  14   2.0000     -10.086589      -274.4700
  15   2.0000     -10.018834      -272.6263
  16   2.0000     -10.018804      -272.6255
  17   2.0000     -10.018548      -272.6186
  18   2.0000     -10.016772      -272.5702
  19   2.0000      -7.874593      -214.2786
  20   2.0000      -7.873359      -214.2450
  21   2.0000      -7.825938      -212.9546
  22   2.0000      -7.822556      -212.8626
  23   2.0000      -6.598553      -179.5557
  24   2.0000      -6.598117      -179.5439
  25   2.0000      -5.821433      -158.4092
  26   2.0000      -5.820600      -158.3866
  27   2.0000      -5.818344      -158.3252
  28   2.0000      -5.816846      -158.2844
  29   2.0000      -5.811819      -158.1476
  30   2.0000      -5.810519      -158.1123
  31   2.0000      -5.773465      -157.1040
  32   2.0000      -5.770162      -157.0141
  33   2.0000      -5.766299      -156.9090
  34   2.0000      -5.765945      -156.8993
  35   2.0000      -5.762908      -156.8167
  36   2.0000      -5.762492      -156.8054
  37   2.0000      -4.744014      -129.0912
  38   2.0000      -4.743635      -129.0809
  39   2.0000      -4.743367      -129.0736
  40   2.0000      -4.743196      -129.0689
  41   2.0000      -4.742242      -129.0430
  42   2.0000      -4.741998      -129.0363
  43   2.0000      -1.051888       -28.6233
  44   2.0000      -1.051235       -28.6056
  45   2.0000      -1.011877       -27.5346
  46   2.0000      -1.009690       -27.4751
  47   2.0000      -0.804086       -21.8803
  48   2.0000      -0.758349       -20.6357
  49   2.0000      -0.745383       -20.2829
  50   2.0000      -0.724229       -19.7073
  51   2.0000      -0.722156       -19.6509
  52   2.0000      -0.708757       -19.2863
  53   2.0000      -0.692856       -18.8536
  54   2.0000      -0.675811       -18.3898
  55   2.0000      -0.628088       -17.0911
  56   2.0000      -0.622488       -16.9388
  57   2.0000      -0.602593       -16.3974
  58   2.0000      -0.591465       -16.0946
  59   2.0000      -0.588942       -16.0259
  60   2.0000      -0.528642       -14.3851
  61   2.0000      -0.519409       -14.1338
  62   2.0000      -0.494349       -13.4519
  63   2.0000      -0.487821       -13.2743
  64   2.0000      -0.479562       -13.0495
  65   2.0000      -0.460090       -12.5197
  66   2.0000      -0.447351       -12.1730
  67   2.0000      -0.443281       -12.0623
  68   2.0000      -0.441200       -12.0057
  69   2.0000      -0.433958       -11.8086
  70   2.0000      -0.431998       -11.7553
  71   2.0000      -0.414099       -11.2682
  72   2.0000      -0.411628       -11.2010
  73   2.0000      -0.399188       -10.8625
  74   2.0000      -0.394490       -10.7346
  75   2.0000      -0.385462       -10.4890
  76   2.0000      -0.378533       -10.3004
  77   2.0000      -0.362802        -9.8724
  78   2.0000      -0.362572        -9.8661
  79   2.0000      -0.357097        -9.7171
  80   2.0000      -0.354846        -9.6559
  81   2.0000      -0.354485        -9.6460
  82   2.0000      -0.349440        -9.5087
  83   2.0000      -0.346522        -9.4293
  84   2.0000      -0.342500        -9.3199
  85   2.0000      -0.331599        -9.0233
  86   2.0000      -0.324249        -8.8233
  87   2.0000      -0.309706        -8.4275
  88   2.0000      -0.308713        -8.4005
  89   2.0000      -0.303569        -8.2605
  90   2.0000      -0.300732        -8.1833
  91   2.0000      -0.291798        -7.9402
  92   2.0000      -0.287890        -7.8339
  93   2.0000      -0.279399        -7.6028
  94   2.0000      -0.269147        -7.3239
  95   2.0000      -0.246910        -6.7188
  96   2.0000      -0.236765        -6.4427
  97   2.0000      -0.232400        -6.3239
  98   2.0000      -0.228792        -6.2257
  99   2.0000      -0.222800        -6.0627
 100   2.0000      -0.221452        -6.0260
 101   0.0000      -0.049881        -1.3573
 102   0.0000      -0.024874        -0.6768
 103   0.0000      -0.017157        -0.4669
 104   0.0000      -0.001116        -0.0304
 105   0.0000       0.001016         0.0276

MULLIKEN ATOMIC CHARGES
-----------------------
   0 C :   -0.506044
   1 C :   -0.111666
   2 O :   -0.293179
   3 P :    0.679304
   4 S :   -0.509164
   5 O :   -0.328528
   6 C :   -0.152745
   7 C :   -0.464213
   8 S :   -0.119281
   9 C :   -0.258398
  10 S :   -0.158396
  11 P :    0.700501
  12 S :   -0.523307
  13 O :   -0.328027
  14 C :   -0.148701
  15 C :   -0.478626
  16 O :   -0.271341
  17 C :   -0.110134
  18 C :   -0.511123
  19 H :    0.167026
  20 H :    0.169599
  21 H :    0.166854
  22 H :    0.172609
  23 H :    0.169411
  24 H :    0.172329
  25 H :    0.177217
  26 H :    0.170519
  27 H :    0.165599
  28 H :    0.173581
  29 H :    0.234455
  30 H :    0.237418
  31 H :    0.175765
  32 H :    0.176479
  33 H :    0.169609
  34 H :    0.169573
  35 H :    0.173215
  36 H :    0.170166
  37 H :    0.178546
  38 H :    0.170380
  39 H :    0.167492
  40 H :    0.165227
Sum of atomic charges:   -0.0000000

LOEWDIN ATOMIC CHARGES
----------------------
   0 C :   -0.401407
   1 C :    0.016306
   2 O :   -0.690365
   3 P :    0.383212
   4 S :   -0.158296
   5 O :   -0.669114
   6 C :    0.029543
   7 C :   -0.410006
   8 S :    0.180170
   9 C :   -0.399350
  10 S :    0.169689
  11 P :    0.371840
  12 S :   -0.152817
  13 O :   -0.688690
  14 C :    0.029562
  15 C :   -0.403392
  16 O :   -0.693460
  17 C :    0.016087
  18 C :   -0.389925
  19 H :    0.161829
  20 H :    0.168157
  21 H :    0.162915
  22 H :    0.182898
  23 H :    0.180496
  24 H :    0.179485
  25 H :    0.193119
  26 H :    0.164358
  27 H :    0.161741
  28 H :    0.168307
  29 H :    0.200105
  30 H :    0.203256
  31 H :    0.191284
  32 H :    0.181433
  33 H :    0.163194
  34 H :    0.164576
  35 H :    0.169073
  36 H :    0.182463
  37 H :    0.188126
  38 H :    0.168344
  39 H :    0.163048
  40 H :    0.162207

  Mayer bond orders larger than 0.100000
B(  0-C ,  1-C ) :   0.9294 B(  0-C , 19-H ) :   0.9659 B(  0-C , 20-H ) :   0.9594
B(  0-C , 21-H ) :   0.9632 B(  1-C ,  2-O ) :   0.7605 B(  1-C , 22-H ) :   0.9582
B(  1-C , 23-H ) :   0.9354 B(  2-O ,  3-P ) :   1.1472 B(  3-P ,  4-S ) :   1.7349
B(  3-P ,  5-O ) :   1.1232 B(  3-P ,  8-S ) :   1.0675 B(  5-O ,  6-C ) :   0.7956
B(  6-C ,  7-C ) :   0.9203 B(  6-C , 24-H ) :   0.9582 B(  6-C , 25-H ) :   0.9486
B(  7-C , 26-H ) :   0.9669 B(  7-C , 27-H ) :   0.9565 B(  7-C , 28-H ) :   0.9561
B(  8-S ,  9-C ) :   0.9103 B(  9-C , 10-S ) :   0.8932 B(  9-C , 29-H ) :   0.9073
B(  9-C , 30-H ) :   0.9044 B( 10-S , 11-P ) :   1.0924 B( 11-P , 12-S ) :   1.7497
B( 11-P , 13-O ) :   1.1551 B( 11-P , 16-O ) :   1.0634 B( 13-O , 14-C ) :   0.7969
B( 14-C , 15-C ) :   0.9129 B( 14-C , 31-H ) :   0.9507 B( 14-C , 32-H ) :   0.9626
B( 15-C , 33-H ) :   0.9587 B( 15-C , 34-H ) :   0.9690 B( 15-C , 35-H ) :   0.9543
B( 16-O , 17-C ) :   0.7390 B( 17-C , 18-C ) :   0.9344 B( 17-C , 36-H ) :   0.9344
B( 17-C , 37-H ) :   0.9317 B( 18-C , 38-H ) :   0.9618 B( 18-C , 39-H ) :   0.9750
B( 18-C , 40-H ) :   0.9698

Dispersion correction           -0.022127137
FINAL SINGLE POINT ENERGY     -2932.470573806599

DIPOLE MOMENT
-------------

Method             : SCF
Type of density    : Electron Density
Multiplicity       :   1
Irrep              :   0
Energy             : -2932.4949964740490032 Eh
Relativity type    :
Basis              : AO
                                X                 Y                 Z
Electronic contribution:      8.031846538      12.580199199      -1.353243568
Nuclear contribution   :     -9.110706139     -14.196065139       2.993047588
                        -----------------------------------------
Total Dipole Moment    :     -1.078859601      -1.615865941       1.639804020
                        -----------------------------------------
Magnitude (a.u.)       :      2.542423647
Magnitude (Debye)      :      6.462327342

Rotational constants in cm-1:             0.012893             0.005027             0.004802
Rotational constants in MHz :           386.526845           150.692984           143.974080

                             ****ORCA TERMINATED NORMALLY****
TOTAL RUN TIME: 0 days 0 hours 1 minutes 52 seconds 792 msec
