                         Program Version 6.0.0  -   RELEASE  -
|  1> ! pbe def2-sv(p) def2/J RI DEFGRID1 loosescf d4 GCP(DFT/SV(P)) printgap
|  2> %output
|  3>     printlevel normal
|  4> end
|  5> * xyz 0 1
|  6> C 3.0854421294 1.896306688 2.732377201
|  7> C 1.7753694964 1.1663011771 2.5256420544
|  8> O 1.4867059675 1.0039040705 1.1231972399
|  9> P 2.305455141 0.0047570248 0.2050804279
| 10> S 3.0226690836 -1.5550947394 1.1625751807
| 11> O 3.3391124602 1.0042065148 -0.4677620206
| 12> C 4.0438659203 0.7825000379 -1.7027860803
| 13> C 4.7314035547 -0.5659160386 -1.7586832774
| 14> S 0.9180243922 -0.3972977778 -1.3459451102
| 15> C 0.1071347087 -1.7835307901 -0.514740908
| 16> S -0.9434033253 -1.2637576184 0.8695559589
| 17> P -2.4230649392 -0.3271333596 -0.3299496978
| 18> S -2.8269446668 -1.1516071059 -2.0506625312
| 19> O -1.96090167 1.1817223806 -0.5103436421
| 20> C -1.7586365494 2.0655948116 0.61746161
| 21> C -0.8600634083 3.1975791999 0.1654447105
| 22> O -3.5902107402 -0.3089472123 0.7573166858
| 23> C -4.9756079152 -0.4787727179 0.3962930713
| 24> C -5.5477076918 0.7970406233 -0.1889076
| 25> H 3.0694833611 2.8524978902 2.2165996783
| 26> H 3.248261826 2.0568367008 3.7933858508
| 27> H 3.9029250724 1.2965846469 2.3332664221
| 28> H 0.9275749256 1.7350657491 2.9094302578
| 29> H 1.8017927979 0.1772105757 2.9944745851
| 30> H 3.3286170175 0.8855086912 -2.5237317513
| 31> H 4.7663180238 1.6001243519 -1.7359681677
| 32> H 5.385937828 -0.6958405432 -0.8999446851
| 33> H 3.9916335072 -1.3656408485 -1.7529194734
| 34> H 5.3168944611 -0.6344703269 -2.6699370623
| 35> H 0.8633444066 -2.4510176595 -0.0994768011
| 36> H -0.5035810595 -2.2869367603 -1.26400656
| 37> H -2.7375897042 2.4317487339 0.9347728145
| 38> H -1.3089107737 1.4930799473 1.4351120299
| 39> H -0.7508222731 3.9120922151 0.9750313344
| 40> H 0.1185542376 2.8120359902 -0.1087513395
| 41> H -1.296038944 3.6920583829 -0.6978583484
| 42> H -5.0536505779 -1.2997877971 -0.3225535275
| 43> H -5.4644080742 -0.7549627237 1.3313111729
| 44> H -6.5926324366 0.6422007374 -0.4383310853
| 45> H -5.4663581486 1.6132879118 0.5240463971
| 46> H -5.0026546671 1.0600046929 -1.0954814635
| 47> *
| 48>
| 49>                          ****END OF INPUT****

CARTESIAN COORDINATES (ANGSTROEM)
---------------------------------
  C      3.085442    1.896307    2.732377
  C      1.775369    1.166301    2.525642
  O      1.486706    1.003904    1.123197
  P      2.305455    0.004757    0.205080
  S      3.022669   -1.555095    1.162575
  O      3.339112    1.004207   -0.467762
  C      4.043866    0.782500   -1.702786
  C      4.731404   -0.565916   -1.758683
  S      0.918024   -0.397298   -1.345945
  C      0.107135   -1.783531   -0.514741
  S     -0.943403   -1.263758    0.869556
  P     -2.423065   -0.327133   -0.329950
  S     -2.826945   -1.151607   -2.050663
  O     -1.960902    1.181722   -0.510344
  C     -1.758637    2.065595    0.617462
  C     -0.860063    3.197579    0.165445
  O     -3.590211   -0.308947    0.757317
  C     -4.975608   -0.478773    0.396293
  C     -5.547708    0.797041   -0.188908
  H      3.069483    2.852498    2.216600
  H      3.248262    2.056837    3.793386
  H      3.902925    1.296585    2.333266
  H      0.927575    1.735066    2.909430
  H      1.801793    0.177211    2.994475
  H      3.328617    0.885509   -2.523732
  H      4.766318    1.600124   -1.735968
  H      5.385938   -0.695841   -0.899945
  H      3.991634   -1.365641   -1.752919
  H      5.316894   -0.634470   -2.669937
  H      0.863344   -2.451018   -0.099477
  H     -0.503581   -2.286937   -1.264007
  H     -2.737590    2.431749    0.934773
  H     -1.308911    1.493080    1.435112
  H     -0.750822    3.912092    0.975031
  H      0.118554    2.812036   -0.108751
  H     -1.296039    3.692058   -0.697858
  H     -5.053651   -1.299788   -0.322554
  H     -5.464408   -0.754963    1.331311
  H     -6.592632    0.642201   -0.438331
  H     -5.466358    1.613288    0.524046
  H     -5.002655    1.060005   -1.095481

 Total Charge           Charge          ....    0
 Multiplicity           Mult            ....    1
 Number of Electrons    NEL             ....  202
 Basis Dimension        Dim             ....  334

ORBITAL ENERGIES
----------------

  NO   OCC          E(Eh)            E(eV)
   0   2.0000     -88.043796     -2395.7935
   1   2.0000     -88.039089     -2395.6654
   2   2.0000     -87.989978     -2394.3290
   3   2.0000     -87.988129     -2394.2787
   4   2.0000     -76.429997     -2079.7660
   5   2.0000     -76.424097     -2079.6054
   6   2.0000     -18.796980      -511.4918
   7   2.0000     -18.793457      -511.3960
   8   2.0000     -18.792572      -511.3719
   9   2.0000     -18.789227      -511.2808
  10   2.0000      -9.960867      -271.0490
  11   2.0000      -9.954249      -270.8689
  12   2.0000      -9.952917      -270.8327
  13   2.0000      -9.952264      -270.8149
  14   2.0000      -9.951514      -270.7945
  15   2.0000      -9.887328      -269.0479
  16   2.0000      -9.885220      -268.9905
  17   2.0000      -9.885108      -268.9875
  18   2.0000      -9.882434      -268.9147
  19   2.0000      -7.688863      -209.2246
  20   2.0000      -7.684262      -209.0994
  21   2.0000      -7.634862      -207.7552
  22   2.0000      -7.633487      -207.7178
  23   2.0000      -6.427267      -174.8948
  24   2.0000      -6.422188      -174.7566
  25   2.0000      -5.716611      -155.5569
  26   2.0000      -5.713475      -155.4716
  27   2.0000      -5.712010      -155.4317
  28   2.0000      -5.709002      -155.3498
  29   2.0000      -5.705867      -155.2645
  30   2.0000      -5.701119      -155.1353
  31   2.0000      -5.663713      -154.1175
  32   2.0000      -5.662453      -154.0832
  33   2.0000      -5.655593      -153.8965
  34   2.0000      -5.655001      -153.8804
  35   2.0000      -5.654222      -153.8592
  36   2.0000      -5.653414      -153.8372
  37   2.0000      -4.649790      -126.5272
  38   2.0000      -4.649165      -126.5102
  39   2.0000      -4.647667      -126.4695
  40   2.0000      -4.645144      -126.4008
  41   2.0000      -4.643544      -126.3572
  42   2.0000      -4.642679      -126.3337
  43   2.0000      -0.990462       -26.9518
  44   2.0000      -0.984413       -26.7872
  45   2.0000      -0.949148       -25.8276
  46   2.0000      -0.943185       -25.6654
  47   2.0000      -0.764789       -20.8110
  48   2.0000      -0.722964       -19.6729
  49   2.0000      -0.709875       -19.3167
  50   2.0000      -0.691157       -18.8073
  51   2.0000      -0.689859       -18.7720
  52   2.0000      -0.674807       -18.3624
  53   2.0000      -0.652340       -17.7511
  54   2.0000      -0.640401       -17.4262
  55   2.0000      -0.601540       -16.3687
  56   2.0000      -0.592440       -16.1211
  57   2.0000      -0.576517       -15.6878
  58   2.0000      -0.568712       -15.4754
  59   2.0000      -0.560887       -15.2625
  60   2.0000      -0.505275       -13.7492
  61   2.0000      -0.495209       -13.4753
  62   2.0000      -0.480932       -13.0868
  63   2.0000      -0.472632       -12.8610
  64   2.0000      -0.462037       -12.5727
  65   2.0000      -0.448188       -12.1958
  66   2.0000      -0.441757       -12.0208
  67   2.0000      -0.435224       -11.8430
  68   2.0000      -0.430079       -11.7030
  69   2.0000      -0.419162       -11.4060
  70   2.0000      -0.404269       -11.0007
  71   2.0000      -0.395855       -10.7718
  72   2.0000      -0.392598       -10.6831
  73   2.0000      -0.386863       -10.5271
  74   2.0000      -0.381111       -10.3706
  75   2.0000      -0.377822       -10.2811
  76   2.0000      -0.367458        -9.9990
  77   2.0000      -0.360041        -9.7972
  78   2.0000      -0.351551        -9.5662
  79   2.0000      -0.349192        -9.5020
  80   2.0000      -0.348957        -9.4956
  81   2.0000      -0.347540        -9.4570
  82   2.0000      -0.345411        -9.3991
  83   2.0000      -0.337494        -9.1837
  84   2.0000      -0.336182        -9.1480
  85   2.0000      -0.320667        -8.7258
  86   2.0000      -0.313339        -8.5264
  87   2.0000      -0.309657        -8.4262
  88   2.0000      -0.300007        -8.1636
  89   2.0000      -0.290867        -7.9149
  90   2.0000      -0.285521        -7.7694
  91   2.0000      -0.277619        -7.5544
  92   2.0000      -0.269985        -7.3467
  93   2.0000      -0.265963        -7.2372
  94   2.0000      -0.258120        -7.0238
  95   2.0000      -0.233481        -6.3533
  96   2.0000      -0.217318        -5.9135
  97   2.0000      -0.214283        -5.8309
  98   2.0000      -0.205073        -5.5803
  99   2.0000      -0.204063        -5.5528
 100   2.0000      -0.201010        -5.4697
 101   0.0000      -0.044820        -1.2196
 102   0.0000      -0.024373        -0.6632
 103   0.0000      -0.004642        -0.1263
 104   0.0000       0.005914         0.1609
 105   0.0000       0.013507         0.3675

MULLIKEN ATOMIC CHARGES
-----------------------
   0 C :   -0.301561
   1 C :   -0.011284
   2 O :   -0.360181
   3 P :    0.615107
   4 S :   -0.330209
   5 O :   -0.376608
   6 C :   -0.010788
   7 C :   -0.312439
   8 S :   -0.073415
   9 C :   -0.378630
  10 S :   -0.078015
  11 P :    0.627164
  12 S :   -0.316288
  13 O :   -0.362611
  14 C :   -0.027107
  15 C :   -0.284048
  16 O :   -0.398211
  17 C :   -0.006913
  18 C :   -0.312488
  19 H :    0.114683
  20 H :    0.111686
  21 H :    0.124459
  22 H :    0.103920
  23 H :    0.115912
  24 H :    0.117153
  25 H :    0.110023
  26 H :    0.126643
  27 H :    0.126453
  28 H :    0.113361
  29 H :    0.194668
  30 H :    0.196829
  31 H :    0.100317
  32 H :    0.111537
  33 H :    0.101243
  34 H :    0.132288
  35 H :    0.115373
  36 H :    0.115736
  37 H :    0.106452
  38 H :    0.114393
  39 H :    0.115238
  40 H :    0.130161
Sum of atomic charges:   -0.0000000

LOEWDIN ATOMIC CHARGES
----------------------
   0 C :   -0.363734
   1 C :   -0.119975
   2 O :   -0.234118
   3 P :    0.574803
   4 S :   -0.314990
   5 O :   -0.244062
   6 C :   -0.113024
   7 C :   -0.370106
   8 S :    0.090701
   9 C :   -0.487367
  10 S :    0.084129
  11 P :    0.573063
  12 S :   -0.305414
  13 O :   -0.241654
  14 C :   -0.117552
  15 C :   -0.354513
  16 O :   -0.259014
  17 C :   -0.116241
  18 C :   -0.363743
  19 H :    0.125475
  20 H :    0.130359
  21 H :    0.123557
  22 H :    0.114173
  23 H :    0.110949
  24 H :    0.111921
  25 H :    0.121926
  26 H :    0.129354
  27 H :    0.121534
  28 H :    0.131016
  29 H :    0.128142
  30 H :    0.129703
  31 H :    0.108704
  32 H :    0.104324
  33 H :    0.125943
  34 H :    0.126584
  35 H :    0.127370
  36 H :    0.111651
  37 H :    0.119081
  38 H :    0.131991
  39 H :    0.122415
  40 H :    0.126642

  Mayer bond orders larger than 0.100000
B(  0-C ,  1-C ) :   1.1655 B(  0-C , 19-H ) :   0.9471 B(  0-C , 20-H ) :   0.9392
B(  0-C , 21-H ) :   0.9344 B(  1-C ,  2-O ) :   0.9020 B(  1-C , 22-H ) :   0.9290
B(  1-C , 23-H ) :   0.9117 B(  2-O ,  3-P ) :   1.1079 B(  3-P ,  4-S ) :   1.5925
B(  3-P ,  5-O ) :   1.1102 B(  3-P ,  8-S ) :   0.9564 B(  4-S ,  8-S ) :   0.1103
B(  5-O ,  6-C ) :   0.9112 B(  6-C ,  7-C ) :   1.1652 B(  6-C , 24-H ) :   0.9286
B(  6-C , 25-H ) :   0.9340 B(  7-C , 26-H ) :   0.9424 B(  7-C , 27-H ) :   0.9328
B(  7-C , 28-H ) :   0.9346 B(  8-S ,  9-C ) :   1.0054 B(  9-C , 10-S ) :   1.0068
B(  9-C , 29-H ) :   0.8717 B(  9-C , 30-H ) :   0.8750 B( 10-S , 11-P ) :   0.9598
B( 10-S , 12-S ) :   0.1029 B( 11-P , 12-S ) :   1.6320 B( 11-P , 13-O ) :   1.1169
B( 11-P , 16-O ) :   1.0773 B( 13-O , 14-C ) :   0.8959 B( 14-C , 15-C ) :   1.1670
B( 14-C , 31-H ) :   0.9290 B( 14-C , 32-H ) :   0.9079 B( 15-C , 33-H ) :   0.9407
B( 15-C , 34-H ) :   0.9373 B( 15-C , 35-H ) :   0.9475 B( 16-O , 17-C ) :   0.9064
B( 17-C , 18-C ) :   1.1612 B( 17-C , 36-H ) :   0.9134 B( 17-C , 37-H ) :   0.9342
B( 18-C , 38-H ) :   0.9393 B( 18-C , 39-H ) :   0.9447 B( 18-C , 40-H ) :   0.9375

Dispersion correction           -0.065779911
FINAL SINGLE POINT ENERGY     -2929.523759195248

DIPOLE MOMENT
-------------

Method             : SCF
Type of density    : Electron Density
Multiplicity       :   1
Irrep              :   0
Energy             : -2929.6437053409335931 Eh
Relativity type    :
Basis              : AO
                                X                 Y                 Z
Electronic contribution:     -2.509477711     -16.729880835      -5.077438460
Nuclear contribution   :      2.476769323      18.068207250       5.641922191
                        -----------------------------------------
Total Dipole Moment    :     -0.032708389       1.338326415       0.564483731
                        -----------------------------------------
Magnitude (a.u.)       :      1.452869339
Magnitude (Debye)      :      3.692900379

Rotational constants in cm-1:             0.013774             0.004738             0.004375
Rotational constants in MHz :           412.926287           142.044597           131.155241

                             ****ORCA TERMINATED NORMALLY****
TOTAL RUN TIME: 0 days 0 hours 0 minutes 21 seconds 184 msec
