                         Program Version 6.0.0  -   RELEASE  -
|  1> ! wb97x-v def2-tzvp def2/J RIJCOSX DEFGRID2 scfconv7 GCP(DFT/TZ) printgap
|  2> %output
|  3>     printlevel normal
|  4> end
|  5> * xyz 0 1
|  6> C -2.9403610020663176 -0.3508171931073907 1.1698385555549298e-05
|  7> C -2.68789446998642 1.039085010099957 -2.19038047801619e-05
|  8> C -1.3985502186124745 1.5174703244366585 -2.638602719106703e-05
|  9> C -0.29496658337602016 0.6267876251589786 1.0490304966915375e-05
| 10> C 1.0408329447718079 1.089815565816947 5.223015239104426e-05
| 11> C 2.0810392921847454 0.188487408014082 0.00011217167990342762
| 12> C 1.8385515037296738 -1.204395724889602 0.00010183779467692747
| 13> C 0.5483737170171308 -1.672825074348048 6.284765342979347e-05
| 14> C -0.5530525984835379 -0.7827567192307731 2.8545151730349935e-05
| 15> C -1.892236809967302 -1.241392049196931 2.8624202391706383e-05
| 16> O 3.367523439913206 0.6785140706722289 0.0001701493079491087
| 17> H -3.9638737689383468 -0.7116887404661767 3.081254842994413e-05
| 18> H -3.521987734322414 1.734057468522821 -3.8875004425417426e-05
| 19> H -1.2072769375110504 2.5868501697610955 -5.856507741998183e-05
| 20> H 1.2442211503186318 2.1563367200318924 4.574411417371767e-05
| 21> H 2.6809294043170753 -1.8907673888850391 0.00013560287530443976
| 22> H 0.3600604960634199 -2.7426165981615207 5.736691153260942e-05
| 23> H -2.07546185252187 -2.3124132975189156 4.828080374233895e-05
| 24> H 3.9865506996994102 -0.06491578397760667 0.00033748712738227555
| 25> *
| 26>
| 27>                          ****END OF INPUT****

CARTESIAN COORDINATES (ANGSTROEM)
---------------------------------
  C     -2.940361   -0.350817    0.000012
  C     -2.687894    1.039085   -0.000022
  C     -1.398550    1.517470   -0.000026
  C     -0.294967    0.626788    0.000010
  C      1.040833    1.089816    0.000052
  C      2.081039    0.188487    0.000112
  C      1.838552   -1.204396    0.000102
  C      0.548374   -1.672825    0.000063
  C     -0.553053   -0.782757    0.000029
  C     -1.892237   -1.241392    0.000029
  O      3.367523    0.678514    0.000170
  H     -3.963874   -0.711689    0.000031
  H     -3.521988    1.734057   -0.000039
  H     -1.207277    2.586850   -0.000059
  H      1.244221    2.156337    0.000046
  H      2.680929   -1.890767    0.000136
  H      0.360060   -2.742617    0.000057
  H     -2.075462   -2.312413    0.000048
  H      3.986551   -0.064916    0.000337

 Total Charge           Charge          ....    0
 Multiplicity           Mult            ....    1
 Number of Electrons    NEL             ....   76
 Basis Dimension        Dim             ....  389

ORBITAL ENERGIES
----------------

  NO   OCC          E(Eh)            E(eV)
   0   2.0000     -21.705731      -590.6430
   1   2.0000     -12.117143      -329.7242
   2   2.0000     -12.065180      -328.3102
   3   2.0000     -12.063601      -328.2673
   4   2.0000     -12.060241      -328.1759
   5   2.0000     -12.059093      -328.1446
   6   2.0000     -12.054418      -328.0174
   7   2.0000     -12.053660      -327.9968
   8   2.0000     -12.050682      -327.9157
   9   2.0000     -12.049353      -327.8796
  10   2.0000     -12.045807      -327.7831
  11   2.0000      -1.719017       -46.7768
  12   2.0000      -1.404634       -38.2220
  13   2.0000      -1.353119       -36.8202
  14   2.0000      -1.306715       -35.5575
  15   2.0000      -1.275558       -34.7097
  16   2.0000      -1.255149       -34.1544
  17   2.0000      -1.159343       -31.5473
  18   2.0000      -1.143961       -31.1288
  19   2.0000      -1.094673       -29.7876
  20   2.0000      -1.084640       -29.5146
  21   2.0000      -1.014703       -27.6115
  22   2.0000      -0.992587       -27.0097
  23   2.0000      -0.967370       -26.3235
  24   2.0000      -0.954769       -25.9806
  25   2.0000      -0.949831       -25.8462
  26   2.0000      -0.908899       -24.7324
  27   2.0000      -0.905529       -24.6407
  28   2.0000      -0.892992       -24.2995
  29   2.0000      -0.877408       -23.8755
  30   2.0000      -0.844569       -22.9819
  31   2.0000      -0.828792       -22.5526
  32   2.0000      -0.797575       -21.7031
  33   2.0000      -0.797091       -21.6900
  34   2.0000      -0.728049       -19.8112
  35   2.0000      -0.682695       -18.5771
  36   2.0000      -0.630706       -17.1624
  37   2.0000      -0.600746       -16.3471
  38   0.0000      -0.288264        -7.8441
  39   0.0000      -0.262262        -7.1365
  40   0.0000      -0.199912        -5.4399
  41   0.0000      -0.148805        -4.0492
  42   0.0000      -0.134530        -3.6607

MULLIKEN ATOMIC CHARGES
-----------------------
   0 C :   -0.120940
   1 C :   -0.100481
   2 C :   -0.218791
   3 C :    0.193655
   4 C :   -0.296185
   5 C :    0.264614
   6 C :   -0.184370
   7 C :   -0.216673
   8 C :    0.148688
   9 C :   -0.199015
  10 O :   -0.386501
  11 H :    0.116581
  12 H :    0.117126
  13 H :    0.113228
  14 H :    0.117351
  15 H :    0.109951
  16 H :    0.117584
  17 H :    0.111977
  18 H :    0.312200
Sum of atomic charges:   -0.0000000

LOEWDIN ATOMIC CHARGES
----------------------
   0 C :   -0.147803
   1 C :   -0.137910
   2 C :   -0.103669
   3 C :   -0.088308
   4 C :   -0.089968
   5 C :   -0.260913
   6 C :   -0.139465
   7 C :   -0.092541
   8 C :   -0.100581
   9 C :   -0.101152
  10 O :    0.065998
  11 H :    0.141118
  12 H :    0.142172
  13 H :    0.145034
  14 H :    0.150828
  15 H :    0.140876
  16 H :    0.147258
  17 H :    0.144775
  18 H :    0.184250

  Mayer bond orders larger than 0.100000
B(  0-C ,  1-C ) :   1.2640 B(  0-C ,  9-C ) :   1.5763 B(  0-C , 11-H ) :   0.9761
B(  1-C ,  2-C ) :   1.5754 B(  1-C , 12-H ) :   0.9755 B(  2-C ,  3-C ) :   1.2153
B(  2-C , 13-H ) :   0.9831 B(  3-C ,  4-C ) :   1.2166 B(  3-C ,  8-C ) :   1.2662
B(  4-C ,  5-C ) :   1.5455 B(  4-C , 14-H ) :   0.9841 B(  5-C ,  6-C ) :   1.2219
B(  5-C , 10-O ) :   1.1503 B(  6-C ,  7-C ) :   1.5754 B(  6-C , 15-H ) :   0.9564
B(  7-C ,  8-C ) :   1.2283 B(  7-C , 16-H ) :   0.9666 B(  8-C ,  9-C ) :   1.2133
B(  9-C , 17-H ) :   0.9814 B( 10-O , 18-H ) :   0.8901

FINAL SINGLE POINT ENERGY      -461.135018171596

DIPOLE MOMENT
-------------

Method             : SCF
Type of density    : Electron Density
Multiplicity       :   1
Irrep              :   0
Energy             :  -461.1445398827964937 Eh
Relativity type    :
Basis              : AO
                                X                 Y                 Z
Electronic contribution:      2.486714764       0.568295354      -0.000023756
Nuclear contribution   :     -2.303843700      -1.163632132       0.000128918
                        -----------------------------------------
Total Dipole Moment    :      0.182871064      -0.595336778       0.000105162
                        -----------------------------------------
Magnitude (a.u.)       :      0.622790267
Magnitude (Debye)      :      1.583007055

Rotational constants in cm-1:             0.095075             0.027561             0.021367
Rotational constants in MHz :          2850.265271           826.260351           640.567053

                             ****ORCA TERMINATED NORMALLY****
TOTAL RUN TIME: 0 days 0 hours 4 minutes 48 seconds 190 msec
