                         Program Version 6.0.0  -   RELEASE  -
|  1> ! wb97x-v def2-tzvp def2/J RIJCOSX DEFGRID2 scfconv7 GCP(DFT/TZ) printgap
|  2> %output
|  3>     printlevel normal
|  4> end
|  5> %cpcm
|  6>     smd true
|  7>     smdsolvent "water"
|  8> end
|  9> * xyz 0 1
| 10> C -2.9403610020663176 -0.3508171931073907 1.1698385555549298e-05
| 11> C -2.68789446998642 1.039085010099957 -2.19038047801619e-05
| 12> C -1.3985502186124745 1.5174703244366585 -2.638602719106703e-05
| 13> C -0.29496658337602016 0.6267876251589786 1.0490304966915375e-05
| 14> C 1.0408329447718079 1.089815565816947 5.223015239104426e-05
| 15> C 2.0810392921847454 0.188487408014082 0.00011217167990342762
| 16> C 1.8385515037296738 -1.204395724889602 0.00010183779467692747
| 17> C 0.5483737170171308 -1.672825074348048 6.284765342979347e-05
| 18> C -0.5530525984835379 -0.7827567192307731 2.8545151730349935e-05
| 19> C -1.892236809967302 -1.241392049196931 2.8624202391706383e-05
| 20> O 3.367523439913206 0.6785140706722289 0.0001701493079491087
| 21> H -3.9638737689383468 -0.7116887404661767 3.081254842994413e-05
| 22> H -3.521987734322414 1.734057468522821 -3.8875004425417426e-05
| 23> H -1.2072769375110504 2.5868501697610955 -5.856507741998183e-05
| 24> H 1.2442211503186318 2.1563367200318924 4.574411417371767e-05
| 25> H 2.6809294043170753 -1.8907673888850391 0.00013560287530443976
| 26> H 0.3600604960634199 -2.7426165981615207 5.736691153260942e-05
| 27> H -2.07546185252187 -2.3124132975189156 4.828080374233895e-05
| 28> H 3.9865506996994102 -0.06491578397760667 0.00033748712738227555
| 29> *
| 30>
| 31>                          ****END OF INPUT****

CARTESIAN COORDINATES (ANGSTROEM)
---------------------------------
  C     -2.940361   -0.350817    0.000012
  C     -2.687894    1.039085   -0.000022
  C     -1.398550    1.517470   -0.000026
  C     -0.294967    0.626788    0.000010
  C      1.040833    1.089816    0.000052
  C      2.081039    0.188487    0.000112
  C      1.838552   -1.204396    0.000102
  C      0.548374   -1.672825    0.000063
  C     -0.553053   -0.782757    0.000029
  C     -1.892237   -1.241392    0.000029
  O      3.367523    0.678514    0.000170
  H     -3.963874   -0.711689    0.000031
  H     -3.521988    1.734057   -0.000039
  H     -1.207277    2.586850   -0.000059
  H      1.244221    2.156337    0.000046
  H      2.680929   -1.890767    0.000136
  H      0.360060   -2.742617    0.000057
  H     -2.075462   -2.312413    0.000048
  H      3.986551   -0.064916    0.000337

 Total Charge           Charge          ....    0
 Multiplicity           Mult            ....    1
 Number of Electrons    NEL             ....   76
 Basis Dimension        Dim             ....  389

ORBITAL ENERGIES
----------------

  NO   OCC          E(Eh)            E(eV)
   0   2.0000     -21.702527      -590.5558
   1   2.0000     -12.116172      -329.6978
   2   2.0000     -12.065334      -328.3144
   3   2.0000     -12.059277      -328.1496
   4   2.0000     -12.057344      -328.0970
   5   2.0000     -12.053475      -327.9917
   6   2.0000     -12.051859      -327.9478
   7   2.0000     -12.051460      -327.9369
   8   2.0000     -12.048791      -327.8643
   9   2.0000     -12.047010      -327.8158
  10   2.0000     -12.044543      -327.7487
  11   2.0000      -1.716075       -46.6968
  12   2.0000      -1.404372       -38.2149
  13   2.0000      -1.351817       -36.7848
  14   2.0000      -1.305502       -35.5245
  15   2.0000      -1.274325       -34.6762
  16   2.0000      -1.253360       -34.1056
  17   2.0000      -1.157284       -31.4913
  18   2.0000      -1.141068       -31.0501
  19   2.0000      -1.092285       -29.7226
  20   2.0000      -1.082795       -29.4644
  21   2.0000      -1.014080       -27.5945
  22   2.0000      -0.988682       -26.9034
  23   2.0000      -0.965624       -26.2760
  24   2.0000      -0.953622       -25.9494
  25   2.0000      -0.949314       -25.8321
  26   2.0000      -0.906357       -24.6632
  27   2.0000      -0.900262       -24.4974
  28   2.0000      -0.886162       -24.1137
  29   2.0000      -0.873970       -23.7819
  30   2.0000      -0.840227       -22.8637
  31   2.0000      -0.824473       -22.4351
  32   2.0000      -0.798873       -21.7384
  33   2.0000      -0.793287       -21.5864
  34   2.0000      -0.727607       -19.7992
  35   2.0000      -0.683298       -18.5935
  36   2.0000      -0.630932       -17.1685
  37   2.0000      -0.600808       -16.3488
  38   0.0000      -0.287596        -7.8259
  39   0.0000      -0.262399        -7.1402
  40   0.0000      -0.200108        -5.4452
  41   0.0000      -0.145339        -3.9549
  42   0.0000      -0.133090        -3.6216

MULLIKEN ATOMIC CHARGES
-----------------------
   0 C :   -0.165248
   1 C :   -0.140317
   2 C :   -0.262906
   3 C :    0.161549
   4 C :   -0.350026
   5 C :    0.294540
   6 C :   -0.234269
   7 C :   -0.234432
   8 C :    0.123612
   9 C :   -0.238135
  10 O :   -0.465598
  11 H :    0.160950
  12 H :    0.161133
  13 H :    0.158144
  14 H :    0.153838
  15 H :    0.172871
  16 H :    0.165191
  17 H :    0.160112
  18 H :    0.378991
Sum of atomic charges:    0.0000000

LOEWDIN ATOMIC CHARGES
----------------------
   0 C :   -0.157691
   1 C :   -0.147533
   2 C :   -0.113184
   3 C :   -0.103325
   4 C :   -0.104851
   5 C :   -0.268671
   6 C :   -0.130501
   7 C :   -0.095760
   8 C :   -0.113422
   9 C :   -0.107598
  10 O :    0.041875
  11 H :    0.150571
  12 H :    0.151773
  13 H :    0.155189
  14 H :    0.158306
  15 H :    0.158798
  16 H :    0.159224
  17 H :    0.156250
  18 H :    0.210548

  Mayer bond orders larger than 0.100000
B(  0-C ,  1-C ) :   1.2463 B(  0-C ,  9-C ) :   1.5519 B(  0-C , 11-H ) :   0.9797
B(  1-C ,  2-C ) :   1.5530 B(  1-C , 12-H ) :   0.9785 B(  2-C ,  3-C ) :   1.2005
B(  2-C , 13-H ) :   0.9890 B(  3-C ,  4-C ) :   1.2314 B(  3-C ,  8-C ) :   1.2368
B(  4-C ,  5-C ) :   1.5152 B(  4-C , 14-H ) :   0.9894 B(  5-C ,  6-C ) :   1.2221
B(  5-C , 10-O ) :   1.1086 B(  6-C ,  7-C ) :   1.5294 B(  6-C , 15-H ) :   0.9695
B(  7-C ,  8-C ) :   1.2033 B(  7-C , 16-H ) :   0.9751 B(  8-C ,  9-C ) :   1.2021
B(  9-C , 17-H ) :   0.9864 B( 10-O , 18-H ) :   0.8483

FINAL SINGLE POINT ENERGY      -461.146571229045

DIPOLE MOMENT
-------------

Method             : SCF
Type of density    : Electron Density
Multiplicity       :   1
Irrep              :   0
Energy             :  -461.1560929402448892 Eh
Relativity type    :
Basis              : AO
                                X                 Y                 Z
Electronic contribution:      2.617671103       0.261480179       0.000019918
Nuclear contribution   :     -2.303843700      -1.163632132       0.000128918
                        -----------------------------------------
Total Dipole Moment    :      0.313827402      -0.902151953       0.000148836
                        -----------------------------------------
Magnitude (a.u.)       :      0.955178416
Magnitude (Debye)      :      2.427870589

Rotational constants in cm-1:             0.095075             0.027561             0.021367
Rotational constants in MHz :          2850.265271           826.260351           640.567053

                             ****ORCA TERMINATED NORMALLY****
TOTAL RUN TIME: 0 days 0 hours 4 minutes 51 seconds 213 msec
