                         Program Version 6.0.0  -   RELEASE  -
|  1> ! r2scan-3c def2/J RI DEFGRID2 scfconv6 printgap
|  2> %output
|  3>     printlevel normal
|  4> end
|  5> * xyz 0 1
|  6> C 4.1154728216 -1.5274920621 -2.3448406816
|  7> C 4.3570117102 -1.6282470641 -0.8529664117
|  8> O 3.1252216473 -1.6298789491 -0.1097377784
|  9> P 2.2304975521 -0.3257221837 0.0465714115
| 10> S 3.2491308015 1.3463246176 0.2162502346
| 11> O 1.2535766727 -0.7517179744 1.217094368
| 12> C 1.6600007095 -1.2921366387 2.4924459787
| 13> C 2.5180130333 -0.3275939483 3.2844435408
| 14> S 0.8551200702 -0.3759722189 -1.5624315487
| 15> C 0.3330963818 1.353796207 -1.4437166226
| 16> S -0.4988710958 1.7347101982 0.1230788333
| 17> P -2.116454272 0.3985387528 -0.1344124128
| 18> S -2.8134458715 0.2312176237 -1.9622230503
| 19> O -3.1671994118 0.9016186507 0.9441302504
| 20> C -3.968488103 2.0794757256 0.7164362104
| 21> C -5.0921070357 2.0813638278 1.7329565554
| 22> O -1.5819831293 -0.92007436 0.5519583814
| 23> C -2.0242589884 -2.2302420629 0.1421169106
| 24> C -3.4384616187 -2.5014177451 0.6093905804
| 25> H 3.4198387192 -2.2974517675 -2.6686148644
| 26> H 3.6952374601 -0.5527763452 -2.5887126647
| 27> H 5.0573813287 -1.646479763 -2.8705040968
| 28> H 4.9696100559 -0.7902389591 -0.5049830792
| 29> H 4.8288607113 -2.5738007545 -0.5826277665
| 30> H 0.7102737428 -1.4853388874 2.9951018876
| 31> H 2.1873132087 -2.2321943276 2.3138310096
| 32> H 2.7107406749 -0.742033265 4.2690645943
| 33> H 3.4668701811 -0.1604002544 2.7766999923
| 34> H 2.0109856344 0.629179007 3.3888655912
| 35> H -0.349884704 1.5287962851 -2.2743165767
| 36> H 1.2042848432 2.00642037 -1.4957156658
| 37> H -3.3263701839 2.9577531783 0.8276360048
| 38> H -4.3519889215 2.045348955 -0.3089138911
| 39> H -5.7190973339 1.2043759319 1.600589013
| 40> H -4.6808960622 2.0722830491 2.738117418
| 41> H -5.6923454312 2.9749701087 1.5972363888
| 42> H -1.9536098003 -2.2976825976 -0.9486794662
| 43> H -1.3025052263 -2.908041366 0.599907014
| 44> H -4.1231221883 -1.8098296738 0.1195699397
| 45> H -3.7166221209 -3.5180855027 0.3502497076
| 46> H -3.5119005711 -2.3653867286 1.6850004744
| 47> *
| 48>
| 49>                          ****END OF INPUT****

CARTESIAN COORDINATES (ANGSTROEM)
---------------------------------
  C      4.115473   -1.527492   -2.344841
  C      4.357012   -1.628247   -0.852966
  O      3.125222   -1.629879   -0.109738
  P      2.230498   -0.325722    0.046571
  S      3.249131    1.346325    0.216250
  O      1.253577   -0.751718    1.217094
  C      1.660001   -1.292137    2.492446
  C      2.518013   -0.327594    3.284444
  S      0.855120   -0.375972   -1.562432
  C      0.333096    1.353796   -1.443717
  S     -0.498871    1.734710    0.123079
  P     -2.116454    0.398539   -0.134412
  S     -2.813446    0.231218   -1.962223
  O     -3.167199    0.901619    0.944130
  C     -3.968488    2.079476    0.716436
  C     -5.092107    2.081364    1.732957
  O     -1.581983   -0.920074    0.551958
  C     -2.024259   -2.230242    0.142117
  C     -3.438462   -2.501418    0.609391
  H      3.419839   -2.297452   -2.668615
  H      3.695237   -0.552776   -2.588713
  H      5.057381   -1.646480   -2.870504
  H      4.969610   -0.790239   -0.504983
  H      4.828861   -2.573801   -0.582628
  H      0.710274   -1.485339    2.995102
  H      2.187313   -2.232194    2.313831
  H      2.710741   -0.742033    4.269065
  H      3.466870   -0.160400    2.776700
  H      2.010986    0.629179    3.388866
  H     -0.349885    1.528796   -2.274317
  H      1.204285    2.006420   -1.495716
  H     -3.326370    2.957753    0.827636
  H     -4.351989    2.045349   -0.308914
  H     -5.719097    1.204376    1.600589
  H     -4.680896    2.072283    2.738117
  H     -5.692345    2.974970    1.597236
  H     -1.953610   -2.297683   -0.948679
  H     -1.302505   -2.908041    0.599907
  H     -4.123122   -1.809830    0.119570
  H     -3.716622   -3.518086    0.350250
  H     -3.511901   -2.365387    1.685000

 Total Charge           Charge          ....    0
 Multiplicity           Mult            ....    1
 Number of Electrons    NEL             ....  202
 Basis Dimension        Dim             ....  539

ORBITAL ENERGIES
----------------

  NO   OCC          E(Eh)            E(eV)
   0   2.0000     -88.571521     -2410.1536
   1   2.0000     -88.570378     -2410.1225
   2   2.0000     -88.517969     -2408.6964
   3   2.0000     -88.517495     -2408.6835
   4   2.0000     -76.913180     -2092.9140
   5   2.0000     -76.909891     -2092.8245
   6   2.0000     -18.996049      -516.9088
   7   2.0000     -18.990209      -516.7499
   8   2.0000     -18.985309      -516.6165
   9   2.0000     -18.984342      -516.5902
  10   2.0000     -10.101666      -274.8803
  11   2.0000     -10.099460      -274.8203
  12   2.0000     -10.099414      -274.8190
  13   2.0000     -10.097007      -274.7535
  14   2.0000     -10.094071      -274.6736
  15   2.0000     -10.032458      -272.9971
  16   2.0000     -10.028893      -272.9001
  17   2.0000     -10.026247      -272.8280
  18   2.0000     -10.025622      -272.8111
  19   2.0000      -7.865940      -214.0431
  20   2.0000      -7.864662      -214.0083
  21   2.0000      -7.812819      -212.5976
  22   2.0000      -7.812356      -212.5850
  23   2.0000      -6.591450      -179.3625
  24   2.0000      -6.588576      -179.2843
  25   2.0000      -5.812884      -158.1766
  26   2.0000      -5.811556      -158.1405
  27   2.0000      -5.809858      -158.0943
  28   2.0000      -5.808564      -158.0591
  29   2.0000      -5.802911      -157.9052
  30   2.0000      -5.801724      -157.8729
  31   2.0000      -5.760437      -156.7495
  32   2.0000      -5.759920      -156.7354
  33   2.0000      -5.753105      -156.5500
  34   2.0000      -5.752843      -156.5428
  35   2.0000      -5.752639      -156.5373
  36   2.0000      -5.752424      -156.5314
  37   2.0000      -4.737405      -128.9113
  38   2.0000      -4.736136      -128.8768
  39   2.0000      -4.735031      -128.8467
  40   2.0000      -4.733896      -128.8159
  41   2.0000      -4.733527      -128.8058
  42   2.0000      -4.732431      -128.7760
  43   2.0000      -1.050406       -28.5830
  44   2.0000      -1.047073       -28.4923
  45   2.0000      -1.008965       -27.4553
  46   2.0000      -1.007499       -27.4154
  47   2.0000      -0.799963       -21.7681
  48   2.0000      -0.757346       -20.6084
  49   2.0000      -0.747533       -20.3414
  50   2.0000      -0.731944       -19.9172
  51   2.0000      -0.730277       -19.8718
  52   2.0000      -0.707772       -19.2594
  53   2.0000      -0.683513       -18.5993
  54   2.0000      -0.665965       -18.1218
  55   2.0000      -0.629752       -17.1364
  56   2.0000      -0.623488       -16.9660
  57   2.0000      -0.610000       -16.5990
  58   2.0000      -0.597388       -16.2557
  59   2.0000      -0.589086       -16.0298
  60   2.0000      -0.526805       -14.3351
  61   2.0000      -0.520223       -14.1560
  62   2.0000      -0.494488       -13.4557
  63   2.0000      -0.488834       -13.3019
  64   2.0000      -0.474569       -12.9137
  65   2.0000      -0.462788       -12.5931
  66   2.0000      -0.452369       -12.3096
  67   2.0000      -0.450670       -12.2633
  68   2.0000      -0.443119       -12.0579
  69   2.0000      -0.430219       -11.7068
  70   2.0000      -0.427810       -11.6413
  71   2.0000      -0.422039       -11.4843
  72   2.0000      -0.408683       -11.1208
  73   2.0000      -0.395186       -10.7536
  74   2.0000      -0.390762       -10.6332
  75   2.0000      -0.385522       -10.4906
  76   2.0000      -0.384892       -10.4734
  77   2.0000      -0.372639       -10.1400
  78   2.0000      -0.371161       -10.0998
  79   2.0000      -0.364251        -9.9118
  80   2.0000      -0.360804        -9.8180
  81   2.0000      -0.357798        -9.7362
  82   2.0000      -0.355040        -9.6611
  83   2.0000      -0.353844        -9.6286
  84   2.0000      -0.347491        -9.4557
  85   2.0000      -0.334711        -9.1079
  86   2.0000      -0.320121        -8.7109
  87   2.0000      -0.314347        -8.5538
  88   2.0000      -0.310293        -8.4435
  89   2.0000      -0.304726        -8.2920
  90   2.0000      -0.295362        -8.0372
  91   2.0000      -0.290499        -7.9049
  92   2.0000      -0.283201        -7.7063
  93   2.0000      -0.275901        -7.5077
  94   2.0000      -0.272413        -7.4127
  95   2.0000      -0.244630        -6.6567
  96   2.0000      -0.226592        -6.1659
  97   2.0000      -0.224794        -6.1169
  98   2.0000      -0.216728        -5.8975
  99   2.0000      -0.209712        -5.7065
 100   2.0000      -0.208245        -5.6666
 101   0.0000      -0.045415        -1.2358
 102   0.0000      -0.022999        -0.6258
 103   0.0000       0.000214         0.0058
 104   0.0000       0.006445         0.1754
 105   0.0000       0.017042         0.4637

MULLIKEN ATOMIC CHARGES
-----------------------
   0 C :   -0.449155
   1 C :   -0.153257
   2 O :   -0.318562
   3 P :    0.691144
   4 S :   -0.469124
   5 O :   -0.243860
   6 C :   -0.166821
   7 C :   -0.431571
   8 S :   -0.125123
   9 C :   -0.236930
  10 S :   -0.144501
  11 P :    0.715522
  12 S :   -0.495218
  13 O :   -0.288346
  14 C :   -0.158827
  15 C :   -0.439655
  16 O :   -0.267345
  17 C :   -0.153182
  18 C :   -0.444011
  19 H :    0.154983
  20 H :    0.177030
  21 H :    0.147472
  22 H :    0.173924
  23 H :    0.146401
  24 H :    0.154096
  25 H :    0.155487
  26 H :    0.143719
  27 H :    0.166535
  28 H :    0.164829
  29 H :    0.210111
  30 H :    0.209628
  31 H :    0.153277
  32 H :    0.170776
  33 H :    0.154544
  34 H :    0.153728
  35 H :    0.146854
  36 H :    0.175644
  37 H :    0.151698
  38 H :    0.168921
  39 H :    0.146124
  40 H :    0.153038
Sum of atomic charges:   -0.0000000

LOEWDIN ATOMIC CHARGES
----------------------
   0 C :   -0.405459
   1 C :    0.019030
   2 O :   -0.667036
   3 P :    0.387622
   4 S :   -0.132100
   5 O :   -0.668585
   6 C :    0.031288
   7 C :   -0.403204
   8 S :    0.177004
   9 C :   -0.420682
  10 S :    0.173124
  11 P :    0.375987
  12 S :   -0.137704
  13 O :   -0.663551
  14 C :    0.018719
  15 C :   -0.385907
  16 O :   -0.662069
  17 C :    0.017923
  18 C :   -0.399619
  19 H :    0.160120
  20 H :    0.166362
  21 H :    0.159609
  22 H :    0.180893
  23 H :    0.178237
  24 H :    0.182344
  25 H :    0.173288
  26 H :    0.156691
  27 H :    0.164320
  28 H :    0.165826
  29 H :    0.189945
  30 H :    0.190035
  31 H :    0.172364
  32 H :    0.180190
  33 H :    0.160013
  34 H :    0.159943
  35 H :    0.159937
  36 H :    0.182231
  37 H :    0.179251
  38 H :    0.165399
  39 H :    0.158998
  40 H :    0.159222

  Mayer bond orders larger than 0.100000
B(  0-C ,  1-C ) :   0.9281 B(  0-C , 19-H ) :   0.9692 B(  0-C , 20-H ) :   0.9613
B(  0-C , 21-H ) :   0.9593 B(  1-C ,  2-O ) :   0.8110 B(  1-C , 22-H ) :   0.9637
B(  1-C , 23-H ) :   0.9591 B(  2-O ,  3-P ) :   1.0551 B(  3-P ,  4-S ) :   1.7576
B(  3-P ,  5-O ) :   1.1400 B(  3-P ,  8-S ) :   1.0743 B(  5-O ,  6-C ) :   0.7798
B(  6-C ,  7-C ) :   0.9360 B(  6-C , 24-H ) :   0.9632 B(  6-C , 25-H ) :   0.9688
B(  7-C , 26-H ) :   0.9636 B(  7-C , 27-H ) :   0.9549 B(  7-C , 28-H ) :   0.9688
B(  8-S ,  9-C ) :   0.9057 B(  9-C , 10-S ) :   0.9127 B(  9-C , 29-H ) :   0.9075
B(  9-C , 30-H ) :   0.9081 B( 10-S , 11-P ) :   1.0627 B( 11-P , 12-S ) :   1.7227
B( 11-P , 13-O ) :   1.0947 B( 11-P , 16-O ) :   1.1721 B( 13-O , 14-C ) :   0.7807
B( 14-C , 15-C ) :   0.9549 B( 14-C , 31-H ) :   0.9457 B( 14-C , 32-H ) :   0.9513
B( 15-C , 33-H ) :   0.9718 B( 15-C , 34-H ) :   0.9718 B( 15-C , 35-H ) :   0.9645
B( 16-O , 17-C ) :   0.7813 B( 17-C , 18-C ) :   0.9255 B( 17-C , 36-H ) :   0.9634
B( 17-C , 37-H ) :   0.9632 B( 18-C , 38-H ) :   0.9608 B( 18-C , 39-H ) :   0.9641
B( 18-C , 40-H ) :   0.9724

Dispersion correction           -0.021347046
FINAL SINGLE POINT ENERGY     -2932.460703947096

DIPOLE MOMENT
-------------

Method             : SCF
Type of density    : Electron Density
Multiplicity       :   1
Irrep              :   0
Energy             : -2932.4856718682613064 Eh
Relativity type    :
Basis              : AO
                                X                 Y                 Z
Electronic contribution:      4.312245271       8.534818716      -9.690376288
Nuclear contribution   :     -4.321070713      -9.530370991      10.546778625
                        -----------------------------------------
Total Dipole Moment    :     -0.008825442      -0.995552275       0.856402337
                        -----------------------------------------
Magnitude (a.u.)       :      1.313250617
Magnitude (Debye)      :      3.338017793

Rotational constants in cm-1:             0.012940             0.004800             0.004675
Rotational constants in MHz :           387.938480           143.891296           140.141263

                             ****ORCA TERMINATED NORMALLY****
TOTAL RUN TIME: 0 days 0 hours 1 minutes 23 seconds 910 msec
