                         Program Version 6.0.0  -   RELEASE  -
|  1> ! r2scan-3c def2/J RI DEFGRID2 scfconv6 printgap
|  2> %output
|  3>     printlevel normal
|  4> end
|  5> %cpcm
|  6>     smd true
|  7>     smdsolvent "water"
|  8> end
|  9> * xyz 0 1
| 10> C 4.1154728216 -1.5274920621 -2.3448406816
| 11> C 4.3570117102 -1.6282470641 -0.8529664117
| 12> O 3.1252216473 -1.6298789491 -0.1097377784
| 13> P 2.2304975521 -0.3257221837 0.0465714115
| 14> S 3.2491308015 1.3463246176 0.2162502346
| 15> O 1.2535766727 -0.7517179744 1.217094368
| 16> C 1.6600007095 -1.2921366387 2.4924459787
| 17> C 2.5180130333 -0.3275939483 3.2844435408
| 18> S 0.8551200702 -0.3759722189 -1.5624315487
| 19> C 0.3330963818 1.353796207 -1.4437166226
| 20> S -0.4988710958 1.7347101982 0.1230788333
| 21> P -2.116454272 0.3985387528 -0.1344124128
| 22> S -2.8134458715 0.2312176237 -1.9622230503
| 23> O -3.1671994118 0.9016186507 0.9441302504
| 24> C -3.968488103 2.0794757256 0.7164362104
| 25> C -5.0921070357 2.0813638278 1.7329565554
| 26> O -1.5819831293 -0.92007436 0.5519583814
| 27> C -2.0242589884 -2.2302420629 0.1421169106
| 28> C -3.4384616187 -2.5014177451 0.6093905804
| 29> H 3.4198387192 -2.2974517675 -2.6686148644
| 30> H 3.6952374601 -0.5527763452 -2.5887126647
| 31> H 5.0573813287 -1.646479763 -2.8705040968
| 32> H 4.9696100559 -0.7902389591 -0.5049830792
| 33> H 4.8288607113 -2.5738007545 -0.5826277665
| 34> H 0.7102737428 -1.4853388874 2.9951018876
| 35> H 2.1873132087 -2.2321943276 2.3138310096
| 36> H 2.7107406749 -0.742033265 4.2690645943
| 37> H 3.4668701811 -0.1604002544 2.7766999923
| 38> H 2.0109856344 0.629179007 3.3888655912
| 39> H -0.349884704 1.5287962851 -2.2743165767
| 40> H 1.2042848432 2.00642037 -1.4957156658
| 41> H -3.3263701839 2.9577531783 0.8276360048
| 42> H -4.3519889215 2.045348955 -0.3089138911
| 43> H -5.7190973339 1.2043759319 1.600589013
| 44> H -4.6808960622 2.0722830491 2.738117418
| 45> H -5.6923454312 2.9749701087 1.5972363888
| 46> H -1.9536098003 -2.2976825976 -0.9486794662
| 47> H -1.3025052263 -2.908041366 0.599907014
| 48> H -4.1231221883 -1.8098296738 0.1195699397
| 49> H -3.7166221209 -3.5180855027 0.3502497076
| 50> H -3.5119005711 -2.3653867286 1.6850004744
| 51> *
| 52>
| 53>                          ****END OF INPUT****

CARTESIAN COORDINATES (ANGSTROEM)
---------------------------------
  C      4.115473   -1.527492   -2.344841
  C      4.357012   -1.628247   -0.852966
  O      3.125222   -1.629879   -0.109738
  P      2.230498   -0.325722    0.046571
  S      3.249131    1.346325    0.216250
  O      1.253577   -0.751718    1.217094
  C      1.660001   -1.292137    2.492446
  C      2.518013   -0.327594    3.284444
  S      0.855120   -0.375972   -1.562432
  C      0.333096    1.353796   -1.443717
  S     -0.498871    1.734710    0.123079
  P     -2.116454    0.398539   -0.134412
  S     -2.813446    0.231218   -1.962223
  O     -3.167199    0.901619    0.944130
  C     -3.968488    2.079476    0.716436
  C     -5.092107    2.081364    1.732957
  O     -1.581983   -0.920074    0.551958
  C     -2.024259   -2.230242    0.142117
  C     -3.438462   -2.501418    0.609391
  H      3.419839   -2.297452   -2.668615
  H      3.695237   -0.552776   -2.588713
  H      5.057381   -1.646480   -2.870504
  H      4.969610   -0.790239   -0.504983
  H      4.828861   -2.573801   -0.582628
  H      0.710274   -1.485339    2.995102
  H      2.187313   -2.232194    2.313831
  H      2.710741   -0.742033    4.269065
  H      3.466870   -0.160400    2.776700
  H      2.010986    0.629179    3.388866
  H     -0.349885    1.528796   -2.274317
  H      1.204285    2.006420   -1.495716
  H     -3.326370    2.957753    0.827636
  H     -4.351989    2.045349   -0.308914
  H     -5.719097    1.204376    1.600589
  H     -4.680896    2.072283    2.738117
  H     -5.692345    2.974970    1.597236
  H     -1.953610   -2.297683   -0.948679
  H     -1.302505   -2.908041    0.599907
  H     -4.123122   -1.809830    0.119570
  H     -3.716622   -3.518086    0.350250
  H     -3.511901   -2.365387    1.685000

 Total Charge           Charge          ....    0
 Multiplicity           Mult            ....    1
 Number of Electrons    NEL             ....  202
 Basis Dimension        Dim             ....  539

ORBITAL ENERGIES
----------------

  NO   OCC          E(Eh)            E(eV)
   0   2.0000     -88.577914     -2410.3276
   1   2.0000     -88.576820     -2410.2978
   2   2.0000     -88.527260     -2408.9492
   3   2.0000     -88.525778     -2408.9089
   4   2.0000     -76.918680     -2093.0637
   5   2.0000     -76.918037     -2093.0462
   6   2.0000     -18.996847      -516.9305
   7   2.0000     -18.995358      -516.8900
   8   2.0000     -18.992109      -516.8016
   9   2.0000     -18.988048      -516.6911
  10   2.0000     -10.104019      -274.9443
  11   2.0000     -10.090139      -274.5666
  12   2.0000     -10.089897      -274.5601
  13   2.0000     -10.089280      -274.5433
  14   2.0000     -10.089055      -274.5371
  15   2.0000     -10.019747      -272.6512
  16   2.0000     -10.018370      -272.6137
  17   2.0000     -10.018270      -272.6110
  18   2.0000     -10.017196      -272.5818
  19   2.0000      -7.872255      -214.2149
  20   2.0000      -7.871292      -214.1887
  21   2.0000      -7.822385      -212.8579
  22   2.0000      -7.820924      -212.8182
  23   2.0000      -6.596965      -179.5126
  24   2.0000      -6.596768      -179.5072
  25   2.0000      -5.819106      -158.3459
  26   2.0000      -5.818219      -158.3218
  27   2.0000      -5.816132      -158.2650
  28   2.0000      -5.815206      -158.2398
  29   2.0000      -5.809393      -158.0816
  30   2.0000      -5.808284      -158.0514
  31   2.0000      -5.769905      -157.0071
  32   2.0000      -5.768482      -156.9684
  33   2.0000      -5.762653      -156.8097
  34   2.0000      -5.762462      -156.8046
  35   2.0000      -5.761165      -156.7693
  36   2.0000      -5.760999      -156.7647
  37   2.0000      -4.742839      -129.0592
  38   2.0000      -4.742045      -129.0376
  39   2.0000      -4.741726      -129.0289
  40   2.0000      -4.741666      -129.0273
  41   2.0000      -4.740679      -129.0004
  42   2.0000      -4.740644      -128.9995
  43   2.0000      -1.053120       -28.6568
  44   2.0000      -1.051597       -28.6154
  45   2.0000      -1.013214       -27.5710
  46   2.0000      -1.009792       -27.4778
  47   2.0000      -0.804663       -21.8960
  48   2.0000      -0.755773       -20.5656
  49   2.0000      -0.742620       -20.2077
  50   2.0000      -0.723843       -19.6968
  51   2.0000      -0.723668       -19.6920
  52   2.0000      -0.708745       -19.2859
  53   2.0000      -0.688392       -18.7321
  54   2.0000      -0.673755       -18.3338
  55   2.0000      -0.629973       -17.1424
  56   2.0000      -0.620992       -16.8981
  57   2.0000      -0.604147       -16.4397
  58   2.0000      -0.592593       -16.1253
  59   2.0000      -0.589113       -16.0306
  60   2.0000      -0.525900       -14.3105
  61   2.0000      -0.516154       -14.0453
  62   2.0000      -0.495034       -13.4706
  63   2.0000      -0.485265       -13.2047
  64   2.0000      -0.474856       -12.9215
  65   2.0000      -0.461254       -12.5514
  66   2.0000      -0.449116       -12.2211
  67   2.0000      -0.446458       -12.1488
  68   2.0000      -0.439999       -11.9730
  69   2.0000      -0.428644       -11.6640
  70   2.0000      -0.426415       -11.6033
  71   2.0000      -0.421385       -11.4665
  72   2.0000      -0.406785       -11.0692
  73   2.0000      -0.396882       -10.7997
  74   2.0000      -0.389427       -10.5968
  75   2.0000      -0.385027       -10.4771
  76   2.0000      -0.383695       -10.4409
  77   2.0000      -0.369241       -10.0475
  78   2.0000      -0.362315        -9.8591
  79   2.0000      -0.358657        -9.7595
  80   2.0000      -0.354025        -9.6335
  81   2.0000      -0.353082        -9.6079
  82   2.0000      -0.349265        -9.5040
  83   2.0000      -0.348388        -9.4801
  84   2.0000      -0.342990        -9.3332
  85   2.0000      -0.332554        -9.0493
  86   2.0000      -0.319891        -8.7047
  87   2.0000      -0.313599        -8.5335
  88   2.0000      -0.304987        -8.2991
  89   2.0000      -0.303001        -8.2451
  90   2.0000      -0.296459        -8.0671
  91   2.0000      -0.288926        -7.8621
  92   2.0000      -0.284733        -7.7480
  93   2.0000      -0.277985        -7.5644
  94   2.0000      -0.276102        -7.5131
  95   2.0000      -0.251229        -6.8363
  96   2.0000      -0.235182        -6.3996
  97   2.0000      -0.233418        -6.3516
  98   2.0000      -0.225658        -6.1405
  99   2.0000      -0.219308        -5.9677
 100   2.0000      -0.216349        -5.8872
 101   0.0000      -0.052348        -1.4245
 102   0.0000      -0.031168        -0.8481
 103   0.0000      -0.005542        -0.1508
 104   0.0000      -0.000303        -0.0082
 105   0.0000       0.013757         0.3743

MULLIKEN ATOMIC CHARGES
-----------------------
   0 C :   -0.485264
   1 C :   -0.150362
   2 O :   -0.338481
   3 P :    0.728776
   4 S :   -0.519013
   5 O :   -0.279876
   6 C :   -0.154028
   7 C :   -0.478479
   8 S :   -0.136623
   9 C :   -0.247599
  10 S :   -0.163835
  11 P :    0.742809
  12 S :   -0.535481
  13 O :   -0.316147
  14 C :   -0.149746
  15 C :   -0.481962
  16 O :   -0.297682
  17 C :   -0.143551
  18 C :   -0.486403
  19 H :    0.169602
  20 H :    0.170268
  21 H :    0.172159
  22 H :    0.177513
  23 H :    0.174552
  24 H :    0.175880
  25 H :    0.174035
  26 H :    0.170076
  27 H :    0.168456
  28 H :    0.169075
  29 H :    0.232227
  30 H :    0.229983
  31 H :    0.170827
  32 H :    0.173120
  33 H :    0.166037
  34 H :    0.165953
  35 H :    0.169532
  36 H :    0.176591
  37 H :    0.178656
  38 H :    0.167315
  39 H :    0.171882
  40 H :    0.169206
Sum of atomic charges:   -0.0000000

LOEWDIN ATOMIC CHARGES
----------------------
   0 C :   -0.408956
   1 C :    0.025401
   2 O :   -0.671555
   3 P :    0.393526
   4 S :   -0.163014
   5 O :   -0.686573
   6 C :    0.037644
   7 C :   -0.407242
   8 S :    0.171179
   9 C :   -0.414683
  10 S :    0.161335
  11 P :    0.379169
  12 S :   -0.162805
  13 O :   -0.677076
  14 C :    0.023470
  15 C :   -0.389104
  16 O :   -0.679145
  17 C :    0.022327
  18 C :   -0.402341
  19 H :    0.163665
  20 H :    0.161412
  21 H :    0.168533
  22 H :    0.181931
  23 H :    0.190287
  24 H :    0.191062
  25 H :    0.182035
  26 H :    0.166982
  27 H :    0.162339
  28 H :    0.163315
  29 H :    0.196521
  30 H :    0.196385
  31 H :    0.179437
  32 H :    0.181504
  33 H :    0.162757
  34 H :    0.163334
  35 H :    0.168976
  36 H :    0.182662
  37 H :    0.190310
  38 H :    0.162450
  39 H :    0.168785
  40 H :    0.163762

  Mayer bond orders larger than 0.100000
B(  0-C ,  1-C ) :   0.9152 B(  0-C , 19-H ) :   0.9667 B(  0-C , 20-H ) :   0.9629
B(  0-C , 21-H ) :   0.9542 B(  1-C ,  2-O ) :   0.7987 B(  1-C , 22-H ) :   0.9633
B(  1-C , 23-H ) :   0.9494 B(  2-O ,  3-P ) :   1.0705 B(  3-P ,  4-S ) :   1.7103
B(  3-P ,  5-O ) :   1.1523 B(  3-P ,  8-S ) :   1.0815 B(  5-O ,  6-C ) :   0.7731
B(  6-C ,  7-C ) :   0.9157 B(  6-C , 24-H ) :   0.9559 B(  6-C , 25-H ) :   0.9601
B(  7-C , 26-H ) :   0.9570 B(  7-C , 27-H ) :   0.9571 B(  7-C , 28-H ) :   0.9712
B(  8-S ,  9-C ) :   0.8984 B(  9-C , 10-S ) :   0.9014 B(  9-C , 29-H ) :   0.9029
B(  9-C , 30-H ) :   0.9030 B( 10-S , 11-P ) :   1.0770 B( 11-P , 12-S ) :   1.6916
B( 11-P , 13-O ) :   1.1010 B( 11-P , 16-O ) :   1.1747 B( 13-O , 14-C ) :   0.7737
B( 14-C , 15-C ) :   0.9519 B( 14-C , 31-H ) :   0.9369 B( 14-C , 32-H ) :   0.9473
B( 15-C , 33-H ) :   0.9693 B( 15-C , 34-H ) :   0.9691 B( 15-C , 35-H ) :   0.9582
B( 16-O , 17-C ) :   0.7682 B( 17-C , 18-C ) :   0.9179 B( 17-C , 36-H ) :   0.9584
B( 17-C , 37-H ) :   0.9518 B( 18-C , 38-H ) :   0.9606 B( 18-C , 39-H ) :   0.9577
B( 18-C , 40-H ) :   0.9708

Dispersion correction           -0.021347046
FINAL SINGLE POINT ENERGY     -2932.469079879072

DIPOLE MOMENT
-------------

Method             : SCF
Type of density    : Electron Density
Multiplicity       :   1
Irrep              :   0
Energy             : -2932.4940478002376949 Eh
Relativity type    :
Basis              : AO
                                X                 Y                 Z
Electronic contribution:      4.388534783       8.160631903      -9.551597724
Nuclear contribution   :     -4.321070713      -9.530370991      10.546778625
                        -----------------------------------------
Total Dipole Moment    :      0.067464069      -1.369739088       0.995180901
                        -----------------------------------------
Magnitude (a.u.)       :      1.694438431
Magnitude (Debye)      :      4.306920214

Rotational constants in cm-1:             0.012940             0.004800             0.004675
Rotational constants in MHz :           387.938480           143.891296           140.141263

                             ****ORCA TERMINATED NORMALLY****
TOTAL RUN TIME: 0 days 0 hours 1 minutes 50 seconds 41 msec
