                         Program Version 6.0.1  -  RELEASE   -
|  1> ! r2scan-3c def2/J RI DEFGRID2 scfconv6 printgap
|  2> %output
|  3>     printlevel normal
|  4> end
|  5> * xyz 0 1
|  6> C 3.2153392007 -4.61575019 -0.5983851921
|  7> C 3.5573820827 -3.5519702652 -1.6294949462
|  8> O 3.4574594282 -2.2329539843 -1.0573204978
|  9> C 2.285192733 -1.629344331 -1.0708532322
| 10> O 1.2776283937 -2.0894658008 -1.5611053872
| 11> C 2.3642199953 -0.2729345367 -0.3996039549
| 12> C 0.9886796138 0.3641500473 -0.3137525134
| 13> H 0.4664082344 0.2380593946 -1.2744540139
| 14> C 1.0324863454 1.8558372016 -0.0411467624
| 15> O 1.9532037746 2.5649925127 -0.3717934703
| 16> O -0.0734931984 2.2671197642 0.5438942781
| 17> C -0.2250865497 3.6714931542 0.8345063224
| 18> C 0.3594804178 4.0022325168 2.19733317
| 19> S -0.0399120063 -0.4832538484 0.930956997
| 20> P -1.9343610717 0.1740976209 0.2263202128
| 21> S -2.0381964738 0.8532179692 -1.6073982429
| 22> O -2.8485823602 -1.1172273644 0.4944196745
| 23> C -2.6978739238 -2.295777368 -0.3016477093
| 24> O -2.5415013296 1.1731203758 1.2861530344
| 25> C -2.6214975758 0.8467761327 2.6882342463
| 26> H 3.3575619576 -5.5982598084 -1.0360579888
| 27> H 3.8579227023 -4.5133550872 0.2715544252
| 28> H 2.1783062756 -4.5141155306 -0.2870604011
| 29> H 2.8831955215 -3.6123724694 -2.488611868
| 30> H 4.5950525418 -3.6303385574 -1.9538672946
| 31> H 3.0222698071 0.3762434688 -0.9825190128
| 32> H 2.8062291742 -0.3960299753 0.5899862708
| 33> H 0.2701180036 4.240591726 0.0431551876
| 34> H -1.3026934636 3.8370648332 0.8030446598
| 35> H 0.1681680319 5.0463656359 2.4209416108
| 36> H -0.0974583318 3.3814492716 2.9630405252
| 37> H 1.4335777976 3.8320830119 2.1940498359
| 38> H -3.4635363737 -2.9843788523 0.0454647051
| 39> H -1.7035604898 -2.7217489175 -0.1620011163
| 40> H -2.8445478277 -2.0574046676 -1.3561833899
| 41> H -2.9399555301 1.7643625089 3.1760904501
| 42> H -1.6440335469 0.5299756624 3.0526807799
| 43> H -3.3506112109 0.0537534709 2.8418108378
| 44> *
| 45>
| 46>                          ****END OF INPUT****

CARTESIAN COORDINATES (ANGSTROEM)
---------------------------------
  C      3.215339   -4.615750   -0.598385
  C      3.557382   -3.551970   -1.629495
  O      3.457459   -2.232954   -1.057320
  C      2.285193   -1.629344   -1.070853
  O      1.277628   -2.089466   -1.561105
  C      2.364220   -0.272935   -0.399604
  C      0.988680    0.364150   -0.313753
  H      0.466408    0.238059   -1.274454
  C      1.032486    1.855837   -0.041147
  O      1.953204    2.564993   -0.371793
  O     -0.073493    2.267120    0.543894
  C     -0.225087    3.671493    0.834506
  C      0.359480    4.002233    2.197333
  S     -0.039912   -0.483254    0.930957
  P     -1.934361    0.174098    0.226320
  S     -2.038196    0.853218   -1.607398
  O     -2.848582   -1.117227    0.494420
  C     -2.697874   -2.295777   -0.301648
  O     -2.541501    1.173120    1.286153
  C     -2.621498    0.846776    2.688234
  H      3.357562   -5.598260   -1.036058
  H      3.857923   -4.513355    0.271554
  H      2.178306   -4.514116   -0.287060
  H      2.883196   -3.612372   -2.488612
  H      4.595053   -3.630339   -1.953867
  H      3.022270    0.376243   -0.982519
  H      2.806229   -0.396030    0.589986
  H      0.270118    4.240592    0.043155
  H     -1.302693    3.837065    0.803045
  H      0.168168    5.046366    2.420942
  H     -0.097458    3.381449    2.963041
  H      1.433578    3.832083    2.194050
  H     -3.463536   -2.984379    0.045465
  H     -1.703560   -2.721749   -0.162001
  H     -2.844548   -2.057405   -1.356183
  H     -2.939956    1.764363    3.176090
  H     -1.644034    0.529976    3.052681
  H     -3.350611    0.053753    2.841811

 Total Charge           Charge          ....    0
 Multiplicity           Mult            ....    1
 Number of Electrons    NEL             ....  174
 Basis Dimension        Dim             ....  510

ORBITAL ENERGIES
----------------

  NO   OCC          E(Eh)            E(eV)
   0   2.0000     -88.572136     -2410.1703
   1   2.0000     -88.515139     -2408.6194
   2   2.0000     -76.911024     -2092.8554
   3   2.0000     -19.005719      -517.1719
   4   2.0000     -19.002760      -517.0914
   5   2.0000     -18.993625      -516.8428
   6   2.0000     -18.987282      -516.6702
   7   2.0000     -18.939122      -515.3597
   8   2.0000     -18.938398      -515.3400
   9   2.0000     -10.163718      -276.5688
  10   2.0000     -10.163128      -276.5528
  11   2.0000     -10.099237      -274.8142
  12   2.0000     -10.098128      -274.7840
  13   2.0000     -10.093629      -274.6616
  14   2.0000     -10.089636      -274.5529
  15   2.0000     -10.084531      -274.4140
  16   2.0000     -10.061864      -273.7972
  17   2.0000     -10.034548      -273.0539
  18   2.0000     -10.032711      -273.0040
  19   2.0000      -7.866560      -214.0600
  20   2.0000      -7.809802      -212.5155
  21   2.0000      -6.589352      -179.3054
  22   2.0000      -5.813390      -158.1904
  23   2.0000      -5.810601      -158.1145
  24   2.0000      -5.803519      -157.9218
  25   2.0000      -5.757705      -156.6751
  26   2.0000      -5.750086      -156.4678
  27   2.0000      -5.749562      -156.4535
  28   2.0000      -4.735076      -128.8480
  29   2.0000      -4.734405      -128.8297
  30   2.0000      -4.732808      -128.7862
  31   2.0000      -1.082793       -29.4643
  32   2.0000      -1.082103       -29.4455
  33   2.0000      -1.048924       -28.5427
  34   2.0000      -1.006500       -27.3882
  35   2.0000      -0.988972       -26.9113
  36   2.0000      -0.987424       -26.8692
  37   2.0000      -0.809619       -22.0308
  38   2.0000      -0.759190       -20.6586
  39   2.0000      -0.743393       -20.2287
  40   2.0000      -0.732228       -19.9250
  41   2.0000      -0.698488       -19.0068
  42   2.0000      -0.672786       -18.3074
  43   2.0000      -0.658581       -17.9209
  44   2.0000      -0.649177       -17.6650
  45   2.0000      -0.635478       -17.2922
  46   2.0000      -0.597213       -16.2510
  47   2.0000      -0.539152       -14.6711
  48   2.0000      -0.532933       -14.5018
  49   2.0000      -0.521252       -14.1840
  50   2.0000      -0.500192       -13.6109
  51   2.0000      -0.492296       -13.3961
  52   2.0000      -0.486868       -13.2484
  53   2.0000      -0.465738       -12.6734
  54   2.0000      -0.459422       -12.5015
  55   2.0000      -0.451887       -12.2965
  56   2.0000      -0.449342       -12.2272
  57   2.0000      -0.443863       -12.0781
  58   2.0000      -0.436733       -11.8841
  59   2.0000      -0.427549       -11.6342
  60   2.0000      -0.421880       -11.4799
  61   2.0000      -0.419898       -11.4260
  62   2.0000      -0.417560       -11.3624
  63   2.0000      -0.399566       -10.8727
  64   2.0000      -0.397005       -10.8030
  65   2.0000      -0.386298       -10.5117
  66   2.0000      -0.378403       -10.2969
  67   2.0000      -0.367923       -10.0117
  68   2.0000      -0.361058        -9.8249
  69   2.0000      -0.354211        -9.6386
  70   2.0000      -0.352096        -9.5810
  71   2.0000      -0.347733        -9.4623
  72   2.0000      -0.340474        -9.2648
  73   2.0000      -0.330336        -8.9889
  74   2.0000      -0.322230        -8.7683
  75   2.0000      -0.314677        -8.5628
  76   2.0000      -0.311186        -8.4678
  77   2.0000      -0.307770        -8.3749
  78   2.0000      -0.287169        -7.8143
  79   2.0000      -0.283496        -7.7143
  80   2.0000      -0.280175        -7.6240
  81   2.0000      -0.272266        -7.4087
  82   2.0000      -0.262477        -7.1424
  83   2.0000      -0.245989        -6.6937
  84   2.0000      -0.223242        -6.0747
  85   2.0000      -0.215503        -5.8641
  86   2.0000      -0.209586        -5.7031
  87   0.0000      -0.044295        -1.2053
  88   0.0000      -0.026590        -0.7236
  89   0.0000      -0.017786        -0.4840
  90   0.0000       0.009232         0.2512
  91   0.0000       0.020220         0.5502

MULLIKEN ATOMIC CHARGES
-----------------------
   0 C :   -0.466975
   1 C :   -0.138640
   2 O :   -0.170485
   3 C :    0.396859
   4 O :   -0.422007
   5 C :   -0.442890
   6 C :   -0.007371
   7 H :    0.252284
   8 C :    0.329183
   9 O :   -0.412945
  10 O :   -0.108685
  11 C :   -0.156735
  12 C :   -0.467709
  13 S :   -0.247795
  14 P :    0.784372
  15 S :   -0.453210
  16 O :   -0.354139
  17 C :   -0.287870
  18 O :   -0.317235
  19 C :   -0.296560
  20 H :    0.149046
  21 H :    0.153785
  22 H :    0.170401
  23 H :    0.170191
  24 H :    0.151307
  25 H :    0.213378
  26 H :    0.185868
  27 H :    0.171729
  28 H :    0.170702
  29 H :    0.151723
  30 H :    0.150645
  31 H :    0.170300
  32 H :    0.147521
  33 H :    0.165059
  34 H :    0.173577
  35 H :    0.156011
  36 H :    0.167392
  37 H :    0.169917
Sum of atomic charges:   -0.0000000

LOEWDIN ATOMIC CHARGES
----------------------
   0 C :   -0.388652
   1 C :    0.030518
   2 O :   -0.583172
   3 C :    0.358604
   4 O :   -0.441195
   5 C :   -0.203424
   6 C :   -0.196663
   7 H :    0.227294
   8 C :    0.356187
   9 O :   -0.423034
  10 O :   -0.627067
  11 C :    0.035464
  12 C :   -0.386293
  13 S :    0.213044
  14 P :    0.400634
  15 S :   -0.085412
  16 O :   -0.685619
  17 C :   -0.058774
  18 O :   -0.651091
  19 C :   -0.054163
  20 H :    0.160222
  21 H :    0.157905
  22 H :    0.164547
  23 H :    0.189015
  24 H :    0.179298
  25 H :    0.210101
  26 H :    0.191479
  27 H :    0.191061
  28 H :    0.186730
  29 H :    0.160313
  30 H :    0.156326
  31 H :    0.164204
  32 H :    0.174821
  33 H :    0.173390
  34 H :    0.177072
  35 H :    0.178900
  36 H :    0.172816
  37 H :    0.174613

  Mayer bond orders larger than 0.100000
B(  0-C ,  1-C ) :   0.9389 B(  0-C , 20-H ) :   0.9641 B(  0-C , 21-H ) :   0.9735
B(  0-C , 22-H ) :   0.9717 B(  1-C ,  2-O ) :   0.8024 B(  1-C , 23-H ) :   0.9675
B(  1-C , 24-H ) :   0.9616 B(  2-O ,  3-C ) :   1.1124 B(  3-C ,  4-O ) :   1.8392
B(  3-C ,  5-C ) :   0.9662 B(  5-C ,  6-C ) :   0.9590 B(  5-C , 25-H ) :   0.9176
B(  5-C , 26-H ) :   0.9635 B(  6-C ,  7-H ) :   0.9128 B(  6-C ,  8-C ) :   0.8678
B(  6-C , 13-S ) :   0.8021 B(  8-C ,  9-O ) :   1.8871 B(  8-C , 10-O ) :   1.1874
B( 10-O , 11-C ) :   0.7631 B( 11-C , 12-C ) :   0.9169 B( 11-C , 27-H ) :   0.9608
B( 11-C , 28-H ) :   0.9622 B( 12-C , 29-H ) :   0.9674 B( 12-C , 30-H ) :   0.9783
B( 12-C , 31-H ) :   0.9726 B( 13-S , 14-P ) :   1.0030 B( 14-P , 15-S ) :   1.8003
B( 14-P , 16-O ) :   1.0404 B( 14-P , 18-O ) :   1.1509 B( 16-O , 17-C ) :   0.8337
B( 17-C , 32-H ) :   0.9678 B( 17-C , 33-H ) :   0.9518 B( 17-C , 34-H ) :   0.9584
B( 18-O , 19-C ) :   0.7928 B( 19-C , 35-H ) :   0.9663 B( 19-C , 36-H ) :   0.9569
B( 19-C , 37-H ) :   0.9598

Dispersion correction           -0.017166900
FINAL SINGLE POINT ENERGY     -1981.454219825002

DIPOLE MOMENT
-------------

Method             : SCF
Type of density    : Electron Density
Multiplicity       :   1
Irrep              :   0
Energy             : -1981.4745720318796884 Eh
Relativity type    :
Basis              : AO
                                X                 Y                 Z
Electronic contribution:     -8.596923517       5.592940216      -6.622063310
Nuclear contribution   :      9.023462327      -6.469959131       8.120700242
                        -----------------------------------------
Total Dipole Moment    :      0.426538810      -0.877018914       1.498636932
                        -----------------------------------------
Magnitude (a.u.)       :      1.788018509
Magnitude (Debye)      :      4.544781869

Rotational constants in cm-1:             0.012832             0.006762             0.005285
Rotational constants in MHz :           384.688949           202.730483           158.437872

                             ****ORCA TERMINATED NORMALLY****
TOTAL RUN TIME: 0 days 0 hours 1 minutes 21 seconds 925 msec
