                         Program Version 6.0.1  -  RELEASE   -
|  1> ! r2scan-3c def2/J RI DEFGRID2 scfconv6 printgap
|  2> %output
|  3>     printlevel normal
|  4> end
|  5> %cpcm
|  6>     smd true
|  7>     smdsolvent "water"
|  8> end
|  9> * xyz 0 1
| 10> C 3.2153392007 -4.61575019 -0.5983851921
| 11> C 3.5573820827 -3.5519702652 -1.6294949462
| 12> O 3.4574594282 -2.2329539843 -1.0573204978
| 13> C 2.285192733 -1.629344331 -1.0708532322
| 14> O 1.2776283937 -2.0894658008 -1.5611053872
| 15> C 2.3642199953 -0.2729345367 -0.3996039549
| 16> C 0.9886796138 0.3641500473 -0.3137525134
| 17> H 0.4664082344 0.2380593946 -1.2744540139
| 18> C 1.0324863454 1.8558372016 -0.0411467624
| 19> O 1.9532037746 2.5649925127 -0.3717934703
| 20> O -0.0734931984 2.2671197642 0.5438942781
| 21> C -0.2250865497 3.6714931542 0.8345063224
| 22> C 0.3594804178 4.0022325168 2.19733317
| 23> S -0.0399120063 -0.4832538484 0.930956997
| 24> P -1.9343610717 0.1740976209 0.2263202128
| 25> S -2.0381964738 0.8532179692 -1.6073982429
| 26> O -2.8485823602 -1.1172273644 0.4944196745
| 27> C -2.6978739238 -2.295777368 -0.3016477093
| 28> O -2.5415013296 1.1731203758 1.2861530344
| 29> C -2.6214975758 0.8467761327 2.6882342463
| 30> H 3.3575619576 -5.5982598084 -1.0360579888
| 31> H 3.8579227023 -4.5133550872 0.2715544252
| 32> H 2.1783062756 -4.5141155306 -0.2870604011
| 33> H 2.8831955215 -3.6123724694 -2.488611868
| 34> H 4.5950525418 -3.6303385574 -1.9538672946
| 35> H 3.0222698071 0.3762434688 -0.9825190128
| 36> H 2.8062291742 -0.3960299753 0.5899862708
| 37> H 0.2701180036 4.240591726 0.0431551876
| 38> H -1.3026934636 3.8370648332 0.8030446598
| 39> H 0.1681680319 5.0463656359 2.4209416108
| 40> H -0.0974583318 3.3814492716 2.9630405252
| 41> H 1.4335777976 3.8320830119 2.1940498359
| 42> H -3.4635363737 -2.9843788523 0.0454647051
| 43> H -1.7035604898 -2.7217489175 -0.1620011163
| 44> H -2.8445478277 -2.0574046676 -1.3561833899
| 45> H -2.9399555301 1.7643625089 3.1760904501
| 46> H -1.6440335469 0.5299756624 3.0526807799
| 47> H -3.3506112109 0.0537534709 2.8418108378
| 48> *
| 49>
| 50>                          ****END OF INPUT****

CARTESIAN COORDINATES (ANGSTROEM)
---------------------------------
  C      3.215339   -4.615750   -0.598385
  C      3.557382   -3.551970   -1.629495
  O      3.457459   -2.232954   -1.057320
  C      2.285193   -1.629344   -1.070853
  O      1.277628   -2.089466   -1.561105
  C      2.364220   -0.272935   -0.399604
  C      0.988680    0.364150   -0.313753
  H      0.466408    0.238059   -1.274454
  C      1.032486    1.855837   -0.041147
  O      1.953204    2.564993   -0.371793
  O     -0.073493    2.267120    0.543894
  C     -0.225087    3.671493    0.834506
  C      0.359480    4.002233    2.197333
  S     -0.039912   -0.483254    0.930957
  P     -1.934361    0.174098    0.226320
  S     -2.038196    0.853218   -1.607398
  O     -2.848582   -1.117227    0.494420
  C     -2.697874   -2.295777   -0.301648
  O     -2.541501    1.173120    1.286153
  C     -2.621498    0.846776    2.688234
  H      3.357562   -5.598260   -1.036058
  H      3.857923   -4.513355    0.271554
  H      2.178306   -4.514116   -0.287060
  H      2.883196   -3.612372   -2.488612
  H      4.595053   -3.630339   -1.953867
  H      3.022270    0.376243   -0.982519
  H      2.806229   -0.396030    0.589986
  H      0.270118    4.240592    0.043155
  H     -1.302693    3.837065    0.803045
  H      0.168168    5.046366    2.420942
  H     -0.097458    3.381449    2.963041
  H      1.433578    3.832083    2.194050
  H     -3.463536   -2.984379    0.045465
  H     -1.703560   -2.721749   -0.162001
  H     -2.844548   -2.057405   -1.356183
  H     -2.939956    1.764363    3.176090
  H     -1.644034    0.529976    3.052681
  H     -3.350611    0.053753    2.841811

 Total Charge           Charge          ....    0
 Multiplicity           Mult            ....    1
 Number of Electrons    NEL             ....  174
 Basis Dimension        Dim             ....  510

ORBITAL ENERGIES
----------------

  NO   OCC          E(Eh)            E(eV)
   0   2.0000     -88.578488     -2410.3432
   1   2.0000     -88.529680     -2409.0151
   2   2.0000     -76.920402     -2093.1106
   3   2.0000     -19.009590      -517.2772
   4   2.0000     -19.007288      -517.2146
   5   2.0000     -18.997684      -516.9533
   6   2.0000     -18.993921      -516.8509
   7   2.0000     -18.953495      -515.7508
   8   2.0000     -18.949296      -515.6365
   9   2.0000     -10.175029      -276.8766
  10   2.0000     -10.171252      -276.7738
  11   2.0000     -10.094562      -274.6870
  12   2.0000     -10.087838      -274.5040
  13   2.0000     -10.085964      -274.4530
  14   2.0000     -10.085313      -274.4353
  15   2.0000     -10.080959      -274.3168
  16   2.0000     -10.058625      -273.7091
  17   2.0000     -10.020349      -272.6676
  18   2.0000     -10.019283      -272.6385
  19   2.0000      -7.872822      -214.2304
  20   2.0000      -7.824722      -212.9215
  21   2.0000      -6.598805      -179.5626
  22   2.0000      -5.819684      -158.3616
  23   2.0000      -5.816883      -158.2854
  24   2.0000      -5.809737      -158.0910
  25   2.0000      -5.772470      -157.0769
  26   2.0000      -5.765079      -156.8758
  27   2.0000      -5.764489      -156.8597
  28   2.0000      -4.744479      -129.1038
  29   2.0000      -4.743810      -129.0856
  30   2.0000      -4.742401      -129.0473
  31   2.0000      -1.090555       -29.6755
  32   2.0000      -1.085648       -29.5420
  33   2.0000      -1.053807       -28.6755
  34   2.0000      -1.011234       -27.5171
  35   2.0000      -1.001466       -27.2513
  36   2.0000      -0.996215       -27.1084
  37   2.0000      -0.813112       -22.1259
  38   2.0000      -0.753883       -20.5142
  39   2.0000      -0.739378       -20.1195
  40   2.0000      -0.731462       -19.9041
  41   2.0000      -0.695902       -18.9364
  42   2.0000      -0.669959       -18.2305
  43   2.0000      -0.660758       -17.9802
  44   2.0000      -0.653325       -17.7779
  45   2.0000      -0.629162       -17.1204
  46   2.0000      -0.594081       -16.1658
  47   2.0000      -0.540507       -14.7080
  48   2.0000      -0.528111       -14.3706
  49   2.0000      -0.520365       -14.1599
  50   2.0000      -0.503311       -13.6958
  51   2.0000      -0.492600       -13.4043
  52   2.0000      -0.488438       -13.2911
  53   2.0000      -0.465853       -12.6765
  54   2.0000      -0.462757       -12.5923
  55   2.0000      -0.460859       -12.5406
  56   2.0000      -0.449661       -12.2359
  57   2.0000      -0.448421       -12.2022
  58   2.0000      -0.439492       -11.9592
  59   2.0000      -0.426887       -11.6162
  60   2.0000      -0.419697       -11.4205
  61   2.0000      -0.418044       -11.3755
  62   2.0000      -0.411442       -11.1959
  63   2.0000      -0.397491       -10.8163
  64   2.0000      -0.393913       -10.7189
  65   2.0000      -0.382575       -10.4104
  66   2.0000      -0.372731       -10.1425
  67   2.0000      -0.364941        -9.9305
  68   2.0000      -0.359397        -9.7797
  69   2.0000      -0.354432        -9.6446
  70   2.0000      -0.349149        -9.5008
  71   2.0000      -0.345849        -9.4110
  72   2.0000      -0.336457        -9.1555
  73   2.0000      -0.330443        -8.9918
  74   2.0000      -0.320880        -8.7316
  75   2.0000      -0.314710        -8.5637
  76   2.0000      -0.307671        -8.3722
  77   2.0000      -0.307424        -8.3654
  78   2.0000      -0.290405        -7.9023
  79   2.0000      -0.287684        -7.8283
  80   2.0000      -0.283079        -7.7030
  81   2.0000      -0.278220        -7.5708
  82   2.0000      -0.274064        -7.4577
  83   2.0000      -0.258258        -7.0276
  84   2.0000      -0.235289        -6.4025
  85   2.0000      -0.230553        -6.2737
  86   2.0000      -0.223122        -6.0714
  87   0.0000      -0.051899        -1.4122
  88   0.0000      -0.034835        -0.9479
  89   0.0000      -0.024366        -0.6630
  90   0.0000       0.003797         0.1033
  91   0.0000       0.013445         0.3658

MULLIKEN ATOMIC CHARGES
-----------------------
   0 C :   -0.494407
   1 C :   -0.142809
   2 O :   -0.184799
   3 C :    0.424300
   4 O :   -0.489610
   5 C :   -0.443995
   6 C :   -0.006946
   7 H :    0.252568
   8 C :    0.347023
   9 O :   -0.471011
  10 O :   -0.122133
  11 C :   -0.155243
  12 C :   -0.496381
  13 S :   -0.232503
  14 P :    0.801583
  15 S :   -0.514291
  16 O :   -0.374987
  17 C :   -0.308238
  18 O :   -0.354215
  19 C :   -0.298814
  20 H :    0.171598
  21 H :    0.167135
  22 H :    0.169604
  23 H :    0.174571
  24 H :    0.176386
  25 H :    0.225767
  26 H :    0.223335
  27 H :    0.177803
  28 H :    0.182840
  29 H :    0.174600
  30 H :    0.169843
  31 H :    0.171652
  32 H :    0.179705
  33 H :    0.172693
  34 H :    0.178534
  35 H :    0.184906
  36 H :    0.178782
  37 H :    0.185156
Sum of atomic charges:   -0.0000000

LOEWDIN ATOMIC CHARGES
----------------------
   0 C :   -0.391392
   1 C :    0.035889
   2 O :   -0.583236
   3 C :    0.370595
   4 O :   -0.491150
   5 C :   -0.199099
   6 C :   -0.194194
   7 H :    0.226136
   8 C :    0.364389
   9 O :   -0.465498
  10 O :   -0.628310
  11 C :    0.039841
  12 C :   -0.387312
  13 S :    0.226283
  14 P :    0.400920
  15 S :   -0.132498
  16 O :   -0.694824
  17 C :   -0.056805
  18 O :   -0.669368
  19 C :   -0.043612
  20 H :    0.168582
  21 H :    0.162499
  22 H :    0.162795
  23 H :    0.190504
  24 H :    0.190268
  25 H :    0.216868
  26 H :    0.205829
  27 H :    0.192891
  28 H :    0.192803
  29 H :    0.169212
  30 H :    0.163366
  31 H :    0.163562
  32 H :    0.188675
  33 H :    0.175598
  34 H :    0.177112
  35 H :    0.191719
  36 H :    0.179260
  37 H :    0.181700

  Mayer bond orders larger than 0.100000
B(  0-C ,  1-C ) :   0.9368 B(  0-C , 20-H ) :   0.9590 B(  0-C , 21-H ) :   0.9698
B(  0-C , 22-H ) :   0.9692 B(  1-C ,  2-O ) :   0.7849 B(  1-C , 23-H ) :   0.9634
B(  1-C , 24-H ) :   0.9520 B(  2-O ,  3-C ) :   1.1324 B(  3-C ,  4-O ) :   1.7936
B(  3-C ,  5-C ) :   0.9703 B(  5-C ,  6-C ) :   0.9623 B(  5-C , 25-H ) :   0.9096
B(  5-C , 26-H ) :   0.9501 B(  6-C ,  7-H ) :   0.9091 B(  6-C ,  8-C ) :   0.8789
B(  6-C , 13-S ) :   0.8082 B(  8-C ,  9-O ) :   1.8423 B(  8-C , 10-O ) :   1.2083
B( 10-O , 11-C ) :   0.7495 B( 11-C , 12-C ) :   0.9177 B( 11-C , 27-H ) :   0.9548
B( 11-C , 28-H ) :   0.9533 B( 12-C , 29-H ) :   0.9612 B( 12-C , 30-H ) :   0.9724
B( 12-C , 31-H ) :   0.9698 B( 13-S , 14-P ) :   1.0186 B( 14-P , 15-S ) :   1.7713
B( 14-P , 16-O ) :   1.0415 B( 14-P , 18-O ) :   1.1560 B( 16-O , 17-C ) :   0.8232
B( 17-C , 32-H ) :   0.9569 B( 17-C , 33-H ) :   0.9485 B( 17-C , 34-H ) :   0.9554
B( 18-O , 19-C ) :   0.7850 B( 19-C , 35-H ) :   0.9547 B( 19-C , 36-H ) :   0.9476
B( 19-C , 37-H ) :   0.9516

Dispersion correction           -0.017166900
FINAL SINGLE POINT ENERGY     -1981.467895319605

DIPOLE MOMENT
-------------

Method             : SCF
Type of density    : Electron Density
Multiplicity       :   1
Irrep              :   0
Energy             : -1981.4882475264823825 Eh
Relativity type    :
Basis              : AO
                                X                 Y                 Z
Electronic contribution:     -8.322624847       5.327497588      -5.881016115
Nuclear contribution   :      9.023462327      -6.469959131       8.120700242
                        -----------------------------------------
Total Dipole Moment    :      0.700837480      -1.142461543       2.239684128
                        -----------------------------------------
Magnitude (a.u.)       :      2.610091290
Magnitude (Debye)      :      6.634324820

Rotational constants in cm-1:             0.012832             0.006762             0.005285
Rotational constants in MHz :           384.688949           202.730483           158.437872

                             ****ORCA TERMINATED NORMALLY****
TOTAL RUN TIME: 0 days 0 hours 1 minutes 50 seconds 151 msec
