                         Program Version 6.0.0  -   RELEASE  -
|  1> ! r2scan-3c def2/J RI DEFGRID2 scfconv6 printgap
|  2> %output
|  3>     printlevel normal
|  4> end
|  5> * xyz 0 1
|  6> C 4.3115839092 -0.1693872991 -2.1805352298
|  7> C 4.4829749129 -0.4696223197 -0.7052388196
|  8> O 3.2232318701 -0.7195922464 -0.0600839186
|  9> P 2.2003393133 0.4645243977 0.2558477967
| 10> S 3.0199802898 2.1890970923 0.6908907845
| 11> O 1.2534675397 -0.2029612595 1.3340049031
| 12> C 1.7058416251 -1.0138695786 2.4403318966
| 13> C 2.6413888416 -0.2582132344 3.3597248122
| 14> S 0.8604514065 0.5645880384 -1.3767146535
| 15> C 0.4200021454 -1.1891043692 -1.5586184603
| 16> S -0.6868924612 -1.8348825328 -0.2655676637
| 17> P -2.1071009729 -0.2845933425 -0.3012647158
| 18> S -2.6167700556 0.41390822 -2.0654626261
| 19> O -1.4936543656 0.7432403912 0.7364379206
| 20> C -1.7649804454 2.154907569 0.6686529801
| 21> C -3.1847705959 2.4635165293 1.0929380474
| 22> O -3.3046083582 -0.8914862434 0.5466318948
| 23> C -4.2310792325 -1.8383585835 -0.0254943524
| 24> C -5.4747519215 -1.8567329289 0.8398604617
| 25> H 5.2884666314 -0.0397615468 -2.6350659411
| 26> H 3.7888102911 -0.9801386204 -2.6811931677
| 27> H 3.7404850593 0.7499796398 -2.3070111225
| 28> H 4.9697058054 0.3705718978 -0.1996884948
| 29> H 5.0525063263 -1.3853541394 -0.5411911651
| 30> H 0.7781880093 -1.2902082212 2.9446912312
| 31> H 2.1865927525 -1.9071925469 2.0361096608
| 32> H 2.9028645663 -0.887168375 4.2049110561
| 33> H 3.5496309343 0.0187163597 2.8255564712
| 34> H 2.1665146761 0.6513554866 3.720178021
| 35> H 1.3155899514 -1.8048343313 -1.5322417771
| 36> H -0.0808667242 -1.2552988603 -2.5230933165
| 37> H -1.0276875546 2.6002541953 1.3394734662
| 38> H -1.5789413983 2.4981337109 -0.3553051034
| 39> H -3.332438492 3.5387821227 1.1050918961
| 40> H -3.8819070558 2.0161890522 0.385030895
| 41> H -3.3766995568 2.0569798865 2.0823372019
| 42> H -4.4582411769 -1.5267335589 -1.0505929632
| 43> H -3.7458297111 -2.8176980469 -0.0479623308
| 44> H -5.9462118562 -0.8781318116 0.8406467237
| 45> H -6.1713335448 -2.5890464432 0.4452573718
| 46> H -5.2117457578 -2.1214246242 1.8597818092
| 47> *
| 48>
| 49>                          ****END OF INPUT****

CARTESIAN COORDINATES (ANGSTROEM)
---------------------------------
  C      4.311584   -0.169387   -2.180535
  C      4.482975   -0.469622   -0.705239
  O      3.223232   -0.719592   -0.060084
  P      2.200339    0.464524    0.255848
  S      3.019980    2.189097    0.690891
  O      1.253468   -0.202961    1.334005
  C      1.705842   -1.013870    2.440332
  C      2.641389   -0.258213    3.359725
  S      0.860451    0.564588   -1.376715
  C      0.420002   -1.189104   -1.558618
  S     -0.686892   -1.834883   -0.265568
  P     -2.107101   -0.284593   -0.301265
  S     -2.616770    0.413908   -2.065463
  O     -1.493654    0.743240    0.736438
  C     -1.764980    2.154908    0.668653
  C     -3.184771    2.463517    1.092938
  O     -3.304608   -0.891486    0.546632
  C     -4.231079   -1.838359   -0.025494
  C     -5.474752   -1.856733    0.839860
  H      5.288467   -0.039762   -2.635066
  H      3.788810   -0.980139   -2.681193
  H      3.740485    0.749980   -2.307011
  H      4.969706    0.370572   -0.199688
  H      5.052506   -1.385354   -0.541191
  H      0.778188   -1.290208    2.944691
  H      2.186593   -1.907193    2.036110
  H      2.902865   -0.887168    4.204911
  H      3.549631    0.018716    2.825556
  H      2.166515    0.651355    3.720178
  H      1.315590   -1.804834   -1.532242
  H     -0.080867   -1.255299   -2.523093
  H     -1.027688    2.600254    1.339473
  H     -1.578941    2.498134   -0.355305
  H     -3.332438    3.538782    1.105092
  H     -3.881907    2.016189    0.385031
  H     -3.376700    2.056980    2.082337
  H     -4.458241   -1.526734   -1.050593
  H     -3.745830   -2.817698   -0.047962
  H     -5.946212   -0.878132    0.840647
  H     -6.171334   -2.589046    0.445257
  H     -5.211746   -2.121425    1.859782

 Total Charge           Charge          ....    0
 Multiplicity           Mult            ....    1
 Number of Electrons    NEL             ....  202
 Basis Dimension        Dim             ....  539

ORBITAL ENERGIES
----------------

  NO   OCC          E(Eh)            E(eV)
   0   2.0000     -88.574188     -2410.2262
   1   2.0000     -88.573596     -2410.2101
   2   2.0000     -88.518389     -2408.7078
   3   2.0000     -88.518371     -2408.7073
   4   2.0000     -76.913315     -2092.9177
   5   2.0000     -76.912003     -2092.8820
   6   2.0000     -18.996530      -516.9219
   7   2.0000     -18.991438      -516.7833
   8   2.0000     -18.985437      -516.6200
   9   2.0000     -18.983606      -516.5702
  10   2.0000     -10.110630      -275.1242
  11   2.0000     -10.101012      -274.8625
  12   2.0000     -10.099802      -274.8296
  13   2.0000     -10.098287      -274.7884
  14   2.0000     -10.088870      -274.5321
  15   2.0000     -10.033399      -273.0227
  16   2.0000     -10.031351      -272.9669
  17   2.0000     -10.028260      -272.8828
  18   2.0000     -10.022412      -272.7237
  19   2.0000      -7.868273      -214.1066
  20   2.0000      -7.868189      -214.1043
  21   2.0000      -7.813100      -212.6052
  22   2.0000      -7.813027      -212.6033
  23   2.0000      -6.591387      -179.3608
  24   2.0000      -6.590466      -179.3357
  25   2.0000      -5.815575      -158.2498
  26   2.0000      -5.815208      -158.2399
  27   2.0000      -5.812132      -158.1562
  28   2.0000      -5.811611      -158.1420
  29   2.0000      -5.805263      -157.9692
  30   2.0000      -5.805260      -157.9692
  31   2.0000      -5.760712      -156.7569
  32   2.0000      -5.760649      -156.7552
  33   2.0000      -5.753432      -156.5589
  34   2.0000      -5.753300      -156.5553
  35   2.0000      -5.753106      -156.5500
  36   2.0000      -5.753098      -156.5497
  37   2.0000      -4.737334      -128.9094
  38   2.0000      -4.736244      -128.8798
  39   2.0000      -4.735796      -128.8676
  40   2.0000      -4.735441      -128.8579
  41   2.0000      -4.734852      -128.8419
  42   2.0000      -4.734329      -128.8276
  43   2.0000      -1.051210       -28.6049
  44   2.0000      -1.046784       -28.4844
  45   2.0000      -1.009809       -27.4783
  46   2.0000      -1.007158       -27.4062
  47   2.0000      -0.800912       -21.7939
  48   2.0000      -0.758385       -20.6367
  49   2.0000      -0.748350       -20.3636
  50   2.0000      -0.734123       -19.9765
  51   2.0000      -0.728105       -19.8127
  52   2.0000      -0.709870       -19.3165
  53   2.0000      -0.687200       -18.6997
  54   2.0000      -0.667358       -18.1597
  55   2.0000      -0.627643       -17.0790
  56   2.0000      -0.623001       -16.9527
  57   2.0000      -0.611347       -16.6356
  58   2.0000      -0.599460       -16.3121
  59   2.0000      -0.593116       -16.1395
  60   2.0000      -0.527432       -14.3522
  61   2.0000      -0.521974       -14.2036
  62   2.0000      -0.493741       -13.4354
  63   2.0000      -0.490392       -13.3442
  64   2.0000      -0.476136       -12.9563
  65   2.0000      -0.463379       -12.6092
  66   2.0000      -0.457140       -12.4394
  67   2.0000      -0.449585       -12.2338
  68   2.0000      -0.442373       -12.0376
  69   2.0000      -0.433448       -11.7947
  70   2.0000      -0.429121       -11.6770
  71   2.0000      -0.419209       -11.4073
  72   2.0000      -0.408648       -11.1199
  73   2.0000      -0.404029       -10.9942
  74   2.0000      -0.396159       -10.7800
  75   2.0000      -0.386648       -10.5212
  76   2.0000      -0.384342       -10.4585
  77   2.0000      -0.372404       -10.1336
  78   2.0000      -0.369651       -10.0587
  79   2.0000      -0.366289        -9.9672
  80   2.0000      -0.359657        -9.7868
  81   2.0000      -0.356992        -9.7143
  82   2.0000      -0.355630        -9.6772
  83   2.0000      -0.351618        -9.5680
  84   2.0000      -0.346510        -9.4290
  85   2.0000      -0.337713        -9.1896
  86   2.0000      -0.325752        -8.8642
  87   2.0000      -0.315591        -8.5877
  88   2.0000      -0.309486        -8.4215
  89   2.0000      -0.306673        -8.3450
  90   2.0000      -0.293883        -7.9970
  91   2.0000      -0.293022        -7.9735
  92   2.0000      -0.281540        -7.6611
  93   2.0000      -0.277493        -7.5510
  94   2.0000      -0.272606        -7.4180
  95   2.0000      -0.243289        -6.6202
  96   2.0000      -0.231966        -6.3121
  97   2.0000      -0.218931        -5.9574
  98   2.0000      -0.217911        -5.9297
  99   2.0000      -0.211664        -5.7597
 100   2.0000      -0.209503        -5.7009
 101   0.0000      -0.045530        -1.2389
 102   0.0000      -0.017470        -0.4754
 103   0.0000      -0.004388        -0.1194
 104   0.0000       0.001407         0.0383
 105   0.0000       0.008574         0.2333

MULLIKEN ATOMIC CHARGES
-----------------------
   0 C :   -0.435223
   1 C :   -0.161741
   2 O :   -0.316500
   3 P :    0.671279
   4 S :   -0.450948
   5 O :   -0.241749
   6 C :   -0.141599
   7 C :   -0.445071
   8 S :   -0.124269
   9 C :   -0.245274
  10 S :   -0.132717
  11 P :    0.700073
  12 S :   -0.477425
  13 O :   -0.272186
  14 C :   -0.148312
  15 C :   -0.451146
  16 O :   -0.288971
  17 C :   -0.155319
  18 C :   -0.439958
  19 H :    0.148296
  20 H :    0.145027
  21 H :    0.178360
  22 H :    0.173169
  23 H :    0.146995
  24 H :    0.156992
  25 H :    0.155218
  26 H :    0.145457
  27 H :    0.163645
  28 H :    0.163993
  29 H :    0.185332
  30 H :    0.208674
  31 H :    0.163435
  32 H :    0.176652
  33 H :    0.147429
  34 H :    0.166677
  35 H :    0.153728
  36 H :    0.171819
  37 H :    0.150152
  38 H :    0.156034
  39 H :    0.146682
  40 H :    0.153292
Sum of atomic charges:   -0.0000000

LOEWDIN ATOMIC CHARGES
----------------------
   0 C :   -0.402255
   1 C :    0.017155
   2 O :   -0.685573
   3 P :    0.369700
   4 S :   -0.113118
   5 O :   -0.681359
   6 C :    0.027122
   7 C :   -0.400208
   8 S :    0.192567
   9 C :   -0.409994
  10 S :    0.179611
  11 P :    0.368268
  12 S :   -0.128924
  13 O :   -0.665571
  14 C :    0.018638
  15 C :   -0.399822
  16 O :   -0.663031
  17 C :    0.018492
  18 C :   -0.386002
  19 H :    0.160342
  20 H :    0.155402
  21 H :    0.168715
  22 H :    0.181837
  23 H :    0.177564
  24 H :    0.183870
  25 H :    0.174005
  26 H :    0.157523
  27 H :    0.164008
  28 H :    0.164898
  29 H :    0.184398
  30 H :    0.189952
  31 H :    0.184258
  32 H :    0.182429
  33 H :    0.159605
  34 H :    0.164036
  35 H :    0.159360
  36 H :    0.180929
  37 H :    0.170995
  38 H :    0.160585
  39 H :    0.159818
  40 H :    0.159774

  Mayer bond orders larger than 0.100000
B(  0-C ,  1-C ) :   0.9360 B(  0-C , 19-H ) :   0.9603 B(  0-C , 20-H ) :   0.9712
B(  0-C , 21-H ) :   0.9591 B(  1-C ,  2-O ) :   0.8120 B(  1-C , 22-H ) :   0.9588
B(  1-C , 23-H ) :   0.9598 B(  2-O ,  3-P ) :   1.0050 B(  3-P ,  4-S ) :   1.8325
B(  3-P ,  5-O ) :   1.1268 B(  3-P ,  8-S ) :   1.0394 B(  5-O ,  6-C ) :   0.7803
B(  6-C ,  7-C ) :   0.9346 B(  6-C , 24-H ) :   0.9577 B(  6-C , 25-H ) :   0.9716
B(  7-C , 26-H ) :   0.9638 B(  7-C , 27-H ) :   0.9576 B(  7-C , 28-H ) :   0.9678
B(  8-S ,  9-C ) :   0.8996 B(  9-C , 10-S ) :   0.9209 B(  9-C , 29-H ) :   0.9197
B(  9-C , 30-H ) :   0.9163 B( 10-S , 11-P ) :   1.0703 B( 11-P , 12-S ) :   1.7410
B( 11-P , 13-O ) :   1.1761 B( 11-P , 16-O ) :   1.0934 B( 13-O , 14-C ) :   0.7851
B( 14-C , 15-C ) :   0.9242 B( 14-C , 31-H ) :   0.9584 B( 14-C , 32-H ) :   0.9621
B( 15-C , 33-H ) :   0.9632 B( 15-C , 34-H ) :   0.9616 B( 15-C , 35-H ) :   0.9733
B( 16-O , 17-C ) :   0.7776 B( 17-C , 18-C ) :   0.9581 B( 17-C , 36-H ) :   0.9515
B( 17-C , 37-H ) :   0.9465 B( 18-C , 38-H ) :   0.9711 B( 18-C , 39-H ) :   0.9645
B( 18-C , 40-H ) :   0.9717

Dispersion correction           -0.021623785
FINAL SINGLE POINT ENERGY     -2932.459341823922

DIPOLE MOMENT
-------------

Method             : SCF
Type of density    : Electron Density
Multiplicity       :   1
Irrep              :   0
Energy             : -2932.4840124679826658 Eh
Relativity type    :
Basis              : AO
                                X                 Y                 Z
Electronic contribution:      3.121355564       3.343251538      -8.831097862
Nuclear contribution   :     -2.987344892      -4.889205257       9.468428654
                        -----------------------------------------
Total Dipole Moment    :      0.134010673      -1.545953719       0.637330793
                        -----------------------------------------
Magnitude (a.u.)       :      1.677534590
Magnitude (Debye)      :      4.263954066

Rotational constants in cm-1:             0.013184             0.004814             0.004673
Rotational constants in MHz :           395.237198           144.331431           140.089384

                             ****ORCA TERMINATED NORMALLY****
TOTAL RUN TIME: 0 days 0 hours 1 minutes 20 seconds 26 msec
