                         Program Version 6.0.0  -   RELEASE  -
|  1> ! r2scan-3c def2/J RI DEFGRID2 scfconv6 printgap
|  2> %output
|  3>     printlevel normal
|  4> end
|  5> %cpcm
|  6>     smd true
|  7>     smdsolvent "water"
|  8> end
|  9> * xyz 0 1
| 10> C 4.3115839092 -0.1693872991 -2.1805352298
| 11> C 4.4829749129 -0.4696223197 -0.7052388196
| 12> O 3.2232318701 -0.7195922464 -0.0600839186
| 13> P 2.2003393133 0.4645243977 0.2558477967
| 14> S 3.0199802898 2.1890970923 0.6908907845
| 15> O 1.2534675397 -0.2029612595 1.3340049031
| 16> C 1.7058416251 -1.0138695786 2.4403318966
| 17> C 2.6413888416 -0.2582132344 3.3597248122
| 18> S 0.8604514065 0.5645880384 -1.3767146535
| 19> C 0.4200021454 -1.1891043692 -1.5586184603
| 20> S -0.6868924612 -1.8348825328 -0.2655676637
| 21> P -2.1071009729 -0.2845933425 -0.3012647158
| 22> S -2.6167700556 0.41390822 -2.0654626261
| 23> O -1.4936543656 0.7432403912 0.7364379206
| 24> C -1.7649804454 2.154907569 0.6686529801
| 25> C -3.1847705959 2.4635165293 1.0929380474
| 26> O -3.3046083582 -0.8914862434 0.5466318948
| 27> C -4.2310792325 -1.8383585835 -0.0254943524
| 28> C -5.4747519215 -1.8567329289 0.8398604617
| 29> H 5.2884666314 -0.0397615468 -2.6350659411
| 30> H 3.7888102911 -0.9801386204 -2.6811931677
| 31> H 3.7404850593 0.7499796398 -2.3070111225
| 32> H 4.9697058054 0.3705718978 -0.1996884948
| 33> H 5.0525063263 -1.3853541394 -0.5411911651
| 34> H 0.7781880093 -1.2902082212 2.9446912312
| 35> H 2.1865927525 -1.9071925469 2.0361096608
| 36> H 2.9028645663 -0.887168375 4.2049110561
| 37> H 3.5496309343 0.0187163597 2.8255564712
| 38> H 2.1665146761 0.6513554866 3.720178021
| 39> H 1.3155899514 -1.8048343313 -1.5322417771
| 40> H -0.0808667242 -1.2552988603 -2.5230933165
| 41> H -1.0276875546 2.6002541953 1.3394734662
| 42> H -1.5789413983 2.4981337109 -0.3553051034
| 43> H -3.332438492 3.5387821227 1.1050918961
| 44> H -3.8819070558 2.0161890522 0.385030895
| 45> H -3.3766995568 2.0569798865 2.0823372019
| 46> H -4.4582411769 -1.5267335589 -1.0505929632
| 47> H -3.7458297111 -2.8176980469 -0.0479623308
| 48> H -5.9462118562 -0.8781318116 0.8406467237
| 49> H -6.1713335448 -2.5890464432 0.4452573718
| 50> H -5.2117457578 -2.1214246242 1.8597818092
| 51> *
| 52>
| 53>                          ****END OF INPUT****

CARTESIAN COORDINATES (ANGSTROEM)
---------------------------------
  C      4.311584   -0.169387   -2.180535
  C      4.482975   -0.469622   -0.705239
  O      3.223232   -0.719592   -0.060084
  P      2.200339    0.464524    0.255848
  S      3.019980    2.189097    0.690891
  O      1.253468   -0.202961    1.334005
  C      1.705842   -1.013870    2.440332
  C      2.641389   -0.258213    3.359725
  S      0.860451    0.564588   -1.376715
  C      0.420002   -1.189104   -1.558618
  S     -0.686892   -1.834883   -0.265568
  P     -2.107101   -0.284593   -0.301265
  S     -2.616770    0.413908   -2.065463
  O     -1.493654    0.743240    0.736438
  C     -1.764980    2.154908    0.668653
  C     -3.184771    2.463517    1.092938
  O     -3.304608   -0.891486    0.546632
  C     -4.231079   -1.838359   -0.025494
  C     -5.474752   -1.856733    0.839860
  H      5.288467   -0.039762   -2.635066
  H      3.788810   -0.980139   -2.681193
  H      3.740485    0.749980   -2.307011
  H      4.969706    0.370572   -0.199688
  H      5.052506   -1.385354   -0.541191
  H      0.778188   -1.290208    2.944691
  H      2.186593   -1.907193    2.036110
  H      2.902865   -0.887168    4.204911
  H      3.549631    0.018716    2.825556
  H      2.166515    0.651355    3.720178
  H      1.315590   -1.804834   -1.532242
  H     -0.080867   -1.255299   -2.523093
  H     -1.027688    2.600254    1.339473
  H     -1.578941    2.498134   -0.355305
  H     -3.332438    3.538782    1.105092
  H     -3.881907    2.016189    0.385031
  H     -3.376700    2.056980    2.082337
  H     -4.458241   -1.526734   -1.050593
  H     -3.745830   -2.817698   -0.047962
  H     -5.946212   -0.878132    0.840647
  H     -6.171334   -2.589046    0.445257
  H     -5.211746   -2.121425    1.859782

 Total Charge           Charge          ....    0
 Multiplicity           Mult            ....    1
 Number of Electrons    NEL             ....  202
 Basis Dimension        Dim             ....  539

ORBITAL ENERGIES
----------------

  NO   OCC          E(Eh)            E(eV)
   0   2.0000     -88.577490     -2410.3160
   1   2.0000     -88.576416     -2410.2868
   2   2.0000     -88.527149     -2408.9462
   3   2.0000     -88.526807     -2408.9369
   4   2.0000     -76.918442     -2093.0572
   5   2.0000     -76.918190     -2093.0504
   6   2.0000     -18.994897      -516.8774
   7   2.0000     -18.994421      -516.8645
   8   2.0000     -18.991438      -516.7833
   9   2.0000     -18.988204      -516.6953
  10   2.0000     -10.106276      -275.0058
  11   2.0000     -10.089947      -274.5614
  12   2.0000     -10.089839      -274.5585
  13   2.0000     -10.088526      -274.5228
  14   2.0000     -10.088387      -274.5190
  15   2.0000     -10.019582      -272.6467
  16   2.0000     -10.018299      -272.6118
  17   2.0000     -10.018026      -272.6044
  18   2.0000     -10.017980      -272.6031
  19   2.0000      -7.871632      -214.1980
  20   2.0000      -7.870988      -214.1805
  21   2.0000      -7.822217      -212.8534
  22   2.0000      -7.821819      -212.8425
  23   2.0000      -6.596983      -179.5130
  24   2.0000      -6.596283      -179.4940
  25   2.0000      -5.818956      -158.3418
  26   2.0000      -5.817907      -158.3133
  27   2.0000      -5.815033      -158.2351
  28   2.0000      -5.814841      -158.2299
  29   2.0000      -5.808782      -158.0650
  30   2.0000      -5.808026      -158.0444
  31   2.0000      -5.769725      -157.0022
  32   2.0000      -5.769365      -156.9924
  33   2.0000      -5.762488      -156.8053
  34   2.0000      -5.762327      -156.8009
  35   2.0000      -5.762121      -156.7953
  36   2.0000      -5.761867      -156.7884
  37   2.0000      -4.742296      -129.0444
  38   2.0000      -4.742114      -129.0395
  39   2.0000      -4.741978      -129.0358
  40   2.0000      -4.741146      -129.0131
  41   2.0000      -4.740861      -129.0054
  42   2.0000      -4.739900      -128.9792
  43   2.0000      -1.052362       -28.6362
  44   2.0000      -1.050369       -28.5820
  45   2.0000      -1.012571       -27.5535
  46   2.0000      -1.009007       -27.4565
  47   2.0000      -0.801010       -21.7966
  48   2.0000      -0.756053       -20.5732
  49   2.0000      -0.742505       -20.2046
  50   2.0000      -0.723807       -19.6958
  51   2.0000      -0.723372       -19.6839
  52   2.0000      -0.708906       -19.2903
  53   2.0000      -0.691249       -18.8099
  54   2.0000      -0.673556       -18.3284
  55   2.0000      -0.627190       -17.0667
  56   2.0000      -0.619343       -16.8532
  57   2.0000      -0.603986       -16.4353
  58   2.0000      -0.595165       -16.1953
  59   2.0000      -0.590146       -16.0587
  60   2.0000      -0.525525       -14.3003
  61   2.0000      -0.516324       -14.0499
  62   2.0000      -0.494333       -13.4515
  63   2.0000      -0.485824       -13.2199
  64   2.0000      -0.473818       -12.8932
  65   2.0000      -0.460934       -12.5427
  66   2.0000      -0.452045       -12.3008
  67   2.0000      -0.446291       -12.1442
  68   2.0000      -0.436411       -11.8753
  69   2.0000      -0.430548       -11.7158
  70   2.0000      -0.427771       -11.6402
  71   2.0000      -0.413831       -11.2609
  72   2.0000      -0.407230       -11.0813
  73   2.0000      -0.400232       -10.8909
  74   2.0000      -0.395993       -10.7755
  75   2.0000      -0.383379       -10.4323
  76   2.0000      -0.379644       -10.3306
  77   2.0000      -0.366194        -9.9646
  78   2.0000      -0.362807        -9.8725
  79   2.0000      -0.358895        -9.7660
  80   2.0000      -0.353396        -9.6164
  81   2.0000      -0.350189        -9.5291
  82   2.0000      -0.349634        -9.5140
  83   2.0000      -0.346822        -9.4375
  84   2.0000      -0.341941        -9.3047
  85   2.0000      -0.335298        -9.1239
  86   2.0000      -0.323017        -8.7897
  87   2.0000      -0.313002        -8.5172
  88   2.0000      -0.305569        -8.3150
  89   2.0000      -0.302323        -8.2266
  90   2.0000      -0.296231        -8.0609
  91   2.0000      -0.289866        -7.8877
  92   2.0000      -0.283643        -7.7183
  93   2.0000      -0.277377        -7.5478
  94   2.0000      -0.274334        -7.4650
  95   2.0000      -0.248278        -6.7560
  96   2.0000      -0.237477        -6.4621
  97   2.0000      -0.228556        -6.2193
  98   2.0000      -0.227649        -6.1946
  99   2.0000      -0.218253        -5.9390
 100   2.0000      -0.217686        -5.9235
 101   0.0000      -0.048734        -1.3261
 102   0.0000      -0.023124        -0.6292
 103   0.0000      -0.008660        -0.2356
 104   0.0000      -0.002206        -0.0600
 105   0.0000       0.005811         0.1581

MULLIKEN ATOMIC CHARGES
-----------------------
   0 C :   -0.472581
   1 C :   -0.153882
   2 O :   -0.325686
   3 P :    0.711614
   4 S :   -0.520266
   5 O :   -0.271439
   6 C :   -0.136887
   7 C :   -0.493229
   8 S :   -0.157035
   9 C :   -0.251277
  10 S :   -0.131381
  11 P :    0.725556
  12 S :   -0.527721
  13 O :   -0.300286
  14 C :   -0.145228
  15 C :   -0.492641
  16 O :   -0.316759
  17 C :   -0.146418
  18 C :   -0.483040
  19 H :    0.170688
  20 H :    0.168934
  21 H :    0.165920
  22 H :    0.174022
  23 H :    0.174440
  24 H :    0.175657
  25 H :    0.176199
  26 H :    0.171537
  27 H :    0.168208
  28 H :    0.170793
  29 H :    0.226419
  30 H :    0.232951
  31 H :    0.179301
  32 H :    0.179164
  33 H :    0.171863
  34 H :    0.167764
  35 H :    0.169380
  36 H :    0.172376
  37 H :    0.171309
  38 H :    0.166088
  39 H :    0.169711
  40 H :    0.165863
Sum of atomic charges:   -0.0000000

LOEWDIN ATOMIC CHARGES
----------------------
   0 C :   -0.406185
   1 C :    0.024476
   2 O :   -0.681911
   3 P :    0.375795
   4 S :   -0.159667
   5 O :   -0.696986
   6 C :    0.032865
   7 C :   -0.403968
   8 S :    0.176055
   9 C :   -0.397436
  10 S :    0.184389
  11 P :    0.370957
  12 S :   -0.160993
  13 O :   -0.685385
  14 C :    0.019494
  15 C :   -0.402621
  16 O :   -0.677609
  17 C :    0.023483
  18 C :   -0.389585
  19 H :    0.167985
  20 H :    0.162892
  21 H :    0.161828
  22 H :    0.181618
  23 H :    0.189736
  24 H :    0.191216
  25 H :    0.182654
  26 H :    0.167836
  27 H :    0.162912
  28 H :    0.163529
  29 H :    0.200452
  30 H :    0.198539
  31 H :    0.190262
  32 H :    0.182592
  33 H :    0.168638
  34 H :    0.162463
  35 H :    0.163790
  36 H :    0.181594
  37 H :    0.179539
  38 H :    0.162546
  39 H :    0.168966
  40 H :    0.163245

  Mayer bond orders larger than 0.100000
B(  0-C ,  1-C ) :   0.9255 B(  0-C , 19-H ) :   0.9561 B(  0-C , 20-H ) :   0.9669
B(  0-C , 21-H ) :   0.9622 B(  1-C ,  2-O ) :   0.7980 B(  1-C , 22-H ) :   0.9593
B(  1-C , 23-H ) :   0.9498 B(  2-O ,  3-P ) :   1.0279 B(  3-P ,  4-S ) :   1.7722
B(  3-P ,  5-O ) :   1.1409 B(  3-P ,  8-S ) :   1.0512 B(  5-O ,  6-C ) :   0.7689
B(  6-C ,  7-C ) :   0.9162 B(  6-C , 24-H ) :   0.9504 B(  6-C , 25-H ) :   0.9630
B(  7-C , 26-H ) :   0.9568 B(  7-C , 27-H ) :   0.9585 B(  7-C , 28-H ) :   0.9697
B(  8-S ,  9-C ) :   0.8961 B(  9-C , 10-S ) :   0.9135 B(  9-C , 29-H ) :   0.9072
B(  9-C , 30-H ) :   0.9073 B( 10-S , 11-P ) :   1.0999 B( 11-P , 12-S ) :   1.6968
B( 11-P , 13-O ) :   1.1708 B( 11-P , 16-O ) :   1.0982 B( 13-O , 14-C ) :   0.7718
B( 14-C , 15-C ) :   0.9187 B( 14-C , 31-H ) :   0.9503 B( 14-C , 32-H ) :   0.9577
B( 15-C , 33-H ) :   0.9573 B( 15-C , 34-H ) :   0.9608 B( 15-C , 35-H ) :   0.9714
B( 16-O , 17-C ) :   0.7702 B( 17-C , 18-C ) :   0.9537 B( 17-C , 36-H ) :   0.9480
B( 17-C , 37-H ) :   0.9373 B( 18-C , 38-H ) :   0.9690 B( 18-C , 39-H ) :   0.9583
B( 18-C , 40-H ) :   0.9690

Dispersion correction           -0.021623785
FINAL SINGLE POINT ENERGY     -2932.470085379370

DIPOLE MOMENT
-------------

Method             : SCF
Type of density    : Electron Density
Multiplicity       :   1
Irrep              :   0
Energy             : -2932.4947560234304547 Eh
Relativity type    :
Basis              : AO
                                X                 Y                 Z
Electronic contribution:      3.320321839       2.496553210      -8.793990964
Nuclear contribution   :     -2.987344892      -4.889205257       9.468428654
                        -----------------------------------------
Total Dipole Moment    :      0.332976948      -2.392652047       0.674437691
                        -----------------------------------------
Magnitude (a.u.)       :      2.508091638
Magnitude (Debye)      :      6.375062308

Rotational constants in cm-1:             0.013184             0.004814             0.004673
Rotational constants in MHz :           395.237198           144.331431           140.089384

                             ****ORCA TERMINATED NORMALLY****
TOTAL RUN TIME: 0 days 0 hours 1 minutes 57 seconds 602 msec
