                         Program Version 6.0.0  -   RELEASE  -
|  1> ! pbe def2-sv(p) def2/J RI DEFGRID1 loosescf d4 GCP(DFT/SV(P)) printgap
|  2> %output
|  3>     printlevel normal
|  4> end
|  5> * xyz 0 1
|  6> C 2.9671509395 2.0756660249 0.843921757
|  7> C 1.6319452824 1.6962047971 1.4492596068
|  8> O 1.4679066642 0.2720344325 1.6202954884
|  9> P 1.6939800961 -0.8538907196 0.5244230636
| 10> S 0.8780752862 -2.5428031806 1.0736308685
| 11> O 3.2758580597 -0.9667397986 0.2956480854
| 12> C 4.0898190544 -1.90732109 1.0131727076
| 13> C 4.27247639 -1.5033179283 2.4627700999
| 14> S 1.2279085765 -0.0782551466 -1.3904156389
| 15> C -0.0660207268 -1.2457864708 -1.8892023432
| 16> S -1.6945320464 -0.4990242263 -2.2342702842
| 17> P -1.9935112671 0.6899561025 -0.5026490916
| 18> S -3.8460557203 1.2320874111 -0.1831828887
| 19> O -0.9438866032 1.8770185124 -0.6453809435
| 20> C -1.0505686801 2.8324646266 -1.7227793325
| 21> C -1.7252606751 4.1031344463 -1.245551894
| 22> O -1.2575467155 -0.0787554032 0.6814366295
| 23> C -2.0365470104 -0.7628625469 1.6829304732
| 24> C -2.6945800846 -2.0127929417 1.134918406
| 25> H 3.0292396261 3.1577105281 0.7792615003
| 26> H 3.783686969 1.7078673542 1.460010583
| 27> H 3.0640375078 1.654439884 -0.1561405535
| 28> H 0.8052534551 2.0564474845 0.8329175691
| 29> H 1.5252798299 2.0833904536 2.4643667009
| 30> H 3.6238382846 -2.8958997385 0.948347782
| 31> H 5.0359681475 -1.9094061967 0.4703053408
| 32> H 4.7329113977 -0.5211616245 2.5296654049
| 33> H 3.3035627461 -1.4742925221 2.9613114494
| 34> H 4.9049337068 -2.2301004077 2.9627843517
| 35> H -0.1689880236 -2.0045218514 -1.1092064953
| 36> H 0.2283559803 -1.6960952586 -2.8341201825
| 37> H -0.0206122032 3.0152368424 -2.0368196219
| 38> H -1.6066548456 2.3808983946 -2.5513929553
| 39> H -2.7429324381 3.8897481126 -0.9255110083
| 40> H -1.1777106295 4.5281447131 -0.4092383899
| 41> H -1.752471589 4.8195130462 -2.0601060604
| 42> H -1.3135704955 -1.0011047055 2.4646567168
| 43> H -2.7896690776 -0.0683567017 2.0660839906
| 44> H -1.9437684933 -2.718740868 0.7876237504
| 45> H -3.2794364137 -2.4796812473 1.9206894031
| 46> H -3.3559629886 -1.7516825656 0.3087364586
| 47> *
| 48>
| 49>                          ****END OF INPUT****

CARTESIAN COORDINATES (ANGSTROEM)
---------------------------------
  C      2.967151    2.075666    0.843922
  C      1.631945    1.696205    1.449260
  O      1.467907    0.272034    1.620295
  P      1.693980   -0.853891    0.524423
  S      0.878075   -2.542803    1.073631
  O      3.275858   -0.966740    0.295648
  C      4.089819   -1.907321    1.013173
  C      4.272476   -1.503318    2.462770
  S      1.227909   -0.078255   -1.390416
  C     -0.066021   -1.245786   -1.889202
  S     -1.694532   -0.499024   -2.234270
  P     -1.993511    0.689956   -0.502649
  S     -3.846056    1.232087   -0.183183
  O     -0.943887    1.877019   -0.645381
  C     -1.050569    2.832465   -1.722779
  C     -1.725261    4.103134   -1.245552
  O     -1.257547   -0.078755    0.681437
  C     -2.036547   -0.762863    1.682930
  C     -2.694580   -2.012793    1.134918
  H      3.029240    3.157711    0.779262
  H      3.783687    1.707867    1.460011
  H      3.064038    1.654440   -0.156141
  H      0.805253    2.056447    0.832918
  H      1.525280    2.083390    2.464367
  H      3.623838   -2.895900    0.948348
  H      5.035968   -1.909406    0.470305
  H      4.732911   -0.521162    2.529665
  H      3.303563   -1.474293    2.961311
  H      4.904934   -2.230100    2.962784
  H     -0.168988   -2.004522   -1.109206
  H      0.228356   -1.696095   -2.834120
  H     -0.020612    3.015237   -2.036820
  H     -1.606655    2.380898   -2.551393
  H     -2.742932    3.889748   -0.925511
  H     -1.177711    4.528145   -0.409238
  H     -1.752472    4.819513   -2.060106
  H     -1.313570   -1.001105    2.464657
  H     -2.789669   -0.068357    2.066084
  H     -1.943768   -2.718741    0.787624
  H     -3.279436   -2.479681    1.920689
  H     -3.355963   -1.751683    0.308736

 Total Charge           Charge          ....    0
 Multiplicity           Mult            ....    1
 Number of Electrons    NEL             ....  202
 Basis Dimension        Dim             ....  334

ORBITAL ENERGIES
----------------

  NO   OCC          E(Eh)            E(eV)
   0   2.0000     -88.047711     -2395.9000
   1   2.0000     -88.044418     -2395.8104
   2   2.0000     -87.992159     -2394.3884
   3   2.0000     -87.987885     -2394.2721
   4   2.0000     -76.430636     -2079.7833
   5   2.0000     -76.427169     -2079.6890
   6   2.0000     -18.794843      -511.4337
   7   2.0000     -18.791425      -511.3407
   8   2.0000     -18.791222      -511.3351
   9   2.0000     -18.790704      -511.3210
  10   2.0000      -9.958914      -270.9958
  11   2.0000      -9.955489      -270.9026
  12   2.0000      -9.954547      -270.8770
  13   2.0000      -9.952065      -270.8095
  14   2.0000      -9.941269      -270.5157
  15   2.0000      -9.893199      -269.2076
  16   2.0000      -9.886641      -269.0292
  17   2.0000      -9.883094      -268.9327
  18   2.0000      -9.870899      -268.6008
  19   2.0000      -7.692579      -209.3257
  20   2.0000      -7.689537      -209.2429
  21   2.0000      -7.637224      -207.8194
  22   2.0000      -7.633052      -207.7059
  23   2.0000      -6.428048      -174.9161
  24   2.0000      -6.424680      -174.8244
  25   2.0000      -5.720556      -155.6642
  26   2.0000      -5.717763      -155.5882
  27   2.0000      -5.717347      -155.5769
  28   2.0000      -5.713655      -155.4765
  29   2.0000      -5.709132      -155.3534
  30   2.0000      -5.706595      -155.2843
  31   2.0000      -5.666142      -154.1836
  32   2.0000      -5.662019      -154.0714
  33   2.0000      -5.658221      -153.9680
  34   2.0000      -5.656857      -153.9309
  35   2.0000      -5.653810      -153.8480
  36   2.0000      -5.653021      -153.8265
  37   2.0000      -4.650790      -126.5544
  38   2.0000      -4.649553      -126.5208
  39   2.0000      -4.648705      -126.4977
  40   2.0000      -4.647084      -126.4536
  41   2.0000      -4.646900      -126.4486
  42   2.0000      -4.644868      -126.3933
  43   2.0000      -0.988125       -26.8883
  44   2.0000      -0.983855       -26.7721
  45   2.0000      -0.945741       -25.7349
  46   2.0000      -0.944330       -25.6965
  47   2.0000      -0.763642       -20.7798
  48   2.0000      -0.722573       -19.6622
  49   2.0000      -0.708700       -19.2847
  50   2.0000      -0.694920       -18.9097
  51   2.0000      -0.680632       -18.5209
  52   2.0000      -0.675856       -18.3910
  53   2.0000      -0.656883       -17.8747
  54   2.0000      -0.641685       -17.4611
  55   2.0000      -0.602708       -16.4005
  56   2.0000      -0.591954       -16.1079
  57   2.0000      -0.579005       -15.7555
  58   2.0000      -0.569916       -15.5082
  59   2.0000      -0.559555       -15.2263
  60   2.0000      -0.503686       -13.7060
  61   2.0000      -0.493019       -13.4157
  62   2.0000      -0.475973       -12.9519
  63   2.0000      -0.468107       -12.7378
  64   2.0000      -0.458349       -12.4723
  65   2.0000      -0.448579       -12.2065
  66   2.0000      -0.439108       -11.9487
  67   2.0000      -0.433843       -11.8055
  68   2.0000      -0.423118       -11.5136
  69   2.0000      -0.418916       -11.3993
  70   2.0000      -0.415888       -11.3169
  71   2.0000      -0.402258       -10.9460
  72   2.0000      -0.394499       -10.7349
  73   2.0000      -0.390479       -10.6255
  74   2.0000      -0.385577       -10.4921
  75   2.0000      -0.377026       -10.2594
  76   2.0000      -0.361051        -9.8247
  77   2.0000      -0.360610        -9.8127
  78   2.0000      -0.356735        -9.7073
  79   2.0000      -0.355360        -9.6698
  80   2.0000      -0.349400        -9.5077
  81   2.0000      -0.345746        -9.4082
  82   2.0000      -0.337954        -9.1962
  83   2.0000      -0.333713        -9.0808
  84   2.0000      -0.331132        -9.0106
  85   2.0000      -0.320905        -8.7323
  86   2.0000      -0.312468        -8.5027
  87   2.0000      -0.309562        -8.4236
  88   2.0000      -0.299179        -8.1411
  89   2.0000      -0.288720        -7.8565
  90   2.0000      -0.281295        -7.6544
  91   2.0000      -0.273699        -7.4477
  92   2.0000      -0.272617        -7.4183
  93   2.0000      -0.264599        -7.2001
  94   2.0000      -0.258004        -7.0206
  95   2.0000      -0.234463        -6.3801
  96   2.0000      -0.219789        -5.9808
  97   2.0000      -0.212114        -5.7719
  98   2.0000      -0.210028        -5.7152
  99   2.0000      -0.203634        -5.5412
 100   2.0000      -0.199158        -5.4194
 101   0.0000      -0.045645        -1.2421
 102   0.0000      -0.033562        -0.9133
 103   0.0000      -0.024211        -0.6588
 104   0.0000      -0.002443        -0.0665
 105   0.0000       0.016381         0.4457

MULLIKEN ATOMIC CHARGES
-----------------------
   0 C :   -0.331925
   1 C :   -0.026699
   2 O :   -0.372459
   3 P :    0.646633
   4 S :   -0.319942
   5 O :   -0.385396
   6 C :   -0.006721
   7 C :   -0.319508
   8 S :   -0.105568
   9 C :   -0.339717
  10 S :   -0.092580
  11 P :    0.589047
  12 S :   -0.309752
  13 O :   -0.356582
  14 C :   -0.010521
  15 C :   -0.282497
  16 O :   -0.373771
  17 C :    0.003715
  18 C :   -0.323286
  19 H :    0.114727
  20 H :    0.122865
  21 H :    0.130822
  22 H :    0.142959
  23 H :    0.107352
  24 H :    0.113623
  25 H :    0.104185
  26 H :    0.118755
  27 H :    0.128782
  28 H :    0.112487
  29 H :    0.206111
  30 H :    0.182650
  31 H :    0.102144
  32 H :    0.103336
  33 H :    0.128671
  34 H :    0.109141
  35 H :    0.107875
  36 H :    0.110917
  37 H :    0.111353
  38 H :    0.129429
  39 H :    0.107954
  40 H :    0.121390
Sum of atomic charges:    0.0000000

LOEWDIN ATOMIC CHARGES
----------------------
   0 C :   -0.367684
   1 C :   -0.121283
   2 O :   -0.235920
   3 P :    0.588616
   4 S :   -0.284163
   5 O :   -0.257146
   6 C :   -0.121092
   7 C :   -0.365587
   8 S :    0.092812
   9 C :   -0.478218
  10 S :    0.072745
  11 P :    0.566580
  12 S :   -0.309548
  13 O :   -0.237155
  14 C :   -0.121155
  15 C :   -0.360807
  16 O :   -0.237888
  17 C :   -0.125698
  18 C :   -0.372184
  19 H :    0.132343
  20 H :    0.124942
  21 H :    0.118231
  22 H :    0.116852
  23 H :    0.122064
  24 H :    0.109084
  25 H :    0.118139
  26 H :    0.121913
  27 H :    0.125497
  28 H :    0.130990
  29 H :    0.123521
  30 H :    0.139329
  31 H :    0.113133
  32 H :    0.105909
  33 H :    0.126540
  34 H :    0.123454
  35 H :    0.128810
  36 H :    0.117468
  37 H :    0.108387
  38 H :    0.118931
  39 H :    0.130625
  40 H :    0.118611

  Mayer bond orders larger than 0.100000
B(  0-C ,  1-C ) :   1.1638 B(  0-C , 19-H ) :   0.9352 B(  0-C , 20-H ) :   0.9402
B(  0-C , 21-H ) :   0.9347 B(  1-C ,  2-O ) :   0.8989 B(  1-C , 22-H ) :   0.9016
B(  1-C , 23-H ) :   0.9332 B(  2-O ,  3-P ) :   1.1191 B(  3-P ,  4-S ) :   1.5909
B(  3-P ,  5-O ) :   1.0746 B(  3-P ,  8-S ) :   0.9548 B(  4-S ,  8-S ) :   0.1066
B(  4-S , 29-H ) :   0.1054 B(  5-O ,  6-C ) :   0.9166 B(  6-C ,  7-C ) :   1.1598
B(  6-C , 24-H ) :   0.9121 B(  6-C , 25-H ) :   0.9341 B(  7-C , 26-H ) :   0.9430
B(  7-C , 27-H ) :   0.9368 B(  7-C , 28-H ) :   0.9387 B(  8-S ,  9-C ) :   1.0193
B(  9-C , 10-S ) :   0.9728 B(  9-C , 29-H ) :   0.8496 B(  9-C , 30-H ) :   0.9104
B( 10-S , 11-P ) :   0.9764 B( 11-P , 12-S ) :   1.6503 B( 11-P , 13-O ) :   1.0751
B( 11-P , 16-O ) :   1.1002 B( 13-O , 14-C ) :   0.8920 B( 14-C , 15-C ) :   1.1695
B( 14-C , 31-H ) :   0.9328 B( 14-C , 32-H ) :   0.9088 B( 15-C , 33-H ) :   0.9322
B( 15-C , 34-H ) :   0.9497 B( 15-C , 35-H ) :   0.9403 B( 16-O , 17-C ) :   0.8854
B( 17-C , 18-C ) :   1.1697 B( 17-C , 36-H ) :   0.9177 B( 17-C , 37-H ) :   0.9163
B( 18-C , 38-H ) :   0.9334 B( 18-C , 39-H ) :   0.9389 B( 18-C , 40-H ) :   0.9325

Dispersion correction           -0.069714803
FINAL SINGLE POINT ENERGY     -2929.516492759280

DIPOLE MOMENT
-------------

Method             : SCF
Type of density    : Electron Density
Multiplicity       :   1
Irrep              :   0
Energy             : -2929.6364877207224708 Eh
Relativity type    :
Basis              : AO
                                X                 Y                 Z
Electronic contribution:    -11.786439612      -7.593567181     -10.234955641
Nuclear contribution   :     13.431495197       8.231667471      10.290494848
                        -----------------------------------------
Total Dipole Moment    :      1.645055585       0.638100290       0.055539207
                        -----------------------------------------
Magnitude (a.u.)       :      1.765351087
Magnitude (Debye)      :      4.487165862

Rotational constants in cm-1:             0.012493             0.005859             0.005163
Rotational constants in MHz :           374.530824           175.646685           154.791549

                             ****ORCA TERMINATED NORMALLY****
TOTAL RUN TIME: 0 days 0 hours 0 minutes 22 seconds 458 msec
