                         Program Version 6.0.1  -  RELEASE   -
|  1> ! r2scan-3c def2/J RI DEFGRID2 scfconv6 printgap
|  2> %output
|  3>     printlevel normal
|  4> end
|  5> * xyz 0 1
|  6> C 5.8899322318 -2.1780648604 -1.0795512238
|  7> C 4.8800845811 -1.0527816581 -1.1993658052
|  8> O 3.5860197283 -1.564707699 -0.8236432236
|  9> C 2.5133796749 -0.96125715 -1.2863412007
| 10> O 2.5280282896 0.0111764505 -2.0090765559
| 11> C 1.2444733429 -1.6524868808 -0.81854173
| 12> C 0.2167214117 -0.5988655864 -0.4337520092
| 13> H 0.1244161604 0.1375835999 -1.2447946032
| 14> C 0.5849888627 0.1803005314 0.8120612624
| 15> O -0.2574989611 0.600568187 1.5799413001
| 16> O 1.8744943562 0.3428777683 0.9445347694
| 17> C 2.3510583551 1.1731727332 2.027495564
| 18> C 2.3560083108 2.6351170519 1.6146545901
| 19> S -1.4306085585 -1.3255077001 -0.1587045628
| 20> P -2.5100151297 0.4771169631 0.1817878
| 21> S -1.7938512876 2.1190595897 -0.6096340865
| 22> O -3.9329357309 0.0689593863 -0.4501383183
| 23> C -4.1037297537 -0.0980203789 -1.8596409917
| 24> O -2.9460678742 0.5921876662 1.6940535174
| 25> C -3.5988459449 -0.4875329745 2.3908097257
| 26> H 5.6362841101 -2.9847770791 -1.7608456705
| 27> H 6.8771390876 -1.8010622264 -1.324968842
| 28> H 5.8950175135 -2.5647182872 -0.0650993151
| 29> H 4.8167499657 -0.6625334139 -2.2196555322
| 30> H 5.1195221746 -0.225724036 -0.5246858871
| 31> H 1.475495225 -2.314217059 0.0145132282
| 32> H 0.8504100896 -2.2447170167 -1.6466397984
| 33> H 1.7058408545 1.0147480065 2.8957334983
| 34> H 3.3583920998 0.8064928669 2.2241017406
| 35> H 2.7741030509 3.2349757677 2.4160047116
| 36> H 2.9494419162 2.7694262787 0.7139547315
| 37> H 1.3403653892 2.9717219615 1.4130720277
| 38> H -5.177653849 -0.1378509627 -2.0226709723
| 39> H -3.6303491262 -1.0251993462 -2.1828501788
| 40> H -3.6688921889 0.7492515501 -2.3928574522
| 41> H -3.009342733 -1.4002426366 2.3014206933
| 42> H -4.5948155523 -0.6425729166 1.9799452998
| 43> H -3.6496095189 -0.1630364044 3.42683695
| 44> *
| 45>
| 46>                          ****END OF INPUT****

CARTESIAN COORDINATES (ANGSTROEM)
---------------------------------
  C      5.889932   -2.178065   -1.079551
  C      4.880085   -1.052782   -1.199366
  O      3.586020   -1.564708   -0.823643
  C      2.513380   -0.961257   -1.286341
  O      2.528028    0.011176   -2.009077
  C      1.244473   -1.652487   -0.818542
  C      0.216721   -0.598866   -0.433752
  H      0.124416    0.137584   -1.244795
  C      0.584989    0.180301    0.812061
  O     -0.257499    0.600568    1.579941
  O      1.874494    0.342878    0.944535
  C      2.351058    1.173173    2.027496
  C      2.356008    2.635117    1.614655
  S     -1.430609   -1.325508   -0.158705
  P     -2.510015    0.477117    0.181788
  S     -1.793851    2.119060   -0.609634
  O     -3.932936    0.068959   -0.450138
  C     -4.103730   -0.098020   -1.859641
  O     -2.946068    0.592188    1.694054
  C     -3.598846   -0.487533    2.390810
  H      5.636284   -2.984777   -1.760846
  H      6.877139   -1.801062   -1.324969
  H      5.895018   -2.564718   -0.065099
  H      4.816750   -0.662533   -2.219656
  H      5.119522   -0.225724   -0.524686
  H      1.475495   -2.314217    0.014513
  H      0.850410   -2.244717   -1.646640
  H      1.705841    1.014748    2.895733
  H      3.358392    0.806493    2.224102
  H      2.774103    3.234976    2.416005
  H      2.949442    2.769426    0.713955
  H      1.340365    2.971722    1.413072
  H     -5.177654   -0.137851   -2.022671
  H     -3.630349   -1.025199   -2.182850
  H     -3.668892    0.749252   -2.392857
  H     -3.009343   -1.400243    2.301421
  H     -4.594816   -0.642573    1.979945
  H     -3.649610   -0.163036    3.426837

 Total Charge           Charge          ....    0
 Multiplicity           Mult            ....    1
 Number of Electrons    NEL             ....  174
 Basis Dimension        Dim             ....  510

ORBITAL ENERGIES
----------------

  NO   OCC          E(Eh)            E(eV)
   0   2.0000     -88.571731     -2410.1593
   1   2.0000     -88.505492     -2408.3569
   2   2.0000     -76.905354     -2092.7011
   3   2.0000     -19.014925      -517.4224
   4   2.0000     -19.007684      -517.2254
   5   2.0000     -18.981296      -516.5073
   6   2.0000     -18.978064      -516.4194
   7   2.0000     -18.940679      -515.4021
   8   2.0000     -18.935715      -515.2670
   9   2.0000     -10.166702      -276.6500
  10   2.0000     -10.164784      -276.5978
  11   2.0000     -10.100979      -274.8616
  12   2.0000     -10.099979      -274.8344
  13   2.0000     -10.094039      -274.6728
  14   2.0000     -10.089030      -274.5365
  15   2.0000     -10.080895      -274.3151
  16   2.0000     -10.065781      -273.9038
  17   2.0000     -10.039074      -273.1771
  18   2.0000     -10.029580      -272.9187
  19   2.0000      -7.866022      -214.0453
  20   2.0000      -7.800318      -212.2574
  21   2.0000      -6.583036      -179.1335
  22   2.0000      -5.812827      -158.1751
  23   2.0000      -5.809932      -158.0963
  24   2.0000      -5.803170      -157.9123
  25   2.0000      -5.748292      -156.4190
  26   2.0000      -5.740726      -156.2131
  27   2.0000      -5.739854      -156.1894
  28   2.0000      -4.728802      -128.6772
  29   2.0000      -4.728228      -128.6616
  30   2.0000      -4.726426      -128.6126
  31   2.0000      -1.092796       -29.7365
  32   2.0000      -1.083363       -29.4798
  33   2.0000      -1.039085       -28.2750
  34   2.0000      -0.996422       -27.1140
  35   2.0000      -0.992146       -26.9977
  36   2.0000      -0.986067       -26.8322
  37   2.0000      -0.812015       -22.0960
  38   2.0000      -0.760590       -20.6967
  39   2.0000      -0.749895       -20.4057
  40   2.0000      -0.727086       -19.7850
  41   2.0000      -0.697241       -18.9729
  42   2.0000      -0.665907       -18.1203
  43   2.0000      -0.658085       -17.9074
  44   2.0000      -0.645481       -17.5644
  45   2.0000      -0.627891       -17.0858
  46   2.0000      -0.597552       -16.2602
  47   2.0000      -0.546028       -14.8582
  48   2.0000      -0.535632       -14.5753
  49   2.0000      -0.526863       -14.3367
  50   2.0000      -0.496523       -13.5111
  51   2.0000      -0.492490       -13.4013
  52   2.0000      -0.482835       -13.1386
  53   2.0000      -0.472527       -12.8581
  54   2.0000      -0.461822       -12.5668
  55   2.0000      -0.451596       -12.2886
  56   2.0000      -0.440889       -11.9972
  57   2.0000      -0.439351       -11.9553
  58   2.0000      -0.437070       -11.8933
  59   2.0000      -0.431114       -11.7312
  60   2.0000      -0.423077       -11.5125
  61   2.0000      -0.414994       -11.2926
  62   2.0000      -0.407829       -11.0976
  63   2.0000      -0.406265       -11.0550
  64   2.0000      -0.388290       -10.5659
  65   2.0000      -0.383999       -10.4491
  66   2.0000      -0.377584       -10.2746
  67   2.0000      -0.369146       -10.0450
  68   2.0000      -0.367728       -10.0064
  69   2.0000      -0.359156        -9.7731
  70   2.0000      -0.348195        -9.4749
  71   2.0000      -0.346414        -9.4264
  72   2.0000      -0.337020        -9.1708
  73   2.0000      -0.328959        -8.9514
  74   2.0000      -0.320669        -8.7258
  75   2.0000      -0.316149        -8.6028
  76   2.0000      -0.309177        -8.4131
  77   2.0000      -0.304818        -8.2945
  78   2.0000      -0.288472        -7.8497
  79   2.0000      -0.280078        -7.6213
  80   2.0000      -0.277602        -7.5539
  81   2.0000      -0.267110        -7.2684
  82   2.0000      -0.251817        -6.8523
  83   2.0000      -0.245322        -6.6756
  84   2.0000      -0.233402        -6.3512
  85   2.0000      -0.207299        -5.6409
  86   2.0000      -0.198952        -5.4137
  87   0.0000      -0.044171        -1.2020
  88   0.0000      -0.027927        -0.7599
  89   0.0000      -0.016166        -0.4399
  90   0.0000       0.011413         0.3106
  91   0.0000       0.028144         0.7658

MULLIKEN ATOMIC CHARGES
-----------------------
   0 C :   -0.441260
   1 C :   -0.156877
   2 O :   -0.145684
   3 C :    0.301684
   4 O :   -0.400163
   5 C :   -0.378857
   6 C :   -0.018680
   7 H :    0.272654
   8 C :    0.277058
   9 O :   -0.403054
  10 O :   -0.099776
  11 C :   -0.148750
  12 C :   -0.459412
  13 S :   -0.220751
  14 P :    0.811797
  15 S :   -0.462308
  16 O :   -0.363143
  17 C :   -0.301086
  18 O :   -0.302629
  19 C :   -0.289901
  20 H :    0.154400
  21 H :    0.149131
  22 H :    0.152681
  23 H :    0.176271
  24 H :    0.148152
  25 H :    0.191770
  26 H :    0.184077
  27 H :    0.169299
  28 H :    0.148594
  29 H :    0.148474
  30 H :    0.158373
  31 H :    0.184510
  32 H :    0.148498
  33 H :    0.153687
  34 H :    0.176309
  35 H :    0.162228
  36 H :    0.167123
  37 H :    0.155560
Sum of atomic charges:    0.0000000

LOEWDIN ATOMIC CHARGES
----------------------
   0 C :   -0.385082
   1 C :    0.036126
   2 O :   -0.582127
   3 C :    0.354329
   4 O :   -0.425146
   5 C :   -0.203040
   6 C :   -0.204443
   7 H :    0.224662
   8 C :    0.360751
   9 O :   -0.448441
  10 O :   -0.570769
  11 C :    0.038258
  12 C :   -0.384812
  13 S :    0.187318
  14 P :    0.408610
  15 S :   -0.087921
  16 O :   -0.695206
  17 C :   -0.065644
  18 O :   -0.637965
  19 C :   -0.049413
  20 H :    0.159608
  21 H :    0.160439
  22 H :    0.159476
  23 H :    0.189345
  24 H :    0.175698
  25 H :    0.190546
  26 H :    0.190332
  27 H :    0.190705
  28 H :    0.178262
  29 H :    0.159686
  30 H :    0.161263
  31 H :    0.172494
  32 H :    0.175083
  33 H :    0.166525
  34 H :    0.176810
  35 H :    0.171246
  36 H :    0.172536
  37 H :    0.179900

  Mayer bond orders larger than 0.100000
B(  0-C ,  1-C ) :   0.9498 B(  0-C , 20-H ) :   0.9749 B(  0-C , 21-H ) :   0.9669
B(  0-C , 22-H ) :   0.9689 B(  1-C ,  2-O ) :   0.7787 B(  1-C , 23-H ) :   0.9624
B(  1-C , 24-H ) :   0.9461 B(  2-O ,  3-C ) :   1.1147 B(  3-C ,  4-O ) :   1.8569
B(  3-C ,  5-C ) :   0.8999 B(  5-C ,  6-C ) :   0.8626 B(  5-C , 25-H ) :   0.9977
B(  5-C , 26-H ) :   0.9357 B(  6-C ,  7-H ) :   0.8802 B(  6-C ,  8-C ) :   0.9768
B(  6-C , 13-S ) :   0.8741 B(  8-C ,  9-O ) :   1.8104 B(  8-C , 10-O ) :   1.1669
B(  9-O , 14-P ) :   0.1068 B( 10-O , 11-C ) :   0.7681 B( 11-C , 12-C ) :   0.9414
B( 11-C , 27-H ) :   0.9602 B( 11-C , 28-H ) :   0.9630 B( 12-C , 29-H ) :   0.9653
B( 12-C , 30-H ) :   0.9712 B( 12-C , 31-H ) :   0.9627 B( 13-S , 14-P ) :   0.9643
B( 14-P , 15-S ) :   1.7921 B( 14-P , 16-O ) :   1.0011 B( 14-P , 18-O ) :   1.1855
B( 16-O , 17-C ) :   0.8378 B( 17-C , 32-H ) :   0.9694 B( 17-C , 33-H ) :   0.9569
B( 17-C , 34-H ) :   0.9580 B( 18-O , 19-C ) :   0.7962 B( 19-C , 35-H ) :   0.9595
B( 19-C , 36-H ) :   0.9626 B( 19-C , 37-H ) :   0.9659

Dispersion correction           -0.016777924
FINAL SINGLE POINT ENERGY     -1981.447166657078

DIPOLE MOMENT
-------------

Method             : SCF
Type of density    : Electron Density
Multiplicity       :   1
Irrep              :   0
Energy             : -1981.4679843019844157 Eh
Relativity type    :
Basis              : AO
                                X                 Y                 Z
Electronic contribution:    -19.115783314       3.079402922      -1.141009751
Nuclear contribution   :     20.354544424      -4.653830613       1.750496831
                        -----------------------------------------
Total Dipole Moment    :      1.238761110      -1.574427691       0.609487080
                        -----------------------------------------
Magnitude (a.u.)       :      2.093997646
Magnitude (Debye)      :      5.322519029

Rotational constants in cm-1:             0.017280             0.005382             0.004896
Rotational constants in MHz :           518.027451           161.341634           146.783936

                             ****ORCA TERMINATED NORMALLY****
TOTAL RUN TIME: 0 days 0 hours 1 minutes 15 seconds 625 msec
