                         Program Version 6.0.1  -  RELEASE   -
|  1> ! r2scan-3c def2/J RI DEFGRID2 scfconv6 printgap
|  2> %output
|  3>     printlevel normal
|  4> end
|  5> %cpcm
|  6>     smd true
|  7>     smdsolvent "water"
|  8> end
|  9> * xyz 0 1
| 10> C 5.8899322318 -2.1780648604 -1.0795512238
| 11> C 4.8800845811 -1.0527816581 -1.1993658052
| 12> O 3.5860197283 -1.564707699 -0.8236432236
| 13> C 2.5133796749 -0.96125715 -1.2863412007
| 14> O 2.5280282896 0.0111764505 -2.0090765559
| 15> C 1.2444733429 -1.6524868808 -0.81854173
| 16> C 0.2167214117 -0.5988655864 -0.4337520092
| 17> H 0.1244161604 0.1375835999 -1.2447946032
| 18> C 0.5849888627 0.1803005314 0.8120612624
| 19> O -0.2574989611 0.600568187 1.5799413001
| 20> O 1.8744943562 0.3428777683 0.9445347694
| 21> C 2.3510583551 1.1731727332 2.027495564
| 22> C 2.3560083108 2.6351170519 1.6146545901
| 23> S -1.4306085585 -1.3255077001 -0.1587045628
| 24> P -2.5100151297 0.4771169631 0.1817878
| 25> S -1.7938512876 2.1190595897 -0.6096340865
| 26> O -3.9329357309 0.0689593863 -0.4501383183
| 27> C -4.1037297537 -0.0980203789 -1.8596409917
| 28> O -2.9460678742 0.5921876662 1.6940535174
| 29> C -3.5988459449 -0.4875329745 2.3908097257
| 30> H 5.6362841101 -2.9847770791 -1.7608456705
| 31> H 6.8771390876 -1.8010622264 -1.324968842
| 32> H 5.8950175135 -2.5647182872 -0.0650993151
| 33> H 4.8167499657 -0.6625334139 -2.2196555322
| 34> H 5.1195221746 -0.225724036 -0.5246858871
| 35> H 1.475495225 -2.314217059 0.0145132282
| 36> H 0.8504100896 -2.2447170167 -1.6466397984
| 37> H 1.7058408545 1.0147480065 2.8957334983
| 38> H 3.3583920998 0.8064928669 2.2241017406
| 39> H 2.7741030509 3.2349757677 2.4160047116
| 40> H 2.9494419162 2.7694262787 0.7139547315
| 41> H 1.3403653892 2.9717219615 1.4130720277
| 42> H -5.177653849 -0.1378509627 -2.0226709723
| 43> H -3.6303491262 -1.0251993462 -2.1828501788
| 44> H -3.6688921889 0.7492515501 -2.3928574522
| 45> H -3.009342733 -1.4002426366 2.3014206933
| 46> H -4.5948155523 -0.6425729166 1.9799452998
| 47> H -3.6496095189 -0.1630364044 3.42683695
| 48> *
| 49>
| 50>                          ****END OF INPUT****

CARTESIAN COORDINATES (ANGSTROEM)
---------------------------------
  C      5.889932   -2.178065   -1.079551
  C      4.880085   -1.052782   -1.199366
  O      3.586020   -1.564708   -0.823643
  C      2.513380   -0.961257   -1.286341
  O      2.528028    0.011176   -2.009077
  C      1.244473   -1.652487   -0.818542
  C      0.216721   -0.598866   -0.433752
  H      0.124416    0.137584   -1.244795
  C      0.584989    0.180301    0.812061
  O     -0.257499    0.600568    1.579941
  O      1.874494    0.342878    0.944535
  C      2.351058    1.173173    2.027496
  C      2.356008    2.635117    1.614655
  S     -1.430609   -1.325508   -0.158705
  P     -2.510015    0.477117    0.181788
  S     -1.793851    2.119060   -0.609634
  O     -3.932936    0.068959   -0.450138
  C     -4.103730   -0.098020   -1.859641
  O     -2.946068    0.592188    1.694054
  C     -3.598846   -0.487533    2.390810
  H      5.636284   -2.984777   -1.760846
  H      6.877139   -1.801062   -1.324969
  H      5.895018   -2.564718   -0.065099
  H      4.816750   -0.662533   -2.219656
  H      5.119522   -0.225724   -0.524686
  H      1.475495   -2.314217    0.014513
  H      0.850410   -2.244717   -1.646640
  H      1.705841    1.014748    2.895733
  H      3.358392    0.806493    2.224102
  H      2.774103    3.234976    2.416005
  H      2.949442    2.769426    0.713955
  H      1.340365    2.971722    1.413072
  H     -5.177654   -0.137851   -2.022671
  H     -3.630349   -1.025199   -2.182850
  H     -3.668892    0.749252   -2.392857
  H     -3.009343   -1.400243    2.301421
  H     -4.594816   -0.642573    1.979945
  H     -3.649610   -0.163036    3.426837

 Total Charge           Charge          ....    0
 Multiplicity           Mult            ....    1
 Number of Electrons    NEL             ....  174
 Basis Dimension        Dim             ....  510

ORBITAL ENERGIES
----------------

  NO   OCC          E(Eh)            E(eV)
   0   2.0000     -88.579804     -2410.3790
   1   2.0000     -88.524731     -2408.8804
   2   2.0000     -76.919823     -2093.0948
   3   2.0000     -19.017848      -517.5019
   4   2.0000     -19.008963      -517.2602
   5   2.0000     -18.994929      -516.8783
   6   2.0000     -18.988630      -516.7069
   7   2.0000     -18.952884      -515.7342
   8   2.0000     -18.947815      -515.5962
   9   2.0000     -10.176118      -276.9063
  10   2.0000     -10.172670      -276.8124
  11   2.0000     -10.098303      -274.7888
  12   2.0000     -10.090104      -274.5657
  13   2.0000     -10.086294      -274.4620
  14   2.0000     -10.084604      -274.4160
  15   2.0000     -10.078657      -274.2542
  16   2.0000     -10.059607      -273.7358
  17   2.0000     -10.020956      -272.6841
  18   2.0000     -10.019738      -272.6509
  19   2.0000      -7.873976      -214.2618
  20   2.0000      -7.819937      -212.7913
  21   2.0000      -6.597629      -179.5306
  22   2.0000      -5.820820      -158.3926
  23   2.0000      -5.817946      -158.3143
  24   2.0000      -5.811040      -158.1264
  25   2.0000      -5.767756      -156.9486
  26   2.0000      -5.760398      -156.7484
  27   2.0000      -5.759497      -156.7239
  28   2.0000      -4.743375      -129.0738
  29   2.0000      -4.742725      -129.0561
  30   2.0000      -4.741157      -129.0135
  31   2.0000      -1.097191       -29.8561
  32   2.0000      -1.086557       -29.5667
  33   2.0000      -1.051252       -28.6060
  34   2.0000      -1.007268       -27.4092
  35   2.0000      -1.002711       -27.2852
  36   2.0000      -0.995907       -27.1000
  37   2.0000      -0.814164       -22.1545
  38   2.0000      -0.752804       -20.4848
  39   2.0000      -0.746039       -20.3007
  40   2.0000      -0.729193       -19.8424
  41   2.0000      -0.697725       -18.9861
  42   2.0000      -0.667247       -18.1567
  43   2.0000      -0.659240       -17.9388
  44   2.0000      -0.654427       -17.8079
  45   2.0000      -0.620691       -16.8899
  46   2.0000      -0.593966       -16.1626
  47   2.0000      -0.540864       -14.7177
  48   2.0000      -0.535985       -14.5849
  49   2.0000      -0.527622       -14.3573
  50   2.0000      -0.497959       -13.5501
  51   2.0000      -0.495220       -13.4756
  52   2.0000      -0.488608       -13.2957
  53   2.0000      -0.474681       -12.9167
  54   2.0000      -0.463396       -12.6096
  55   2.0000      -0.460835       -12.5400
  56   2.0000      -0.446534       -12.1508
  57   2.0000      -0.444979       -12.1085
  58   2.0000      -0.437463       -11.9040
  59   2.0000      -0.426669       -11.6103
  60   2.0000      -0.424558       -11.5528
  61   2.0000      -0.414543       -11.2803
  62   2.0000      -0.409245       -11.1361
  63   2.0000      -0.406375       -11.0580
  64   2.0000      -0.386625       -10.5206
  65   2.0000      -0.378473       -10.2988
  66   2.0000      -0.370151       -10.0723
  67   2.0000      -0.364798        -9.9267
  68   2.0000      -0.363200        -9.8832
  69   2.0000      -0.353493        -9.6190
  70   2.0000      -0.351776        -9.5723
  71   2.0000      -0.343789        -9.3550
  72   2.0000      -0.334199        -9.0940
  73   2.0000      -0.330675        -8.9981
  74   2.0000      -0.319129        -8.6840
  75   2.0000      -0.315528        -8.5859
  76   2.0000      -0.312894        -8.5143
  77   2.0000      -0.309602        -8.4247
  78   2.0000      -0.291847        -7.9416
  79   2.0000      -0.287897        -7.8341
  80   2.0000      -0.281340        -7.6556
  81   2.0000      -0.276453        -7.5227
  82   2.0000      -0.263663        -7.1746
  83   2.0000      -0.257757        -7.0139
  84   2.0000      -0.242848        -6.6082
  85   2.0000      -0.227123        -6.1803
  86   2.0000      -0.218944        -5.9578
  87   0.0000      -0.052457        -1.4274
  88   0.0000      -0.037515        -1.0208
  89   0.0000      -0.022444        -0.6107
  90   0.0000       0.003425         0.0932
  91   0.0000       0.017331         0.4716

MULLIKEN ATOMIC CHARGES
-----------------------
   0 C :   -0.489462
   1 C :   -0.150659
   2 O :   -0.163020
   3 C :    0.338609
   4 O :   -0.479584
   5 C :   -0.387862
   6 C :   -0.021602
   7 H :    0.273837
   8 C :    0.299577
   9 O :   -0.454973
  10 O :   -0.109386
  11 C :   -0.142898
  12 C :   -0.496596
  13 S :   -0.206804
  14 P :    0.816761
  15 S :   -0.519824
  16 O :   -0.392746
  17 C :   -0.309026
  18 O :   -0.351722
  19 C :   -0.295985
  20 H :    0.167095
  21 H :    0.170084
  22 H :    0.165348
  23 H :    0.177656
  24 H :    0.177111
  25 H :    0.218787
  26 H :    0.221293
  27 H :    0.178855
  28 H :    0.181547
  29 H :    0.175383
  30 H :    0.170550
  31 H :    0.170196
  32 H :    0.177223
  33 H :    0.172662
  34 H :    0.175853
  35 H :    0.177900
  36 H :    0.183832
  37 H :    0.181991
Sum of atomic charges:    0.0000000

LOEWDIN ATOMIC CHARGES
----------------------
   0 C :   -0.388121
   1 C :    0.040808
   2 O :   -0.580899
   3 C :    0.364025
   4 O :   -0.481898
   5 C :   -0.194604
   6 C :   -0.200501
   7 H :    0.223427
   8 C :    0.367064
   9 O :   -0.490497
  10 O :   -0.567403
  11 C :    0.046415
  12 C :   -0.388899
  13 S :    0.205807
  14 P :    0.406102
  15 S :   -0.134751
  16 O :   -0.707289
  17 C :   -0.060523
  18 O :   -0.669979
  19 C :   -0.041582
  20 H :    0.162488
  21 H :    0.168882
  22 H :    0.163067
  23 H :    0.190578
  24 H :    0.186355
  25 H :    0.202900
  26 H :    0.204982
  27 H :    0.193948
  28 H :    0.192790
  29 H :    0.170070
  30 H :    0.163825
  31 H :    0.163893
  32 H :    0.187256
  33 H :    0.174664
  34 H :    0.176607
  35 H :    0.178832
  36 H :    0.181030
  37 H :    0.191129

  Mayer bond orders larger than 0.100000
B(  0-C ,  1-C ) :   0.9465 B(  0-C , 20-H ) :   0.9736 B(  0-C , 21-H ) :   0.9607
B(  0-C , 22-H ) :   0.9660 B(  1-C ,  2-O ) :   0.7671 B(  1-C , 23-H ) :   0.9571
B(  1-C , 24-H ) :   0.9348 B(  2-O ,  3-C ) :   1.1368 B(  3-C ,  4-O ) :   1.7951
B(  3-C ,  5-C ) :   0.9117 B(  5-C ,  6-C ) :   0.8541 B(  5-C , 25-H ) :   0.9825
B(  5-C , 26-H ) :   0.9278 B(  6-C ,  7-H ) :   0.8850 B(  6-C ,  8-C ) :   0.9672
B(  6-C , 13-S ) :   0.8628 B(  8-C ,  9-O ) :   1.7738 B(  8-C , 10-O ) :   1.1867
B(  9-O , 14-P ) :   0.1076 B( 10-O , 11-C ) :   0.7551 B( 11-C , 12-C ) :   0.9234
B( 11-C , 27-H ) :   0.9569 B( 11-C , 28-H ) :   0.9510 B( 12-C , 29-H ) :   0.9584
B( 12-C , 30-H ) :   0.9712 B( 12-C , 31-H ) :   0.9682 B( 13-S , 14-P ) :   0.9924
B( 14-P , 15-S ) :   1.7771 B( 14-P , 16-O ) :   1.0054 B( 14-P , 18-O ) :   1.1778
B( 16-O , 17-C ) :   0.8295 B( 17-C , 32-H ) :   0.9589 B( 17-C , 33-H ) :   0.9502
B( 17-C , 34-H ) :   0.9551 B( 18-O , 19-C ) :   0.7884 B( 19-C , 35-H ) :   0.9489
B( 19-C , 36-H ) :   0.9534 B( 19-C , 37-H ) :   0.9548

Dispersion correction           -0.016777924
FINAL SINGLE POINT ENERGY     -1981.463411507236

DIPOLE MOMENT
-------------

Method             : SCF
Type of density    : Electron Density
Multiplicity       :   1
Irrep              :   0
Energy             : -1981.4842291521431434 Eh
Relativity type    :
Basis              : AO
                                X                 Y                 Z
Electronic contribution:    -18.692329680       2.111723776      -1.038454347
Nuclear contribution   :     20.354544424      -4.653830613       1.750496831
                        -----------------------------------------
Total Dipole Moment    :      1.662214744      -2.542106837       0.712042484
                        -----------------------------------------
Magnitude (a.u.)       :      3.119658558
Magnitude (Debye)      :      7.929541885

Rotational constants in cm-1:             0.017280             0.005382             0.004896
Rotational constants in MHz :           518.027451           161.341634           146.783936

                             ****ORCA TERMINATED NORMALLY****
TOTAL RUN TIME: 0 days 0 hours 1 minutes 41 seconds 803 msec
