                         Program Version 6.0.0  -   RELEASE  -
|  1> ! pbe def2-sv(p) def2/J RI DEFGRID1 loosescf d4 GCP(DFT/SV(P)) printgap
|  2> %output
|  3>     printlevel normal
|  4> end
|  5> * xyz 0 1
|  6> C 2.6754493864 -2.9768311459 1.7546219337
|  7> C 1.403884983 -2.8407153729 0.9447594772
|  8> O 1.1579083213 -1.4747474478 0.5466300975
|  9> P 2.0921405731 -0.7233284071 -0.4884476928
| 10> S 2.8011024605 -1.8013053825 -1.9613518485
| 11> O 3.1937477772 -0.0819212059 0.4747890144
| 12> C 4.4520315509 0.3950186237 -0.0258863903
| 13> C 4.2962832032 1.6680136384 -0.8338319572
| 14> S 0.8096175064 0.8772046882 -1.0130564303
| 15> C 0.4511800879 1.5042904373 0.6567085364
| 16> S -0.8303274459 0.5709345382 1.5319783552
| 17> P -2.3617148758 0.8299311022 0.0782152948
| 18> S -2.4300378595 2.5645959154 -0.817881725
| 19> O -3.6817654863 0.3888875759 0.8512928031
| 20> C -4.4820330762 1.3123746925 1.6136666597
| 21> C -3.7424721198 1.8629737747 2.8153927824
| 22> O -2.1850574374 -0.3646803763 -0.9412025543
| 23> C -2.2058696792 -1.7554288914 -0.5376681937
| 24> C -1.5156944721 -2.5635644525 -1.6168572973
| 25> H 2.6640045663 -2.2839967674 2.5918315226
| 26> H 2.7552316323 -3.9933646152 2.1270483114
| 27> H 3.5397078638 -2.7621107664 1.127833684
| 28> H 0.522636953 -3.1019034488 1.5322915118
| 29> H 1.4515020866 -3.459400367 0.0431957103
| 30> H 5.0516344078 0.5565507993 0.8709968298
| 31> H 4.9017462655 -0.3924030718 -0.639354107
| 32> H 3.700242271 1.4715418673 -1.7250914985
| 33> H 3.8032705145 2.438577174 -0.2465471817
| 34> H 5.2757162622 2.022422276 -1.1387896892
| 35> H 0.1095803307 2.5285835098 0.5128664127
| 36> H 1.3474478797 1.4592612856 1.2701526007
| 37> H -4.7945529035 2.1238188337 0.9496242581
| 38> H -5.3482449378 0.7185895362 1.9090821512
| 39> H -3.3306744552 1.0529361779 3.4120672817
| 40> H -2.9294462116 2.5085406832 2.4872346643
| 41> H -4.4298795525 2.4448844223 3.4208829198
| 42> H -1.6924247181 -1.8472969182 0.4245748897
| 43> H -3.2496600844 -2.0522962673 -0.419638799
| 44> H -1.5428418762 -3.6155341828 -1.3515419982
| 45> H -2.0165778472 -2.4171737294 -2.5695289283
| 46> H -0.479021995 -2.2484293036 -1.725718125
| 47> *
| 48>
| 49>                          ****END OF INPUT****

CARTESIAN COORDINATES (ANGSTROEM)
---------------------------------
  C      2.675449   -2.976831    1.754622
  C      1.403885   -2.840715    0.944759
  O      1.157908   -1.474747    0.546630
  P      2.092141   -0.723328   -0.488448
  S      2.801102   -1.801305   -1.961352
  O      3.193748   -0.081921    0.474789
  C      4.452032    0.395019   -0.025886
  C      4.296283    1.668014   -0.833832
  S      0.809618    0.877205   -1.013056
  C      0.451180    1.504290    0.656709
  S     -0.830327    0.570935    1.531978
  P     -2.361715    0.829931    0.078215
  S     -2.430038    2.564596   -0.817882
  O     -3.681765    0.388888    0.851293
  C     -4.482033    1.312375    1.613667
  C     -3.742472    1.862974    2.815393
  O     -2.185057   -0.364680   -0.941203
  C     -2.205870   -1.755429   -0.537668
  C     -1.515694   -2.563564   -1.616857
  H      2.664005   -2.283997    2.591832
  H      2.755232   -3.993365    2.127048
  H      3.539708   -2.762111    1.127834
  H      0.522637   -3.101903    1.532292
  H      1.451502   -3.459400    0.043196
  H      5.051634    0.556551    0.870997
  H      4.901746   -0.392403   -0.639354
  H      3.700242    1.471542   -1.725091
  H      3.803271    2.438577   -0.246547
  H      5.275716    2.022422   -1.138790
  H      0.109580    2.528584    0.512866
  H      1.347448    1.459261    1.270153
  H     -4.794553    2.123819    0.949624
  H     -5.348245    0.718590    1.909082
  H     -3.330674    1.052936    3.412067
  H     -2.929446    2.508541    2.487235
  H     -4.429880    2.444884    3.420883
  H     -1.692425   -1.847297    0.424575
  H     -3.249660   -2.052296   -0.419639
  H     -1.542842   -3.615534   -1.351542
  H     -2.016578   -2.417174   -2.569529
  H     -0.479022   -2.248429   -1.725718

 Total Charge           Charge          ....    0
 Multiplicity           Mult            ....    1
 Number of Electrons    NEL             ....  202
 Basis Dimension        Dim             ....  334

ORBITAL ENERGIES
----------------

  NO   OCC          E(Eh)            E(eV)
   0   2.0000     -88.042810     -2395.7667
   1   2.0000     -88.040411     -2395.7014
   2   2.0000     -87.993385     -2394.4217
   3   2.0000     -87.985785     -2394.2149
   4   2.0000     -76.429678     -2079.7573
   5   2.0000     -76.424989     -2079.6297
   6   2.0000     -18.797962      -511.5186
   7   2.0000     -18.795153      -511.4421
   8   2.0000     -18.793778      -511.4047
   9   2.0000     -18.786480      -511.2061
  10   2.0000      -9.957967      -270.9701
  11   2.0000      -9.957726      -270.9635
  12   2.0000      -9.956199      -270.9220
  13   2.0000      -9.954092      -270.8646
  14   2.0000      -9.949156      -270.7303
  15   2.0000      -9.889483      -269.1065
  16   2.0000      -9.886942      -269.0374
  17   2.0000      -9.885212      -268.9903
  18   2.0000      -9.879266      -268.8285
  19   2.0000      -7.687599      -209.1902
  20   2.0000      -7.685405      -209.1305
  21   2.0000      -7.638387      -207.8511
  22   2.0000      -7.631067      -207.6519
  23   2.0000      -6.427217      -174.8935
  24   2.0000      -6.422258      -174.7585
  25   2.0000      -5.715886      -155.5372
  26   2.0000      -5.713176      -155.4634
  27   2.0000      -5.712012      -155.4318
  28   2.0000      -5.709987      -155.3767
  29   2.0000      -5.704280      -155.2213
  30   2.0000      -5.702386      -155.1698
  31   2.0000      -5.667255      -154.2138
  32   2.0000      -5.660010      -154.0167
  33   2.0000      -5.659006      -153.9894
  34   2.0000      -5.658638      -153.9794
  35   2.0000      -5.651632      -153.7887
  36   2.0000      -5.651240      -153.7781
  37   2.0000      -4.649639      -126.5231
  38   2.0000      -4.649199      -126.5111
  39   2.0000      -4.647608      -126.4678
  40   2.0000      -4.645145      -126.4008
  41   2.0000      -4.643952      -126.3684
  42   2.0000      -4.642578      -126.3310
  43   2.0000      -0.991743       -26.9867
  44   2.0000      -0.985668       -26.8214
  45   2.0000      -0.951054       -25.8795
  46   2.0000      -0.941564       -25.6213
  47   2.0000      -0.764256       -20.7965
  48   2.0000      -0.722469       -19.6594
  49   2.0000      -0.709550       -19.3078
  50   2.0000      -0.691553       -18.8181
  51   2.0000      -0.687531       -18.7087
  52   2.0000      -0.676736       -18.4149
  53   2.0000      -0.655431       -17.8352
  54   2.0000      -0.638753       -17.3814
  55   2.0000      -0.603155       -16.4127
  56   2.0000      -0.592281       -16.1168
  57   2.0000      -0.577262       -15.7081
  58   2.0000      -0.566667       -15.4198
  59   2.0000      -0.563710       -15.3393
  60   2.0000      -0.503743       -13.7075
  61   2.0000      -0.497761       -13.5448
  62   2.0000      -0.478334       -13.0161
  63   2.0000      -0.472753       -12.8643
  64   2.0000      -0.464260       -12.6332
  65   2.0000      -0.445077       -12.1112
  66   2.0000      -0.443552       -12.0697
  67   2.0000      -0.436790       -11.8857
  68   2.0000      -0.429872       -11.6974
  69   2.0000      -0.422260       -11.4903
  70   2.0000      -0.410451       -11.1689
  71   2.0000      -0.398910       -10.8549
  72   2.0000      -0.398186       -10.8352
  73   2.0000      -0.388893       -10.5823
  74   2.0000      -0.379075       -10.3151
  75   2.0000      -0.371991       -10.1224
  76   2.0000      -0.363882        -9.9017
  77   2.0000      -0.361522        -9.8375
  78   2.0000      -0.358614        -9.7584
  79   2.0000      -0.353069        -9.6075
  80   2.0000      -0.350166        -9.5285
  81   2.0000      -0.347252        -9.4492
  82   2.0000      -0.341179        -9.2839
  83   2.0000      -0.336769        -9.1640
  84   2.0000      -0.330779        -9.0010
  85   2.0000      -0.324317        -8.8251
  86   2.0000      -0.312634        -8.5072
  87   2.0000      -0.299189        -8.1413
  88   2.0000      -0.297560        -8.0970
  89   2.0000      -0.294767        -8.0210
  90   2.0000      -0.293725        -7.9927
  91   2.0000      -0.278726        -7.5845
  92   2.0000      -0.268812        -7.3147
  93   2.0000      -0.264439        -7.1958
  94   2.0000      -0.259381        -7.0581
  95   2.0000      -0.230105        -6.2615
  96   2.0000      -0.218051        -5.9335
  97   2.0000      -0.212100        -5.7715
  98   2.0000      -0.209326        -5.6960
  99   2.0000      -0.204593        -5.5673
 100   2.0000      -0.199835        -5.4378
 101   0.0000      -0.041515        -1.1297
 102   0.0000      -0.025876        -0.7041
 103   0.0000      -0.010393        -0.2828
 104   0.0000       0.002378         0.0647
 105   0.0000       0.008578         0.2334

MULLIKEN ATOMIC CHARGES
-----------------------
   0 C :   -0.300842
   1 C :   -0.015036
   2 O :   -0.371639
   3 P :    0.599544
   4 S :   -0.316457
   5 O :   -0.380002
   6 C :   -0.010440
   7 C :   -0.309888
   8 S :   -0.039824
   9 C :   -0.362627
  10 S :   -0.087128
  11 P :    0.600704
  12 S :   -0.312916
  13 O :   -0.385920
  14 C :    0.000321
  15 C :   -0.317639
  16 O :   -0.352256
  17 C :   -0.017795
  18 C :   -0.292360
  19 H :    0.117162
  20 H :    0.112883
  21 H :    0.123945
  22 H :    0.107475
  23 H :    0.114595
  24 H :    0.104883
  25 H :    0.112680
  26 H :    0.130809
  27 H :    0.114132
  28 H :    0.114469
  29 H :    0.194269
  30 H :    0.183071
  31 H :    0.113697
  32 H :    0.104678
  33 H :    0.116472
  34 H :    0.127329
  35 H :    0.113541
  36 H :    0.107885
  37 H :    0.103537
  38 H :    0.102389
  39 H :    0.119784
  40 H :    0.132515
Sum of atomic charges:    0.0000000

LOEWDIN ATOMIC CHARGES
----------------------
   0 C :   -0.363993
   1 C :   -0.116834
   2 O :   -0.241876
   3 P :    0.566085
   4 S :   -0.316285
   5 O :   -0.248286
   6 C :   -0.122460
   7 C :   -0.366495
   8 S :    0.114295
   9 C :   -0.481111
  10 S :    0.081705
  11 P :    0.568711
  12 S :   -0.313139
  13 O :   -0.250931
  14 C :   -0.115708
  15 C :   -0.371473
  16 O :   -0.234165
  17 C :   -0.116612
  18 C :   -0.354317
  19 H :    0.126798
  20 H :    0.131254
  21 H :    0.123373
  22 H :    0.116916
  23 H :    0.112231
  24 H :    0.117950
  25 H :    0.109979
  26 H :    0.123522
  27 H :    0.123585
  28 H :    0.131820
  29 H :    0.133661
  30 H :    0.130932
  31 H :    0.113654
  32 H :    0.118527
  33 H :    0.122589
  34 H :    0.121161
  35 H :    0.131274
  36 H :    0.101902
  37 H :    0.112620
  38 H :    0.126394
  39 H :    0.129902
  40 H :    0.122849

  Mayer bond orders larger than 0.100000
B(  0-C ,  1-C ) :   1.1687 B(  0-C , 19-H ) :   0.9457 B(  0-C , 20-H ) :   0.9376
B(  0-C , 21-H ) :   0.9371 B(  1-C ,  2-O ) :   0.9037 B(  1-C , 22-H ) :   0.9292
B(  1-C , 23-H ) :   0.9173 B(  2-O ,  3-P ) :   1.1047 B(  3-P ,  4-S ) :   1.6185
B(  3-P ,  5-O ) :   1.0630 B(  3-P ,  8-S ) :   0.9822 B(  5-O ,  6-C ) :   0.9082
B(  6-C ,  7-C ) :   1.1644 B(  6-C , 24-H ) :   0.9338 B(  6-C , 25-H ) :   0.9135
B(  7-C , 26-H ) :   0.9351 B(  7-C , 27-H ) :   0.9470 B(  7-C , 28-H ) :   0.9384
B(  8-S ,  9-C ) :   0.9899 B(  9-C , 10-S ) :   0.9972 B(  9-C , 29-H ) :   0.8864
B(  9-C , 30-H ) :   0.8921 B( 10-S , 11-P ) :   0.9596 B( 10-S , 12-S ) :   0.1094
B( 11-P , 12-S ) :   1.6318 B( 11-P , 13-O ) :   1.0854 B( 11-P , 16-O ) :   1.1350
B( 13-O , 14-C ) :   0.9081 B( 14-C , 15-C ) :   1.1659 B( 14-C , 31-H ) :   0.9197
B( 14-C , 32-H ) :   0.9347 B( 15-C , 33-H ) :   0.9435 B( 15-C , 34-H ) :   0.9345
B( 15-C , 35-H ) :   0.9367 B( 16-O , 17-C ) :   0.8925 B( 17-C , 18-C ) :   1.1659
B( 17-C , 36-H ) :   0.9079 B( 17-C , 37-H ) :   0.9296 B( 18-C , 38-H ) :   0.9399
B( 18-C , 39-H ) :   0.9475 B( 18-C , 40-H ) :   0.9316

Dispersion correction           -0.066652086
FINAL SINGLE POINT ENERGY     -2929.522915816621

DIPOLE MOMENT
-------------

Method             : SCF
Type of density    : Electron Density
Multiplicity       :   1
Irrep              :   0
Energy             : -2929.6426216975200987 Eh
Relativity type    :
Basis              : AO
                                X                 Y                 Z
Electronic contribution:     -4.916925334       7.861164320     -10.665320911
Nuclear contribution   :      5.189410331      -8.483095369      12.513917454
                        -----------------------------------------
Total Dipole Moment    :      0.272484997      -0.621931049       1.848596543
                        -----------------------------------------
Magnitude (a.u.)       :      1.969354077
Magnitude (Debye)      :      5.005700254

Rotational constants in cm-1:             0.012917             0.004986             0.004621
Rotational constants in MHz :           387.243795           149.465880           138.537365

                             ****ORCA TERMINATED NORMALLY****
TOTAL RUN TIME: 0 days 0 hours 0 minutes 21 seconds 499 msec
