                         Program Version 6.0.0  -   RELEASE  -
|  1> ! r2scan-3c def2/J RI DEFGRID2 scfconv6 printgap
|  2> %output
|  3>     printlevel normal
|  4> end
|  5> * xyz 0 1
|  6> C 2.0958002897 6.4146e-06 0.0123802813
|  7> N 0.6587020123 0.0003592393 -0.0174794476
|  8> C -0.131807499 1.102265535 -0.0050763645
|  9> C -1.4423801102 0.7033498339 0.0066301511
| 10> C -1.4419703236 -0.7039325666 0.006742795
| 11> C -0.1311993711 -1.102076189 -0.0050975575
| 12> H 2.4622959776 -0.0226046317 1.0416913868
| 13> H 2.472729479 -0.8758045659 -0.5132927292
| 14> H 2.4712551078 0.8986109182 -0.4739863182
| 15> H 0.2881912069 2.0888030564 -0.0100403956
| 16> H -2.3039225825 1.342734687 0.0116297039
| 17> H -2.3031696709 -1.3438277535 0.0117111491
| 18> H 0.2895352381 -2.088292626 -0.0104569384
| 19> *
| 20>
| 21>                          ****END OF INPUT****

CARTESIAN COORDINATES (ANGSTROEM)
---------------------------------
  C      2.095800    0.000006    0.012380
  N      0.658702    0.000359   -0.017479
  C     -0.131807    1.102266   -0.005076
  C     -1.442380    0.703350    0.006630
  C     -1.441970   -0.703933    0.006743
  C     -0.131199   -1.102076   -0.005098
  H      2.462296   -0.022605    1.041691
  H      2.472729   -0.875805   -0.513293
  H      2.471255    0.898611   -0.473986
  H      0.288191    2.088803   -0.010040
  H     -2.303923    1.342735    0.011630
  H     -2.303170   -1.343828    0.011711
  H      0.289535   -2.088293   -0.010457

 Total Charge           Charge          ....    0
 Multiplicity           Mult            ....    1
 Number of Electrons    NEL             ....   44
 Basis Dimension        Dim             ....  154

ORBITAL ENERGIES
----------------

  NO   OCC          E(Eh)            E(eV)
   0   2.0000     -14.207297      -386.6002
   1   2.0000     -10.076129      -274.1854
   2   2.0000     -10.038840      -273.1707
   3   2.0000     -10.038713      -273.1673
   4   2.0000     -10.005723      -272.2696
   5   2.0000     -10.005331      -272.2589
   6   2.0000      -0.956122       -26.0174
   7   2.0000      -0.770158       -20.9571
   8   2.0000      -0.685880       -18.6637
   9   2.0000      -0.658904       -17.9297
  10   2.0000      -0.538430       -14.6514
  11   2.0000      -0.516889       -14.0653
  12   2.0000      -0.498895       -13.5756
  13   2.0000      -0.435735       -11.8569
  14   2.0000      -0.409531       -11.1439
  15   2.0000      -0.387039       -10.5319
  16   2.0000      -0.373566       -10.1652
  17   2.0000      -0.345036        -9.3889
  18   2.0000      -0.342240        -9.3128
  19   2.0000      -0.336918        -9.1680
  20   2.0000      -0.211014        -5.7420
  21   2.0000      -0.187660        -5.1065
  22   0.0000       0.012830         0.3491
  23   0.0000       0.055272         1.5040
  24   0.0000       0.079429         2.1614
  25   0.0000       0.102372         2.7857
  26   0.0000       0.123352         3.3566

MULLIKEN ATOMIC CHARGES
-----------------------
   0 C :   -0.400149
   1 N :    0.198123
   2 C :   -0.224494
   3 C :   -0.177720
   4 C :   -0.176974
   5 C :   -0.224655
   6 H :    0.162393
   7 H :    0.153848
   8 H :    0.153734
   9 H :    0.127656
  10 H :    0.140289
  11 H :    0.140264
  12 H :    0.127684
Sum of atomic charges:   -0.0000000

LOEWDIN ATOMIC CHARGES
----------------------
   0 C :   -0.094015
   1 N :   -0.869095
   2 C :    0.034925
   3 C :   -0.173787
   4 C :   -0.173288
   5 C :    0.034578
   6 H :    0.173952
   7 H :    0.182797
   8 H :    0.183189
   9 H :    0.184058
  10 H :    0.166293
  11 H :    0.166288
  12 H :    0.184104

  Mayer bond orders larger than 0.100000
B(  0-C ,  1-N ) :   0.9126 B(  0-C ,  6-H ) :   0.9491 B(  0-C ,  7-H ) :   0.9649
B(  0-C ,  8-H ) :   0.9653 B(  1-N ,  2-C ) :   1.2653 B(  1-N ,  5-C ) :   1.2659
B(  2-C ,  3-C ) :   1.5315 B(  2-C ,  5-C ) :   0.1071 B(  2-C ,  9-H ) :   0.9437
B(  3-C ,  4-C ) :   1.3174 B(  3-C , 10-H ) :   0.9423 B(  4-C ,  5-C ) :   1.5312
B(  4-C , 11-H ) :   0.9423 B(  5-C , 12-H ) :   0.9439

Dispersion correction           -0.003394516
FINAL SINGLE POINT ENERGY      -249.401885241146

DIPOLE MOMENT
-------------

Method             : SCF
Type of density    : Electron Density
Multiplicity       :   1
Irrep              :   0
Energy             :  -249.4072134145337714 Eh
Relativity type    :
Basis              : AO
                                X                 Y                 Z
Electronic contribution:     -2.300417660       0.001073742      -0.057323441
Nuclear contribution   :      3.171759478      -0.000355386       0.053619655
                        -----------------------------------------
Total Dipole Moment    :      0.871341818       0.000718356      -0.003703787
                        -----------------------------------------
Magnitude (a.u.)       :      0.871349985
Magnitude (Debye)      :      2.214795650

Rotational constants in cm-1:             0.297374             0.120323             0.087073
Rotational constants in MHz :          8915.051000          3607.200590          2610.390477

                             ****ORCA TERMINATED NORMALLY****
TOTAL RUN TIME: 0 days 0 hours 0 minutes 16 seconds 801 msec
