                         Program Version 6.0.0  -   RELEASE  -
|  1> ! r2scan-3c def2/J RI DEFGRID2 scfconv6 printgap
|  2> %output
|  3>     printlevel normal
|  4> end
|  5> %cpcm
|  6>     smd true
|  7>     smdsolvent "water"
|  8> end
|  9> * xyz 0 1
| 10> C 2.0958002897 6.4146e-06 0.0123802813
| 11> N 0.6587020123 0.0003592393 -0.0174794476
| 12> C -0.131807499 1.102265535 -0.0050763645
| 13> C -1.4423801102 0.7033498339 0.0066301511
| 14> C -1.4419703236 -0.7039325666 0.006742795
| 15> C -0.1311993711 -1.102076189 -0.0050975575
| 16> H 2.4622959776 -0.0226046317 1.0416913868
| 17> H 2.472729479 -0.8758045659 -0.5132927292
| 18> H 2.4712551078 0.8986109182 -0.4739863182
| 19> H 0.2881912069 2.0888030564 -0.0100403956
| 20> H -2.3039225825 1.342734687 0.0116297039
| 21> H -2.3031696709 -1.3438277535 0.0117111491
| 22> H 0.2895352381 -2.088292626 -0.0104569384
| 23> *
| 24>
| 25>                          ****END OF INPUT****

CARTESIAN COORDINATES (ANGSTROEM)
---------------------------------
  C      2.095800    0.000006    0.012380
  N      0.658702    0.000359   -0.017479
  C     -0.131807    1.102266   -0.005076
  C     -1.442380    0.703350    0.006630
  C     -1.441970   -0.703933    0.006743
  C     -0.131199   -1.102076   -0.005098
  H      2.462296   -0.022605    1.041691
  H      2.472729   -0.875805   -0.513293
  H      2.471255    0.898611   -0.473986
  H      0.288191    2.088803   -0.010040
  H     -2.303923    1.342735    0.011630
  H     -2.303170   -1.343828    0.011711
  H      0.289535   -2.088293   -0.010457

 Total Charge           Charge          ....    0
 Multiplicity           Mult            ....    1
 Number of Electrons    NEL             ....   44
 Basis Dimension        Dim             ....  154

ORBITAL ENERGIES
----------------

  NO   OCC          E(Eh)            E(eV)
   0   2.0000     -14.208419      -386.6307
   1   2.0000     -10.057489      -273.6782
   2   2.0000     -10.040945      -273.2280
   3   2.0000     -10.040840      -273.2251
   4   2.0000     -10.009624      -272.3757
   5   2.0000     -10.009233      -272.3651
   6   2.0000      -0.956934       -26.0395
   7   2.0000      -0.768815       -20.9205
   8   2.0000      -0.688056       -18.7229
   9   2.0000      -0.652458       -17.7543
  10   2.0000      -0.540159       -14.6985
  11   2.0000      -0.515029       -14.0146
  12   2.0000      -0.494387       -13.4530
  13   2.0000      -0.427261       -11.6264
  14   2.0000      -0.400722       -10.9042
  15   2.0000      -0.385555       -10.4915
  16   2.0000      -0.366536        -9.9739
  17   2.0000      -0.342707        -9.3255
  18   2.0000      -0.339363        -9.2345
  19   2.0000      -0.339237        -9.2311
  20   2.0000      -0.217011        -5.9052
  21   2.0000      -0.195386        -5.3167
  22   0.0000       0.008932         0.2431
  23   0.0000       0.047667         1.2971
  24   0.0000       0.091683         2.4948
  25   0.0000       0.111582         3.0363
  26   0.0000       0.129615         3.5270

MULLIKEN ATOMIC CHARGES
-----------------------
   0 C :   -0.422674
   1 N :    0.196214
   2 C :   -0.242657
   3 C :   -0.246808
   4 C :   -0.246218
   5 C :   -0.242748
   6 H :    0.178859
   7 H :    0.177656
   8 H :    0.178006
   9 H :    0.166538
  10 H :    0.168687
  11 H :    0.168682
  12 H :    0.166464
Sum of atomic charges:    0.0000000

LOEWDIN ATOMIC CHARGES
----------------------
   0 C :   -0.090345
   1 N :   -0.865417
   2 C :    0.028622
   3 C :   -0.207153
   4 C :   -0.206654
   5 C :    0.028306
   6 H :    0.182579
   7 H :    0.192700
   8 H :    0.193142
   9 H :    0.198109
  10 H :    0.174003
  11 H :    0.174007
  12 H :    0.198100

  Mayer bond orders larger than 0.100000
B(  0-C ,  1-N ) :   0.9151 B(  0-C ,  6-H ) :   0.9400 B(  0-C ,  7-H ) :   0.9556
B(  0-C ,  8-H ) :   0.9561 B(  1-N ,  2-C ) :   1.2495 B(  1-N ,  5-C ) :   1.2499
B(  2-C ,  3-C ) :   1.4826 B(  2-C ,  5-C ) :   0.1015 B(  2-C ,  9-H ) :   0.9576
B(  3-C ,  4-C ) :   1.2569 B(  3-C , 10-H ) :   0.9569 B(  4-C ,  5-C ) :   1.4826
B(  4-C , 11-H ) :   0.9569 B(  5-C , 12-H ) :   0.9577

Dispersion correction           -0.003394516
FINAL SINGLE POINT ENERGY      -249.406275873239

DIPOLE MOMENT
-------------

Method             : SCF
Type of density    : Electron Density
Multiplicity       :   1
Irrep              :   0
Energy             :  -249.4116040466266213 Eh
Relativity type    :
Basis              : AO
                                X                 Y                 Z
Electronic contribution:     -1.917889689       0.001298709      -0.058792770
Nuclear contribution   :      3.171759478      -0.000355386       0.053619655
                        -----------------------------------------
Total Dipole Moment    :      1.253869789       0.000943323      -0.005173115
                        -----------------------------------------
Magnitude (a.u.)       :      1.253880815
Magnitude (Debye)      :      3.187111748

Rotational constants in cm-1:             0.297374             0.120323             0.087073
Rotational constants in MHz :          8915.051000          3607.200590          2610.390477

                             ****ORCA TERMINATED NORMALLY****
TOTAL RUN TIME: 0 days 0 hours 0 minutes 16 seconds 796 msec
