                         Program Version 6.0.0  -   RELEASE  -
|  1> ! pbe def2-sv(p) def2/J RI DEFGRID1 loosescf d4 GCP(DFT/SV(P)) printgap
|  2> %output
|  3>     printlevel normal
|  4> end
|  5> * xyz 0 1
|  6> C 3.5616122333 1.6194703636 2.2892288355
|  7> C 2.6045473769 1.636187472 1.1160484645
|  8> O 1.6717340088 0.526067676 1.2051966226
|  9> P 1.8582476287 -0.8263249779 0.4243345736
| 10> S 0.4417430024 -2.1122418354 0.8378834512
| 11> O 3.3307850997 -1.2668866313 0.8162077147
| 12> C 3.8878122165 -2.5122341148 0.346244934
| 13> C 5.1272307283 -2.8038090018 1.167439796
| 14> S 2.0836193471 -0.3313525661 -1.6407210212
| 15> C 0.3366165037 -0.1572886531 -2.0416174437
| 16> S -0.4097737295 1.2490308147 -1.1545881671
| 17> P -2.3462160595 0.4507476407 -0.739052961
| 18> S -2.6296121856 -1.4353282983 -1.1615123161
| 19> O -3.3375460104 1.3677207498 -1.5448475548
| 20> C -3.3520834701 2.8158996287 -1.4591966939
| 21> C -4.3746974428 3.2892307706 -0.4471490423
| 22> O -2.6138028348 0.9001075506 0.7635305878
| 23> C -1.9793047726 0.2621232487 1.8855552397
| 24> C -2.6585239294 0.7611999978 3.1438670231
| 25> H 3.0081700147 1.6445091127 3.2237701792
| 26> H 4.1685384033 0.7185031765 2.2655999361
| 27> H 4.2076744955 2.4897687848 2.2309876279
| 28> H 3.1387886413 1.5736749442 0.1643316968
| 29> H 1.9707159851 2.5247638666 1.1229589767
| 30> H 3.133185564 -3.2969830844 0.4626583328
| 31> H 4.1266616506 -2.400055853 -0.7146886217
| 32> H 4.8665852559 -2.8919186253 2.2183788786
| 33> H 5.566134017 -3.7364619064 0.8287869708
| 34> H 5.8501438623 -2.0023177595 1.0472345355
| 35> H -0.206216769 -1.0668490586 -1.7660553534
| 36> H 0.2827994266 0.025167327 -3.1119769802
| 37> H -2.346907969 3.164230557 -1.2047212621
| 38> H -3.6109282045 3.1405433147 -2.468464457
| 39> H -4.1071794116 2.9479916826 0.5490323069
| 40> H -4.4086801692 4.3741650736 -0.4591303022
| 41> H -5.3557069763 2.8960770795 -0.6991825018
| 42> H -2.0749358892 -0.823292344 1.7761064034
| 43> H -0.914194946 0.5157094867 1.8772680675
| 44> H -2.1967040935 0.2895372929 4.0048945041
| 45> H -2.5515604441 1.839253217 3.2219033486
| 46> H -3.7148312571 0.508518596 3.1200129704
| 47> *
| 48>
| 49>                          ****END OF INPUT****

CARTESIAN COORDINATES (ANGSTROEM)
---------------------------------
  C      3.561612    1.619470    2.289229
  C      2.604547    1.636187    1.116048
  O      1.671734    0.526068    1.205197
  P      1.858248   -0.826325    0.424335
  S      0.441743   -2.112242    0.837883
  O      3.330785   -1.266887    0.816208
  C      3.887812   -2.512234    0.346245
  C      5.127231   -2.803809    1.167440
  S      2.083619   -0.331353   -1.640721
  C      0.336617   -0.157289   -2.041617
  S     -0.409774    1.249031   -1.154588
  P     -2.346216    0.450748   -0.739053
  S     -2.629612   -1.435328   -1.161512
  O     -3.337546    1.367721   -1.544848
  C     -3.352083    2.815900   -1.459197
  C     -4.374697    3.289231   -0.447149
  O     -2.613803    0.900108    0.763531
  C     -1.979305    0.262123    1.885555
  C     -2.658524    0.761200    3.143867
  H      3.008170    1.644509    3.223770
  H      4.168538    0.718503    2.265600
  H      4.207674    2.489769    2.230988
  H      3.138789    1.573675    0.164332
  H      1.970716    2.524764    1.122959
  H      3.133186   -3.296983    0.462658
  H      4.126662   -2.400056   -0.714689
  H      4.866585   -2.891919    2.218379
  H      5.566134   -3.736462    0.828787
  H      5.850144   -2.002318    1.047235
  H     -0.206217   -1.066849   -1.766055
  H      0.282799    0.025167   -3.111977
  H     -2.346908    3.164231   -1.204721
  H     -3.610928    3.140543   -2.468464
  H     -4.107179    2.947992    0.549032
  H     -4.408680    4.374165   -0.459130
  H     -5.355707    2.896077   -0.699183
  H     -2.074936   -0.823292    1.776106
  H     -0.914195    0.515709    1.877268
  H     -2.196704    0.289537    4.004895
  H     -2.551560    1.839253    3.221903
  H     -3.714831    0.508519    3.120013

 Total Charge           Charge          ....    0
 Multiplicity           Mult            ....    1
 Number of Electrons    NEL             ....  202
 Basis Dimension        Dim             ....  334

ORBITAL ENERGIES
----------------

  NO   OCC          E(Eh)            E(eV)
   0   2.0000     -88.045786     -2395.8476
   1   2.0000     -88.037258     -2395.6156
   2   2.0000     -87.982107     -2394.1148
   3   2.0000     -87.977218     -2393.9818
   4   2.0000     -76.426995     -2079.6843
   5   2.0000     -76.418981     -2079.4662
   6   2.0000     -18.798747      -511.5399
   7   2.0000     -18.796706      -511.4844
   8   2.0000     -18.786818      -511.2153
   9   2.0000     -18.786343      -511.2024
  10   2.0000      -9.959038      -270.9992
  11   2.0000      -9.957966      -270.9700
  12   2.0000      -9.955194      -270.8946
  13   2.0000      -9.951174      -270.7852
  14   2.0000      -9.937694      -270.4184
  15   2.0000      -9.893134      -269.2059
  16   2.0000      -9.890318      -269.1292
  17   2.0000      -9.884391      -268.9679
  18   2.0000      -9.880157      -268.8527
  19   2.0000      -7.690825      -209.2780
  20   2.0000      -7.682022      -209.0384
  21   2.0000      -7.627113      -207.5443
  22   2.0000      -7.622540      -207.4199
  23   2.0000      -6.424508      -174.8197
  24   2.0000      -6.416688      -174.6069
  25   2.0000      -5.718594      -155.6108
  26   2.0000      -5.715148      -155.5171
  27   2.0000      -5.709868      -155.3734
  28   2.0000      -5.708146      -155.3265
  29   2.0000      -5.706569      -155.2836
  30   2.0000      -5.699046      -155.0789
  31   2.0000      -5.656121      -153.9109
  32   2.0000      -5.651568      -153.7870
  33   2.0000      -5.647554      -153.6777
  34   2.0000      -5.647336      -153.6718
  35   2.0000      -5.643101      -153.5566
  36   2.0000      -5.642584      -153.5425
  37   2.0000      -4.647390      -126.4619
  38   2.0000      -4.646392      -126.4348
  39   2.0000      -4.644527      -126.3840
  40   2.0000      -4.639405      -126.2446
  41   2.0000      -4.638446      -126.2185
  42   2.0000      -4.636992      -126.1790
  43   2.0000      -0.993631       -27.0381
  44   2.0000      -0.982618       -26.7384
  45   2.0000      -0.950834       -25.8735
  46   2.0000      -0.939238       -25.5580
  47   2.0000      -0.760661       -20.6986
  48   2.0000      -0.722216       -19.6525
  49   2.0000      -0.711800       -19.3691
  50   2.0000      -0.697099       -18.9690
  51   2.0000      -0.686128       -18.6705
  52   2.0000      -0.672423       -18.2976
  53   2.0000      -0.646772       -17.5996
  54   2.0000      -0.631541       -17.1851
  55   2.0000      -0.591445       -16.0940
  56   2.0000      -0.584226       -15.8976
  57   2.0000      -0.574857       -15.6427
  58   2.0000      -0.568881       -15.4801
  59   2.0000      -0.559526       -15.2255
  60   2.0000      -0.513959       -13.9855
  61   2.0000      -0.499273       -13.5859
  62   2.0000      -0.486332       -13.2338
  63   2.0000      -0.476801       -12.9744
  64   2.0000      -0.450178       -12.2500
  65   2.0000      -0.445622       -12.1260
  66   2.0000      -0.441730       -12.0201
  67   2.0000      -0.437432       -11.9031
  68   2.0000      -0.432022       -11.7559
  69   2.0000      -0.419162       -11.4060
  70   2.0000      -0.407796       -11.0967
  71   2.0000      -0.394103       -10.7241
  72   2.0000      -0.387687       -10.5495
  73   2.0000      -0.385523       -10.4906
  74   2.0000      -0.381503       -10.3812
  75   2.0000      -0.367464        -9.9992
  76   2.0000      -0.360962        -9.8223
  77   2.0000      -0.357839        -9.7373
  78   2.0000      -0.356564        -9.7026
  79   2.0000      -0.351545        -9.5660
  80   2.0000      -0.350027        -9.5247
  81   2.0000      -0.349377        -9.5070
  82   2.0000      -0.340284        -9.2596
  83   2.0000      -0.339197        -9.2300
  84   2.0000      -0.335261        -9.1229
  85   2.0000      -0.320545        -8.7225
  86   2.0000      -0.310688        -8.4543
  87   2.0000      -0.304420        -8.2837
  88   2.0000      -0.297911        -8.1066
  89   2.0000      -0.290960        -7.9174
  90   2.0000      -0.286241        -7.7890
  91   2.0000      -0.279509        -7.6058
  92   2.0000      -0.269440        -7.3318
  93   2.0000      -0.263799        -7.1783
  94   2.0000      -0.252850        -6.8804
  95   2.0000      -0.235729        -6.4145
  96   2.0000      -0.218173        -5.9368
  97   2.0000      -0.209051        -5.6886
  98   2.0000      -0.201225        -5.4756
  99   2.0000      -0.192724        -5.2443
 100   2.0000      -0.185205        -5.0397
 101   0.0000      -0.041296        -1.1237
 102   0.0000      -0.029560        -0.8044
 103   0.0000      -0.008394        -0.2284
 104   0.0000       0.011372         0.3095
 105   0.0000       0.018721         0.5094

MULLIKEN ATOMIC CHARGES
-----------------------
   0 C :   -0.289662
   1 C :   -0.009592
   2 O :   -0.346264
   3 P :    0.591842
   4 S :   -0.295715
   5 O :   -0.382500
   6 C :   -0.013421
   7 C :   -0.283276
   8 S :   -0.114535
   9 C :   -0.343366
  10 S :   -0.144005
  11 P :    0.606155
  12 S :   -0.291999
  13 O :   -0.355126
  14 C :   -0.014205
  15 C :   -0.292273
  16 O :   -0.385220
  17 C :   -0.035980
  18 C :   -0.278301
  19 H :    0.118415
  20 H :    0.122943
  21 H :    0.110560
  22 H :    0.102216
  23 H :    0.108949
  24 H :    0.110075
  25 H :    0.106731
  26 H :    0.123052
  27 H :    0.115568
  28 H :    0.115972
  29 H :    0.215496
  30 H :    0.182093
  31 H :    0.102625
  32 H :    0.110131
  33 H :    0.126226
  34 H :    0.107198
  35 H :    0.120628
  36 H :    0.121538
  37 H :    0.119838
  38 H :    0.113655
  39 H :    0.107606
  40 H :    0.115930
Sum of atomic charges:   -0.0000000

LOEWDIN ATOMIC CHARGES
----------------------
   0 C :   -0.359236
   1 C :   -0.115636
   2 O :   -0.229784
   3 P :    0.561250
   4 S :   -0.290374
   5 O :   -0.249670
   6 C :   -0.119609
   7 C :   -0.350535
   8 S :    0.064437
   9 C :   -0.478214
  10 S :    0.044582
  11 P :    0.564480
  12 S :   -0.287971
  13 O :   -0.237787
  14 C :   -0.113186
  15 C :   -0.360670
  16 O :   -0.247531
  17 C :   -0.127290
  18 C :   -0.351331
  19 H :    0.128095
  20 H :    0.126348
  21 H :    0.129943
  22 H :    0.104235
  23 H :    0.119209
  24 H :    0.112284
  25 H :    0.109716
  26 H :    0.129919
  27 H :    0.132675
  28 H :    0.125673
  29 H :    0.124669
  30 H :    0.134783
  31 H :    0.102221
  32 H :    0.121471
  33 H :    0.126769
  34 H :    0.128166
  35 H :    0.129533
  36 H :    0.111138
  37 H :    0.108248
  38 H :    0.131700
  39 H :    0.121278
  40 H :    0.126002

  Mayer bond orders larger than 0.100000
B(  0-C ,  1-C ) :   1.1654 B(  0-C , 19-H ) :   0.9473 B(  0-C , 20-H ) :   0.9413
B(  0-C , 21-H ) :   0.9399 B(  1-C ,  2-O ) :   0.8859 B(  1-C , 22-H ) :   0.9111
B(  1-C , 23-H ) :   0.9338 B(  2-O ,  3-P ) :   1.1256 B(  3-P ,  4-S ) :   1.6767
B(  3-P ,  5-O ) :   1.0787 B(  3-P ,  8-S ) :   0.9405 B(  4-S ,  8-S ) :   0.1087
B(  5-O ,  6-C ) :   0.9019 B(  6-C ,  7-C ) :   1.1600 B(  6-C , 24-H ) :   0.9108
B(  6-C , 25-H ) :   0.9282 B(  7-C , 26-H ) :   0.9507 B(  7-C , 27-H ) :   0.9416
B(  7-C , 28-H ) :   0.9507 B(  8-S ,  9-C ) :   1.0067 B(  9-C , 10-S ) :   0.9907
B(  9-C , 29-H ) :   0.8405 B(  9-C , 30-H ) :   0.9110 B( 10-S , 11-P ) :   0.9388
B( 10-S , 12-S ) :   0.1186 B( 11-P , 12-S ) :   1.6738 B( 11-P , 13-O ) :   1.1392
B( 11-P , 16-O ) :   1.0858 B( 13-O , 14-C ) :   0.8979 B( 14-C , 15-C ) :   1.1632
B( 14-C , 31-H ) :   0.9140 B( 14-C , 32-H ) :   0.9367 B( 15-C , 33-H ) :   0.9398
B( 15-C , 34-H ) :   0.9395 B( 15-C , 35-H ) :   0.9465 B( 16-O , 17-C ) :   0.8975
B( 17-C , 18-C ) :   1.1527 B( 17-C , 36-H ) :   0.9140 B( 17-C , 37-H ) :   0.9177
B( 18-C , 38-H ) :   0.9431 B( 18-C , 39-H ) :   0.9503 B( 18-C , 40-H ) :   0.9507

Dispersion correction           -0.063398421
FINAL SINGLE POINT ENERGY     -2929.519652664169

DIPOLE MOMENT
-------------

Method             : SCF
Type of density    : Electron Density
Multiplicity       :   1
Irrep              :   0
Energy             : -2929.6407620029904137 Eh
Relativity type    :
Basis              : AO
                                X                 Y                 Z
Electronic contribution:     -7.210807067     -10.576264096     -16.533208255
Nuclear contribution   :      8.722341909      12.100053723      16.985835671
                        -----------------------------------------
Total Dipole Moment    :      1.511534842       1.523789628       0.452627416
                        -----------------------------------------
Magnitude (a.u.)       :      2.193523190
Magnitude (Debye)      :      5.575492857

Rotational constants in cm-1:             0.012930             0.004616             0.004476
Rotational constants in MHz :           387.629849           138.378763           134.180111

                             ****ORCA TERMINATED NORMALLY****
TOTAL RUN TIME: 0 days 0 hours 0 minutes 21 seconds 789 msec
