                         Program Version 6.0.0  -   RELEASE  -
|  1> ! pbe def2-sv(p) def2/J RI DEFGRID1 loosescf d4 GCP(DFT/SV(P)) printgap
|  2> %output
|  3>     printlevel normal
|  4> end
|  5> * xyz 0 1
|  6> C 1.0958419247 -3.3528213588 0.4597104679
|  7> C 2.3021004912 -2.5391699943 0.8838112761
|  8> O 1.9185031758 -1.1644506485 1.1029774914
|  9> P 2.5079111642 0.0760501673 0.3169423374
| 10> S 3.3986618746 -0.3956541782 -1.3717408137
| 11> O 3.4031943238 0.7139155461 1.4626677439
| 12> C 3.8391464475 2.083926543 1.524252004
| 13> C 4.5054862708 2.549898892 0.2461977066
| 14> S 0.8664934727 1.4060421406 0.1841359703
| 15> C 0.2004747075 0.7644884744 -1.3731252161
| 16> S -0.8239174855 -0.7049890196 -1.1499533094
| 17> P -2.6282883416 0.272453824 -0.5299975967
| 18> S -2.7123506739 2.197058009 -0.8651384307
| 19> O -2.8726016148 -0.1526293526 0.9866340051
| 20> C -2.2147432943 0.4736366741 2.1031219965
| 21> C -1.1778071558 -0.4580352072 2.7000923973
| 22> O -3.7594401983 -0.5119522843 -1.2867603799
| 23> C -3.8664883571 -1.9567830616 -1.3541491899
| 24> C -4.6577487807 -2.5097950937 -0.1873331736
| 25> H 0.7241677859 -3.0030507183 -0.5008031648
| 26> H 1.3870030386 -4.3944187308 0.3717393935
| 27> H 0.3038126171 -3.2617946645 1.1971855224
| 28> H 3.0851693984 -2.5733212188 0.1194458335
| 29> H 2.705168732 -2.8882035299 1.8361158819
| 30> H 2.9708683603 2.7066267136 1.757441569
| 31> H 4.5369539835 2.0934642872 2.3634958081
| 32> H 5.3223053447 1.8834541248 -0.0213056263
| 33> H 3.7863872521 2.5603955467 -0.5721397756
| 34> H 4.8927573799 3.5539619091 0.3867396816
| 35> H 1.0280537809 0.4809017546 -2.0254194423
| 36> H -0.4026746588 1.5613647527 -1.8085870938
| 37> H -1.766680139 1.4182905737 1.7770493689
| 38> H -3.0108719091 0.6855303469 2.8198463305
| 39> H -0.3838214161 -0.6638274243 1.9863394192
| 40> H -0.7429331225 0.0118643343 3.5763932059
| 41> H -1.6428975342 -1.3961567265 2.9897732208
| 42> H -4.3762222331 -2.1367188055 -2.3022420137
| 43> H -2.8596257219 -2.3817812017 -1.3901724499
| 44> H -4.1373309596 -2.3231598101 0.7475660599
| 45> H -5.6352925048 -2.0373476689 -0.1436486474
| 46> H -4.7825141279 -3.5797818679 -0.3216094919
| 47> *
| 48>
| 49>                          ****END OF INPUT****

CARTESIAN COORDINATES (ANGSTROEM)
---------------------------------
  C      1.095842   -3.352821    0.459710
  C      2.302100   -2.539170    0.883811
  O      1.918503   -1.164451    1.102977
  P      2.507911    0.076050    0.316942
  S      3.398662   -0.395654   -1.371741
  O      3.403194    0.713916    1.462668
  C      3.839146    2.083927    1.524252
  C      4.505486    2.549899    0.246198
  S      0.866493    1.406042    0.184136
  C      0.200475    0.764488   -1.373125
  S     -0.823917   -0.704989   -1.149953
  P     -2.628288    0.272454   -0.529998
  S     -2.712351    2.197058   -0.865138
  O     -2.872602   -0.152629    0.986634
  C     -2.214743    0.473637    2.103122
  C     -1.177807   -0.458035    2.700092
  O     -3.759440   -0.511952   -1.286760
  C     -3.866488   -1.956783   -1.354149
  C     -4.657749   -2.509795   -0.187333
  H      0.724168   -3.003051   -0.500803
  H      1.387003   -4.394419    0.371739
  H      0.303813   -3.261795    1.197186
  H      3.085169   -2.573321    0.119446
  H      2.705169   -2.888204    1.836116
  H      2.970868    2.706627    1.757442
  H      4.536954    2.093464    2.363496
  H      5.322305    1.883454   -0.021306
  H      3.786387    2.560396   -0.572140
  H      4.892757    3.553962    0.386740
  H      1.028054    0.480902   -2.025419
  H     -0.402675    1.561365   -1.808587
  H     -1.766680    1.418291    1.777049
  H     -3.010872    0.685530    2.819846
  H     -0.383821   -0.663827    1.986339
  H     -0.742933    0.011864    3.576393
  H     -1.642898   -1.396157    2.989773
  H     -4.376222   -2.136719   -2.302242
  H     -2.859626   -2.381781   -1.390172
  H     -4.137331   -2.323160    0.747566
  H     -5.635293   -2.037348   -0.143649
  H     -4.782514   -3.579782   -0.321609

 Total Charge           Charge          ....    0
 Multiplicity           Mult            ....    1
 Number of Electrons    NEL             ....  202
 Basis Dimension        Dim             ....  334

ORBITAL ENERGIES
----------------

  NO   OCC          E(Eh)            E(eV)
   0   2.0000     -88.048747     -2395.9282
   1   2.0000     -88.043870     -2395.7955
   2   2.0000     -87.991103     -2394.3596
   3   2.0000     -87.988705     -2394.2944
   4   2.0000     -76.431229     -2079.7995
   5   2.0000     -76.428511     -2079.7255
   6   2.0000     -18.796655      -511.4830
   7   2.0000     -18.794788      -511.4322
   8   2.0000     -18.792408      -511.3674
   9   2.0000     -18.791329      -511.3381
  10   2.0000      -9.963343      -271.1163
  11   2.0000      -9.960247      -271.0321
  12   2.0000      -9.953955      -270.8609
  13   2.0000      -9.952547      -270.8226
  14   2.0000      -9.949453      -270.7384
  15   2.0000      -9.890075      -269.1226
  16   2.0000      -9.884915      -268.9822
  17   2.0000      -9.884668      -268.9755
  18   2.0000      -9.878882      -268.8180
  19   2.0000      -7.693535      -209.3517
  20   2.0000      -7.688580      -209.2169
  21   2.0000      -7.635998      -207.7861
  22   2.0000      -7.633965      -207.7307
  23   2.0000      -6.428521      -174.9290
  24   2.0000      -6.426156      -174.8646
  25   2.0000      -5.721245      -155.6830
  26   2.0000      -5.718056      -155.5962
  27   2.0000      -5.716374      -155.5504
  28   2.0000      -5.713134      -155.4623
  29   2.0000      -5.710696      -155.3959
  30   2.0000      -5.705658      -155.2588
  31   2.0000      -5.664808      -154.1473
  32   2.0000      -5.662980      -154.0975
  33   2.0000      -5.656748      -153.9279
  34   2.0000      -5.656154      -153.9118
  35   2.0000      -5.654507      -153.8670
  36   2.0000      -5.654056      -153.8547
  37   2.0000      -4.650989      -126.5598
  38   2.0000      -4.650476      -126.5459
  39   2.0000      -4.648916      -126.5034
  40   2.0000      -4.648870      -126.5022
  41   2.0000      -4.647840      -126.4742
  42   2.0000      -4.646547      -126.4390
  43   2.0000      -0.989769       -26.9330
  44   2.0000      -0.989182       -26.9170
  45   2.0000      -0.947389       -25.7798
  46   2.0000      -0.946570       -25.7575
  47   2.0000      -0.766636       -20.8612
  48   2.0000      -0.725525       -19.7425
  49   2.0000      -0.714827       -19.4514
  50   2.0000      -0.690875       -18.7997
  51   2.0000      -0.688451       -18.7337
  52   2.0000      -0.677716       -18.4416
  53   2.0000      -0.651961       -17.7407
  54   2.0000      -0.641755       -17.4631
  55   2.0000      -0.600983       -16.3536
  56   2.0000      -0.594026       -16.1643
  57   2.0000      -0.579067       -15.7572
  58   2.0000      -0.573301       -15.6003
  59   2.0000      -0.561201       -15.2711
  60   2.0000      -0.506581       -13.7848
  61   2.0000      -0.501187       -13.6380
  62   2.0000      -0.482700       -13.1349
  63   2.0000      -0.473027       -12.8717
  64   2.0000      -0.461973       -12.5709
  65   2.0000      -0.448937       -12.2162
  66   2.0000      -0.442757       -12.0480
  67   2.0000      -0.437575       -11.9070
  68   2.0000      -0.431297       -11.7362
  69   2.0000      -0.421474       -11.4689
  70   2.0000      -0.410630       -11.1738
  71   2.0000      -0.399189       -10.8625
  72   2.0000      -0.395957       -10.7745
  73   2.0000      -0.386156       -10.5078
  74   2.0000      -0.382997       -10.4219
  75   2.0000      -0.378700       -10.3050
  76   2.0000      -0.368029       -10.0146
  77   2.0000      -0.358640        -9.7591
  78   2.0000      -0.355612        -9.6767
  79   2.0000      -0.351199        -9.5566
  80   2.0000      -0.349211        -9.5025
  81   2.0000      -0.346410        -9.4263
  82   2.0000      -0.343665        -9.3516
  83   2.0000      -0.340475        -9.2648
  84   2.0000      -0.335857        -9.1391
  85   2.0000      -0.323615        -8.8060
  86   2.0000      -0.314996        -8.5715
  87   2.0000      -0.300402        -8.1743
  88   2.0000      -0.296451        -8.0668
  89   2.0000      -0.291745        -7.9388
  90   2.0000      -0.288006        -7.8370
  91   2.0000      -0.280414        -7.6304
  92   2.0000      -0.279618        -7.6088
  93   2.0000      -0.267303        -7.2737
  94   2.0000      -0.257475        -7.0063
  95   2.0000      -0.236507        -6.4357
  96   2.0000      -0.221162        -6.0181
  97   2.0000      -0.213304        -5.8043
  98   2.0000      -0.205614        -5.5951
  99   2.0000      -0.205005        -5.5785
 100   2.0000      -0.203456        -5.5363
 101   0.0000      -0.048385        -1.3166
 102   0.0000      -0.032460        -0.8833
 103   0.0000      -0.015392        -0.4188
 104   0.0000      -0.001235        -0.0336
 105   0.0000       0.008787         0.2391

MULLIKEN ATOMIC CHARGES
-----------------------
   0 C :   -0.296349
   1 C :   -0.008596
   2 O :   -0.357722
   3 P :    0.611214
   4 S :   -0.330757
   5 O :   -0.369851
   6 C :   -0.010760
   7 C :   -0.311228
   8 S :   -0.091910
   9 C :   -0.353928
  10 S :   -0.127223
  11 P :    0.612044
  12 S :   -0.306174
  13 O :   -0.379433
  14 C :   -0.004184
  15 C :   -0.327816
  16 O :   -0.355107
  17 C :   -0.022222
  18 C :   -0.294596
  19 H :    0.127611
  20 H :    0.107990
  21 H :    0.117134
  22 H :    0.112446
  23 H :    0.103926
  24 H :    0.114563
  25 H :    0.110304
  26 H :    0.127410
  27 H :    0.125617
  28 H :    0.112933
  29 H :    0.193791
  30 H :    0.198579
  31 H :    0.106575
  32 H :    0.104923
  33 H :    0.158127
  34 H :    0.105441
  35 H :    0.106504
  36 H :    0.116447
  37 H :    0.114606
  38 H :    0.126031
  39 H :    0.122615
  40 H :    0.111026
Sum of atomic charges:    0.0000000

LOEWDIN ATOMIC CHARGES
----------------------
   0 C :   -0.358627
   1 C :   -0.116141
   2 O :   -0.236723
   3 P :    0.572588
   4 S :   -0.313895
   5 O :   -0.244149
   6 C :   -0.114028
   7 C :   -0.369696
   8 S :    0.093122
   9 C :   -0.487436
  10 S :    0.070466
  11 P :    0.570512
  12 S :   -0.298970
  13 O :   -0.248149
  14 C :   -0.118173
  15 C :   -0.369064
  16 O :   -0.233489
  17 C :   -0.110530
  18 C :   -0.361329
  19 H :    0.118931
  20 H :    0.128705
  21 H :    0.124843
  22 H :    0.107194
  23 H :    0.116423
  24 H :    0.109804
  25 H :    0.122087
  26 H :    0.129970
  27 H :    0.121208
  28 H :    0.130821
  29 H :    0.127693
  30 H :    0.129427
  31 H :    0.103005
  32 H :    0.117595
  33 H :    0.119702
  34 H :    0.129115
  35 H :    0.120417
  36 H :    0.124737
  37 H :    0.105075
  38 H :    0.126149
  39 H :    0.130684
  40 H :    0.130124

  Mayer bond orders larger than 0.100000
B(  0-C ,  1-C ) :   1.1673 B(  0-C , 19-H ) :   0.9389 B(  0-C , 20-H ) :   0.9391
B(  0-C , 21-H ) :   0.9490 B(  1-C ,  2-O ) :   0.8980 B(  1-C , 22-H ) :   0.9011
B(  1-C , 23-H ) :   0.9328 B(  2-O ,  3-P ) :   1.1267 B(  3-P ,  4-S ) :   1.5947
B(  3-P ,  5-O ) :   1.1261 B(  3-P ,  8-S ) :   0.9519 B(  4-S ,  8-S ) :   0.1069
B(  5-O ,  6-C ) :   0.9130 B(  6-C ,  7-C ) :   1.1639 B(  6-C , 24-H ) :   0.9280
B(  6-C , 25-H ) :   0.9339 B(  7-C , 26-H ) :   0.9426 B(  7-C , 27-H ) :   0.9333
B(  7-C , 28-H ) :   0.9351 B(  8-S ,  9-C ) :   1.0051 B(  9-C , 10-S ) :   1.0167
B(  9-C , 29-H ) :   0.8612 B(  9-C , 30-H ) :   0.8649 B( 10-S , 11-P ) :   0.9300
B( 10-S , 12-S ) :   0.1112 B( 11-P , 12-S ) :   1.6477 B( 11-P , 13-O ) :   1.0871
B( 11-P , 16-O ) :   1.1532 B( 13-O , 14-C ) :   0.8968 B( 14-C , 15-C ) :   1.1652
B( 14-C , 31-H ) :   0.9020 B( 14-C , 32-H ) :   0.9352 B( 15-C , 33-H ) :   0.9175
B( 15-C , 34-H ) :   0.9395 B( 15-C , 35-H ) :   0.9460 B( 16-O , 17-C ) :   0.8966
B( 17-C , 18-C ) :   1.1633 B( 17-C , 36-H ) :   0.9357 B( 17-C , 37-H ) :   0.9144
B( 18-C , 38-H ) :   0.9386 B( 18-C , 39-H ) :   0.9465 B( 18-C , 40-H ) :   0.9383

Dispersion correction           -0.064734805
FINAL SINGLE POINT ENERGY     -2929.519508758660

DIPOLE MOMENT
-------------

Method             : SCF
Type of density    : Electron Density
Multiplicity       :   1
Irrep              :   0
Energy             : -2929.6399193884567467 Eh
Relativity type    :
Basis              : AO
                                X                 Y                 Z
Electronic contribution:     -0.854809400      12.213401288     -11.238530741
Nuclear contribution   :      1.006896848     -13.238013408      12.365759439
                        -----------------------------------------
Total Dipole Moment    :      0.152087449      -1.024612120       1.127228697
                        -----------------------------------------
Magnitude (a.u.)       :      1.530883772
Magnitude (Debye)      :      3.891197310

Rotational constants in cm-1:             0.012561             0.004850             0.004406
Rotational constants in MHz :           376.567763           145.387279           132.085112

                             ****ORCA TERMINATED NORMALLY****
TOTAL RUN TIME: 0 days 0 hours 0 minutes 21 seconds 197 msec
