                         Program Version 6.0.0  -   RELEASE  -
|  1> ! pbe def2-sv(p) def2/J RI DEFGRID1 loosescf d4 GCP(DFT/SV(P)) printgap
|  2> %output
|  3>     printlevel normal
|  4> end
|  5> * xyz 0 1
|  6> C -1.8736247829 -0.142981513 0.3795845481
|  7> C -0.7107545952 -0.624099476 -0.4829836477
|  8> N 0.5152026678 0.0606542311 -0.0813201234
|  9> O 0.5486925107 1.2700980886 -0.1713835395
| 10> O 1.4391640792 -0.6125248802 0.3292256004
| 11> H -1.7230794025 -0.4232931143 1.4188021718
| 12> H -1.9628195031 0.9385000375 0.3151811331
| 13> H -2.7937605493 -0.5951817622 0.0252585427
| 14> H -0.8980657699 -0.3650323891 -1.5272112847
| 15> H -0.5399179383 -1.6951370875 -0.3753454699
| 16> *
| 17>
| 18>                          ****END OF INPUT****

CARTESIAN COORDINATES (ANGSTROEM)
---------------------------------
  C     -1.873625   -0.142982    0.379585
  C     -0.710755   -0.624099   -0.482984
  N      0.515203    0.060654   -0.081320
  O      0.548693    1.270098   -0.171384
  O      1.439164   -0.612525    0.329226
  H     -1.723079   -0.423293    1.418802
  H     -1.962820    0.938500    0.315181
  H     -2.793761   -0.595182    0.025259
  H     -0.898066   -0.365032   -1.527211
  H     -0.539918   -1.695137   -0.375345

 Total Charge           Charge          ....    0
 Multiplicity           Mult            ....    1
 Number of Electrons    NEL             ....   40
 Basis Dimension        Dim             ....   80

ORBITAL ENERGIES
----------------

  NO   OCC          E(Eh)            E(eV)
   0   2.0000     -18.781848      -511.0801
   1   2.0000     -18.781536      -511.0716
   2   2.0000     -14.206811      -386.5870
   3   2.0000      -9.951644      -270.7980
   4   2.0000      -9.908254      -269.6173
   5   2.0000      -1.134469       -30.8705
   6   2.0000      -0.963684       -26.2232
   7   2.0000      -0.765147       -20.8207
   8   2.0000      -0.641467       -17.4552
   9   2.0000      -0.534067       -14.5327
  10   2.0000      -0.496158       -13.5011
  11   2.0000      -0.476073       -12.9546
  12   2.0000      -0.457365       -12.4455
  13   2.0000      -0.422606       -11.4997
  14   2.0000      -0.377942       -10.2843
  15   2.0000      -0.359753        -9.7894
  16   2.0000      -0.342193        -9.3116
  17   2.0000      -0.274374        -7.4661
  18   2.0000      -0.255209        -6.9446
  19   2.0000      -0.233642        -6.3577
  20   0.0000      -0.096328        -2.6212
  21   0.0000       0.034228         0.9314
  22   0.0000       0.069797         1.8993
  23   0.0000       0.074362         2.0235
  24   0.0000       0.097540         2.6542

MULLIKEN ATOMIC CHARGES
-----------------------
   0 C :   -0.309780
   1 C :   -0.065576
   2 N :    0.176806
   3 O :   -0.218266
   4 O :   -0.218675
   5 H :    0.126536
   6 H :    0.136553
   7 H :    0.125171
   8 H :    0.130969
   9 H :    0.116263
Sum of atomic charges:    0.0000000

LOEWDIN ATOMIC CHARGES
----------------------
   0 C :   -0.345023
   1 C :   -0.188167
   2 N :    0.238498
   3 O :   -0.190830
   4 O :   -0.187156
   5 H :    0.130974
   6 H :    0.134122
   7 H :    0.134223
   8 H :    0.141141
   9 H :    0.132216

  Mayer bond orders larger than 0.100000
B(  0-C ,  1-C ) :   1.1503 B(  0-C ,  5-H ) :   0.9491 B(  0-C ,  6-H ) :   0.9405
B(  0-C ,  7-H ) :   0.9462 B(  1-C ,  2-N ) :   0.9039 B(  1-C ,  8-H ) :   0.9131
B(  1-C ,  9-H ) :   0.9198 B(  2-N ,  3-O ) :   1.5380 B(  2-N ,  4-O ) :   1.5576
B(  3-O ,  4-O ) :   0.3118

Dispersion correction           -0.005813137
FINAL SINGLE POINT ENERGY      -283.756259456638

DIPOLE MOMENT
-------------

Method             : SCF
Type of density    : Electron Density
Multiplicity       :   1
Irrep              :   0
Energy             :  -283.7963836651877045 Eh
Relativity type    :
Basis              : AO
                                X                 Y                 Z
Electronic contribution:      6.206200525       1.441577045      -0.177298091
Nuclear contribution   :     -7.395796490      -1.997737509      -0.132560297
                        -----------------------------------------
Total Dipole Moment    :     -1.189595965      -0.556160465      -0.309858388
                        -----------------------------------------
Magnitude (a.u.)       :      1.349246176
Magnitude (Debye)      :      3.429511231

Rotational constants in cm-1:             0.325757             0.143024             0.114457
Rotational constants in MHz :          9765.936835          4287.738403          3431.348249

                             ****ORCA TERMINATED NORMALLY****
TOTAL RUN TIME: 0 days 0 hours 0 minutes 5 seconds 593 msec
