                         Program Version 6.0.0  -   RELEASE  -
|  1> ! pbe def2-sv(p) def2/J RI DEFGRID1 loosescf d4 GCP(DFT/SV(P)) printgap
|  2> %output
|  3>     printlevel normal
|  4> end
|  5> * xyz 0 1
|  6> C 1.2589427028 -0.4820839585 -3.4667863898
|  7> C 1.8686988591 -0.985422802 -2.1761800277
|  8> O 1.8920594502 0.1205236113 -1.2379754016
|  9> P 2.1868526057 -0.0903227313 0.2966222659
| 10> S 2.4415329484 1.5645411915 1.3034990293
| 11> O 3.4701546894 -1.0339312349 0.2218434546
| 12> C 4.381102381 -1.2017878853 1.3232790789
| 13> C 3.7395634209 -1.8905991329 2.5102133939
| 14> S 0.6854837008 -1.4194736362 1.0163712178
| 15> C -0.3153290133 -0.275668635 2.0213788156
| 16> S -2.0589736931 -0.2899402591 1.5654155459
| 17> P -1.8443931718 0.5532915244 -0.3789265826
| 18> S -0.6211467663 2.0761279795 -0.5335187929
| 19> O -3.3514716741 0.7485490441 -0.8387114109
| 20> C -4.37860714 1.3910364019 -0.0604083084
| 21> C -3.9926829284 2.7862135268 0.3828246664
| 22> O -1.3629150746 -0.610758524 -1.3274476972
| 23> C -2.0803966604 -1.8639807628 -1.4752200806
| 24> C -2.8592502223 -1.8740343758 -2.7739483574
| 25> H 1.8547320956 0.333826309 -3.8661175409
| 26> H 1.2244174303 -1.2937540894 -4.1862824276
| 27> H 0.2529963805 -0.1146689879 -3.2798606689
| 28> H 2.8961490737 -1.3265340181 -2.3177512048
| 29> H 1.2757754016 -1.7943256591 -1.7384862354
| 30> H 5.1890812063 -1.7991178106 0.8983816702
| 31> H 4.7567209761 -0.2148813752 1.6100012206
| 32> H 2.9954415936 -1.2354322449 2.9605641475
| 33> H 3.2582222692 -2.8144697452 2.1996931488
| 34> H 4.5039259089 -2.1110084196 3.2483607789
| 35> H 0.09429122 0.7323985318 1.9081460205
| 36> H -0.2726111558 -0.6033989419 3.0569694089
| 37> H -5.2369350082 1.4108999283 -0.7342512404
| 38> H -4.5969004056 0.7576460971 0.8037719568
| 39> H -3.1387317683 2.7440747868 1.0578715162
| 40> H -3.7175595698 3.3953391045 -0.4751313469
| 41> H -4.8290980563 3.2465813967 0.8986706106
| 42> H -1.3061667309 -2.633758783 -1.4641014289
| 43> H -2.7406815298 -1.999891013 -0.614445875
| 44> H -2.188342654 -1.7270594756 -3.6157300579
| 45> H -3.3612110912 -2.830698772 -2.8782700482
| 46> H -3.5986400704 -1.0774460054 -2.7731220963
| 47> *
| 48>
| 49>                          ****END OF INPUT****

CARTESIAN COORDINATES (ANGSTROEM)
---------------------------------
  C      1.258943   -0.482084   -3.466786
  C      1.868699   -0.985423   -2.176180
  O      1.892059    0.120524   -1.237975
  P      2.186853   -0.090323    0.296622
  S      2.441533    1.564541    1.303499
  O      3.470155   -1.033931    0.221843
  C      4.381102   -1.201788    1.323279
  C      3.739563   -1.890599    2.510213
  S      0.685484   -1.419474    1.016371
  C     -0.315329   -0.275669    2.021379
  S     -2.058974   -0.289940    1.565416
  P     -1.844393    0.553292   -0.378927
  S     -0.621147    2.076128   -0.533519
  O     -3.351472    0.748549   -0.838711
  C     -4.378607    1.391036   -0.060408
  C     -3.992683    2.786214    0.382825
  O     -1.362915   -0.610759   -1.327448
  C     -2.080397   -1.863981   -1.475220
  C     -2.859250   -1.874034   -2.773948
  H      1.854732    0.333826   -3.866118
  H      1.224417   -1.293754   -4.186282
  H      0.252996   -0.114669   -3.279861
  H      2.896149   -1.326534   -2.317751
  H      1.275775   -1.794326   -1.738486
  H      5.189081   -1.799118    0.898382
  H      4.756721   -0.214881    1.610001
  H      2.995442   -1.235432    2.960564
  H      3.258222   -2.814470    2.199693
  H      4.503926   -2.111008    3.248361
  H      0.094291    0.732399    1.908146
  H     -0.272611   -0.603399    3.056969
  H     -5.236935    1.410900   -0.734251
  H     -4.596900    0.757646    0.803772
  H     -3.138732    2.744075    1.057872
  H     -3.717560    3.395339   -0.475131
  H     -4.829098    3.246581    0.898671
  H     -1.306167   -2.633759   -1.464101
  H     -2.740682   -1.999891   -0.614446
  H     -2.188343   -1.727059   -3.615730
  H     -3.361211   -2.830699   -2.878270
  H     -3.598640   -1.077446   -2.773122

 Total Charge           Charge          ....    0
 Multiplicity           Mult            ....    1
 Number of Electrons    NEL             ....  202
 Basis Dimension        Dim             ....  334

ORBITAL ENERGIES
----------------

  NO   OCC          E(Eh)            E(eV)
   0   2.0000     -88.045436     -2395.8381
   1   2.0000     -88.038516     -2395.6498
   2   2.0000     -87.980208     -2394.0632
   3   2.0000     -87.976853     -2393.9719
   4   2.0000     -76.423875     -2079.5994
   5   2.0000     -76.419666     -2079.4848
   6   2.0000     -18.795810      -511.4600
   7   2.0000     -18.790935      -511.3273
   8   2.0000     -18.786616      -511.2098
   9   2.0000     -18.780803      -511.0516
  10   2.0000      -9.960996      -271.0525
  11   2.0000      -9.956277      -270.9241
  12   2.0000      -9.953887      -270.8590
  13   2.0000      -9.948863      -270.7223
  14   2.0000      -9.947580      -270.6874
  15   2.0000      -9.889155      -269.0976
  16   2.0000      -9.883026      -268.9308
  17   2.0000      -9.881017      -268.8761
  18   2.0000      -9.876913      -268.7645
  19   2.0000      -7.690474      -209.2684
  20   2.0000      -7.683224      -209.0712
  21   2.0000      -7.625390      -207.4974
  22   2.0000      -7.621784      -207.3993
  23   2.0000      -6.421079      -174.7264
  24   2.0000      -6.417084      -174.6177
  25   2.0000      -5.718206      -155.6003
  26   2.0000      -5.714777      -155.5070
  27   2.0000      -5.711091      -155.4067
  28   2.0000      -5.707831      -155.3180
  29   2.0000      -5.707741      -155.3155
  30   2.0000      -5.700209      -155.1106
  31   2.0000      -5.654473      -153.8660
  32   2.0000      -5.650973      -153.7708
  33   2.0000      -5.645874      -153.6320
  34   2.0000      -5.645484      -153.6214
  35   2.0000      -5.642278      -153.5342
  36   2.0000      -5.641833      -153.5221
  37   2.0000      -4.643968      -126.3688
  38   2.0000      -4.643191      -126.3476
  39   2.0000      -4.640914      -126.2857
  40   2.0000      -4.639857      -126.2569
  41   2.0000      -4.638670      -126.2246
  42   2.0000      -4.637567      -126.1946
  43   2.0000      -0.989931       -26.9374
  44   2.0000      -0.980743       -26.6874
  45   2.0000      -0.946296       -25.7500
  46   2.0000      -0.935414       -25.4539
  47   2.0000      -0.761415       -20.7192
  48   2.0000      -0.718588       -19.5538
  49   2.0000      -0.709039       -19.2939
  50   2.0000      -0.692693       -18.8491
  51   2.0000      -0.683679       -18.6038
  52   2.0000      -0.675522       -18.3819
  53   2.0000      -0.647939       -17.6313
  54   2.0000      -0.631622       -17.1873
  55   2.0000      -0.591557       -16.0971
  56   2.0000      -0.586283       -15.9536
  57   2.0000      -0.575919       -15.6716
  58   2.0000      -0.564610       -15.3638
  59   2.0000      -0.563163       -15.3244
  60   2.0000      -0.505814       -13.7639
  61   2.0000      -0.497591       -13.5401
  62   2.0000      -0.476192       -12.9578
  63   2.0000      -0.467815       -12.7299
  64   2.0000      -0.453681       -12.3453
  65   2.0000      -0.448094       -12.1933
  66   2.0000      -0.441183       -12.0052
  67   2.0000      -0.433916       -11.8074
  68   2.0000      -0.430304       -11.7092
  69   2.0000      -0.418772       -11.3954
  70   2.0000      -0.411214       -11.1897
  71   2.0000      -0.399316       -10.8660
  72   2.0000      -0.387580       -10.5466
  73   2.0000      -0.384813       -10.4713
  74   2.0000      -0.384389       -10.4597
  75   2.0000      -0.361309        -9.8317
  76   2.0000      -0.359074        -9.7709
  77   2.0000      -0.356275        -9.6947
  78   2.0000      -0.350270        -9.5313
  79   2.0000      -0.347613        -9.4590
  80   2.0000      -0.346901        -9.4396
  81   2.0000      -0.344697        -9.3797
  82   2.0000      -0.339952        -9.2506
  83   2.0000      -0.335222        -9.1219
  84   2.0000      -0.329517        -8.9666
  85   2.0000      -0.319866        -8.7040
  86   2.0000      -0.308026        -8.3818
  87   2.0000      -0.298123        -8.1123
  88   2.0000      -0.294911        -8.0249
  89   2.0000      -0.290870        -7.9150
  90   2.0000      -0.290395        -7.9020
  91   2.0000      -0.279693        -7.6108
  92   2.0000      -0.263787        -7.1780
  93   2.0000      -0.259819        -7.0700
  94   2.0000      -0.254669        -6.9299
  95   2.0000      -0.235942        -6.4203
  96   2.0000      -0.217856        -5.9282
  97   2.0000      -0.211134        -5.7453
  98   2.0000      -0.197903        -5.3852
  99   2.0000      -0.188389        -5.1263
 100   2.0000      -0.181470        -4.9381
 101   0.0000      -0.039824        -1.0837
 102   0.0000      -0.030271        -0.8237
 103   0.0000      -0.011873        -0.3231
 104   0.0000       0.011116         0.3025
 105   0.0000       0.020214         0.5501

MULLIKEN ATOMIC CHARGES
-----------------------
   0 C :   -0.291661
   1 C :   -0.015092
   2 O :   -0.347292
   3 P :    0.614490
   4 S :   -0.289635
   5 O :   -0.391366
   6 C :    0.002629
   7 C :   -0.311098
   8 S :   -0.124999
   9 C :   -0.342481
  10 S :   -0.120704
  11 P :    0.577297
  12 S :   -0.268884
  13 O :   -0.379813
  14 C :   -0.014479
  15 C :   -0.308513
  16 O :   -0.348050
  17 C :   -0.012792
  18 C :   -0.286984
  19 H :    0.118680
  20 H :    0.099539
  21 H :    0.140761
  22 H :    0.105247
  23 H :    0.098880
  24 H :    0.101336
  25 H :    0.111098
  26 H :    0.119544
  27 H :    0.115779
  28 H :    0.110842
  29 H :    0.208387
  30 H :    0.180244
  31 H :    0.109076
  32 H :    0.113793
  33 H :    0.129572
  34 H :    0.127977
  35 H :    0.111067
  36 H :    0.109937
  37 H :    0.098162
  38 H :    0.119722
  39 H :    0.109083
  40 H :    0.120700
Sum of atomic charges:    0.0000000

LOEWDIN ATOMIC CHARGES
----------------------
   0 C :   -0.355548
   1 C :   -0.112931
   2 O :   -0.228510
   3 P :    0.574971
   4 S :   -0.292433
   5 O :   -0.253122
   6 C :   -0.116714
   7 C :   -0.371057
   8 S :    0.062245
   9 C :   -0.479094
  10 S :    0.059899
  11 P :    0.556417
  12 S :   -0.279574
  13 O :   -0.246944
  14 C :   -0.115370
  15 C :   -0.369259
  16 O :   -0.229776
  17 C :   -0.118432
  18 C :   -0.357445
  19 H :    0.129648
  20 H :    0.124680
  21 H :    0.130054
  22 H :    0.111787
  23 H :    0.101017
  24 H :    0.116953
  25 H :    0.111816
  26 H :    0.119118
  27 H :    0.122177
  28 H :    0.129541
  29 H :    0.125987
  30 H :    0.135460
  31 H :    0.120950
  32 H :    0.107611
  33 H :    0.122998
  34 H :    0.131417
  35 H :    0.130022
  36 H :    0.114819
  37 H :    0.102988
  38 H :    0.127216
  39 H :    0.129103
  40 H :    0.127311

  Mayer bond orders larger than 0.100000
B(  0-C ,  1-C ) :   1.1654 B(  0-C , 19-H ) :   0.9475 B(  0-C , 20-H ) :   0.9401
B(  0-C , 21-H ) :   0.9341 B(  1-C ,  2-O ) :   0.8966 B(  1-C , 22-H ) :   0.9283
B(  1-C , 23-H ) :   0.9122 B(  2-O ,  3-P ) :   1.1419 B(  3-P ,  4-S ) :   1.6330
B(  3-P ,  5-O ) :   1.0698 B(  3-P ,  8-S ) :   0.9420 B(  4-S ,  8-S ) :   0.1141
B(  5-O ,  6-C ) :   0.9139 B(  6-C ,  7-C ) :   1.1671 B(  6-C , 24-H ) :   0.9346
B(  6-C , 25-H ) :   0.9178 B(  7-C , 26-H ) :   0.9366 B(  7-C , 27-H ) :   0.9427
B(  7-C , 28-H ) :   0.9372 B(  8-S ,  9-C ) :   0.9972 B(  9-C , 10-S ) :   1.0020
B(  9-C , 29-H ) :   0.8440 B(  9-C , 30-H ) :   0.9108 B( 10-S , 11-P ) :   0.9317
B( 10-S , 12-S ) :   0.1087 B( 11-P , 12-S ) :   1.6872 B( 11-P , 13-O ) :   1.0739
B( 11-P , 16-O ) :   1.1142 B( 13-O , 14-C ) :   0.9133 B( 14-C , 15-C ) :   1.1669
B( 14-C , 31-H ) :   0.9332 B( 14-C , 32-H ) :   0.9261 B( 15-C , 33-H ) :   0.9311
B( 15-C , 34-H ) :   0.9429 B( 15-C , 35-H ) :   0.9345 B( 16-O , 17-C ) :   0.8873
B( 17-C , 18-C ) :   1.1642 B( 17-C , 36-H ) :   0.9279 B( 17-C , 37-H ) :   0.9118
B( 18-C , 38-H ) :   0.9475 B( 18-C , 39-H ) :   0.9406 B( 18-C , 40-H ) :   0.9430

Dispersion correction           -0.068041345
FINAL SINGLE POINT ENERGY     -2929.514762052234

DIPOLE MOMENT
-------------

Method             : SCF
Type of density    : Electron Density
Multiplicity       :   1
Irrep              :   0
Energy             : -2929.6333926917009194 Eh
Relativity type    :
Basis              : AO
                                X                 Y                 Z
Electronic contribution:      5.599082697       8.986171088       8.656260865
Nuclear contribution   :     -6.581126601     -10.759365899      -8.796663571
                        -----------------------------------------
Total Dipole Moment    :     -0.982043904      -1.773194812      -0.140402706
                        -----------------------------------------
Magnitude (a.u.)       :      2.031832421
Magnitude (Debye)      :      5.164507585

Rotational constants in cm-1:             0.012299             0.005561             0.005064
Rotational constants in MHz :           368.704471           166.704083           151.813596

                             ****ORCA TERMINATED NORMALLY****
TOTAL RUN TIME: 0 days 0 hours 0 minutes 21 seconds 452 msec
