                         Program Version 6.0.0  -   RELEASE  -
|  1> ! pbe def2-sv(p) def2/J RI DEFGRID1 loosescf d4 GCP(DFT/SV(P)) printgap
|  2> %output
|  3>     printlevel normal
|  4> end
|  5> * xyz 0 1
|  6> C 4.5552091182 1.4167531921 -1.1600227277
|  7> C 4.7541693229 0.0570771247 -0.5228823828
|  8> O 3.5352531827 -0.7071452507 -0.4606792965
|  9> P 2.3024924299 -0.2723452672 0.4430804532
| 10> S 2.7480260091 0.4737225103 2.1917467446
| 11> O 1.4700400218 -1.6075500022 0.5592222871
| 12> C 1.2050684075 -2.4828373648 -0.5643008682
| 13> C 2.2042201202 -3.6192301522 -0.6064141239
| 14> S 1.1619719255 0.9948676756 -0.8484754927
| 15> C 0.2632378042 1.8619152853 0.4595548638
| 16> S -0.8856731586 0.8057710393 1.3878123445
| 17> P -2.2582677264 0.3355469032 -0.1587720074
| 18> S -1.8024773241 -0.9907195886 -1.5333008613
| 19> O -2.5459483364 1.8003619777 -0.6833287212
| 20> C -3.1161393603 2.0435233849 -1.9880962861
| 21> C -4.5647362861 1.6093372495 -2.0550913332
| 22> O -3.5842234335 -0.0197067158 0.6448998381
| 23> C -3.8914426225 -1.362514846 1.0504930414
| 24> C -2.9744812403 -1.8364183836 2.1600982623
| 25> H 5.5223824517 1.8870267013 -1.305608971
| 26> H 4.0535096119 1.3168642195 -2.1194174909
| 27> H 3.951047461 2.0482772721 -0.5106183035
| 28> H 5.1441143699 0.162461088 0.4940082526
| 29> H 5.4222617116 -0.5699183137 -1.1150663594
| 30> H 0.1903892712 -2.8505553772 -0.3982490449
| 31> H 1.2219796267 -1.8976781836 -1.4878872947
| 32> H 2.1996962657 -4.1509538993 0.3411647334
| 33> H 1.9259299934 -4.3013000635 -1.4036187237
| 34> H 3.2042704219 -3.237060129 -0.7918877648
| 35> H -0.2811348036 2.6767694406 -0.0097074443
| 36> H 0.9747009989 2.2300130795 1.1999447653
| 37> H -3.0087711371 3.1204172734 -2.1238420732
| 38> H -2.5164254703 1.5108691375 -2.7331512817
| 39> H -4.9848162534 1.9039444964 -3.011639554
| 40> H -4.6312784131 0.526591937 -1.9574741073
| 41> H -5.1325469348 2.0699692265 -1.2510281298
| 42> H -4.9296804859 -1.3105212956 1.3804363751
| 43> H -3.808803098 -2.0169732196 0.1758774642
| 44> H -1.9463111426 -1.8849718915 1.7992277192
| 45> H -3.0098505189 -1.1479846387 3.0007729541
| 46> H -3.2801815999 -2.8246987906 2.4881732727
| 47> *
| 48>
| 49>                          ****END OF INPUT****

CARTESIAN COORDINATES (ANGSTROEM)
---------------------------------
  C      4.555209    1.416753   -1.160023
  C      4.754169    0.057077   -0.522882
  O      3.535253   -0.707145   -0.460679
  P      2.302492   -0.272345    0.443080
  S      2.748026    0.473723    2.191747
  O      1.470040   -1.607550    0.559222
  C      1.205068   -2.482837   -0.564301
  C      2.204220   -3.619230   -0.606414
  S      1.161972    0.994868   -0.848475
  C      0.263238    1.861915    0.459555
  S     -0.885673    0.805771    1.387812
  P     -2.258268    0.335547   -0.158772
  S     -1.802477   -0.990720   -1.533301
  O     -2.545948    1.800362   -0.683329
  C     -3.116139    2.043523   -1.988096
  C     -4.564736    1.609337   -2.055091
  O     -3.584223   -0.019707    0.644900
  C     -3.891443   -1.362515    1.050493
  C     -2.974481   -1.836418    2.160098
  H      5.522382    1.887027   -1.305609
  H      4.053510    1.316864   -2.119417
  H      3.951047    2.048277   -0.510618
  H      5.144114    0.162461    0.494008
  H      5.422262   -0.569918   -1.115066
  H      0.190389   -2.850555   -0.398249
  H      1.221980   -1.897678   -1.487887
  H      2.199696   -4.150954    0.341165
  H      1.925930   -4.301300   -1.403619
  H      3.204270   -3.237060   -0.791888
  H     -0.281135    2.676769   -0.009707
  H      0.974701    2.230013    1.199945
  H     -3.008771    3.120417   -2.123842
  H     -2.516425    1.510869   -2.733151
  H     -4.984816    1.903944   -3.011640
  H     -4.631278    0.526592   -1.957474
  H     -5.132547    2.069969   -1.251028
  H     -4.929680   -1.310521    1.380436
  H     -3.808803   -2.016973    0.175877
  H     -1.946311   -1.884972    1.799228
  H     -3.009851   -1.147985    3.000773
  H     -3.280182   -2.824699    2.488173

 Total Charge           Charge          ....    0
 Multiplicity           Mult            ....    1
 Number of Electrons    NEL             ....  202
 Basis Dimension        Dim             ....  334

ORBITAL ENERGIES
----------------

  NO   OCC          E(Eh)            E(eV)
   0   2.0000     -88.038342     -2395.6451
   1   2.0000     -88.037462     -2395.6211
   2   2.0000     -87.987758     -2394.2686
   3   2.0000     -87.984770     -2394.1873
   4   2.0000     -76.426854     -2079.6804
   5   2.0000     -76.423937     -2079.6010
   6   2.0000     -18.796124      -511.4685
   7   2.0000     -18.794703      -511.4299
   8   2.0000     -18.792950      -511.3822
   9   2.0000     -18.784875      -511.1624
  10   2.0000      -9.955122      -270.8926
  11   2.0000      -9.953992      -270.8619
  12   2.0000      -9.953110      -270.8379
  13   2.0000      -9.952645      -270.8252
  14   2.0000      -9.944052      -270.5914
  15   2.0000      -9.886169      -269.0163
  16   2.0000      -9.885129      -268.9880
  17   2.0000      -9.884002      -268.9574
  18   2.0000      -9.878658      -268.8120
  19   2.0000      -7.683420      -209.0765
  20   2.0000      -7.682387      -209.0484
  21   2.0000      -7.632578      -207.6930
  22   2.0000      -7.630074      -207.6249
  23   2.0000      -6.424589      -174.8219
  24   2.0000      -6.421417      -174.7356
  25   2.0000      -5.711473      -155.4171
  26   2.0000      -5.710177      -155.3818
  27   2.0000      -5.708023      -155.3232
  28   2.0000      -5.707028      -155.2961
  29   2.0000      -5.700122      -155.1082
  30   2.0000      -5.699308      -155.0861
  31   2.0000      -5.661297      -154.0517
  32   2.0000      -5.659006      -153.9894
  33   2.0000      -5.653248      -153.8327
  34   2.0000      -5.652897      -153.8231
  35   2.0000      -5.650584      -153.7602
  36   2.0000      -5.650285      -153.7521
  37   2.0000      -4.647250      -126.4581
  38   2.0000      -4.646383      -126.4345
  39   2.0000      -4.644910      -126.3944
  40   2.0000      -4.644350      -126.3792
  41   2.0000      -4.643008      -126.3427
  42   2.0000      -4.641731      -126.3079
  43   2.0000      -0.989554       -26.9271
  44   2.0000      -0.985940       -26.8288
  45   2.0000      -0.949989       -25.8505
  46   2.0000      -0.941606       -25.6224
  47   2.0000      -0.760895       -20.7050
  48   2.0000      -0.719291       -19.5729
  49   2.0000      -0.706641       -19.2287
  50   2.0000      -0.689096       -18.7512
  51   2.0000      -0.687649       -18.7119
  52   2.0000      -0.671284       -18.2666
  53   2.0000      -0.651870       -17.7383
  54   2.0000      -0.637976       -17.3602
  55   2.0000      -0.601544       -16.3688
  56   2.0000      -0.591645       -16.0995
  57   2.0000      -0.574926       -15.6445
  58   2.0000      -0.568759       -15.4767
  59   2.0000      -0.559146       -15.2151
  60   2.0000      -0.499600       -13.5948
  61   2.0000      -0.492829       -13.4106
  62   2.0000      -0.476596       -12.9688
  63   2.0000      -0.471489       -12.8299
  64   2.0000      -0.458632       -12.4800
  65   2.0000      -0.446366       -12.1462
  66   2.0000      -0.440666       -11.9911
  67   2.0000      -0.435525       -11.8512
  68   2.0000      -0.421341       -11.4653
  69   2.0000      -0.415264       -11.2999
  70   2.0000      -0.412487       -11.2244
  71   2.0000      -0.396315       -10.7843
  72   2.0000      -0.390531       -10.6269
  73   2.0000      -0.388011       -10.5583
  74   2.0000      -0.377243       -10.2653
  75   2.0000      -0.374734       -10.1970
  76   2.0000      -0.366088        -9.9618
  77   2.0000      -0.358580        -9.7575
  78   2.0000      -0.355785        -9.6814
  79   2.0000      -0.350888        -9.5482
  80   2.0000      -0.349357        -9.5065
  81   2.0000      -0.346727        -9.4349
  82   2.0000      -0.340835        -9.2746
  83   2.0000      -0.338990        -9.2244
  84   2.0000      -0.331966        -9.0332
  85   2.0000      -0.319672        -8.6987
  86   2.0000      -0.308327        -8.3900
  87   2.0000      -0.297078        -8.0839
  88   2.0000      -0.294522        -8.0143
  89   2.0000      -0.289593        -7.8802
  90   2.0000      -0.286808        -7.8044
  91   2.0000      -0.276626        -7.5274
  92   2.0000      -0.267703        -7.2846
  93   2.0000      -0.262836        -7.1521
  94   2.0000      -0.257720        -7.0129
  95   2.0000      -0.237905        -6.4737
  96   2.0000      -0.216889        -5.9018
  97   2.0000      -0.207871        -5.6565
  98   2.0000      -0.205305        -5.5866
  99   2.0000      -0.199156        -5.4193
 100   2.0000      -0.192559        -5.2398
 101   0.0000      -0.044373        -1.2074
 102   0.0000      -0.021281        -0.5791
 103   0.0000      -0.012324        -0.3354
 104   0.0000       0.001974         0.0537
 105   0.0000       0.016105         0.4382

MULLIKEN ATOMIC CHARGES
-----------------------
   0 C :   -0.314535
   1 C :   -0.000550
   2 O :   -0.383419
   3 P :    0.610915
   4 S :   -0.318831
   5 O :   -0.351169
   6 C :   -0.022563
   7 C :   -0.281153
   8 S :   -0.092210
   9 C :   -0.359056
  10 S :   -0.068585
  11 P :    0.612062
  12 S :   -0.329078
  13 O :   -0.373828
  14 C :   -0.006435
  15 C :   -0.305088
  16 O :   -0.369134
  17 C :   -0.005614
  18 C :   -0.332458
  19 H :    0.112984
  20 H :    0.118194
  21 H :    0.125774
  22 H :    0.113733
  23 H :    0.104780
  24 H :    0.118565
  25 H :    0.107791
  26 H :    0.115460
  27 H :    0.107724
  28 H :    0.116319
  29 H :    0.187019
  30 H :    0.192803
  31 H :    0.104821
  32 H :    0.113563
  33 H :    0.113051
  34 H :    0.122770
  35 H :    0.119079
  36 H :    0.106246
  37 H :    0.108177
  38 H :    0.141662
  39 H :    0.124610
  40 H :    0.115601
Sum of atomic charges:    0.0000000

LOEWDIN ATOMIC CHARGES
----------------------
   0 C :   -0.370892
   1 C :   -0.115986
   2 O :   -0.246672
   3 P :    0.575941
   4 S :   -0.310758
   5 O :   -0.232852
   6 C :   -0.117816
   7 C :   -0.359660
   8 S :    0.073711
   9 C :   -0.482988
  10 S :    0.097407
  11 P :    0.570906
  12 S :   -0.313303
  13 O :   -0.241097
  14 C :   -0.118071
  15 C :   -0.364163
  16 O :   -0.242488
  17 C :   -0.122428
  18 C :   -0.370384
  19 H :    0.131016
  20 H :    0.123692
  21 H :    0.120697
  22 H :    0.113254
  23 H :    0.118318
  24 H :    0.114965
  25 H :    0.105725
  26 H :    0.126906
  27 H :    0.128737
  28 H :    0.123406
  29 H :    0.133006
  30 H :    0.129112
  31 H :    0.118131
  32 H :    0.111571
  33 H :    0.131045
  34 H :    0.123041
  35 H :    0.127751
  36 H :    0.119221
  37 H :    0.107523
  38 H :    0.124149
  39 H :    0.127769
  40 H :    0.132558

  Mayer bond orders larger than 0.100000
B(  0-C ,  1-C ) :   1.1672 B(  0-C , 19-H ) :   0.9366 B(  0-C , 20-H ) :   0.9434
B(  0-C , 21-H ) :   0.9349 B(  1-C ,  2-O ) :   0.9057 B(  1-C , 22-H ) :   0.9186
B(  1-C , 23-H ) :   0.9339 B(  2-O ,  3-P ) :   1.0796 B(  3-P ,  4-S ) :   1.6261
B(  3-P ,  5-O ) :   1.1489 B(  3-P ,  8-S ) :   0.9451 B(  4-S ,  8-S ) :   0.1106
B(  5-O ,  6-C ) :   0.8898 B(  6-C ,  7-C ) :   1.1566 B(  6-C , 24-H ) :   0.9247
B(  6-C , 25-H ) :   0.9183 B(  7-C , 26-H ) :   0.9464 B(  7-C , 27-H ) :   0.9410
B(  7-C , 28-H ) :   0.9424 B(  8-S ,  9-C ) :   1.0106 B(  9-C , 10-S ) :   1.0003
B(  9-C , 29-H ) :   0.8974 B(  9-C , 30-H ) :   0.8766 B( 10-S , 11-P ) :   0.9692
B( 10-S , 12-S ) :   0.1102 B( 11-P , 12-S ) :   1.6045 B( 11-P , 13-O ) :   1.1120
B( 11-P , 16-O ) :   1.1029 B( 13-O , 14-C ) :   0.9008 B( 14-C , 15-C ) :   1.1664
B( 14-C , 31-H ) :   0.9338 B( 14-C , 32-H ) :   0.9151 B( 15-C , 33-H ) :   0.9387
B( 15-C , 34-H ) :   0.9362 B( 15-C , 35-H ) :   0.9459 B( 16-O , 17-C ) :   0.9103
B( 17-C , 18-C ) :   1.1624 B( 17-C , 36-H ) :   0.9322 B( 17-C , 37-H ) :   0.9120
B( 18-C , 38-H ) :   0.9314 B( 18-C , 39-H ) :   0.9439 B( 18-C , 40-H ) :   0.9386

Dispersion correction           -0.065933625
FINAL SINGLE POINT ENERGY     -2929.521318328467

DIPOLE MOMENT
-------------

Method             : SCF
Type of density    : Electron Density
Multiplicity       :   1
Irrep              :   0
Energy             : -2929.6403415776267138 Eh
Relativity type    :
Basis              : AO
                                X                 Y                 Z
Electronic contribution:      3.157352040       6.497701880       8.058423923
Nuclear contribution   :     -3.581090343      -6.424264400      -9.049954252
                        -----------------------------------------
Total Dipole Moment    :     -0.423738304       0.073437480      -0.991530330
                        -----------------------------------------
Magnitude (a.u.)       :      1.080777317
Magnitude (Debye)      :      2.747117622

Rotational constants in cm-1:             0.012631             0.004942             0.004644
Rotational constants in MHz :           378.662308           148.165954           139.220890

                             ****ORCA TERMINATED NORMALLY****
TOTAL RUN TIME: 0 days 0 hours 0 minutes 21 seconds 341 msec
