                         Program Version 6.0.0  -   RELEASE  -
|  1> ! pbe def2-sv(p) def2/J RI DEFGRID1 loosescf d4 GCP(DFT/SV(P)) printgap
|  2> %output
|  3>     printlevel normal
|  4> end
|  5> * xyz 0 1
|  6> C 4.6500827189 1.0560028692 0.6406218674
|  7> C 3.5986013962 1.1394672021 -0.4468772831
|  8> O 2.7710197038 -0.0399676349 -0.4635179802
|  9> P 1.6609641273 -0.2977220345 0.6595072647
| 10> S 0.9599560409 1.2996405586 1.5339137149
| 11> O 2.2826239966 -1.2611180018 1.7539730218
| 12> C 3.0144468186 -2.4687900606 1.4270876673
| 13> C 4.0353418746 -2.7048397032 2.521381158
| 14> S 0.4400966347 -1.6432332817 -0.4513742176
| 15> C 0.2478987291 -0.6879830942 -1.9803341248
| 16> S -0.4086972986 0.9744490289 -1.7032320792
| 17> P -2.318395209 0.3628045875 -1.0127106863
| 18> S -3.1132525379 -1.159045785 -1.9435604169
| 19> O -3.187487507 1.6700792169 -1.1831775566
| 20> C -2.7480206425 3.030035322 -0.9534072824
| 21> C -2.3753158019 3.2852201049 0.4911829183
| 22> O -2.1671863614 0.158629234 0.5638173676
| 23> C -2.5299686684 -1.0441907997 1.2716944703
| 24> C -1.6742578994 -1.1545017599 2.5166258066
| 25> H 5.2676338462 0.1716149785 0.5051433383
| 26> H 5.2778098139 1.9406636152 0.6036419455
| 27> H 4.1649081291 1.0076396214 1.615374673
| 28> H 4.0429470277 1.1690484358 -1.4426531712
| 29> H 2.9571974867 2.0137351714 -0.298887322
| 30> H 2.2916887312 -3.2858670489 1.3712620397
| 31> H 3.4910963399 -2.3420485994 0.4518993523
| 32> H 4.5670701461 -3.628889003 2.3185813355
| 33> H 4.7446074309 -1.8826913444 2.5620621994
| 34> H 3.5355666538 -2.7806179921 3.4827383401
| 35> H -0.4476736095 -1.2551207822 -2.6007256343
| 36> H 1.2129424125 -0.5708140906 -2.4663557074
| 37> H -1.9039039555 3.2355640791 -1.617426515
| 38> H -3.6114165679 3.6236575894 -1.2585039189
| 39> H -2.1428959501 4.3380654282 0.6168850602
| 40> H -3.2006935484 3.0191798647 1.1462469793
| 41> H -1.5019033561 2.6991926885 0.7734542994
| 42> H -3.5883033314 -0.961774109 1.5312502792
| 43> H -2.3942322029 -1.905964469 0.6101017154
| 44> H -2.0022569282 -2.0108865478 3.0962317106
| 45> H -0.6253663125 -1.284262164 2.2534767599
| 46> H -1.766602796 -0.2515234586 3.1137030591
| 47> *
| 48>
| 49>                          ****END OF INPUT****

CARTESIAN COORDINATES (ANGSTROEM)
---------------------------------
  C      4.650083    1.056003    0.640622
  C      3.598601    1.139467   -0.446877
  O      2.771020   -0.039968   -0.463518
  P      1.660964   -0.297722    0.659507
  S      0.959956    1.299641    1.533914
  O      2.282624   -1.261118    1.753973
  C      3.014447   -2.468790    1.427088
  C      4.035342   -2.704840    2.521381
  S      0.440097   -1.643233   -0.451374
  C      0.247899   -0.687983   -1.980334
  S     -0.408697    0.974449   -1.703232
  P     -2.318395    0.362805   -1.012711
  S     -3.113253   -1.159046   -1.943560
  O     -3.187488    1.670079   -1.183178
  C     -2.748021    3.030035   -0.953407
  C     -2.375316    3.285220    0.491183
  O     -2.167186    0.158629    0.563817
  C     -2.529969   -1.044191    1.271694
  C     -1.674258   -1.154502    2.516626
  H      5.267634    0.171615    0.505143
  H      5.277810    1.940664    0.603642
  H      4.164908    1.007640    1.615375
  H      4.042947    1.169048   -1.442653
  H      2.957197    2.013735   -0.298887
  H      2.291689   -3.285867    1.371262
  H      3.491096   -2.342049    0.451899
  H      4.567070   -3.628889    2.318581
  H      4.744607   -1.882691    2.562062
  H      3.535567   -2.780618    3.482738
  H     -0.447674   -1.255121   -2.600726
  H      1.212942   -0.570814   -2.466356
  H     -1.903904    3.235564   -1.617427
  H     -3.611417    3.623658   -1.258504
  H     -2.142896    4.338065    0.616885
  H     -3.200694    3.019180    1.146247
  H     -1.501903    2.699193    0.773454
  H     -3.588303   -0.961774    1.531250
  H     -2.394232   -1.905964    0.610102
  H     -2.002257   -2.010887    3.096232
  H     -0.625366   -1.284262    2.253477
  H     -1.766603   -0.251523    3.113703

 Total Charge           Charge          ....    0
 Multiplicity           Mult            ....    1
 Number of Electrons    NEL             ....  202
 Basis Dimension        Dim             ....  334

ORBITAL ENERGIES
----------------

  NO   OCC          E(Eh)            E(eV)
   0   2.0000     -88.045559     -2395.8415
   1   2.0000     -88.039971     -2395.6894
   2   2.0000     -87.986716     -2394.2403
   3   2.0000     -87.977421     -2393.9873
   4   2.0000     -76.430026     -2079.7667
   5   2.0000     -76.420422     -2079.5054
   6   2.0000     -18.800616      -511.5908
   7   2.0000     -18.798981      -511.5463
   8   2.0000     -18.786743      -511.2133
   9   2.0000     -18.778145      -510.9793
  10   2.0000      -9.961949      -271.0784
  11   2.0000      -9.958157      -270.9752
  12   2.0000      -9.957596      -270.9600
  13   2.0000      -9.954422      -270.8736
  14   2.0000      -9.938342      -270.4360
  15   2.0000      -9.895719      -269.2762
  16   2.0000      -9.892096      -269.1776
  17   2.0000      -9.878812      -268.8162
  18   2.0000      -9.871443      -268.6156
  19   2.0000      -7.690207      -209.2612
  20   2.0000      -7.685045      -209.1207
  21   2.0000      -7.631724      -207.6698
  22   2.0000      -7.622792      -207.4267
  23   2.0000      -6.427115      -174.8907
  24   2.0000      -6.417782      -174.6367
  25   2.0000      -5.718207      -155.6003
  26   2.0000      -5.714688      -155.5046
  27   2.0000      -5.712878      -155.4553
  28   2.0000      -5.709624      -155.3668
  29   2.0000      -5.707147      -155.2994
  30   2.0000      -5.701953      -155.1580
  31   2.0000      -5.660792      -154.0380
  32   2.0000      -5.652202      -153.8042
  33   2.0000      -5.651827      -153.7940
  34   2.0000      -5.651818      -153.7938
  35   2.0000      -5.643600      -153.5702
  36   2.0000      -5.642569      -153.5421
  37   2.0000      -4.650324      -126.5417
  38   2.0000      -4.648625      -126.4955
  39   2.0000      -4.647314      -126.4598
  40   2.0000      -4.640485      -126.2740
  41   2.0000      -4.639376      -126.2438
  42   2.0000      -4.638348      -126.2159
  43   2.0000      -0.991482       -26.9796
  44   2.0000      -0.975819       -26.5534
  45   2.0000      -0.952280       -25.9129
  46   2.0000      -0.934581       -25.4313
  47   2.0000      -0.765880       -20.8407
  48   2.0000      -0.724575       -19.7167
  49   2.0000      -0.709110       -19.2959
  50   2.0000      -0.697910       -18.9911
  51   2.0000      -0.683210       -18.5911
  52   2.0000      -0.669192       -18.2096
  53   2.0000      -0.652296       -17.7499
  54   2.0000      -0.635411       -17.2904
  55   2.0000      -0.595446       -16.2029
  56   2.0000      -0.587691       -15.9919
  57   2.0000      -0.578234       -15.7345
  58   2.0000      -0.571257       -15.5447
  59   2.0000      -0.555445       -15.1144
  60   2.0000      -0.511035       -13.9060
  61   2.0000      -0.493206       -13.4208
  62   2.0000      -0.487536       -13.2665
  63   2.0000      -0.473145       -12.8749
  64   2.0000      -0.460829       -12.5398
  65   2.0000      -0.448541       -12.2054
  66   2.0000      -0.442612       -12.0441
  67   2.0000      -0.433854       -11.8058
  68   2.0000      -0.423431       -11.5221
  69   2.0000      -0.409347       -11.1389
  70   2.0000      -0.402965       -10.9652
  71   2.0000      -0.397413       -10.8142
  72   2.0000      -0.393114       -10.6972
  73   2.0000      -0.392651       -10.6846
  74   2.0000      -0.378076       -10.2880
  75   2.0000      -0.375632       -10.2215
  76   2.0000      -0.366175        -9.9641
  77   2.0000      -0.363373        -9.8879
  78   2.0000      -0.353505        -9.6194
  79   2.0000      -0.349582        -9.5126
  80   2.0000      -0.347157        -9.4466
  81   2.0000      -0.345949        -9.4138
  82   2.0000      -0.339292        -9.2326
  83   2.0000      -0.334068        -9.0905
  84   2.0000      -0.327691        -8.9169
  85   2.0000      -0.322821        -8.7844
  86   2.0000      -0.316208        -8.6045
  87   2.0000      -0.310824        -8.4580
  88   2.0000      -0.293508        -7.9868
  89   2.0000      -0.286580        -7.7982
  90   2.0000      -0.277798        -7.5593
  91   2.0000      -0.273901        -7.4532
  92   2.0000      -0.271956        -7.4003
  93   2.0000      -0.268834        -7.3154
  94   2.0000      -0.259701        -7.0668
  95   2.0000      -0.232511        -6.3269
  96   2.0000      -0.220534        -6.0010
  97   2.0000      -0.205210        -5.5840
  98   2.0000      -0.199703        -5.4342
  99   2.0000      -0.197121        -5.3639
 100   2.0000      -0.188083        -5.1180
 101   0.0000      -0.052343        -1.4243
 102   0.0000      -0.023341        -0.6352
 103   0.0000      -0.013840        -0.3766
 104   0.0000       0.004865         0.1324
 105   0.0000       0.015698         0.4272

MULLIKEN ATOMIC CHARGES
-----------------------
   0 C :   -0.320547
   1 C :   -0.008771
   2 O :   -0.387966
   3 P :    0.607539
   4 S :   -0.283935
   5 O :   -0.372857
   6 C :   -0.027231
   7 C :   -0.282113
   8 S :   -0.100967
   9 C :   -0.332356
  10 S :   -0.118451
  11 P :    0.627426
  12 S :   -0.326584
  13 O :   -0.363504
  14 C :   -0.023205
  15 C :   -0.323025
  16 O :   -0.376974
  17 C :   -0.001304
  18 C :   -0.286009
  19 H :    0.114836
  20 H :    0.116566
  21 H :    0.133737
  22 H :    0.103851
  23 H :    0.116102
  24 H :    0.114332
  25 H :    0.109156
  26 H :    0.113392
  27 H :    0.118919
  28 H :    0.124611
  29 H :    0.193797
  30 H :    0.183821
  31 H :    0.118485
  32 H :    0.112278
  33 H :    0.109115
  34 H :    0.116151
  35 H :    0.158641
  36 H :    0.098690
  37 H :    0.109430
  38 H :    0.100094
  39 H :    0.119401
  40 H :    0.115429
Sum of atomic charges:    0.0000000

LOEWDIN ATOMIC CHARGES
----------------------
   0 C :   -0.366263
   1 C :   -0.122480
   2 O :   -0.253831
   3 P :    0.565682
   4 S :   -0.283261
   5 O :   -0.243696
   6 C :   -0.121168
   7 C :   -0.350488
   8 S :    0.089812
   9 C :   -0.475763
  10 S :    0.074548
  11 P :    0.574784
  12 S :   -0.317263
  13 O :   -0.239698
  14 C :   -0.113767
  15 C :   -0.369665
  16 O :   -0.247999
  17 C :   -0.119505
  18 C :   -0.355481
  19 H :    0.122132
  20 H :    0.133156
  21 H :    0.126345
  22 H :    0.117052
  23 H :    0.111521
  24 H :    0.114983
  25 H :    0.109100
  26 H :    0.131468
  27 H :    0.126846
  28 H :    0.131625
  29 H :    0.131280
  30 H :    0.132384
  31 H :    0.107627
  32 H :    0.122962
  33 H :    0.129881
  34 H :    0.127471
  35 H :    0.125176
  36 H :    0.110667
  37 H :    0.101869
  38 H :    0.125391
  39 H :    0.110091
  40 H :    0.126472

  Mayer bond orders larger than 0.100000
B(  0-C ,  1-C ) :   1.1635 B(  0-C , 19-H ) :   0.9444 B(  0-C , 20-H ) :   0.9386
B(  0-C , 21-H ) :   0.9330 B(  1-C ,  2-O ) :   0.9022 B(  1-C , 22-H ) :   0.9330
B(  1-C , 23-H ) :   0.9107 B(  2-O ,  3-P ) :   1.0606 B(  3-P ,  4-S ) :   1.6483
B(  3-P ,  5-O ) :   1.0966 B(  3-P ,  8-S ) :   0.9546 B(  4-S ,  8-S ) :   0.1107
B(  5-O ,  6-C ) :   0.8942 B(  6-C ,  7-C ) :   1.1624 B(  6-C , 24-H ) :   0.9300
B(  6-C , 25-H ) :   0.9172 B(  7-C , 26-H ) :   0.9405 B(  7-C , 27-H ) :   0.9487
B(  7-C , 28-H ) :   0.9484 B(  8-S ,  9-C ) :   0.9933 B(  9-C , 10-S ) :   1.0257
B(  9-C , 29-H ) :   0.8759 B(  9-C , 30-H ) :   0.9017 B( 10-S , 11-P ) :   0.9368
B( 11-P , 12-S ) :   1.6311 B( 11-P , 13-O ) :   1.1459 B( 11-P , 16-O ) :   1.0999
B( 13-O , 14-C ) :   0.9058 B( 14-C , 15-C ) :   1.1659 B( 14-C , 31-H ) :   0.9182
B( 14-C , 32-H ) :   0.9346 B( 15-C , 33-H ) :   0.9356 B( 15-C , 34-H ) :   0.9447
B( 15-C , 35-H ) :   0.9248 B( 16-O , 17-C ) :   0.8956 B( 17-C , 18-C ) :   1.1607
B( 17-C , 36-H ) :   0.9349 B( 17-C , 37-H ) :   0.9044 B( 18-C , 38-H ) :   0.9387
B( 18-C , 39-H ) :   0.9384 B( 18-C , 40-H ) :   0.9456

Dispersion correction           -0.067823507
FINAL SINGLE POINT ENERGY     -2929.516096363980

DIPOLE MOMENT
-------------

Method             : SCF
Type of density    : Electron Density
Multiplicity       :   1
Irrep              :   0
Energy             : -2929.6342372773983698 Eh
Relativity type    :
Basis              : AO
                                X                 Y                 Z
Electronic contribution:    -15.997178424      -0.880332774     -15.416302864
Nuclear contribution   :     17.876928300       0.957445967      15.755283855
                        -----------------------------------------
Total Dipole Moment    :      1.879749876       0.077113194       0.338980991
                        -----------------------------------------
Magnitude (a.u.)       :      1.911626050
Magnitude (Debye)      :      4.858967270

Rotational constants in cm-1:             0.012540             0.005399             0.005009
Rotational constants in MHz :           375.941080           161.864481           150.157995

                             ****ORCA TERMINATED NORMALLY****
TOTAL RUN TIME: 0 days 0 hours 0 minutes 19 seconds 43 msec
