                         Program Version 6.0.0  -   RELEASE  -
|  1> ! pbe def2-sv(p) def2/J RI DEFGRID1 loosescf d4 GCP(DFT/SV(P)) printgap
|  2> %output
|  3>     printlevel normal
|  4> end
|  5> * xyz 0 1
|  6> C 4.8103742466 1.6062623139 0.6859069364
|  7> C 4.3466456071 1.0614670353 -0.6483348014
|  8> O 3.618251057 -0.1754905827 -0.525356183
|  9> P 2.3522457741 -0.4034510926 0.4055300245
| 10> S 2.6285890158 -0.65929386 2.3233644413
| 11> O 1.7226905192 -1.7127935462 -0.2072114247
| 12> C 1.574260008 -1.9632630012 -1.6242612017
| 13> C 2.7126985726 -2.8224670776 -2.1320029323
| 14> S 1.0870280383 1.2364833142 -0.1224657003
| 15> C 0.0435094454 1.1757250538 1.3492228191
| 16> S -1.0716225481 -0.2580678623 1.402015759
| 17> P -2.1990575474 0.110859349 -0.3552634744
| 18> S -1.491889287 -0.3528313515 -2.1144197907
| 19> O -2.5072066114 1.6633944589 -0.122387248
| 20> C -2.792701992 2.548521558 -1.2237228717
| 21> C -4.1833551915 2.3090315634 -1.7744354693
| 22> O -3.5430983796 -0.691391553 -0.1081202109
| 23> C -4.3658348769 -0.5319341532 1.0735619873
| 24> C -4.2171545994 -1.7335447831 1.9848078053
| 25> H 3.9534913065 1.8841130366 1.2977936665
| 26> H 5.3849728908 0.8554525628 1.2230930459
| 27> H 5.427992789 2.4832227792 0.5210593241
| 28> H 5.191599251 0.7979261421 -1.2869689471
| 29> H 3.7059707383 1.7843842093 -1.1611648405
| 30> H 0.6134799193 -2.47372033 -1.7188019556
| 31> H 1.5201591961 -1.010413965 -2.1578831609
| 32> H 3.6583428356 -2.2984363544 -2.0206974262
| 33> H 2.7564858918 -3.7496235205 -1.5671119901
| 34> H 2.5444040072 -3.046547608 -3.1805758713
| 35> H -0.5375812401 2.0933321454 1.3684444073
| 36> H 0.675931681 1.0799390712 2.2338902283
| 37> H -2.6892725614 3.5473370758 -0.7977658806
| 38> H -2.0372188054 2.3933359468 -2.0001540474
| 39> H -4.25066276 1.2964200323 -2.171648177
| 40> H -4.9283709087 2.4334360947 -0.9928335501
| 41> H -4.3800822408 3.0149975191 -2.5749893923
| 42> H -4.0850036992 0.3922053209 1.5845642226
| 43> H -5.385455115 -0.4500842575 0.6930195591
| 44> H -3.1952714298 -1.8091200098 2.351544069
| 45> H -4.8905979583 -1.6264272917 2.8292102796
| 46> H -4.461020069 -2.6432007315 1.4430804722
| 47> *
| 48>
| 49>                          ****END OF INPUT****

CARTESIAN COORDINATES (ANGSTROEM)
---------------------------------
  C      4.810374    1.606262    0.685907
  C      4.346646    1.061467   -0.648335
  O      3.618251   -0.175491   -0.525356
  P      2.352246   -0.403451    0.405530
  S      2.628589   -0.659294    2.323364
  O      1.722691   -1.712794   -0.207211
  C      1.574260   -1.963263   -1.624261
  C      2.712699   -2.822467   -2.132003
  S      1.087028    1.236483   -0.122466
  C      0.043509    1.175725    1.349223
  S     -1.071623   -0.258068    1.402016
  P     -2.199058    0.110859   -0.355263
  S     -1.491889   -0.352831   -2.114420
  O     -2.507207    1.663394   -0.122387
  C     -2.792702    2.548522   -1.223723
  C     -4.183355    2.309032   -1.774435
  O     -3.543098   -0.691392   -0.108120
  C     -4.365835   -0.531934    1.073562
  C     -4.217155   -1.733545    1.984808
  H      3.953491    1.884113    1.297794
  H      5.384973    0.855453    1.223093
  H      5.427993    2.483223    0.521059
  H      5.191599    0.797926   -1.286969
  H      3.705971    1.784384   -1.161165
  H      0.613480   -2.473720   -1.718802
  H      1.520159   -1.010414   -2.157883
  H      3.658343   -2.298436   -2.020697
  H      2.756486   -3.749624   -1.567112
  H      2.544404   -3.046548   -3.180576
  H     -0.537581    2.093332    1.368444
  H      0.675932    1.079939    2.233890
  H     -2.689273    3.547337   -0.797766
  H     -2.037219    2.393336   -2.000154
  H     -4.250663    1.296420   -2.171648
  H     -4.928371    2.433436   -0.992834
  H     -4.380082    3.014998   -2.574989
  H     -4.085004    0.392205    1.584564
  H     -5.385455   -0.450084    0.693020
  H     -3.195271   -1.809120    2.351544
  H     -4.890598   -1.626427    2.829210
  H     -4.461020   -2.643201    1.443080

 Total Charge           Charge          ....    0
 Multiplicity           Mult            ....    1
 Number of Electrons    NEL             ....  202
 Basis Dimension        Dim             ....  334

ORBITAL ENERGIES
----------------

  NO   OCC          E(Eh)            E(eV)
   0   2.0000     -88.041504     -2395.7311
   1   2.0000     -88.041467     -2395.7301
   2   2.0000     -87.983161     -2394.1435
   3   2.0000     -87.979907     -2394.0550
   4   2.0000     -76.426097     -2079.6598
   5   2.0000     -76.423262     -2079.5827
   6   2.0000     -18.797472      -511.5052
   7   2.0000     -18.795045      -511.4392
   8   2.0000     -18.794585      -511.4267
   9   2.0000     -18.781162      -511.0614
  10   2.0000      -9.958955      -270.9970
  11   2.0000      -9.958612      -270.9876
  12   2.0000      -9.955229      -270.8955
  13   2.0000      -9.954975      -270.8886
  14   2.0000      -9.940220      -270.4871
  15   2.0000      -9.888612      -269.0828
  16   2.0000      -9.888444      -269.0783
  17   2.0000      -9.883209      -268.9358
  18   2.0000      -9.875871      -268.7361
  19   2.0000      -7.686487      -209.1599
  20   2.0000      -7.686307      -209.1551
  21   2.0000      -7.628438      -207.5804
  22   2.0000      -7.625288      -207.4946
  23   2.0000      -6.423848      -174.8018
  24   2.0000      -6.420425      -174.7086
  25   2.0000      -5.714485      -155.4990
  26   2.0000      -5.713988      -155.4855
  27   2.0000      -5.710938      -155.4025
  28   2.0000      -5.710798      -155.3987
  29   2.0000      -5.703535      -155.2011
  30   2.0000      -5.703385      -155.1970
  31   2.0000      -5.657470      -153.9476
  32   2.0000      -5.654368      -153.8632
  33   2.0000      -5.648813      -153.7120
  34   2.0000      -5.648630      -153.7070
  35   2.0000      -5.645837      -153.6310
  36   2.0000      -5.645294      -153.6163
  37   2.0000      -4.646968      -126.4504
  38   2.0000      -4.645411      -126.4081
  39   2.0000      -4.644013      -126.3700
  40   2.0000      -4.643323      -126.3512
  41   2.0000      -4.642355      -126.3249
  42   2.0000      -4.640500      -126.2744
  43   2.0000      -0.987944       -26.8833
  44   2.0000      -0.985180       -26.8081
  45   2.0000      -0.948755       -25.8169
  46   2.0000      -0.939510       -25.5654
  47   2.0000      -0.763119       -20.7655
  48   2.0000      -0.720914       -19.6171
  49   2.0000      -0.708799       -19.2874
  50   2.0000      -0.694781       -18.9059
  51   2.0000      -0.687223       -18.7003
  52   2.0000      -0.671859       -18.2822
  53   2.0000      -0.650059       -17.6890
  54   2.0000      -0.637674       -17.3520
  55   2.0000      -0.593121       -16.1396
  56   2.0000      -0.587886       -15.9972
  57   2.0000      -0.578526       -15.7425
  58   2.0000      -0.567770       -15.4498
  59   2.0000      -0.564563       -15.3625
  60   2.0000      -0.506376       -13.7792
  61   2.0000      -0.495818       -13.4919
  62   2.0000      -0.482554       -13.1310
  63   2.0000      -0.468435       -12.7468
  64   2.0000      -0.461215       -12.5503
  65   2.0000      -0.449028       -12.2187
  66   2.0000      -0.440325       -11.9819
  67   2.0000      -0.431650       -11.7458
  68   2.0000      -0.427724       -11.6390
  69   2.0000      -0.411918       -11.2089
  70   2.0000      -0.407666       -11.0932
  71   2.0000      -0.403982       -10.9929
  72   2.0000      -0.394712       -10.7407
  73   2.0000      -0.380085       -10.3426
  74   2.0000      -0.378811       -10.3080
  75   2.0000      -0.375044       -10.2055
  76   2.0000      -0.364086        -9.9073
  77   2.0000      -0.357599        -9.7308
  78   2.0000      -0.352860        -9.6018
  79   2.0000      -0.351058        -9.5528
  80   2.0000      -0.347959        -9.4684
  81   2.0000      -0.346157        -9.4194
  82   2.0000      -0.345256        -9.3949
  83   2.0000      -0.336352        -9.1526
  84   2.0000      -0.332395        -9.0449
  85   2.0000      -0.320798        -8.7293
  86   2.0000      -0.313847        -8.5402
  87   2.0000      -0.304779        -8.2934
  88   2.0000      -0.295831        -8.0500
  89   2.0000      -0.285130        -7.7588
  90   2.0000      -0.280582        -7.6350
  91   2.0000      -0.274541        -7.4706
  92   2.0000      -0.272122        -7.4048
  93   2.0000      -0.268895        -7.3170
  94   2.0000      -0.257769        -7.0143
  95   2.0000      -0.239251        -6.5104
  96   2.0000      -0.219434        -5.9711
  97   2.0000      -0.203468        -5.5366
  98   2.0000      -0.198758        -5.4085
  99   2.0000      -0.197764        -5.3814
 100   2.0000      -0.189964        -5.1692
 101   0.0000      -0.046200        -1.2572
 102   0.0000      -0.019444        -0.5291
 103   0.0000      -0.009416        -0.2562
 104   0.0000       0.000134         0.0036
 105   0.0000       0.014001         0.3810

MULLIKEN ATOMIC CHARGES
-----------------------
   0 C :   -0.307543
   1 C :   -0.010090
   2 O :   -0.381142
   3 P :    0.611601
   4 S :   -0.315641
   5 O :   -0.346472
   6 C :   -0.016069
   7 C :   -0.283170
   8 S :   -0.109684
   9 C :   -0.349759
  10 S :   -0.083487
  11 P :    0.614767
  12 S :   -0.306489
  13 O :   -0.393908
  14 C :   -0.010213
  15 C :   -0.311078
  16 O :   -0.365365
  17 C :   -0.024002
  18 C :   -0.292004
  19 H :    0.122799
  20 H :    0.127825
  21 H :    0.110578
  22 H :    0.108948
  23 H :    0.113485
  24 H :    0.118245
  25 H :    0.103076
  26 H :    0.114570
  27 H :    0.116587
  28 H :    0.107575
  29 H :    0.185949
  30 H :    0.193475
  31 H :    0.102350
  32 H :    0.115108
  33 H :    0.131124
  34 H :    0.111351
  35 H :    0.114626
  36 H :    0.106582
  37 H :    0.109606
  38 H :    0.132164
  39 H :    0.111412
  40 H :    0.122311
Sum of atomic charges:   -0.0000000

LOEWDIN ATOMIC CHARGES
----------------------
   0 C :   -0.369202
   1 C :   -0.115049
   2 O :   -0.242943
   3 P :    0.572446
   4 S :   -0.308017
   5 O :   -0.228127
   6 C :   -0.117730
   7 C :   -0.359464
   8 S :    0.065748
   9 C :   -0.482295
  10 S :    0.093096
  11 P :    0.564558
  12 S :   -0.300323
  13 O :   -0.256189
  14 C :   -0.122319
  15 C :   -0.364924
  16 O :   -0.242045
  17 C :   -0.120129
  18 C :   -0.358784
  19 H :    0.120138
  20 H :    0.130955
  21 H :    0.129770
  22 H :    0.120941
  23 H :    0.108205
  24 H :    0.118913
  25 H :    0.103582
  26 H :    0.122857
  27 H :    0.127386
  28 H :    0.128390
  29 H :    0.131877
  30 H :    0.127987
  31 H :    0.116207
  32 H :    0.111089
  33 H :    0.126654
  34 H :    0.122707
  35 H :    0.132120
  36 H :    0.108152
  37 H :    0.120050
  38 H :    0.122626
  39 H :    0.130978
  40 H :    0.130109

  Mayer bond orders larger than 0.100000
B(  0-C ,  1-C ) :   1.1670 B(  0-C , 19-H ) :   0.9322 B(  0-C , 20-H ) :   0.9428
B(  0-C , 21-H ) :   0.9348 B(  1-C ,  2-O ) :   0.9120 B(  1-C , 22-H ) :   0.9329
B(  1-C , 23-H ) :   0.9259 B(  2-O ,  3-P ) :   1.0789 B(  3-P ,  4-S ) :   1.6380
B(  3-P ,  5-O ) :   1.1546 B(  3-P ,  8-S ) :   0.9314 B(  4-S ,  8-S ) :   0.1113
B(  5-O ,  6-C ) :   0.8864 B(  6-C ,  7-C ) :   1.1555 B(  6-C , 24-H ) :   0.9276
B(  6-C , 25-H ) :   0.9186 B(  7-C , 26-H ) :   0.9431 B(  7-C , 27-H ) :   0.9466
B(  7-C , 28-H ) :   0.9415 B(  8-S ,  9-C ) :   1.0178 B(  9-C , 10-S ) :   0.9953
B(  9-C , 29-H ) :   0.8984 B(  9-C , 30-H ) :   0.8685 B( 10-S , 11-P ) :   0.9703
B( 10-S , 12-S ) :   0.1038 B( 11-P , 12-S ) :   1.6465 B( 11-P , 13-O ) :   1.0549
B( 11-P , 16-O ) :   1.1244 B( 13-O , 14-C ) :   0.9037 B( 14-C , 15-C ) :   1.1639
B( 14-C , 31-H ) :   0.9332 B( 14-C , 32-H ) :   0.9107 B( 15-C , 33-H ) :   0.9348
B( 15-C , 34-H ) :   0.9472 B( 15-C , 35-H ) :   0.9397 B( 16-O , 17-C ) :   0.8946
B( 17-C , 18-C ) :   1.1674 B( 17-C , 36-H ) :   0.9146 B( 17-C , 37-H ) :   0.9318
B( 18-C , 38-H ) :   0.9382 B( 18-C , 39-H ) :   0.9395 B( 18-C , 40-H ) :   0.9458

Dispersion correction           -0.065224954
FINAL SINGLE POINT ENERGY     -2929.517365453191

DIPOLE MOMENT
-------------

Method             : SCF
Type of density    : Electron Density
Multiplicity       :   1
Irrep              :   0
Energy             : -2929.6370472269272796 Eh
Relativity type    :
Basis              : AO
                                X                 Y                 Z
Electronic contribution:      4.529644712      -3.537584531       5.375813198
Nuclear contribution   :     -5.254088055       4.891407104      -5.810942448
                        -----------------------------------------
Total Dipole Moment    :     -0.724443344       1.353822573      -0.435129250
                        -----------------------------------------
Magnitude (a.u.)       :      1.595929567
Magnitude (Debye)      :      4.056530581

Rotational constants in cm-1:             0.012539             0.004693             0.004590
Rotational constants in MHz :           375.908643           140.689383           137.611066

                             ****ORCA TERMINATED NORMALLY****
TOTAL RUN TIME: 0 days 0 hours 0 minutes 20 seconds 897 msec
