                         Program Version 6.0.0  -   RELEASE  -
|  1> ! pbe def2-sv(p) def2/J RI DEFGRID1 loosescf d4 GCP(DFT/SV(P)) printgap
|  2> %output
|  3>     printlevel normal
|  4> end
|  5> * xyz 0 1
|  6> C 1.8059998268 -0.4049516765 -3.7116243857
|  7> C 2.1001829489 -0.972127889 -2.3384931176
|  8> O 2.1040691704 0.1376967236 -1.4035509567
|  9> P 2.3078427312 -0.0527235259 0.145530704
| 10> S 2.4535592303 1.6226901932 1.1387154699
| 11> O 3.6276215462 -0.949744038 0.1559716353
| 12> C 4.4717486392 -1.0890986334 1.3115063768
| 13> C 3.7654028596 -1.7645287038 2.4691624856
| 14> S 0.779307084 -1.4260555534 0.761643138
| 15> C -0.0002875737 -0.4474911036 2.0807049676
| 16> S -1.8103678529 -0.422881322 1.9756283577
| 17> P -2.0397712493 0.2506927375 -0.0041071178
| 18> S -0.7408569625 1.5593429053 -0.6984098355
| 19> O -3.5481143347 0.7458956234 -0.031962424
| 20> C -3.939714869 2.0294243022 0.493477138
| 21> C -5.2958205775 2.3761658203 -0.0873582849
| 22> O -2.1318060797 -1.1248490007 -0.7744700629
| 23> C -1.9270621537 -1.2325076496 -2.1979509379
| 24> C -3.0761337206 -0.6267277355 -2.9751749484
| 25> H 0.8760814015 0.1580398297 -3.6916903546
| 26> H 2.6036810727 0.2664275824 -4.0157214717
| 27> H 1.7229128057 -1.2179487169 -4.4253487446
| 28> H 3.0785380259 -1.4548298108 -2.3010117958
| 29> H 1.3342136936 -1.6856332506 -2.0182085719
| 30> H 5.3099511113 -1.6848999689 0.9472956194
| 31> H 4.819976619 -0.0937791588 1.603575759
| 32> H 4.4837542906 -1.963473468 3.2578919824
| 33> H 2.9884540371 -1.1083418732 2.859312455
| 34> H 3.3140587705 -2.6992765777 2.1461803353
| 35> H 0.3920856062 0.5726429018 2.0286065695
| 36> H 0.2253974164 -0.9060403683 3.0405760945
| 37> H -3.9798272663 1.9541959086 1.5835031931
| 38> H -3.1804232702 2.7680433366 0.2137830628
| 39> H -5.6256529232 3.3254840395 0.3215913128
| 40> H -5.2325511637 2.454832816 -1.1689577103
| 41> H -6.0144432709 1.6032793077 0.1686396533
| 42> H -0.9864586346 -0.7325308031 -2.4498146961
| 43> H -1.8379020449 -2.3061626983 -2.3682636696
| 44> H -3.1083970925 0.4486213314 -2.8042074882
| 45> H -2.9339907512 -0.8139176679 -4.0349749271
| 46> H -4.0175247107 -1.0617837758 -2.651130206
| 47> *
| 48>
| 49>                          ****END OF INPUT****

CARTESIAN COORDINATES (ANGSTROEM)
---------------------------------
  C      1.806000   -0.404952   -3.711624
  C      2.100183   -0.972128   -2.338493
  O      2.104069    0.137697   -1.403551
  P      2.307843   -0.052724    0.145531
  S      2.453559    1.622690    1.138715
  O      3.627622   -0.949744    0.155972
  C      4.471749   -1.089099    1.311506
  C      3.765403   -1.764529    2.469162
  S      0.779307   -1.426056    0.761643
  C     -0.000288   -0.447491    2.080705
  S     -1.810368   -0.422881    1.975628
  P     -2.039771    0.250693   -0.004107
  S     -0.740857    1.559343   -0.698410
  O     -3.548114    0.745896   -0.031962
  C     -3.939715    2.029424    0.493477
  C     -5.295821    2.376166   -0.087358
  O     -2.131806   -1.124849   -0.774470
  C     -1.927062   -1.232508   -2.197951
  C     -3.076134   -0.626728   -2.975175
  H      0.876081    0.158040   -3.691690
  H      2.603681    0.266428   -4.015721
  H      1.722913   -1.217949   -4.425349
  H      3.078538   -1.454830   -2.301012
  H      1.334214   -1.685633   -2.018209
  H      5.309951   -1.684900    0.947296
  H      4.819977   -0.093779    1.603576
  H      4.483754   -1.963473    3.257892
  H      2.988454   -1.108342    2.859312
  H      3.314059   -2.699277    2.146180
  H      0.392086    0.572643    2.028607
  H      0.225397   -0.906040    3.040576
  H     -3.979827    1.954196    1.583503
  H     -3.180423    2.768043    0.213783
  H     -5.625653    3.325484    0.321591
  H     -5.232551    2.454833   -1.168958
  H     -6.014443    1.603279    0.168640
  H     -0.986459   -0.732531   -2.449815
  H     -1.837902   -2.306163   -2.368264
  H     -3.108397    0.448621   -2.804207
  H     -2.933991   -0.813918   -4.034975
  H     -4.017525   -1.061784   -2.651130

 Total Charge           Charge          ....    0
 Multiplicity           Mult            ....    1
 Number of Electrons    NEL             ....  202
 Basis Dimension        Dim             ....  334

ORBITAL ENERGIES
----------------

  NO   OCC          E(Eh)            E(eV)
   0   2.0000     -88.040193     -2395.6954
   1   2.0000     -88.038977     -2395.6624
   2   2.0000     -87.983938     -2394.1647
   3   2.0000     -87.980581     -2394.0733
   4   2.0000     -76.422897     -2079.5728
   5   2.0000     -76.421971     -2079.5476
   6   2.0000     -18.789546      -511.2895
   7   2.0000     -18.788279      -511.2551
   8   2.0000     -18.786871      -511.2168
   9   2.0000     -18.786743      -511.2133
  10   2.0000      -9.956187      -270.9216
  11   2.0000      -9.952658      -270.8256
  12   2.0000      -9.951654      -270.7983
  13   2.0000      -9.950778      -270.7744
  14   2.0000      -9.950421      -270.7647
  15   2.0000      -9.888760      -269.0868
  16   2.0000      -9.887121      -269.0422
  17   2.0000      -9.884413      -268.9685
  18   2.0000      -9.883630      -268.9472
  19   2.0000      -7.685920      -209.1445
  20   2.0000      -7.683247      -209.0718
  21   2.0000      -7.629170      -207.6003
  22   2.0000      -7.625100      -207.4895
  23   2.0000      -6.420169      -174.7017
  24   2.0000      -6.419507      -174.6837
  25   2.0000      -5.713887      -155.4828
  26   2.0000      -5.711103      -155.4070
  27   2.0000      -5.710324      -155.3858
  28   2.0000      -5.707901      -155.3199
  29   2.0000      -5.702823      -155.1817
  30   2.0000      -5.700198      -155.1103
  31   2.0000      -5.658163      -153.9664
  32   2.0000      -5.653978      -153.8526
  33   2.0000      -5.649746      -153.7374
  34   2.0000      -5.649244      -153.7238
  35   2.0000      -5.645761      -153.6290
  36   2.0000      -5.645357      -153.6180
  37   2.0000      -4.642935      -126.3407
  38   2.0000      -4.641884      -126.3121
  39   2.0000      -4.641702      -126.3071
  40   2.0000      -4.641353      -126.2976
  41   2.0000      -4.640725      -126.2805
  42   2.0000      -4.640033      -126.2617
  43   2.0000      -0.984718       -26.7955
  44   2.0000      -0.984421       -26.7875
  45   2.0000      -0.943668       -25.6785
  46   2.0000      -0.939636       -25.5688
  47   2.0000      -0.759375       -20.6636
  48   2.0000      -0.720159       -19.5965
  49   2.0000      -0.710491       -19.3334
  50   2.0000      -0.688517       -18.7355
  51   2.0000      -0.687716       -18.7137
  52   2.0000      -0.673109       -18.3162
  53   2.0000      -0.647602       -17.6221
  54   2.0000      -0.632860       -17.2210
  55   2.0000      -0.597554       -16.2603
  56   2.0000      -0.588578       -16.0160
  57   2.0000      -0.572064       -15.5666
  58   2.0000      -0.565122       -15.3777
  59   2.0000      -0.560477       -15.2514
  60   2.0000      -0.506208       -13.7746
  61   2.0000      -0.499563       -13.5938
  62   2.0000      -0.476761       -12.9733
  63   2.0000      -0.470808       -12.8113
  64   2.0000      -0.452726       -12.3193
  65   2.0000      -0.446876       -12.1601
  66   2.0000      -0.436470       -11.8770
  67   2.0000      -0.433792       -11.8041
  68   2.0000      -0.429416       -11.6850
  69   2.0000      -0.421864       -11.4795
  70   2.0000      -0.405459       -11.0331
  71   2.0000      -0.393611       -10.7107
  72   2.0000      -0.392516       -10.6809
  73   2.0000      -0.387941       -10.5564
  74   2.0000      -0.377406       -10.2697
  75   2.0000      -0.372276       -10.1301
  76   2.0000      -0.361805        -9.8452
  77   2.0000      -0.357397        -9.7253
  78   2.0000      -0.355720        -9.6796
  79   2.0000      -0.350498        -9.5375
  80   2.0000      -0.346915        -9.4400
  81   2.0000      -0.342983        -9.3330
  82   2.0000      -0.341574        -9.2947
  83   2.0000      -0.336822        -9.1654
  84   2.0000      -0.331803        -9.0288
  85   2.0000      -0.314719        -8.5639
  86   2.0000      -0.312766        -8.5108
  87   2.0000      -0.299986        -8.1630
  88   2.0000      -0.298186        -8.1140
  89   2.0000      -0.293260        -7.9800
  90   2.0000      -0.282434        -7.6854
  91   2.0000      -0.274576        -7.4716
  92   2.0000      -0.265009        -7.2112
  93   2.0000      -0.260615        -7.0917
  94   2.0000      -0.256231        -6.9724
  95   2.0000      -0.231680        -6.3043
  96   2.0000      -0.220812        -6.0086
  97   2.0000      -0.210863        -5.7379
  98   2.0000      -0.199017        -5.4155
  99   2.0000      -0.194343        -5.2883
 100   2.0000      -0.185812        -5.0562
 101   0.0000      -0.041913        -1.1405
 102   0.0000      -0.032711        -0.8901
 103   0.0000      -0.004217        -0.1147
 104   0.0000       0.012118         0.3297
 105   0.0000       0.016845         0.4584

MULLIKEN ATOMIC CHARGES
-----------------------
   0 C :   -0.295407
   1 C :   -0.024172
   2 O :   -0.356218
   3 P :    0.621896
   4 S :   -0.289548
   5 O :   -0.388881
   6 C :    0.005768
   7 C :   -0.319139
   8 S :   -0.124112
   9 C :   -0.347204
  10 S :   -0.096224
  11 P :    0.604966
  12 S :   -0.316164
  13 O :   -0.375475
  14 C :   -0.010673
  15 C :   -0.282884
  16 O :   -0.359342
  17 C :   -0.041103
  18 C :   -0.298449
  19 H :    0.141493
  20 H :    0.121694
  21 H :    0.107686
  22 H :    0.111223
  23 H :    0.111264
  24 H :    0.102017
  25 H :    0.110557
  26 H :    0.112003
  27 H :    0.120143
  28 H :    0.120123
  29 H :    0.205453
  30 H :    0.180657
  31 H :    0.102290
  32 H :    0.107114
  33 H :    0.112453
  34 H :    0.119409
  35 H :    0.116528
  36 H :    0.135885
  37 H :    0.104664
  38 H :    0.122790
  39 H :    0.108824
  40 H :    0.118095
Sum of atomic charges:    0.0000000

LOEWDIN ATOMIC CHARGES
----------------------
   0 C :   -0.351921
   1 C :   -0.115267
   2 O :   -0.230938
   3 P :    0.576323
   4 S :   -0.285819
   5 O :   -0.254359
   6 C :   -0.115868
   7 C :   -0.371210
   8 S :    0.061016
   9 C :   -0.478983
  10 S :    0.078992
  11 P :    0.558944
  12 S :   -0.310623
  13 O :   -0.248542
  14 C :   -0.120998
  15 C :   -0.350535
  16 O :   -0.237217
  17 C :   -0.119225
  18 C :   -0.362931
  19 H :    0.129668
  20 H :    0.131280
  21 H :    0.128826
  22 H :    0.114288
  23 H :    0.104392
  24 H :    0.117375
  25 H :    0.111659
  26 H :    0.130104
  27 H :    0.118819
  28 H :    0.123845
  29 H :    0.123507
  30 H :    0.132841
  31 H :    0.110119
  32 H :    0.108709
  33 H :    0.131054
  34 H :    0.127507
  35 H :    0.126832
  36 H :    0.110633
  37 H :    0.118272
  38 H :    0.123271
  39 H :    0.128837
  40 H :    0.127318

  Mayer bond orders larger than 0.100000
B(  0-C ,  1-C ) :   1.1624 B(  0-C , 19-H ) :   0.9392 B(  0-C , 20-H ) :   0.9469
B(  0-C , 21-H ) :   0.9410 B(  1-C ,  2-O ) :   0.8993 B(  1-C , 22-H ) :   0.9241
B(  1-C , 23-H ) :   0.9129 B(  2-O ,  3-P ) :   1.1357 B(  3-P ,  4-S ) :   1.6325
B(  3-P ,  5-O ) :   1.0703 B(  3-P ,  8-S ) :   0.9332 B(  4-S ,  8-S ) :   0.1182
B(  4-S , 29-H ) :   0.1085 B(  5-O ,  6-C ) :   0.9177 B(  6-C ,  7-C ) :   1.1647
B(  6-C , 24-H ) :   0.9347 B(  6-C , 25-H ) :   0.9191 B(  7-C , 26-H ) :   0.9368
B(  7-C , 27-H ) :   0.9364 B(  7-C , 28-H ) :   0.9411 B(  8-S ,  9-C ) :   1.0048
B(  9-C , 10-S ) :   0.9957 B(  9-C , 29-H ) :   0.8492 B(  9-C , 30-H ) :   0.9069
B( 10-S , 11-P ) :   0.9630 B( 10-S , 12-S ) :   0.1137 B( 11-P , 12-S ) :   1.6228
B( 11-P , 13-O ) :   1.1021 B( 11-P , 16-O ) :   1.1257 B( 13-O , 14-C ) :   0.9040
B( 14-C , 15-C ) :   1.1604 B( 14-C , 31-H ) :   0.9291 B( 14-C , 32-H ) :   0.9082
B( 15-C , 33-H ) :   0.9420 B( 15-C , 34-H ) :   0.9516 B( 15-C , 35-H ) :   0.9504
B( 16-O , 17-C ) :   0.9074 B( 17-C , 18-C ) :   1.1644 B( 17-C , 36-H ) :   0.8995
B( 17-C , 37-H ) :   0.9339 B( 18-C , 38-H ) :   0.9355 B( 18-C , 39-H ) :   0.9388
B( 18-C , 40-H ) :   0.9458

Dispersion correction           -0.065722513
FINAL SINGLE POINT ENERGY     -2929.518217099240

DIPOLE MOMENT
-------------

Method             : SCF
Type of density    : Electron Density
Multiplicity       :   1
Irrep              :   0
Energy             : -2929.6365636857753998 Eh
Relativity type    :
Basis              : AO
                                X                 Y                 Z
Electronic contribution:      5.422069685       3.025728059      12.662544599
Nuclear contribution   :     -5.669925278      -4.151906503     -13.156483217
                        -----------------------------------------
Total Dipole Moment    :     -0.247855593      -1.126178444      -0.493938618
                        -----------------------------------------
Magnitude (a.u.)       :      1.254466277
Magnitude (Debye)      :      3.188599875

Rotational constants in cm-1:             0.012390             0.005239             0.004585
Rotational constants in MHz :           371.432551           157.049850           137.440164

                             ****ORCA TERMINATED NORMALLY****
TOTAL RUN TIME: 0 days 0 hours 0 minutes 21 seconds 507 msec
