                         Program Version 6.0.1  -  RELEASE   -
|  1> ! pbe def2-sv(p) def2/J RI DEFGRID1 loosescf d4 GCP(DFT/SV(P)) printgap
|  2> %output
|  3>     printlevel normal
|  4> end
|  5> * xyz 0 1
|  6> C 3.6278409783 -2.4184301655 1.5007703554
|  7> C 2.8509464404 -2.9502733368 0.3076485654
|  8> O 2.7687392963 -1.9534326468 -0.7317568663
|  9> C 1.7998492565 -1.0760874646 -0.6871069176
| 10> O 0.9387910426 -1.0567942024 0.1794890585
| 11> C 1.839385626 -0.0957951288 -1.8290229226
| 12> C 0.7541652333 0.9540079286 -1.6659204775
| 13> H 0.734425708 1.6365771523 -2.5190479272
| 14> C 0.8989914739 1.7714072067 -0.3917536939
| 15> O 1.8065550064 1.6191167901 0.3971860071
| 16> O -0.0522333081 2.6694902685 -0.2995881701
| 17> C -0.0897456273 3.5537520079 0.8369609132
| 18> C -0.3776167896 4.9615932904 0.3482881569
| 19> S -0.93033031 0.2252585796 -1.722174048
| 20> P -1.4186657617 -0.5297247657 0.2148067831
| 21> S -1.49530989 -2.4667483002 0.561403629
| 22> O -0.8824770069 0.4530199983 1.3467455342
| 23> C -0.1145070858 0.032326002 2.4743564326
| 24> O -2.9220095438 0.057313038 0.2705605621
| 25> C -3.9464458818 -0.4509541235 -0.5819668745
| 26> H 3.7031477392 -3.1950217414 2.254441549
| 27> H 4.6248080841 -2.1154010619 1.193488154
| 28> H 3.114348495 -1.559991198 1.929364349
| 29> H 1.8365122149 -3.2412070175 0.5969404135
| 30> H 3.3647846617 -3.7883294822 -0.1626587722
| 31> H 1.7009685517 -0.6391097934 -2.7651366904
| 32> H 2.825364579 0.3725254303 -1.8410668136
| 33> H -0.8864869763 3.1872640969 1.4902763906
| 34> H 0.8687510771 3.4884122464 1.3600179437
| 35> H 0.4281120847 5.3137890356 -0.289702494
| 36> H -1.3052899031 4.9733512091 -0.2160352872
| 37> H -0.4696099594 5.6224775591 1.2037609524
| 38> H 0.9091258982 0.3872575331 2.348784182
| 39> H -0.1228104709 -1.0556482072 2.5576447027
| 40> H -0.5757883864 0.4826827843 3.3508448963
| 41> H -3.7575004765 -0.1570207442 -1.615696615
| 42> H -4.8731517507 -0.0113549092 -0.2219671439
| 43> H -3.9874070924 -1.5399889832 -0.5096261095
| 44> *
| 45>
| 46>                          ****END OF INPUT****

CARTESIAN COORDINATES (ANGSTROEM)
---------------------------------
  C      3.627841   -2.418430    1.500770
  C      2.850946   -2.950273    0.307649
  O      2.768739   -1.953433   -0.731757
  C      1.799849   -1.076087   -0.687107
  O      0.938791   -1.056794    0.179489
  C      1.839386   -0.095795   -1.829023
  C      0.754165    0.954008   -1.665920
  H      0.734426    1.636577   -2.519048
  C      0.898991    1.771407   -0.391754
  O      1.806555    1.619117    0.397186
  O     -0.052233    2.669490   -0.299588
  C     -0.089746    3.553752    0.836961
  C     -0.377617    4.961593    0.348288
  S     -0.930330    0.225259   -1.722174
  P     -1.418666   -0.529725    0.214807
  S     -1.495310   -2.466748    0.561404
  O     -0.882477    0.453020    1.346746
  C     -0.114507    0.032326    2.474356
  O     -2.922010    0.057313    0.270561
  C     -3.946446   -0.450954   -0.581967
  H      3.703148   -3.195022    2.254442
  H      4.624808   -2.115401    1.193488
  H      3.114348   -1.559991    1.929364
  H      1.836512   -3.241207    0.596940
  H      3.364785   -3.788329   -0.162659
  H      1.700969   -0.639110   -2.765137
  H      2.825365    0.372525   -1.841067
  H     -0.886487    3.187264    1.490276
  H      0.868751    3.488412    1.360018
  H      0.428112    5.313789   -0.289702
  H     -1.305290    4.973351   -0.216035
  H     -0.469610    5.622478    1.203761
  H      0.909126    0.387258    2.348784
  H     -0.122810   -1.055648    2.557645
  H     -0.575788    0.482683    3.350845
  H     -3.757500   -0.157021   -1.615697
  H     -4.873152   -0.011355   -0.221967
  H     -3.987407   -1.539989   -0.509626

 Total Charge           Charge          ....    0
 Multiplicity           Mult            ....    1
 Number of Electrons    NEL             ....  174
 Basis Dimension        Dim             ....  316

ORBITAL ENERGIES
----------------

  NO   OCC          E(Eh)            E(eV)
   0   2.0000     -88.031059     -2395.4469
   1   2.0000     -87.963080     -2393.5971
   2   2.0000     -76.415697     -2079.3768
   3   2.0000     -18.813758      -511.9484
   4   2.0000     -18.807541      -511.7792
   5   2.0000     -18.782632      -511.1014
   6   2.0000     -18.763241      -510.5737
   7   2.0000     -18.756127      -510.3802
   8   2.0000     -18.745063      -510.0791
   9   2.0000     -10.023865      -272.7632
  10   2.0000     -10.022179      -272.7174
  11   2.0000      -9.954406      -270.8731
  12   2.0000      -9.950842      -270.7762
  13   2.0000      -9.947536      -270.6862
  14   2.0000      -9.928933      -270.1800
  15   2.0000      -9.926080      -270.1024
  16   2.0000      -9.919620      -269.9266
  17   2.0000      -9.890402      -269.1315
  18   2.0000      -9.889478      -269.1064
  19   2.0000      -7.675956      -208.8734
  20   2.0000      -7.608435      -207.0360
  21   2.0000      -6.411072      -174.4542
  22   2.0000      -5.704556      -155.2289
  23   2.0000      -5.700338      -155.1141
  24   2.0000      -5.692325      -154.8960
  25   2.0000      -5.637643      -153.4081
  26   2.0000      -5.629402      -153.1838
  27   2.0000      -5.627900      -153.1429
  28   2.0000      -4.633798      -126.0921
  29   2.0000      -4.633359      -126.0801
  30   2.0000      -4.631343      -126.0252
  31   2.0000      -1.024659       -27.8824
  32   2.0000      -1.016868       -27.6704
  33   2.0000      -0.969047       -26.3691
  34   2.0000      -0.932650       -25.3787
  35   2.0000      -0.922711       -25.1082
  36   2.0000      -0.921474       -25.0746
  37   2.0000      -0.765874       -20.8405
  38   2.0000      -0.719198       -19.5704
  39   2.0000      -0.704772       -19.1778
  40   2.0000      -0.686695       -18.6859
  41   2.0000      -0.655138       -17.8272
  42   2.0000      -0.621692       -16.9171
  43   2.0000      -0.612760       -16.6741
  44   2.0000      -0.605215       -16.4687
  45   2.0000      -0.602192       -16.3865
  46   2.0000      -0.563451       -15.3323
  47   2.0000      -0.511976       -13.9316
  48   2.0000      -0.506507       -13.7828
  49   2.0000      -0.497442       -13.5361
  50   2.0000      -0.489354       -13.3160
  51   2.0000      -0.468245       -12.7416
  52   2.0000      -0.459053       -12.4915
  53   2.0000      -0.448322       -12.1995
  54   2.0000      -0.442706       -12.0466
  55   2.0000      -0.436886       -11.8883
  56   2.0000      -0.422723       -11.5029
  57   2.0000      -0.413287       -11.2461
  58   2.0000      -0.411216       -11.1898
  59   2.0000      -0.404047       -10.9947
  60   2.0000      -0.394096       -10.7239
  61   2.0000      -0.390771       -10.6334
  62   2.0000      -0.387584       -10.5467
  63   2.0000      -0.383587       -10.4379
  64   2.0000      -0.380505       -10.3541
  65   2.0000      -0.370536       -10.0828
  66   2.0000      -0.361823        -9.8457
  67   2.0000      -0.359751        -9.7893
  68   2.0000      -0.348065        -9.4713
  69   2.0000      -0.339362        -9.2345
  70   2.0000      -0.335675        -9.1342
  71   2.0000      -0.330572        -8.9953
  72   2.0000      -0.326329        -8.8799
  73   2.0000      -0.306976        -8.3532
  74   2.0000      -0.300760        -8.1841
  75   2.0000      -0.298607        -8.1255
  76   2.0000      -0.288549        -7.8518
  77   2.0000      -0.279978        -7.6186
  78   2.0000      -0.269645        -7.3374
  79   2.0000      -0.263208        -7.1623
  80   2.0000      -0.257359        -7.0031
  81   2.0000      -0.244880        -6.6635
  82   2.0000      -0.239679        -6.5220
  83   2.0000      -0.229295        -6.2394
  84   2.0000      -0.212099        -5.7715
  85   2.0000      -0.184247        -5.0136
  86   2.0000      -0.171844        -4.6761
  87   0.0000      -0.047805        -1.3008
  88   0.0000      -0.042852        -1.1661
  89   0.0000      -0.021406        -0.5825
  90   0.0000      -0.006323        -0.1721
  91   0.0000       0.036410         0.9908

MULLIKEN ATOMIC CHARGES
-----------------------
   0 C :   -0.312161
   1 C :   -0.023066
   2 O :   -0.220419
   3 C :    0.157188
   4 O :   -0.216554
   5 C :   -0.045619
   6 C :   -0.305784
   7 H :    0.148674
   8 C :    0.193548
   9 O :   -0.194540
  10 O :   -0.217598
  11 C :   -0.028726
  12 C :   -0.284410
  13 S :   -0.104850
  14 P :    0.630482
  15 S :   -0.335488
  16 O :   -0.380476
  17 C :   -0.112253
  18 O :   -0.380026
  19 C :   -0.107060
  20 H :    0.116683
  21 H :    0.114735
  22 H :    0.134589
  23 H :    0.129885
  24 H :    0.106217
  25 H :    0.127114
  26 H :    0.126267
  27 H :    0.119546
  28 H :    0.112290
  29 H :    0.109609
  30 H :    0.121327
  31 H :    0.112616
  32 H :    0.135871
  33 H :    0.121253
  34 H :    0.113940
  35 H :    0.108606
  36 H :    0.117893
  37 H :    0.110695
Sum of atomic charges:    0.0000000

LOEWDIN ATOMIC CHARGES
----------------------
   0 C :   -0.355057
   1 C :   -0.109352
   2 O :   -0.042114
   3 C :    0.056418
   4 O :   -0.159418
   5 C :   -0.250884
   6 C :   -0.259974
   7 H :    0.151429
   8 C :    0.010605
   9 O :   -0.159899
  10 O :   -0.045512
  11 C :   -0.109484
  12 C :   -0.350745
  13 S :    0.092736
  14 P :    0.592025
  15 S :   -0.337817
  16 O :   -0.234140
  17 C :   -0.219730
  18 O :   -0.267774
  19 C :   -0.224778
  20 H :    0.132809
  21 H :    0.125395
  22 H :    0.131764
  23 H :    0.126587
  24 H :    0.120017
  25 H :    0.149197
  26 H :    0.150957
  27 H :    0.122286
  28 H :    0.117969
  29 H :    0.124194
  30 H :    0.128835
  31 H :    0.130854
  32 H :    0.113065
  33 H :    0.109655
  34 H :    0.114605
  35 H :    0.101555
  36 H :    0.118693
  37 H :    0.105031

  Mayer bond orders larger than 0.100000
B(  0-C ,  1-C ) :   1.1728 B(  0-C , 20-H ) :   0.9433 B(  0-C , 21-H ) :   0.9479
B(  0-C , 22-H ) :   0.9435 B(  1-C ,  2-O ) :   0.9002 B(  1-C , 23-H ) :   0.9099
B(  1-C , 24-H ) :   0.9368 B(  2-O ,  3-C ) :   1.2758 B(  3-C ,  4-O ) :   1.8573
B(  3-C ,  5-C ) :   1.0170 B(  4-O , 14-P ) :   0.1395 B(  5-C ,  6-C ) :   1.0249
B(  5-C , 25-H ) :   0.8828 B(  5-C , 26-H ) :   0.8758 B(  6-C ,  7-H ) :   0.8751
B(  6-C ,  8-C ) :   0.8933 B(  6-C , 13-S ) :   1.0302 B(  8-C ,  9-O ) :   2.0364
B(  8-C , 10-O ) :   1.2584 B(  9-O , 10-O ) :   0.1006 B( 10-O , 11-C ) :   0.9028
B( 11-C , 12-C ) :   1.1645 B( 11-C , 27-H ) :   0.9262 B( 11-C , 28-H ) :   0.9128
B( 12-C , 29-H ) :   0.9516 B( 12-C , 30-H ) :   0.9488 B( 12-C , 31-H ) :   0.9444
B( 13-S , 14-P ) :   0.9319 B( 14-P , 15-S ) :   1.5902 B( 14-P , 16-O ) :   1.0843
B( 14-P , 18-O ) :   1.0561 B( 16-O , 17-C ) :   0.9193 B( 17-C , 32-H ) :   0.9367
B( 17-C , 33-H ) :   0.9284 B( 17-C , 34-H ) :   0.9519 B( 18-O , 19-C ) :   0.9553
B( 19-C , 35-H ) :   0.9423 B( 19-C , 36-H ) :   0.9604 B( 19-C , 37-H ) :   0.9300

Dispersion correction           -0.054887317
FINAL SINGLE POINT ENERGY     -1979.002985028619

DIPOLE MOMENT
-------------

Method             : SCF
Type of density    : Electron Density
Multiplicity       :   1
Irrep              :   0
Energy             : -1979.1348327937416798 Eh
Relativity type    :
Basis              : AO
                                X                 Y                 Z
Electronic contribution:     -7.941649450      -7.291956127      -7.757277931
Nuclear contribution   :      8.991846576       8.221355801       7.499944625
                        -----------------------------------------
Total Dipole Moment    :      1.050197126       0.929399675      -0.257333307
                        -----------------------------------------
Magnitude (a.u.)       :      1.425804401
Magnitude (Debye)      :      3.624106774

Rotational constants in cm-1:             0.011700             0.009212             0.006848
Rotational constants in MHz :           350.770400           276.182821           205.295194

                             ****ORCA TERMINATED NORMALLY****
TOTAL RUN TIME: 0 days 0 hours 0 minutes 45 seconds 503 msec
