                         Program Version 6.0.0  -   RELEASE  -
|  1> ! pbe def2-sv(p) def2/J RI DEFGRID1 loosescf d4 GCP(DFT/SV(P)) printgap
|  2> %output
|  3>     printlevel normal
|  4> end
|  5> * xyz 0 1
|  6> C 5.379920868 0.1364589356 -0.8792333241
|  7> C 3.959940469 0.2054307228 -1.4023143578
|  8> O 3.0695865923 0.7612040149 -0.4002832927
|  9> P 2.2108471538 -0.1175616971 0.5900220422
| 10> S 1.3950693392 0.9518404723 2.0084292364
| 11> O 3.2430769349 -1.2136784592 1.0998110303
| 12> C 3.0041631584 -2.0008869272 2.2797699249
| 13> C 1.8372497159 -2.9491963599 2.1000683012
| 14> S 0.9258952802 -1.2501096818 -0.7005190826
| 15> C 0.2895501959 0.1094958451 -1.720034186
| 16> S -0.659621029 1.3478797086 -0.8066300853
| 17> P -2.5663178334 0.3756101617 -0.776202736
| 18> S -2.7685592389 -1.0348744889 -2.1171061163
| 19> O -3.6398791829 1.5000136332 -1.0231456555
| 20> C -4.0565443086 2.5082478782 -0.0709473004
| 21> C -2.9302805826 3.4411678824 0.3207017508
| 22> O -2.8525938146 0.0202156041 0.7498773523
| 23> C -2.0546495278 -0.8240324676 1.5929519159
| 24> C -2.124527293 -2.2818285681 1.184672934
| 25> H 6.0349608232 -0.1995970087 -1.6771040552
| 26> H 5.6997369833 1.1186221407 -0.5419024517
| 27> H 5.4425600692 -0.5585117946 -0.0465913812
| 28> H 3.5990737388 -0.7846572424 -1.6934305002
| 29> H 3.8856422307 0.8942722082 -2.2464865119
| 30> H 3.9417729299 -2.5371931191 2.4317351576
| 31> H 2.8225633606 -1.3202283586 3.117353907
| 32> H 0.9146259701 -2.3803099492 1.9949149525
| 33> H 1.9749979637 -3.5582148093 1.2102300384
| 34> H 1.7581065365 -3.5925879853 2.9702978152
| 35> H -0.3590753174 -0.3594633447 -2.463308937
| 36> H 1.1146985008 0.6391145961 -2.1888267452
| 37> H -4.847801493 3.0378165827 -0.6038606055
| 38> H -4.4692136675 2.0030415883 0.8040301539
| 39> H -2.4786996489 3.8848379226 -0.5633140753
| 40> H -3.3258957439 4.2296655204 0.9534790067
| 41> H -2.1599236799 2.9042928624 0.8732758188
| 42> H -1.0234752838 -0.4538923109 1.5912846362
| 43> H -2.480975378 -0.6704706217 2.5863926056
| 44> H -3.162628088 -2.5918665242 1.094818914
| 45> H -1.632705522 -2.4393464396 0.2265183127
| 46> H -1.634082507 -2.8895728001 1.9384412868
| 47> *
| 48>
| 49>                          ****END OF INPUT****

CARTESIAN COORDINATES (ANGSTROEM)
---------------------------------
  C      5.379921    0.136459   -0.879233
  C      3.959940    0.205431   -1.402314
  O      3.069587    0.761204   -0.400283
  P      2.210847   -0.117562    0.590022
  S      1.395069    0.951840    2.008429
  O      3.243077   -1.213678    1.099811
  C      3.004163   -2.000887    2.279770
  C      1.837250   -2.949196    2.100068
  S      0.925895   -1.250110   -0.700519
  C      0.289550    0.109496   -1.720034
  S     -0.659621    1.347880   -0.806630
  P     -2.566318    0.375610   -0.776203
  S     -2.768559   -1.034874   -2.117106
  O     -3.639879    1.500014   -1.023146
  C     -4.056544    2.508248   -0.070947
  C     -2.930281    3.441168    0.320702
  O     -2.852594    0.020216    0.749877
  C     -2.054650   -0.824032    1.592952
  C     -2.124527   -2.281829    1.184673
  H      6.034961   -0.199597   -1.677104
  H      5.699737    1.118622   -0.541902
  H      5.442560   -0.558512   -0.046591
  H      3.599074   -0.784657   -1.693431
  H      3.885642    0.894272   -2.246487
  H      3.941773   -2.537193    2.431735
  H      2.822563   -1.320228    3.117354
  H      0.914626   -2.380310    1.994915
  H      1.974998   -3.558215    1.210230
  H      1.758107   -3.592588    2.970298
  H     -0.359075   -0.359463   -2.463309
  H      1.114699    0.639115   -2.188827
  H     -4.847801    3.037817   -0.603861
  H     -4.469214    2.003042    0.804030
  H     -2.478700    3.884838   -0.563314
  H     -3.325896    4.229666    0.953479
  H     -2.159924    2.904293    0.873276
  H     -1.023475   -0.453892    1.591285
  H     -2.480975   -0.670471    2.586393
  H     -3.162628   -2.591867    1.094819
  H     -1.632706   -2.439346    0.226518
  H     -1.634083   -2.889573    1.938441

 Total Charge           Charge          ....    0
 Multiplicity           Mult            ....    1
 Number of Electrons    NEL             ....  202
 Basis Dimension        Dim             ....  334

ORBITAL ENERGIES
----------------

  NO   OCC          E(Eh)            E(eV)
   0   2.0000     -88.045159     -2395.8306
   1   2.0000     -88.037902     -2395.6331
   2   2.0000     -87.989113     -2394.3055
   3   2.0000     -87.980633     -2394.0747
   4   2.0000     -76.431794     -2079.8148
   5   2.0000     -76.422913     -2079.5732
   6   2.0000     -18.800337      -511.5832
   7   2.0000     -18.800255      -511.5810
   8   2.0000     -18.788184      -511.2525
   9   2.0000     -18.786872      -511.2168
  10   2.0000      -9.963696      -271.1259
  11   2.0000      -9.960266      -271.0326
  12   2.0000      -9.954736      -270.8821
  13   2.0000      -9.954078      -270.8642
  14   2.0000      -9.944130      -270.5935
  15   2.0000      -9.893177      -269.2070
  16   2.0000      -9.891684      -269.1664
  17   2.0000      -9.887364      -269.0489
  18   2.0000      -9.872979      -268.6574
  19   2.0000      -7.689476      -209.2413
  20   2.0000      -7.682480      -209.0509
  21   2.0000      -7.633972      -207.7309
  22   2.0000      -7.625872      -207.5105
  23   2.0000      -6.429102      -174.9447
  24   2.0000      -6.420078      -174.6992
  25   2.0000      -5.717255      -155.5744
  26   2.0000      -5.714041      -155.4870
  27   2.0000      -5.710482      -155.3901
  28   2.0000      -5.706921      -155.2932
  29   2.0000      -5.706619      -155.2850
  30   2.0000      -5.699482      -155.0908
  31   2.0000      -5.662986      -154.0977
  32   2.0000      -5.654859      -153.8765
  33   2.0000      -5.654573      -153.8688
  34   2.0000      -5.654062      -153.8548
  35   2.0000      -5.646356      -153.6452
  36   2.0000      -5.646037      -153.6365
  37   2.0000      -4.652312      -126.5958
  38   2.0000      -4.650811      -126.5550
  39   2.0000      -4.649047      -126.5070
  40   2.0000      -4.642949      -126.3411
  41   2.0000      -4.641819      -126.3103
  42   2.0000      -4.640365      -126.2707
  43   2.0000      -0.995899       -27.0998
  44   2.0000      -0.983779       -26.7700
  45   2.0000      -0.953884       -25.9565
  46   2.0000      -0.938597       -25.5405
  47   2.0000      -0.761362       -20.7177
  48   2.0000      -0.723296       -19.6819
  49   2.0000      -0.712125       -19.3779
  50   2.0000      -0.698249       -19.0003
  51   2.0000      -0.685761       -18.6605
  52   2.0000      -0.673986       -18.3401
  53   2.0000      -0.653989       -17.7960
  54   2.0000      -0.637625       -17.3507
  55   2.0000      -0.599727       -16.3194
  56   2.0000      -0.588844       -16.0233
  57   2.0000      -0.582715       -15.8565
  58   2.0000      -0.575551       -15.6615
  59   2.0000      -0.561061       -15.2673
  60   2.0000      -0.509346       -13.8600
  61   2.0000      -0.492372       -13.3981
  62   2.0000      -0.482818       -13.1381
  63   2.0000      -0.469008       -12.7624
  64   2.0000      -0.459989       -12.5169
  65   2.0000      -0.451788       -12.2938
  66   2.0000      -0.442769       -12.0483
  67   2.0000      -0.435720       -11.8565
  68   2.0000      -0.427736       -11.6393
  69   2.0000      -0.421314       -11.4645
  70   2.0000      -0.415603       -11.3091
  71   2.0000      -0.398904       -10.8547
  72   2.0000      -0.397984       -10.8297
  73   2.0000      -0.386719       -10.5232
  74   2.0000      -0.383040       -10.4230
  75   2.0000      -0.372825       -10.1451
  76   2.0000      -0.368457       -10.0262
  77   2.0000      -0.361089        -9.8257
  78   2.0000      -0.357422        -9.7259
  79   2.0000      -0.353615        -9.6223
  80   2.0000      -0.352815        -9.6006
  81   2.0000      -0.347029        -9.4431
  82   2.0000      -0.341284        -9.2868
  83   2.0000      -0.337671        -9.1885
  84   2.0000      -0.330355        -8.9894
  85   2.0000      -0.324887        -8.8406
  86   2.0000      -0.309643        -8.4258
  87   2.0000      -0.305349        -8.3090
  88   2.0000      -0.299105        -8.1391
  89   2.0000      -0.291844        -7.9415
  90   2.0000      -0.286308        -7.7908
  91   2.0000      -0.276536        -7.5249
  92   2.0000      -0.271949        -7.4001
  93   2.0000      -0.266555        -7.2533
  94   2.0000      -0.255455        -6.9513
  95   2.0000      -0.244340        -6.6488
  96   2.0000      -0.219269        -5.9666
  97   2.0000      -0.205487        -5.5916
  98   2.0000      -0.200821        -5.4646
  99   2.0000      -0.199818        -5.4373
 100   2.0000      -0.190247        -5.1769
 101   0.0000      -0.046891        -1.2760
 102   0.0000      -0.023696        -0.6448
 103   0.0000      -0.014435        -0.3928
 104   0.0000      -0.001951        -0.0531
 105   0.0000       0.009694         0.2638

MULLIKEN ATOMIC CHARGES
-----------------------
   0 C :   -0.282999
   1 C :   -0.026710
   2 O :   -0.363809
   3 P :    0.596855
   4 S :   -0.290720
   5 O :   -0.381006
   6 C :    0.003266
   7 C :   -0.351126
   8 S :   -0.107454
   9 C :   -0.338950
  10 S :   -0.102192
  11 P :    0.622626
  12 S :   -0.318823
  13 O :   -0.361938
  14 C :    0.006240
  15 C :   -0.338257
  16 O :   -0.382429
  17 C :   -0.038219
  18 C :   -0.310204
  19 H :    0.111286
  20 H :    0.121835
  21 H :    0.124083
  22 H :    0.106644
  23 H :    0.112687
  24 H :    0.107095
  25 H :    0.113309
  26 H :    0.147540
  27 H :    0.125144
  28 H :    0.119270
  29 H :    0.194381
  30 H :    0.184600
  31 H :    0.110265
  32 H :    0.111434
  33 H :    0.128688
  34 H :    0.117469
  35 H :    0.140382
  36 H :    0.134314
  37 H :    0.098614
  38 H :    0.113798
  39 H :    0.133203
  40 H :    0.109808
Sum of atomic charges:    0.0000000

LOEWDIN ATOMIC CHARGES
----------------------
   0 C :   -0.357515
   1 C :   -0.117048
   2 O :   -0.238525
   3 P :    0.567273
   4 S :   -0.297949
   5 O :   -0.246333
   6 C :   -0.117528
   7 C :   -0.373288
   8 S :    0.077719
   9 C :   -0.486459
  10 S :    0.084900
  11 P :    0.569626
  12 S :   -0.305237
  13 O :   -0.236454
  14 C :   -0.109093
  15 C :   -0.372293
  16 O :   -0.243599
  17 C :   -0.123308
  18 C :   -0.371165
  19 H :    0.130850
  20 H :    0.129887
  21 H :    0.127375
  22 H :    0.107244
  23 H :    0.119755
  24 H :    0.119470
  25 H :    0.112542
  26 H :    0.122771
  27 H :    0.126822
  28 H :    0.134460
  29 H :    0.129225
  30 H :    0.130407
  31 H :    0.122585
  32 H :    0.115348
  33 H :    0.128824
  34 H :    0.133825
  35 H :    0.122213
  36 H :    0.098528
  37 H :    0.117062
  38 H :    0.125951
  39 H :    0.115629
  40 H :    0.125505

  Mayer bond orders larger than 0.100000
B(  0-C ,  1-C ) :   1.1701 B(  0-C , 19-H ) :   0.9390 B(  0-C , 20-H ) :   0.9469
B(  0-C , 21-H ) :   0.9417 B(  1-C ,  2-O ) :   0.8884 B(  1-C , 22-H ) :   0.9093
B(  1-C , 23-H ) :   0.9316 B(  2-O ,  3-P ) :   1.1228 B(  3-P ,  4-S ) :   1.6619
B(  3-P ,  5-O ) :   1.0735 B(  3-P ,  8-S ) :   0.9534 B(  4-S ,  8-S ) :   0.1089
B(  5-O ,  6-C ) :   0.9055 B(  6-C ,  7-C ) :   1.1624 B(  6-C , 24-H ) :   0.9323
B(  6-C , 25-H ) :   0.9151 B(  7-C , 26-H ) :   0.9246 B(  7-C , 27-H ) :   0.9418
B(  7-C , 28-H ) :   0.9368 B(  8-S ,  9-C ) :   0.9871 B(  9-C , 10-S ) :   1.0237
B(  9-C , 29-H ) :   0.8567 B(  9-C , 30-H ) :   0.8973 B( 10-S , 11-P ) :   0.9386
B( 10-S , 12-S ) :   0.1144 B( 11-P , 12-S ) :   1.6420 B( 11-P , 13-O ) :   1.1434
B( 11-P , 16-O ) :   1.0792 B( 12-S , 29-H ) :   0.1106 B( 13-O , 14-C ) :   0.9004
B( 14-C , 15-C ) :   1.1696 B( 14-C , 31-H ) :   0.9337 B( 14-C , 32-H ) :   0.9266
B( 15-C , 33-H ) :   0.9424 B( 15-C , 34-H ) :   0.9354 B( 15-C , 35-H ) :   0.9314
B( 16-O , 17-C ) :   0.9074 B( 17-C , 18-C ) :   1.1665 B( 17-C , 36-H ) :   0.8946
B( 17-C , 37-H ) :   0.9347 B( 18-C , 38-H ) :   0.9419 B( 18-C , 39-H ) :   0.9280
B( 18-C , 40-H ) :   0.9317

Dispersion correction           -0.066313190
FINAL SINGLE POINT ENERGY     -2929.516416976646

DIPOLE MOMENT
-------------

Method             : SCF
Type of density    : Electron Density
Multiplicity       :   1
Irrep              :   0
Energy             : -2929.6362006093518175 Eh
Relativity type    :
Basis              : AO
                                X                 Y                 Z
Electronic contribution:     -8.165946186       5.344666853      -8.800545292
Nuclear contribution   :      9.366832939      -5.491692286       9.383452956
                        -----------------------------------------
Total Dipole Moment    :      1.200886753      -0.147025433       0.582907664
                        -----------------------------------------
Magnitude (a.u.)       :      1.342954510
Magnitude (Debye)      :      3.413519089

Rotational constants in cm-1:             0.012542             0.004893             0.004660
Rotational constants in MHz :           376.004702           146.697858           139.711922

                             ****ORCA TERMINATED NORMALLY****
TOTAL RUN TIME: 0 days 0 hours 0 minutes 22 seconds 114 msec
