                         Program Version 6.0.0  -   RELEASE  -
|  1> ! pbe def2-sv(p) def2/J RI DEFGRID1 loosescf d4 GCP(DFT/SV(P)) printgap
|  2> %output
|  3>     printlevel normal
|  4> end
|  5> * xyz 0 1
|  6> C 2.1075504579 -2.1268858557 2.6822112097
|  7> C 1.2121820669 -1.7053278184 1.5338969013
|  8> O 1.4166718899 -0.3115833706 1.2473039913
|  9> P 2.1674581666 0.2583736581 -0.0386508868
| 10> S 3.1554282386 -1.0911877873 -1.0653037363
| 11> O 2.9378634698 1.511360296 0.5484456238
| 12> C 3.8856149084 1.4227921411 1.6353595958
| 13> C 5.2448057778 0.9474699826 1.1611227023
| 14> S 0.7668141424 1.4241255936 -1.1119079259
| 15> C 0.2204335486 0.1229172537 -2.2513486087
| 16> S -0.5189935784 -1.287314326 -1.3829233558
| 17> P -2.1135584784 -0.2303345838 -0.4815893093
| 18> S -2.9065926363 1.224765752 -1.5326627828
| 19> O -1.6269720754 0.1986134396 0.9750808686
| 20> C -1.5095606709 1.5541752216 1.4391682458
| 21> C -2.6358376866 1.8639367572 2.4053598074
| 22> O -2.9638963488 -1.5330834339 -0.1843604213
| 23> C -4.1039134398 -1.5518366857 0.702977164
| 24> C -5.3541283419 -1.0261673647 0.0255806898
| 25> H 1.9260930157 -1.502193607 3.5526011311
| 26> H 1.8977563852 -3.1614537407 2.933361419
| 27> H 3.1519434708 -2.039788822 2.3892205614
| 28> H 0.1540428293 -1.8041325914 1.7853283274
| 29> H 1.4281542822 -2.2934492739 0.6361049178
| 30> H 3.9348268715 2.4435561717 2.0188266297
| 31> H 3.4813961903 0.7593270477 2.4043998852
| 32> H 5.6158284532 1.5998949326 0.3752438026
| 33> H 5.9397862764 0.9583115034 1.9949068619
| 34> H 5.1788225903 -0.0640093785 0.7649697183
| 35> H 1.072817191 -0.2657392763 -2.807620717
| 36> H -0.5146550728 0.5778165236 -2.9145108984
| 37> H -0.5312242153 1.6170901748 1.9201480908
| 38> H -1.5364231628 2.233042911 0.5808006546
| 39> H -2.4989558759 2.8655217705 2.7997296535
| 40> H -3.5916876335 1.8165247898 1.8872486469
| 41> H -2.637122762 1.1519542544 3.2262583048
| 42> H -4.2094168415 -2.6060624814 0.9655886731
| 43> H -3.8657140386 -0.9711982552 1.5980392471
| 44> H -5.2311462114 0.0209681314 -0.2441852759
| 45> H -5.5545234047 -1.5922115153 -0.8801599497
| 46> H -6.1967512509 -1.1224193811 0.7030675734
| 47> *
| 48>
| 49>                          ****END OF INPUT****

CARTESIAN COORDINATES (ANGSTROEM)
---------------------------------
  C      2.107550   -2.126886    2.682211
  C      1.212182   -1.705328    1.533897
  O      1.416672   -0.311583    1.247304
  P      2.167458    0.258374   -0.038651
  S      3.155428   -1.091188   -1.065304
  O      2.937863    1.511360    0.548446
  C      3.885615    1.422792    1.635360
  C      5.244806    0.947470    1.161123
  S      0.766814    1.424126   -1.111908
  C      0.220434    0.122917   -2.251349
  S     -0.518994   -1.287314   -1.382923
  P     -2.113558   -0.230335   -0.481589
  S     -2.906593    1.224766   -1.532663
  O     -1.626972    0.198613    0.975081
  C     -1.509561    1.554175    1.439168
  C     -2.635838    1.863937    2.405360
  O     -2.963896   -1.533083   -0.184360
  C     -4.103913   -1.551837    0.702977
  C     -5.354128   -1.026167    0.025581
  H      1.926093   -1.502194    3.552601
  H      1.897756   -3.161454    2.933361
  H      3.151943   -2.039789    2.389221
  H      0.154043   -1.804133    1.785328
  H      1.428154   -2.293449    0.636105
  H      3.934827    2.443556    2.018827
  H      3.481396    0.759327    2.404400
  H      5.615828    1.599895    0.375244
  H      5.939786    0.958312    1.994907
  H      5.178823   -0.064009    0.764970
  H      1.072817   -0.265739   -2.807621
  H     -0.514655    0.577817   -2.914511
  H     -0.531224    1.617090    1.920148
  H     -1.536423    2.233043    0.580801
  H     -2.498956    2.865522    2.799730
  H     -3.591688    1.816525    1.887249
  H     -2.637123    1.151954    3.226258
  H     -4.209417   -2.606062    0.965589
  H     -3.865714   -0.971198    1.598039
  H     -5.231146    0.020968   -0.244185
  H     -5.554523   -1.592212   -0.880160
  H     -6.196751   -1.122419    0.703068

 Total Charge           Charge          ....    0
 Multiplicity           Mult            ....    1
 Number of Electrons    NEL             ....  202
 Basis Dimension        Dim             ....  334

ORBITAL ENERGIES
----------------

  NO   OCC          E(Eh)            E(eV)
   0   2.0000     -88.040992     -2395.7172
   1   2.0000     -88.040955     -2395.7162
   2   2.0000     -87.989617     -2394.3192
   3   2.0000     -87.989487     -2394.3157
   4   2.0000     -76.428186     -2079.7167
   5   2.0000     -76.428142     -2079.7155
   6   2.0000     -18.795700      -511.4570
   7   2.0000     -18.795581      -511.4538
   8   2.0000     -18.793551      -511.3985
   9   2.0000     -18.793444      -511.3956
  10   2.0000      -9.959795      -271.0198
  11   2.0000      -9.959724      -271.0179
  12   2.0000      -9.951807      -270.8024
  13   2.0000      -9.947324      -270.6805
  14   2.0000      -9.947142      -270.6755
  15   2.0000      -9.887390      -269.0496
  16   2.0000      -9.887363      -269.0488
  17   2.0000      -9.884820      -268.9796
  18   2.0000      -9.884766      -268.9782
  19   2.0000      -7.685782      -209.1408
  20   2.0000      -7.685755      -209.1400
  21   2.0000      -7.634532      -207.7462
  22   2.0000      -7.634404      -207.7427
  23   2.0000      -6.425566      -174.8486
  24   2.0000      -6.425521      -174.8473
  25   2.0000      -5.713727      -155.4784
  26   2.0000      -5.713703      -155.4778
  27   2.0000      -5.710406      -155.3880
  28   2.0000      -5.710366      -155.3869
  29   2.0000      -5.702586      -155.1752
  30   2.0000      -5.702575      -155.1750
  31   2.0000      -5.663358      -154.1078
  32   2.0000      -5.663227      -154.1042
  33   2.0000      -5.655416      -153.8917
  34   2.0000      -5.655264      -153.8875
  35   2.0000      -5.654526      -153.8675
  36   2.0000      -5.654424      -153.8647
  37   2.0000      -4.648331      -126.4875
  38   2.0000      -4.648306      -126.4868
  39   2.0000      -4.647063      -126.4530
  40   2.0000      -4.647007      -126.4515
  41   2.0000      -4.646131      -126.4277
  42   2.0000      -4.646084      -126.4264
  43   2.0000      -0.989170       -26.9167
  44   2.0000      -0.988013       -26.8852
  45   2.0000      -0.946144       -25.7459
  46   2.0000      -0.944752       -25.7080
  47   2.0000      -0.765393       -20.8274
  48   2.0000      -0.726087       -19.7578
  49   2.0000      -0.710094       -19.3226
  50   2.0000      -0.689536       -18.7632
  51   2.0000      -0.689288       -18.7565
  52   2.0000      -0.671424       -18.2704
  53   2.0000      -0.653147       -17.7730
  54   2.0000      -0.640150       -17.4194
  55   2.0000      -0.599963       -16.3258
  56   2.0000      -0.591004       -16.0820
  57   2.0000      -0.577822       -15.7233
  58   2.0000      -0.577600       -15.7173
  59   2.0000      -0.559285       -15.2189
  60   2.0000      -0.505361       -13.7516
  61   2.0000      -0.496510       -13.5107
  62   2.0000      -0.479488       -13.0475
  63   2.0000      -0.477498       -12.9934
  64   2.0000      -0.460556       -12.5324
  65   2.0000      -0.448484       -12.2039
  66   2.0000      -0.439042       -11.9470
  67   2.0000      -0.431676       -11.7465
  68   2.0000      -0.430002       -11.7009
  69   2.0000      -0.413298       -11.2464
  70   2.0000      -0.409705       -11.1486
  71   2.0000      -0.393816       -10.7163
  72   2.0000      -0.390099       -10.6151
  73   2.0000      -0.382512       -10.4087
  74   2.0000      -0.378125       -10.2893
  75   2.0000      -0.376455       -10.2439
  76   2.0000      -0.376034       -10.2324
  77   2.0000      -0.357131        -9.7180
  78   2.0000      -0.354831        -9.6554
  79   2.0000      -0.352930        -9.6037
  80   2.0000      -0.352274        -9.5859
  81   2.0000      -0.350879        -9.5479
  82   2.0000      -0.342193        -9.3115
  83   2.0000      -0.340157        -9.2562
  84   2.0000      -0.335337        -9.1250
  85   2.0000      -0.325808        -8.8657
  86   2.0000      -0.310647        -8.4531
  87   2.0000      -0.296282        -8.0623
  88   2.0000      -0.295494        -8.0408
  89   2.0000      -0.292764        -7.9665
  90   2.0000      -0.290091        -7.8938
  91   2.0000      -0.280833        -7.6419
  92   2.0000      -0.278835        -7.5875
  93   2.0000      -0.269472        -7.3327
  94   2.0000      -0.259783        -7.0691
  95   2.0000      -0.233743        -6.3605
  96   2.0000      -0.216492        -5.8910
  97   2.0000      -0.215832        -5.8731
  98   2.0000      -0.207229        -5.6390
  99   2.0000      -0.199794        -5.4367
 100   2.0000      -0.197995        -5.3877
 101   0.0000      -0.046500        -1.2653
 102   0.0000      -0.027453        -0.7470
 103   0.0000       0.003865         0.1052
 104   0.0000       0.004879         0.1328
 105   0.0000       0.010157         0.2764

MULLIKEN ATOMIC CHARGES
-----------------------
   0 C :   -0.287465
   1 C :   -0.018586
   2 O :   -0.381002
   3 P :    0.647417
   4 S :   -0.329415
   5 O :   -0.377157
   6 C :   -0.017428
   7 C :   -0.305156
   8 S :   -0.088545
   9 C :   -0.354967
  10 S :   -0.088137
  11 P :    0.647484
  12 S :   -0.329056
  13 O :   -0.381052
  14 C :   -0.018534
  15 C :   -0.287641
  16 O :   -0.377680
  17 C :   -0.017064
  18 C :   -0.305138
  19 H :    0.112454
  20 H :    0.112520
  21 H :    0.113497
  22 H :    0.103331
  23 H :    0.120109
  24 H :    0.109451
  25 H :    0.107485
  26 H :    0.121159
  27 H :    0.108486
  28 H :    0.132506
  29 H :    0.193514
  30 H :    0.193311
  31 H :    0.103391
  32 H :    0.120499
  33 H :    0.112507
  34 H :    0.113348
  35 H :    0.112576
  36 H :    0.109380
  37 H :    0.107307
  38 H :    0.132668
  39 H :    0.121134
  40 H :    0.108487
Sum of atomic charges:    0.0000000

LOEWDIN ATOMIC CHARGES
----------------------
   0 C :   -0.358153
   1 C :   -0.129244
   2 O :   -0.240314
   3 P :    0.567898
   4 S :   -0.313769
   5 O :   -0.246537
   6 C :   -0.111946
   7 C :   -0.365089
   8 S :    0.100789
   9 C :   -0.481268
  10 S :    0.101210
  11 P :    0.567892
  12 S :   -0.313731
  13 O :   -0.240288
  14 C :   -0.129015
  15 C :   -0.358452
  16 O :   -0.246647
  17 C :   -0.111822
  18 C :   -0.364954
  19 H :    0.121873
  20 H :    0.131278
  21 H :    0.122345
  22 H :    0.111274
  23 H :    0.104766
  24 H :    0.121070
  25 H :    0.109739
  26 H :    0.130059
  27 H :    0.128894
  28 H :    0.122941
  29 H :    0.132367
  30 H :    0.132297
  31 H :    0.111800
  32 H :    0.104845
  33 H :    0.131301
  34 H :    0.122200
  35 H :    0.121727
  36 H :    0.121056
  37 H :    0.109691
  38 H :    0.122966
  39 H :    0.130060
  40 H :    0.128889

  Mayer bond orders larger than 0.100000
B(  0-C ,  1-C ) :   1.1626 B(  0-C , 19-H ) :   0.9465 B(  0-C , 20-H ) :   0.9408
B(  0-C , 21-H ) :   0.9421 B(  1-C ,  2-O ) :   0.9003 B(  1-C , 22-H ) :   0.9264
B(  1-C , 23-H ) :   0.9000 B(  2-O ,  3-P ) :   1.0827 B(  3-P ,  4-S ) :   1.6125
B(  3-P ,  5-O ) :   1.1218 B(  3-P ,  8-S ) :   0.9466 B(  4-S ,  8-S ) :   0.1076
B(  5-O ,  6-C ) :   0.9084 B(  6-C ,  7-C ) :   1.1668 B(  6-C , 24-H ) :   0.9356
B(  6-C , 25-H ) :   0.9199 B(  7-C , 26-H ) :   0.9462 B(  7-C , 27-H ) :   0.9383
B(  7-C , 28-H ) :   0.9333 B(  8-S ,  9-C ) :   1.0002 B(  9-C , 10-S ) :   1.0004
B(  9-C , 29-H ) :   0.8864 B(  9-C , 30-H ) :   0.8863 B( 10-S , 11-P ) :   0.9467
B( 10-S , 12-S ) :   0.1075 B( 11-P , 12-S ) :   1.6125 B( 11-P , 13-O ) :   1.0822
B( 11-P , 16-O ) :   1.1208 B( 13-O , 14-C ) :   0.8999 B( 14-C , 15-C ) :   1.1629
B( 14-C , 31-H ) :   0.9269 B( 14-C , 32-H ) :   0.9004 B( 15-C , 33-H ) :   0.9407
B( 15-C , 34-H ) :   0.9417 B( 15-C , 35-H ) :   0.9460 B( 16-O , 17-C ) :   0.9086
B( 17-C , 18-C ) :   1.1665 B( 17-C , 36-H ) :   0.9357 B( 17-C , 37-H ) :   0.9198
B( 18-C , 38-H ) :   0.9334 B( 18-C , 39-H ) :   0.9462 B( 18-C , 40-H ) :   0.9384

Dispersion correction           -0.066965458
FINAL SINGLE POINT ENERGY     -2929.527343317886

DIPOLE MOMENT
-------------

Method             : SCF
Type of density    : Electron Density
Multiplicity       :   1
Irrep              :   0
Energy             : -2929.6458999880965166 Eh
Relativity type    :
Basis              : AO
                                X                 Y                 Z
Electronic contribution:      2.296787582       1.225944163     -22.779520162
Nuclear contribution   :     -2.492292354      -1.328285570      24.751605844
                        -----------------------------------------
Total Dipole Moment    :     -0.195504772      -0.102341407       1.972085682
                        -----------------------------------------
Magnitude (a.u.)       :      1.984393564
Magnitude (Debye)      :      5.043927592

Rotational constants in cm-1:             0.013549             0.004947             0.004835
Rotational constants in MHz :           406.187758           148.296531           144.961073

                             ****ORCA TERMINATED NORMALLY****
TOTAL RUN TIME: 0 days 0 hours 0 minutes 21 seconds 741 msec
