                         Program Version 6.0.0  -   RELEASE  -
|  1> ! pbe def2-sv(p) def2/J RI DEFGRID1 loosescf d4 GCP(DFT/SV(P)) printgap
|  2> %output
|  3>     printlevel normal
|  4> end
|  5> * xyz 0 1
|  6> C 2.6918622286 1.0394510627 -2.9334005984
|  7> C 2.7657240623 -0.3255326643 -2.2804910696
|  8> O 3.1811987224 -0.2280121402 -0.9069376686
|  9> P 2.2897517428 0.1334749076 0.3540834916
| 10> S 1.4460152475 1.8947295178 0.4994007688
| 11> O 3.3550175961 0.0097879274 1.509105291
| 12> C 4.1734615223 -1.1660082299 1.7402156875
| 13> C 3.7085679582 -1.8878600712 2.9895463653
| 14> S 1.0058015144 -1.5548431015 0.5572892575
| 15> C -0.2268200147 -0.7874529264 1.6591869526
| 16> S -1.9352897456 -1.0339553266 1.1136314405
| 17> P -2.0118377605 0.3259028533 -0.5228974427
| 18> S -0.7226940463 0.1290980501 -1.9794589554
| 19> O -1.9264487757 1.7649732672 0.1124846172
| 20> C -2.5580767302 2.2298297233 1.3278282417
| 21> C -4.0692295923 2.1863710927 1.2561001745
| 22> O -3.5248797018 0.2058281773 -0.9945784237
| 23> C -3.9474113024 -0.7393600504 -1.9925443081
| 24> C -3.8092011591 -2.1716954452 -1.51871155
| 25> H 1.8966304246 1.6287289355 -2.4803323099
| 26> H 3.6340165809 1.5677986743 -2.8132662564
| 27> H 2.4722265143 0.9179247772 -3.9889544366
| 28> H 3.5370366735 -0.9452710785 -2.7417706427
| 29> H 1.7990211865 -0.8320299997 -2.3372822414
| 30> H 4.1281866113 -1.8144349814 0.8632083694
| 31> H 5.1866756774 -0.7790505163 1.8580326417
| 32> H 2.7219221904 -2.3179236598 2.8368599641
| 33> H 4.4094873061 -2.6842612151 3.2184833324
| 34> H 3.6688388443 -1.1941444224 3.8246971269
| 35> H -0.0026327614 0.2819448219 1.7138297504
| 36> H -0.1632152869 -1.2600935701 2.6357850891
| 37> H -2.1928191985 1.6280062693 2.1643778646
| 38> H -2.1823355007 3.2501646134 1.4226277509
| 39> H -4.4162670627 1.156668947 1.2153396487
| 40> H -4.4766578964 2.6650308522 2.1413110955
| 41> H -4.4180462517 2.7110969101 0.3706361594
| 42> H -4.9887383843 -0.4724177142 -2.1775717312
| 43> H -3.3541040878 -0.5752509638 -2.8977047338
| 44> H -4.2515300762 -2.8365783206 -2.2535413709
| 45> H -2.7558859204 -2.4249266471 -1.4044818666
| 46> H -4.3081860577 -2.305310478 -0.5621693957
| 47> *
| 48>
| 49>                          ****END OF INPUT****

CARTESIAN COORDINATES (ANGSTROEM)
---------------------------------
  C      2.691862    1.039451   -2.933401
  C      2.765724   -0.325533   -2.280491
  O      3.181199   -0.228012   -0.906938
  P      2.289752    0.133475    0.354083
  S      1.446015    1.894730    0.499401
  O      3.355018    0.009788    1.509105
  C      4.173462   -1.166008    1.740216
  C      3.708568   -1.887860    2.989546
  S      1.005802   -1.554843    0.557289
  C     -0.226820   -0.787453    1.659187
  S     -1.935290   -1.033955    1.113631
  P     -2.011838    0.325903   -0.522897
  S     -0.722694    0.129098   -1.979459
  O     -1.926449    1.764973    0.112485
  C     -2.558077    2.229830    1.327828
  C     -4.069230    2.186371    1.256100
  O     -3.524880    0.205828   -0.994578
  C     -3.947411   -0.739360   -1.992544
  C     -3.809201   -2.171695   -1.518712
  H      1.896630    1.628729   -2.480332
  H      3.634017    1.567799   -2.813266
  H      2.472227    0.917925   -3.988954
  H      3.537037   -0.945271   -2.741771
  H      1.799021   -0.832030   -2.337282
  H      4.128187   -1.814435    0.863208
  H      5.186676   -0.779051    1.858033
  H      2.721922   -2.317924    2.836860
  H      4.409487   -2.684261    3.218483
  H      3.668839   -1.194144    3.824697
  H     -0.002633    0.281945    1.713830
  H     -0.163215   -1.260094    2.635785
  H     -2.192819    1.628006    2.164378
  H     -2.182336    3.250165    1.422628
  H     -4.416267    1.156669    1.215340
  H     -4.476658    2.665031    2.141311
  H     -4.418046    2.711097    0.370636
  H     -4.988738   -0.472418   -2.177572
  H     -3.354104   -0.575251   -2.897705
  H     -4.251530   -2.836578   -2.253541
  H     -2.755886   -2.424927   -1.404482
  H     -4.308186   -2.305310   -0.562169

 Total Charge           Charge          ....    0
 Multiplicity           Mult            ....    1
 Number of Electrons    NEL             ....  202
 Basis Dimension        Dim             ....  334

ORBITAL ENERGIES
----------------

  NO   OCC          E(Eh)            E(eV)
   0   2.0000     -88.045759     -2395.8469
   1   2.0000     -88.038049     -2395.6371
   2   2.0000     -87.978422     -2394.0146
   3   2.0000     -87.977175     -2393.9806
   4   2.0000     -76.424338     -2079.6120
   5   2.0000     -76.420395     -2079.5047
   6   2.0000     -18.791373      -511.3393
   7   2.0000     -18.790018      -511.3024
   8   2.0000     -18.787720      -511.2399
   9   2.0000     -18.781202      -511.0625
  10   2.0000      -9.956082      -270.9188
  11   2.0000      -9.953758      -270.8555
  12   2.0000      -9.952077      -270.8098
  13   2.0000      -9.951666      -270.7986
  14   2.0000      -9.946973      -270.6709
  15   2.0000      -9.884899      -268.9818
  16   2.0000      -9.884705      -268.9765
  17   2.0000      -9.884084      -268.9596
  18   2.0000      -9.870772      -268.5973
  19   2.0000      -7.690519      -209.2696
  20   2.0000      -7.682861      -209.0613
  21   2.0000      -7.623498      -207.4459
  22   2.0000      -7.622374      -207.4153
  23   2.0000      -6.421498      -174.7379
  24   2.0000      -6.417758      -174.6361
  25   2.0000      -5.718185      -155.5997
  26   2.0000      -5.714979      -155.5125
  27   2.0000      -5.710663      -155.3950
  28   2.0000      -5.707789      -155.3168
  29   2.0000      -5.707499      -155.3090
  30   2.0000      -5.699820      -155.1000
  31   2.0000      -5.652428      -153.8104
  32   2.0000      -5.651504      -153.7852
  33   2.0000      -5.643935      -153.5793
  34   2.0000      -5.643755      -153.5744
  35   2.0000      -5.643206      -153.5594
  36   2.0000      -5.642050      -153.5280
  37   2.0000      -4.644414      -126.3809
  38   2.0000      -4.643392      -126.3531
  39   2.0000      -4.641607      -126.3045
  40   2.0000      -4.640525      -126.2751
  41   2.0000      -4.639633      -126.2508
  42   2.0000      -4.637971      -126.2056
  43   2.0000      -0.984657       -26.7939
  44   2.0000      -0.982512       -26.7355
  45   2.0000      -0.944030       -25.6884
  46   2.0000      -0.937591       -25.5131
  47   2.0000      -0.760435       -20.6925
  48   2.0000      -0.718302       -19.5460
  49   2.0000      -0.709752       -19.3133
  50   2.0000      -0.689355       -18.7583
  51   2.0000      -0.684001       -18.6126
  52   2.0000      -0.674628       -18.3576
  53   2.0000      -0.648439       -17.6449
  54   2.0000      -0.632137       -17.2013
  55   2.0000      -0.594477       -16.1765
  56   2.0000      -0.582484       -15.8502
  57   2.0000      -0.575697       -15.6655
  58   2.0000      -0.570848       -15.5336
  59   2.0000      -0.561015       -15.2660
  60   2.0000      -0.500897       -13.6301
  61   2.0000      -0.493966       -13.4415
  62   2.0000      -0.472728       -12.8636
  63   2.0000      -0.471065       -12.8183
  64   2.0000      -0.450195       -12.2504
  65   2.0000      -0.442751       -12.0479
  66   2.0000      -0.441254       -12.0071
  67   2.0000      -0.435483       -11.8501
  68   2.0000      -0.429837       -11.6965
  69   2.0000      -0.419873       -11.4253
  70   2.0000      -0.409788       -11.1509
  71   2.0000      -0.396054       -10.7772
  72   2.0000      -0.392837       -10.6896
  73   2.0000      -0.381674       -10.3859
  74   2.0000      -0.380029       -10.3411
  75   2.0000      -0.366515        -9.9734
  76   2.0000      -0.358786        -9.7631
  77   2.0000      -0.355707        -9.6793
  78   2.0000      -0.352193        -9.5837
  79   2.0000      -0.349738        -9.5169
  80   2.0000      -0.347292        -9.4503
  81   2.0000      -0.345144        -9.3919
  82   2.0000      -0.339325        -9.2335
  83   2.0000      -0.333737        -9.0815
  84   2.0000      -0.325026        -8.8444
  85   2.0000      -0.314994        -8.5714
  86   2.0000      -0.309974        -8.4348
  87   2.0000      -0.291766        -7.9394
  88   2.0000      -0.291017        -7.9190
  89   2.0000      -0.290022        -7.8919
  90   2.0000      -0.285844        -7.7782
  91   2.0000      -0.270771        -7.3680
  92   2.0000      -0.269806        -7.3418
  93   2.0000      -0.260282        -7.0826
  94   2.0000      -0.257316        -7.0019
  95   2.0000      -0.242009        -6.5854
  96   2.0000      -0.222278        -6.0485
  97   2.0000      -0.202107        -5.4996
  98   2.0000      -0.196992        -5.3604
  99   2.0000      -0.187509        -5.1024
 100   2.0000      -0.181331        -4.9343
 101   0.0000      -0.040038        -1.0895
 102   0.0000      -0.029245        -0.7958
 103   0.0000      -0.012848        -0.3496
 104   0.0000       0.004063         0.1106
 105   0.0000       0.025135         0.6839

MULLIKEN ATOMIC CHARGES
-----------------------
   0 C :   -0.307583
   1 C :   -0.016117
   2 O :   -0.380115
   3 P :    0.604258
   4 S :   -0.294379
   5 O :   -0.359092
   6 C :   -0.005891
   7 C :   -0.290392
   8 S :   -0.100179
   9 C :   -0.349927
  10 S :   -0.115699
  11 P :    0.619180
  12 S :   -0.316529
  13 O :   -0.348951
  14 C :   -0.005957
  15 C :   -0.300954
  16 O :   -0.376428
  17 C :   -0.000067
  18 C :   -0.324019
  19 H :    0.147650
  20 H :    0.111116
  21 H :    0.106287
  22 H :    0.099014
  23 H :    0.128496
  24 H :    0.101438
  25 H :    0.109537
  26 H :    0.115354
  27 H :    0.107714
  28 H :    0.118035
  29 H :    0.191752
  30 H :    0.180689
  31 H :    0.106256
  32 H :    0.114582
  33 H :    0.117613
  34 H :    0.111000
  35 H :    0.121396
  36 H :    0.104252
  37 H :    0.113790
  38 H :    0.114285
  39 H :    0.131744
  40 H :    0.116840
Sum of atomic charges:    0.0000000

LOEWDIN ATOMIC CHARGES
----------------------
   0 C :   -0.365582
   1 C :   -0.115346
   2 O :   -0.240037
   3 P :    0.566447
   4 S :   -0.293334
   5 O :   -0.242896
   6 C :   -0.113586
   7 C :   -0.361123
   8 S :    0.063746
   9 C :   -0.483400
  10 S :    0.072828
  11 P :    0.572835
  12 S :   -0.303677
  13 O :   -0.226296
  14 C :   -0.112098
  15 C :   -0.364892
  16 O :   -0.242953
  17 C :   -0.119049
  18 C :   -0.372675
  19 H :    0.128139
  20 H :    0.124612
  21 H :    0.129073
  22 H :    0.115418
  23 H :    0.107677
  24 H :    0.107350
  25 H :    0.121161
  26 H :    0.117858
  27 H :    0.128692
  28 H :    0.127913
  29 H :    0.119433
  30 H :    0.134755
  31 H :    0.106555
  32 H :    0.124647
  33 H :    0.120476
  34 H :    0.130046
  35 H :    0.129242
  36 H :    0.118278
  37 H :    0.112362
  38 H :    0.131894
  39 H :    0.122999
  40 H :    0.122510

  Mayer bond orders larger than 0.100000
B(  0-C ,  1-C ) :   1.1729 B(  0-C , 19-H ) :   0.9291 B(  0-C , 20-H ) :   0.9463
B(  0-C , 21-H ) :   0.9386 B(  1-C ,  2-O ) :   0.8993 B(  1-C , 22-H ) :   0.9345
B(  1-C , 23-H ) :   0.9125 B(  2-O ,  3-P ) :   1.1096 B(  3-P ,  4-S ) :   1.6375
B(  3-P ,  5-O ) :   1.1249 B(  3-P ,  8-S ) :   0.9392 B(  4-S ,  8-S ) :   0.1156
B(  4-S , 29-H ) :   0.1227 B(  5-O ,  6-C ) :   0.8955 B(  6-C ,  7-C ) :   1.1632
B(  6-C , 24-H ) :   0.9180 B(  6-C , 25-H ) :   0.9353 B(  7-C , 26-H ) :   0.9376
B(  7-C , 27-H ) :   0.9404 B(  7-C , 28-H ) :   0.9467 B(  8-S ,  9-C ) :   0.9991
B(  9-C , 10-S ) :   0.9930 B(  9-C , 29-H ) :   0.8446 B(  9-C , 30-H ) :   0.9099
B( 10-S , 11-P ) :   0.9403 B( 10-S , 12-S ) :   0.1133 B( 11-P , 12-S ) :   1.6422
B( 11-P , 13-O ) :   1.1464 B( 11-P , 16-O ) :   1.0879 B( 13-O , 14-C ) :   0.9012
B( 14-C , 15-C ) :   1.1695 B( 14-C , 31-H ) :   0.9158 B( 14-C , 32-H ) :   0.9341
B( 15-C , 33-H ) :   0.9381 B( 15-C , 34-H ) :   0.9369 B( 15-C , 35-H ) :   0.9455
B( 16-O , 17-C ) :   0.9044 B( 17-C , 18-C ) :   1.1649 B( 17-C , 36-H ) :   0.9334
B( 17-C , 37-H ) :   0.9143 B( 18-C , 38-H ) :   0.9375 B( 18-C , 39-H ) :   0.9327
B( 18-C , 40-H ) :   0.9439

Dispersion correction           -0.066830357
FINAL SINGLE POINT ENERGY     -2929.512088796817

DIPOLE MOMENT
-------------

Method             : SCF
Type of density    : Electron Density
Multiplicity       :   1
Irrep              :   0
Energy             : -2929.6301156422268832 Eh
Relativity type    :
Basis              : AO
                                X                 Y                 Z
Electronic contribution:      3.570920982       3.692937773      -0.220407054
Nuclear contribution   :     -4.031860281      -4.715942743       0.711680554
                        -----------------------------------------
Total Dipole Moment    :     -0.460939299      -1.023004971       0.491273499
                        -----------------------------------------
Magnitude (a.u.)       :      1.224889325
Magnitude (Debye)      :      3.113421236

Rotational constants in cm-1:             0.012049             0.005178             0.004878
Rotational constants in MHz :           361.222164           155.227378           146.234763

                             ****ORCA TERMINATED NORMALLY****
TOTAL RUN TIME: 0 days 0 hours 0 minutes 21 seconds 58 msec
