                         Program Version 6.0.0  -   RELEASE  -
|  1> ! pbe def2-sv(p) def2/J RI DEFGRID1 loosescf d4 GCP(DFT/SV(P)) printgap
|  2> %output
|  3>     printlevel normal
|  4> end
|  5> * xyz 0 1
|  6> C 4.4280693262 -1.8340125295 -0.7430861309
|  7> C 4.6241733948 -0.3530965139 -0.4893432574
|  8> O 3.5734376172 0.2068243391 0.3156217057
|  9> P 2.0737728152 0.3369053061 -0.2002612718
| 10> S 1.9085807884 0.808729288 -2.0986485517
| 11> O 1.4854230951 1.3436459245 0.875499243
| 12> C 1.5032909019 2.771480306 0.6842484897
| 13> C 2.9106078963 3.3241853523 0.6172415671
| 14> S 1.1796685598 -1.4586616513 0.4540632394
| 15> C -0.0156854357 -1.7558270004 -0.902185694
| 16> S -1.6755778542 -2.1374559889 -0.2998274137
| 17> P -2.3484910334 -0.1914384591 0.2399177043
| 18> S -1.3980156311 1.3079189964 -0.6074201923
| 19> O -2.4113295609 -0.1751437438 1.8217245006
| 20> C -1.2397484558 -0.1517593033 2.6582978353
| 21> C -1.672600719 0.2874492246 4.0424487725
| 22> O -3.9105949308 -0.2264629589 0.0283521539
| 23> C -4.5224774964 0.1495502586 -1.2193493077
| 24> C -4.2057259029 -0.8288560214 -2.3325692911
| 25> H 4.2732186041 -2.3617439966 0.1945919704
| 26> H 3.5598468332 -1.9881227179 -1.3825629874
| 27> H 5.3062674701 -2.2314752416 -1.2416834754
| 28> H 4.6618392878 0.1947327866 -1.4364810941
| 29> H 5.5279873578 -0.1592383324 0.089735698
| 30> H 0.9447139523 3.0008627538 -0.2297604254
| 31> H 0.9567254429 3.1560932125 1.5468410792
| 32> H 2.8675841402 4.4082799397 0.5821407519
| 33> H 3.478338979 3.0090944028 1.4889582876
| 34> H 3.4092733405 2.9612930667 -0.2808432118
| 35> H 0.3060946828 -2.6344852192 -1.4544994846
| 36> H -0.0377158607 -0.8700443204 -1.5423200314
| 37> H -0.8064180818 -1.1568197232 2.6778071523
| 38> H -0.5057357639 0.5410271043 2.2315354399
| 39> H -2.4190561466 -0.4001124655 4.4288857695
| 40> H -0.8096842131 0.2927910908 4.7001841661
| 41> H -2.1018608589 1.28452267 4.0004831625
| 42> H -5.5886138767 0.1659569468 -0.9891040927
| 43> H -4.1846795174 1.1569326671 -1.4837346196
| 44> H -3.1501921048 -0.7675611979 -2.5949473616
| 45> H -4.4317670553 -1.8444912099 -2.0180317889
| 46> H -4.7984815494 -0.5804516821 -3.2072176524
| 47> *
| 48>
| 49>                          ****END OF INPUT****

CARTESIAN COORDINATES (ANGSTROEM)
---------------------------------
  C      4.428069   -1.834013   -0.743086
  C      4.624173   -0.353097   -0.489343
  O      3.573438    0.206824    0.315622
  P      2.073773    0.336905   -0.200261
  S      1.908581    0.808729   -2.098649
  O      1.485423    1.343646    0.875499
  C      1.503291    2.771480    0.684248
  C      2.910608    3.324185    0.617242
  S      1.179669   -1.458662    0.454063
  C     -0.015685   -1.755827   -0.902186
  S     -1.675578   -2.137456   -0.299827
  P     -2.348491   -0.191438    0.239918
  S     -1.398016    1.307919   -0.607420
  O     -2.411330   -0.175144    1.821725
  C     -1.239748   -0.151759    2.658298
  C     -1.672601    0.287449    4.042449
  O     -3.910595   -0.226463    0.028352
  C     -4.522477    0.149550   -1.219349
  C     -4.205726   -0.828856   -2.332569
  H      4.273219   -2.361744    0.194592
  H      3.559847   -1.988123   -1.382563
  H      5.306267   -2.231475   -1.241683
  H      4.661839    0.194733   -1.436481
  H      5.527987   -0.159238    0.089736
  H      0.944714    3.000863   -0.229760
  H      0.956725    3.156093    1.546841
  H      2.867584    4.408280    0.582141
  H      3.478339    3.009094    1.488958
  H      3.409273    2.961293   -0.280843
  H      0.306095   -2.634485   -1.454499
  H     -0.037716   -0.870044   -1.542320
  H     -0.806418   -1.156820    2.677807
  H     -0.505736    0.541027    2.231535
  H     -2.419056   -0.400112    4.428886
  H     -0.809684    0.292791    4.700184
  H     -2.101861    1.284523    4.000483
  H     -5.588614    0.165957   -0.989104
  H     -4.184680    1.156933   -1.483735
  H     -3.150192   -0.767561   -2.594947
  H     -4.431767   -1.844491   -2.018032
  H     -4.798482   -0.580452   -3.207218

 Total Charge           Charge          ....    0
 Multiplicity           Mult            ....    1
 Number of Electrons    NEL             ....  202
 Basis Dimension        Dim             ....  334

ORBITAL ENERGIES
----------------

  NO   OCC          E(Eh)            E(eV)
   0   2.0000     -88.044826     -2395.8215
   1   2.0000     -88.042552     -2395.7596
   2   2.0000     -87.988688     -2394.2939
   3   2.0000     -87.985709     -2394.2129
   4   2.0000     -76.426424     -2079.6687
   5   2.0000     -76.424491     -2079.6161
   6   2.0000     -18.791373      -511.3393
   7   2.0000     -18.790484      -511.3151
   8   2.0000     -18.788079      -511.2496
   9   2.0000     -18.784365      -511.1486
  10   2.0000      -9.955647      -270.9069
  11   2.0000      -9.951907      -270.8051
  12   2.0000      -9.951882      -270.8045
  13   2.0000      -9.947312      -270.6801
  14   2.0000      -9.943420      -270.5742
  15   2.0000      -9.884098      -268.9600
  16   2.0000      -9.883026      -268.9308
  17   2.0000      -9.881621      -268.8926
  18   2.0000      -9.881176      -268.8805
  19   2.0000      -7.689929      -209.2536
  20   2.0000      -7.687515      -209.1879
  21   2.0000      -7.633566      -207.7199
  22   2.0000      -7.630306      -207.6312
  23   2.0000      -6.423797      -174.8004
  24   2.0000      -6.421885      -174.7484
  25   2.0000      -5.717890      -155.5917
  26   2.0000      -5.715378      -155.5233
  27   2.0000      -5.714178      -155.4907
  28   2.0000      -5.712144      -155.4353
  29   2.0000      -5.707090      -155.2978
  30   2.0000      -5.704337      -155.2229
  31   2.0000      -5.662424      -154.0824
  32   2.0000      -5.659116      -153.9924
  33   2.0000      -5.654376      -153.8634
  34   2.0000      -5.653615      -153.8427
  35   2.0000      -5.650870      -153.7680
  36   2.0000      -5.650687      -153.7630
  37   2.0000      -4.646036      -126.4251
  38   2.0000      -4.645478      -126.4099
  39   2.0000      -4.644675      -126.3880
  40   2.0000      -4.644155      -126.3739
  41   2.0000      -4.643887      -126.3666
  42   2.0000      -4.642341      -126.3245
  43   2.0000      -0.986943       -26.8561
  44   2.0000      -0.985516       -26.8173
  45   2.0000      -0.943464       -25.6730
  46   2.0000      -0.941526       -25.6202
  47   2.0000      -0.761200       -20.7133
  48   2.0000      -0.720451       -19.6045
  49   2.0000      -0.708998       -19.2928
  50   2.0000      -0.686159       -18.6713
  51   2.0000      -0.682018       -18.5587
  52   2.0000      -0.675170       -18.3723
  53   2.0000      -0.651206       -17.7202
  54   2.0000      -0.634983       -17.2788
  55   2.0000      -0.603826       -16.4309
  56   2.0000      -0.594132       -16.1672
  57   2.0000      -0.570928       -15.5357
  58   2.0000      -0.563800       -15.3418
  59   2.0000      -0.556989       -15.1564
  60   2.0000      -0.500289       -13.6136
  61   2.0000      -0.489766       -13.3272
  62   2.0000      -0.470665       -12.8074
  63   2.0000      -0.467516       -12.7217
  64   2.0000      -0.451249       -12.2791
  65   2.0000      -0.446627       -12.1533
  66   2.0000      -0.439192       -11.9510
  67   2.0000      -0.435901       -11.8615
  68   2.0000      -0.425947       -11.5906
  69   2.0000      -0.418439       -11.3863
  70   2.0000      -0.412647       -11.2287
  71   2.0000      -0.395410       -10.7597
  72   2.0000      -0.391037       -10.6407
  73   2.0000      -0.386035       -10.5045
  74   2.0000      -0.381372       -10.3777
  75   2.0000      -0.375428       -10.2159
  76   2.0000      -0.371433       -10.1072
  77   2.0000      -0.353361        -9.6155
  78   2.0000      -0.351479        -9.5642
  79   2.0000      -0.347490        -9.4557
  80   2.0000      -0.346736        -9.4352
  81   2.0000      -0.341379        -9.2894
  82   2.0000      -0.338881        -9.2214
  83   2.0000      -0.336842        -9.1659
  84   2.0000      -0.334043        -9.0898
  85   2.0000      -0.313046        -8.5184
  86   2.0000      -0.309595        -8.4245
  87   2.0000      -0.299268        -8.1435
  88   2.0000      -0.293965        -7.9992
  89   2.0000      -0.289866        -7.8877
  90   2.0000      -0.281479        -7.6594
  91   2.0000      -0.270619        -7.3639
  92   2.0000      -0.266754        -7.2587
  93   2.0000      -0.264940        -7.2094
  94   2.0000      -0.255126        -6.9423
  95   2.0000      -0.236476        -6.4348
  96   2.0000      -0.219112        -5.9623
  97   2.0000      -0.217624        -5.9218
  98   2.0000      -0.205302        -5.5866
  99   2.0000      -0.200774        -5.4633
 100   2.0000      -0.191776        -5.2185
 101   0.0000      -0.042529        -1.1573
 102   0.0000      -0.035434        -0.9642
 103   0.0000      -0.015594        -0.4243
 104   0.0000       0.013706         0.3730
 105   0.0000       0.016974         0.4619

MULLIKEN ATOMIC CHARGES
-----------------------
   0 C :   -0.309680
   1 C :   -0.003114
   2 O :   -0.372909
   3 P :    0.617836
   4 S :   -0.316652
   5 O :   -0.360802
   6 C :   -0.002726
   7 C :   -0.304074
   8 S :   -0.099985
   9 C :   -0.352015
  10 S :   -0.105984
  11 P :    0.596553
  12 S :   -0.325036
  13 O :   -0.357799
  14 C :   -0.044864
  15 C :   -0.268882
  16 O :   -0.356458
  17 C :   -0.000540
  18 C :   -0.317228
  19 H :    0.118657
  20 H :    0.119172
  21 H :    0.112072
  22 H :    0.109449
  23 H :    0.104478
  24 H :    0.121810
  25 H :    0.102887
  26 H :    0.111591
  27 H :    0.114928
  28 H :    0.122291
  29 H :    0.182085
  30 H :    0.212113
  31 H :    0.105253
  32 H :    0.129419
  33 H :    0.114167
  34 H :    0.108894
  35 H :    0.114843
  36 H :    0.107520
  37 H :    0.113384
  38 H :    0.127404
  39 H :    0.118679
  40 H :    0.113262
Sum of atomic charges:    0.0000000

LOEWDIN ATOMIC CHARGES
----------------------
   0 C :   -0.368956
   1 C :   -0.119635
   2 O :   -0.245322
   3 P :    0.575144
   4 S :   -0.307461
   5 O :   -0.236459
   6 C :   -0.117056
   7 C :   -0.366631
   8 S :    0.086889
   9 C :   -0.478462
  10 S :    0.076024
  11 P :    0.565561
  12 S :   -0.301882
  13 O :   -0.237963
  14 C :   -0.127270
  15 C :   -0.349828
  16 O :   -0.232677
  17 C :   -0.116224
  18 C :   -0.369580
  19 H :    0.124281
  20 H :    0.119026
  21 H :    0.130193
  22 H :    0.109476
  23 H :    0.118363
  24 H :    0.110610
  25 H :    0.117614
  26 H :    0.130475
  27 H :    0.125420
  28 H :    0.121368
  29 H :    0.135329
  30 H :    0.124821
  31 H :    0.103878
  32 H :    0.110021
  33 H :    0.126016
  34 H :    0.129342
  35 H :    0.126484
  36 H :    0.120086
  37 H :    0.112071
  38 H :    0.121352
  39 H :    0.124526
  40 H :    0.131033

  Mayer bond orders larger than 0.100000
B(  0-C ,  1-C ) :   1.1669 B(  0-C , 19-H ) :   0.9434 B(  0-C , 20-H ) :   0.9375
B(  0-C , 21-H ) :   0.9379 B(  1-C ,  2-O ) :   0.9130 B(  1-C , 22-H ) :   0.9154
B(  1-C , 23-H ) :   0.9340 B(  2-O ,  3-P ) :   1.0994 B(  3-P ,  4-S ) :   1.5929
B(  3-P ,  5-O ) :   1.1243 B(  3-P ,  8-S ) :   0.9626 B(  4-S ,  8-S ) :   0.1161
B(  5-O ,  6-C ) :   0.9007 B(  6-C ,  7-C ) :   1.1629 B(  6-C , 24-H ) :   0.9168
B(  6-C , 25-H ) :   0.9349 B(  7-C , 26-H ) :   0.9384 B(  7-C , 27-H ) :   0.9444
B(  7-C , 28-H ) :   0.9352 B(  8-S ,  9-C ) :   0.9859 B(  9-C , 10-S ) :   1.0138
B(  9-C , 29-H ) :   0.9082 B(  9-C , 30-H ) :   0.8481 B( 10-S , 11-P ) :   0.9263
B( 10-S , 12-S ) :   0.1186 B( 11-P , 12-S ) :   1.6216 B( 11-P , 13-O ) :   1.1322
B( 11-P , 16-O ) :   1.1366 B( 13-O , 14-C ) :   0.9053 B( 14-C , 15-C ) :   1.1564
B( 14-C , 31-H ) :   0.9217 B( 14-C , 32-H ) :   0.9051 B( 15-C , 33-H ) :   0.9499
B( 15-C , 34-H ) :   0.9428 B( 15-C , 35-H ) :   0.9508 B( 16-O , 17-C ) :   0.9087
B( 17-C , 18-C ) :   1.1649 B( 17-C , 36-H ) :   0.9344 B( 17-C , 37-H ) :   0.9169
B( 18-C , 38-H ) :   0.9368 B( 18-C , 39-H ) :   0.9440 B( 18-C , 40-H ) :   0.9376

Dispersion correction           -0.066580058
FINAL SINGLE POINT ENERGY     -2929.523461346896

DIPOLE MOMENT
-------------

Method             : SCF
Type of density    : Electron Density
Multiplicity       :   1
Irrep              :   0
Energy             : -2929.6416819017490525 Eh
Relativity type    :
Basis              : AO
                                X                 Y                 Z
Electronic contribution:     -5.904364060      -5.010535232      -3.556379777
Nuclear contribution   :      6.284749718       4.786819486       3.911195581
                        -----------------------------------------
Total Dipole Moment    :      0.380385658      -0.223715747       0.354815805
                        -----------------------------------------
Magnitude (a.u.)       :      0.566247507
Magnitude (Debye)      :      1.439286780

Rotational constants in cm-1:             0.011797             0.005188             0.004921
Rotational constants in MHz :           353.657982           155.526587           147.540023

                             ****ORCA TERMINATED NORMALLY****
TOTAL RUN TIME: 0 days 0 hours 0 minutes 21 seconds 197 msec
