                         Program Version 6.0.0  -   RELEASE  -
|  1> ! pbe def2-sv(p) def2/J RI DEFGRID1 loosescf d4 GCP(DFT/SV(P)) printgap
|  2> %output
|  3>     printlevel normal
|  4> end
|  5> * xyz 0 1
|  6> C 3.1467162599 1.9075719897 2.1848427705
|  7> C 2.3168342593 1.9236736418 0.9188449172
|  8> O 1.4755149538 0.7554360963 0.8019696242
|  9> P 2.0026036576 -0.7357920422 0.7485857069
| 10> S 2.3804023093 -1.6416716464 2.4434322515
| 11> O 3.2409676314 -0.6093821368 -0.2507630617
| 12> C 4.2519227212 -1.6283253109 -0.324241605
| 13> C 3.7526113884 -2.8676943216 -1.0388915616
| 14> S 0.4267597406 -1.6286097919 -0.3424424341
| 15> C 0.4520251081 -0.6236758908 -1.8561678191
| 16> S -0.2045804627 1.0633093325 -1.6614185602
| 17> P -1.9698908795 0.5703716438 -0.6309196914
| 18> S -2.9460606438 -1.0196053137 -1.2464028423
| 19> O -2.7964682164 1.924691718 -0.6926475505
| 20> C -3.5310379119 2.3084671224 -1.873914748
| 21> C -4.5474135443 3.3577967568 -1.4715236692
| 22> O -1.4809413649 0.583395188 0.8759367736
| 23> C -2.1264338029 -0.1977286807 1.8977856345
| 24> C -3.4803541249 0.3760786483 2.2564683712
| 25> H 3.7125689975 2.8310807315 2.2572763846
| 26> H 2.5055651218 1.8079711482 3.057647057
| 27> H 3.837483221 1.0652120007 2.1699461643
| 28> H 2.9516888791 1.9788969718 0.0319888655
| 29> H 1.6024555989 2.7488856789 0.9133670975
| 30> H 5.0717680215 -1.1518158711 -0.8634240749
| 31> H 4.5670828454 -1.8769469909 0.6942583802
| 32> H 4.5621688708 -3.5861836276 -1.1169902975
| 33> H 2.9368888219 -3.3175839557 -0.4735502908
| 34> H 3.3959785169 -2.6208678419 -2.0354656199
| 35> H -0.1678315704 -1.1683050516 -2.5665251774
| 36> H 1.4717132593 -0.5169304853 -2.217848916
| 37> H -2.8191634717 2.7014077583 -2.6046831736
| 38> H -4.0144660366 1.4168700262 -2.2874112861
| 39> H -4.0427461086 4.2092429382 -1.0244284024
| 40> H -5.0906844974 3.6824686693 -2.3528022098
| 41> H -5.2478345902 2.9455531794 -0.750724739
| 42> H -2.2203502202 -1.2299876463 1.5420306294
| 43> H -1.4292222909 -0.1661300936 2.7373541924
| 44> H -3.3810424332 1.4198533002 2.5422024319
| 45> H -4.1450637618 0.3061850782 1.3959535523
| 46> H -3.9053861933 -0.1890483884 3.0799345142
| 47> *
| 48>
| 49>                          ****END OF INPUT****

CARTESIAN COORDINATES (ANGSTROEM)
---------------------------------
  C      3.146716    1.907572    2.184843
  C      2.316834    1.923674    0.918845
  O      1.475515    0.755436    0.801970
  P      2.002604   -0.735792    0.748586
  S      2.380402   -1.641672    2.443432
  O      3.240968   -0.609382   -0.250763
  C      4.251923   -1.628325   -0.324242
  C      3.752611   -2.867694   -1.038892
  S      0.426760   -1.628610   -0.342442
  C      0.452025   -0.623676   -1.856168
  S     -0.204580    1.063309   -1.661419
  P     -1.969891    0.570372   -0.630920
  S     -2.946061   -1.019605   -1.246403
  O     -2.796468    1.924692   -0.692648
  C     -3.531038    2.308467   -1.873915
  C     -4.547414    3.357797   -1.471524
  O     -1.480941    0.583395    0.875937
  C     -2.126434   -0.197729    1.897786
  C     -3.480354    0.376079    2.256468
  H      3.712569    2.831081    2.257276
  H      2.505565    1.807971    3.057647
  H      3.837483    1.065212    2.169946
  H      2.951689    1.978897    0.031989
  H      1.602456    2.748886    0.913367
  H      5.071768   -1.151816   -0.863424
  H      4.567083   -1.876947    0.694258
  H      4.562169   -3.586184   -1.116990
  H      2.936889   -3.317584   -0.473550
  H      3.395979   -2.620868   -2.035466
  H     -0.167832   -1.168305   -2.566525
  H      1.471713   -0.516930   -2.217849
  H     -2.819163    2.701408   -2.604683
  H     -4.014466    1.416870   -2.287411
  H     -4.042746    4.209243   -1.024428
  H     -5.090684    3.682469   -2.352802
  H     -5.247835    2.945553   -0.750725
  H     -2.220350   -1.229988    1.542031
  H     -1.429222   -0.166130    2.737354
  H     -3.381042    1.419853    2.542202
  H     -4.145064    0.306185    1.395954
  H     -3.905386   -0.189048    3.079935

 Total Charge           Charge          ....    0
 Multiplicity           Mult            ....    1
 Number of Electrons    NEL             ....  202
 Basis Dimension        Dim             ....  334

ORBITAL ENERGIES
----------------

  NO   OCC          E(Eh)            E(eV)
   0   2.0000     -88.042824     -2395.7670
   1   2.0000     -88.040007     -2395.6904
   2   2.0000     -87.985570     -2394.2091
   3   2.0000     -87.985099     -2394.1963
   4   2.0000     -76.425782     -2079.6513
   5   2.0000     -76.424753     -2079.6233
   6   2.0000     -18.799478      -511.5598
   7   2.0000     -18.793409      -511.3947
   8   2.0000     -18.786428      -511.2047
   9   2.0000     -18.784026      -511.1393
  10   2.0000      -9.959254      -271.0051
  11   2.0000      -9.955386      -270.8998
  12   2.0000      -9.953294      -270.8429
  13   2.0000      -9.952751      -270.8281
  14   2.0000      -9.942522      -270.5498
  15   2.0000      -9.888805      -269.0881
  16   2.0000      -9.887073      -269.0409
  17   2.0000      -9.883302      -268.9383
  18   2.0000      -9.877770      -268.7878
  19   2.0000      -7.687266      -209.1811
  20   2.0000      -7.685512      -209.1334
  21   2.0000      -7.630543      -207.6376
  22   2.0000      -7.630346      -207.6323
  23   2.0000      -6.423139      -174.7825
  24   2.0000      -6.422109      -174.7545
  25   2.0000      -5.715580      -155.5289
  26   2.0000      -5.713443      -155.4707
  27   2.0000      -5.711477      -155.4172
  28   2.0000      -5.710100      -155.3797
  29   2.0000      -5.704163      -155.2182
  30   2.0000      -5.702243      -155.1659
  31   2.0000      -5.659331      -153.9982
  32   2.0000      -5.659251      -153.9960
  33   2.0000      -5.651210      -153.7772
  34   2.0000      -5.650896      -153.7687
  35   2.0000      -5.650830      -153.7669
  36   2.0000      -5.650604      -153.7608
  37   2.0000      -4.646099      -126.4268
  38   2.0000      -4.644875      -126.3935
  39   2.0000      -4.644421      -126.3811
  40   2.0000      -4.643962      -126.3686
  41   2.0000      -4.643337      -126.3516
  42   2.0000      -4.642758      -126.3359
  43   2.0000      -0.989076       -26.9141
  44   2.0000      -0.984309       -26.7844
  45   2.0000      -0.945108       -25.7177
  46   2.0000      -0.942477       -25.6461
  47   2.0000      -0.763476       -20.7752
  48   2.0000      -0.721546       -19.6343
  49   2.0000      -0.708102       -19.2684
  50   2.0000      -0.690182       -18.7808
  51   2.0000      -0.684458       -18.6250
  52   2.0000      -0.672909       -18.3108
  53   2.0000      -0.652416       -17.7531
  54   2.0000      -0.637153       -17.3378
  55   2.0000      -0.596568       -16.2334
  56   2.0000      -0.591908       -16.1066
  57   2.0000      -0.578687       -15.7469
  58   2.0000      -0.567851       -15.4520
  59   2.0000      -0.560396       -15.2491
  60   2.0000      -0.503121       -13.6906
  61   2.0000      -0.497840       -13.5469
  62   2.0000      -0.475118       -12.9286
  63   2.0000      -0.470879       -12.8133
  64   2.0000      -0.457545       -12.4504
  65   2.0000      -0.445150       -12.1132
  66   2.0000      -0.439731       -11.9657
  67   2.0000      -0.431646       -11.7457
  68   2.0000      -0.425017       -11.5653
  69   2.0000      -0.415289       -11.3006
  70   2.0000      -0.411303       -11.1921
  71   2.0000      -0.402364       -10.9489
  72   2.0000      -0.392036       -10.6678
  73   2.0000      -0.388240       -10.5645
  74   2.0000      -0.380764       -10.3611
  75   2.0000      -0.371813       -10.1176
  76   2.0000      -0.368170       -10.0184
  77   2.0000      -0.357305        -9.7228
  78   2.0000      -0.354656        -9.6507
  79   2.0000      -0.351450        -9.5634
  80   2.0000      -0.344752        -9.3812
  81   2.0000      -0.342978        -9.3329
  82   2.0000      -0.340964        -9.2781
  83   2.0000      -0.336628        -9.1601
  84   2.0000      -0.332426        -9.0458
  85   2.0000      -0.324216        -8.8224
  86   2.0000      -0.313077        -8.5192
  87   2.0000      -0.300707        -8.1827
  88   2.0000      -0.295641        -8.0448
  89   2.0000      -0.292069        -7.9476
  90   2.0000      -0.278775        -7.5859
  91   2.0000      -0.277858        -7.5609
  92   2.0000      -0.266570        -7.2537
  93   2.0000      -0.263408        -7.1677
  94   2.0000      -0.258997        -7.0477
  95   2.0000      -0.230709        -6.2779
  96   2.0000      -0.219890        -5.9835
  97   2.0000      -0.206036        -5.6065
  98   2.0000      -0.204756        -5.5717
  99   2.0000      -0.199349        -5.4246
 100   2.0000      -0.196735        -5.3534
 101   0.0000      -0.042746        -1.1632
 102   0.0000      -0.018971        -0.5162
 103   0.0000      -0.002544        -0.0692
 104   0.0000       0.001830         0.0498
 105   0.0000       0.007012         0.1908

MULLIKEN ATOMIC CHARGES
-----------------------
   0 C :   -0.312143
   1 C :    0.005435
   2 O :   -0.361768
   3 P :    0.618400
   4 S :   -0.322151
   5 O :   -0.392306
   6 C :   -0.008506
   7 C :   -0.313028
   8 S :   -0.060238
   9 C :   -0.348331
  10 S :   -0.091599
  11 P :    0.610687
  12 S :   -0.336781
  13 O :   -0.373652
  14 C :   -0.012179
  15 C :   -0.280428
  16 O :   -0.351689
  17 C :   -0.006518
  18 C :   -0.303577
  19 H :    0.109023
  20 H :    0.124862
  21 H :    0.124618
  22 H :    0.102587
  23 H :    0.107860
  24 H :    0.102770
  25 H :    0.113663
  26 H :    0.114550
  27 H :    0.131909
  28 H :    0.113213
  29 H :    0.192567
  30 H :    0.178100
  31 H :    0.101040
  32 H :    0.106170
  33 H :    0.116551
  34 H :    0.112091
  35 H :    0.120089
  36 H :    0.115321
  37 H :    0.109269
  38 H :    0.113264
  39 H :    0.119483
  40 H :    0.111372
Sum of atomic charges:    0.0000000

LOEWDIN ATOMIC CHARGES
----------------------
   0 C :   -0.365998
   1 C :   -0.110869
   2 O :   -0.236140
   3 P :    0.562559
   4 S :   -0.322027
   5 O :   -0.251478
   6 C :   -0.122995
   7 C :   -0.366228
   8 S :    0.113659
   9 C :   -0.475202
  10 S :    0.079055
  11 P :    0.568684
  12 S :   -0.329944
  13 O :   -0.247883
  14 C :   -0.121082
  15 C :   -0.350228
  16 O :   -0.230766
  17 C :   -0.119161
  18 C :   -0.364460
  19 H :    0.128526
  20 H :    0.130246
  21 H :    0.120838
  22 H :    0.109894
  23 H :    0.120568
  24 H :    0.116697
  25 H :    0.110327
  26 H :    0.132130
  27 H :    0.124098
  28 H :    0.122257
  29 H :    0.136469
  30 H :    0.129401
  31 H :    0.109282
  32 H :    0.108168
  33 H :    0.126953
  34 H :    0.130896
  35 H :    0.128452
  36 H :    0.110248
  37 H :    0.120014
  38 H :    0.124597
  39 H :    0.120386
  40 H :    0.130055

  Mayer bond orders larger than 0.100000
B(  0-C ,  1-C ) :   1.1673 B(  0-C , 19-H ) :   0.9366 B(  0-C , 20-H ) :   0.9451
B(  0-C , 21-H ) :   0.9366 B(  1-C ,  2-O ) :   0.9026 B(  1-C , 22-H ) :   0.9298
B(  1-C , 23-H ) :   0.9323 B(  2-O ,  3-P ) :   1.1282 B(  3-P ,  4-S ) :   1.6516
B(  3-P ,  5-O ) :   1.0427 B(  3-P ,  8-S ) :   0.9643 B(  5-O ,  6-C ) :   0.9082
B(  6-C ,  7-C ) :   1.1649 B(  6-C , 24-H ) :   0.9331 B(  6-C , 25-H ) :   0.9107
B(  7-C , 26-H ) :   0.9388 B(  7-C , 27-H ) :   0.9343 B(  7-C , 28-H ) :   0.9466
B(  8-S ,  9-C ) :   0.9926 B(  9-C , 10-S ) :   0.9910 B(  9-C , 29-H ) :   0.8964
B(  9-C , 30-H ) :   0.8987 B( 10-S , 11-P ) :   0.9729 B( 10-S , 12-S ) :   0.1098
B( 11-P , 12-S ) :   1.5931 B( 11-P , 13-O ) :   1.1121 B( 11-P , 16-O ) :   1.1386
B( 13-O , 14-C ) :   0.9044 B( 14-C , 15-C ) :   1.1608 B( 14-C , 31-H ) :   0.9293
B( 14-C , 32-H ) :   0.9087 B( 15-C , 33-H ) :   0.9505 B( 15-C , 34-H ) :   0.9419
B( 15-C , 35-H ) :   0.9513 B( 16-O , 17-C ) :   0.9004 B( 17-C , 18-C ) :   1.1628
B( 17-C , 36-H ) :   0.9152 B( 17-C , 37-H ) :   0.9315 B( 18-C , 38-H ) :   0.9467
B( 18-C , 39-H ) :   0.9360 B( 18-C , 40-H ) :   0.9401

Dispersion correction           -0.065831414
FINAL SINGLE POINT ENERGY     -2929.521326102632

DIPOLE MOMENT
-------------

Method             : SCF
Type of density    : Electron Density
Multiplicity       :   1
Irrep              :   0
Energy             : -2929.6402336936002939 Eh
Relativity type    :
Basis              : AO
                                X                 Y                 Z
Electronic contribution:      0.494849336      -9.654414728      -2.685197963
Nuclear contribution   :      0.129416161      10.872310612       1.925626574
                        -----------------------------------------
Total Dipole Moment    :      0.624265497       1.217895884      -0.759571390
                        -----------------------------------------
Magnitude (a.u.)       :      1.565224103
Magnitude (Debye)      :      3.978483494

Rotational constants in cm-1:             0.013183             0.004819             0.004675
Rotational constants in MHz :           395.225649           144.481080           140.163218

                             ****ORCA TERMINATED NORMALLY****
TOTAL RUN TIME: 0 days 0 hours 0 minutes 21 seconds 244 msec
