                         Program Version 6.0.1  -  RELEASE   -
|  1> ! pbe def2-sv(p) def2/J RI DEFGRID1 loosescf d4 GCP(DFT/SV(P)) printgap
|  2> %output
|  3>     printlevel normal
|  4> end
|  5> * xyz 0 1
|  6> C 4.1844529925 -2.3287909721 1.041366273
|  7> C 2.7148375417 -2.2350425275 0.6820923944
|  8> O 2.5633919045 -1.2117993087 -0.3208416822
|  9> C 1.4676319825 -1.1934246524 -1.0445427004
| 10> O 0.5455400813 -1.9764906541 -0.9217172637
| 11> C 1.4777798885 -0.0703429036 -2.0608984387
| 12> C 0.351637731 0.9251255102 -1.767587889
| 13> H 0.318344623 1.6783456727 -2.5600370803
| 14> C 0.5270696649 1.6333648739 -0.4386666681
| 15> O -0.3950771636 1.777477082 0.3439509119
| 16> O 1.7470661561 2.0405743967 -0.2445807713
| 17> C 2.0606866511 2.7164978503 0.9937712272
| 18> C 1.7115914879 4.1926930512 0.9109353486
| 19> S -1.3079040075 0.1582535163 -1.7861190819
| 20> P -1.7185938947 -0.3198833516 0.2459425252
| 21> S -0.4719201512 -0.751235792 1.7123038819
| 22> O -2.9017212393 0.6667916752 0.6424905588
| 23> C -2.8642642454 1.6295352213 1.6948533659
| 24> O -2.7175001397 -1.5454830369 -0.029211252
| 25> C -2.2877741963 -2.8583338154 -0.3836166872
| 26> H 4.7677891077 -2.5930103942 0.1642275582
| 27> H 4.5341452034 -1.3756340968 1.4250805475
| 28> H 4.3156250628 -3.0902502013 1.802691246
| 29> H 2.0989948936 -1.9567802608 1.5437247302
| 30> H 2.3295054314 -3.1750464218 0.2745673542
| 31> H 1.3069299841 -0.5017190388 -3.0473862171
| 32> H 2.4387713148 0.4410122466 -2.0223644605
| 33> H 1.5158611865 2.2253331347 1.8049753691
| 34> H 3.1333987617 2.565373512 1.1105103977
| 35> H 2.0192030119 4.6820315102 1.828962117
| 36> H 2.2239729614 4.6522400624 0.0704777858
| 37> H 0.6386372801 4.3207945826 0.7880566648
| 38> H -2.6349340558 2.6080299499 1.2764941779
| 39> H -2.1066585862 1.3581504939 2.4324803835
| 40> H -3.8538196767 1.6216498771 2.1464258334
| 41> H -1.5084456389 -3.1972701771 0.3006913247
| 42> H -1.8974718062 -2.868919898 -1.4010196981
| 43> H -3.1719309421 -3.4853848601 -0.3002951964
| 44> *
| 45>
| 46>                          ****END OF INPUT****

CARTESIAN COORDINATES (ANGSTROEM)
---------------------------------
  C      4.184453   -2.328791    1.041366
  C      2.714838   -2.235043    0.682092
  O      2.563392   -1.211799   -0.320842
  C      1.467632   -1.193425   -1.044543
  O      0.545540   -1.976491   -0.921717
  C      1.477780   -0.070343   -2.060898
  C      0.351638    0.925126   -1.767588
  H      0.318345    1.678346   -2.560037
  C      0.527070    1.633365   -0.438667
  O     -0.395077    1.777477    0.343951
  O      1.747066    2.040574   -0.244581
  C      2.060687    2.716498    0.993771
  C      1.711591    4.192693    0.910935
  S     -1.307904    0.158254   -1.786119
  P     -1.718594   -0.319883    0.245943
  S     -0.471920   -0.751236    1.712304
  O     -2.901721    0.666792    0.642491
  C     -2.864264    1.629535    1.694853
  O     -2.717500   -1.545483   -0.029211
  C     -2.287774   -2.858334   -0.383617
  H      4.767789   -2.593010    0.164228
  H      4.534145   -1.375634    1.425081
  H      4.315625   -3.090250    1.802691
  H      2.098995   -1.956780    1.543725
  H      2.329505   -3.175046    0.274567
  H      1.306930   -0.501719   -3.047386
  H      2.438771    0.441012   -2.022364
  H      1.515861    2.225333    1.804975
  H      3.133399    2.565374    1.110510
  H      2.019203    4.682032    1.828962
  H      2.223973    4.652240    0.070478
  H      0.638637    4.320795    0.788057
  H     -2.634934    2.608030    1.276494
  H     -2.106659    1.358150    2.432480
  H     -3.853820    1.621650    2.146426
  H     -1.508446   -3.197270    0.300691
  H     -1.897472   -2.868920   -1.401020
  H     -3.171931   -3.485385   -0.300295

 Total Charge           Charge          ....    0
 Multiplicity           Mult            ....    1
 Number of Electrons    NEL             ....  174
 Basis Dimension        Dim             ....  316

ORBITAL ENERGIES
----------------

  NO   OCC          E(Eh)            E(eV)
   0   2.0000     -88.026336     -2395.3184
   1   2.0000     -87.964715     -2393.6416
   2   2.0000     -76.412443     -2079.2883
   3   2.0000     -18.827609      -512.3253
   4   2.0000     -18.803250      -511.6624
   5   2.0000     -18.765615      -510.6384
   6   2.0000     -18.763635      -510.5845
   7   2.0000     -18.762459      -510.5525
   8   2.0000     -18.734360      -509.7879
   9   2.0000     -10.032248      -272.9914
  10   2.0000     -10.008450      -272.3438
  11   2.0000      -9.961806      -271.0745
  12   2.0000      -9.956094      -270.9191
  13   2.0000      -9.941020      -270.5089
  14   2.0000      -9.923323      -270.0273
  15   2.0000      -9.916060      -269.8297
  16   2.0000      -9.914405      -269.7847
  17   2.0000      -9.898678      -269.3567
  18   2.0000      -9.887258      -269.0460
  19   2.0000      -7.671565      -208.7539
  20   2.0000      -7.609771      -207.0724
  21   2.0000      -6.407311      -174.3518
  22   2.0000      -5.699986      -155.1045
  23   2.0000      -5.696260      -155.0031
  24   2.0000      -5.687719      -154.7707
  25   2.0000      -5.638926      -153.4430
  26   2.0000      -5.630435      -153.2119
  27   2.0000      -5.629563      -153.1882
  28   2.0000      -4.629899      -125.9860
  29   2.0000      -4.629531      -125.9760
  30   2.0000      -4.627875      -125.9309
  31   2.0000      -1.037680       -28.2367
  32   2.0000      -1.009320       -27.4650
  33   2.0000      -0.960566       -26.1383
  34   2.0000      -0.941380       -25.6162
  35   2.0000      -0.914406       -24.8823
  36   2.0000      -0.911915       -24.8145
  37   2.0000      -0.767539       -20.8858
  38   2.0000      -0.717372       -19.5207
  39   2.0000      -0.709365       -19.3028
  40   2.0000      -0.682584       -18.5741
  41   2.0000      -0.650824       -17.7098
  42   2.0000      -0.629059       -17.1176
  43   2.0000      -0.613440       -16.6926
  44   2.0000      -0.598960       -16.2985
  45   2.0000      -0.591634       -16.0992
  46   2.0000      -0.566810       -15.4237
  47   2.0000      -0.516043       -14.0422
  48   2.0000      -0.507119       -13.7994
  49   2.0000      -0.497989       -13.5510
  50   2.0000      -0.485515       -13.2115
  51   2.0000      -0.460337       -12.5264
  52   2.0000      -0.454892       -12.3783
  53   2.0000      -0.449476       -12.2309
  54   2.0000      -0.439234       -11.9522
  55   2.0000      -0.429727       -11.6935
  56   2.0000      -0.424346       -11.5470
  57   2.0000      -0.414783       -11.2868
  58   2.0000      -0.404221       -10.9994
  59   2.0000      -0.402388       -10.9495
  60   2.0000      -0.396456       -10.7881
  61   2.0000      -0.388673       -10.5763
  62   2.0000      -0.381572       -10.3831
  63   2.0000      -0.378084       -10.2882
  64   2.0000      -0.375278       -10.2118
  65   2.0000      -0.368391       -10.0244
  66   2.0000      -0.361403        -9.8343
  67   2.0000      -0.355431        -9.6718
  68   2.0000      -0.352616        -9.5952
  69   2.0000      -0.347043        -9.4435
  70   2.0000      -0.337687        -9.1889
  71   2.0000      -0.336376        -9.1533
  72   2.0000      -0.314760        -8.5651
  73   2.0000      -0.313046        -8.5184
  74   2.0000      -0.298993        -8.1360
  75   2.0000      -0.295513        -8.0413
  76   2.0000      -0.287601        -7.8260
  77   2.0000      -0.280098        -7.6219
  78   2.0000      -0.266296        -7.2463
  79   2.0000      -0.262521        -7.1436
  80   2.0000      -0.253680        -6.9030
  81   2.0000      -0.240892        -6.5550
  82   2.0000      -0.236341        -6.4312
  83   2.0000      -0.227653        -6.1948
  84   2.0000      -0.196499        -5.3470
  85   2.0000      -0.180410        -4.9092
  86   2.0000      -0.176220        -4.7952
  87   0.0000      -0.051193        -1.3930
  88   0.0000      -0.037984        -1.0336
  89   0.0000      -0.027084        -0.7370
  90   0.0000       0.008048         0.2190
  91   0.0000       0.031834         0.8663

MULLIKEN ATOMIC CHARGES
-----------------------
   0 C :   -0.273607
   1 C :   -0.039203
   2 O :   -0.225264
   3 C :    0.083478
   4 O :   -0.193106
   5 C :   -0.017149
   6 C :   -0.323931
   7 H :    0.156258
   8 C :    0.218046
   9 O :   -0.194151
  10 O :   -0.214062
  11 C :   -0.012502
  12 C :   -0.312400
  13 S :   -0.080138
  14 P :    0.642620
  15 S :   -0.360460
  16 O :   -0.372466
  17 C :   -0.083938
  18 O :   -0.379112
  19 C :   -0.090244
  20 H :    0.110357
  21 H :    0.110043
  22 H :    0.112616
  23 H :    0.127057
  24 H :    0.106269
  25 H :    0.120475
  26 H :    0.112255
  27 H :    0.126245
  28 H :    0.109469
  29 H :    0.120743
  30 H :    0.116491
  31 H :    0.131090
  32 H :    0.105955
  33 H :    0.111136
  34 H :    0.114345
  35 H :    0.112810
  36 H :    0.113042
  37 H :    0.110930
Sum of atomic charges:   -0.0000000

LOEWDIN ATOMIC CHARGES
----------------------
   0 C :   -0.350922
   1 C :   -0.111996
   2 O :   -0.051626
   3 C :    0.019071
   4 O :   -0.164776
   5 C :   -0.248549
   6 C :   -0.261926
   7 H :    0.152793
   8 C :    0.021010
   9 O :   -0.150122
  10 O :   -0.031168
  11 C :   -0.105575
  12 C :   -0.356351
  13 S :    0.110479
  14 P :    0.595503
  15 S :   -0.332498
  16 O :   -0.245917
  17 C :   -0.210880
  18 O :   -0.256299
  19 C :   -0.215401
  20 H :    0.124004
  21 H :    0.124283
  22 H :    0.131167
  23 H :    0.116817
  24 H :    0.117287
  25 H :    0.145534
  26 H :    0.137149
  27 H :    0.127738
  28 H :    0.121896
  29 H :    0.135017
  30 H :    0.126132
  31 H :    0.131419
  32 H :    0.107606
  33 H :    0.104619
  34 H :    0.115103
  35 H :    0.107925
  36 H :    0.107523
  37 H :    0.113932

  Mayer bond orders larger than 0.100000
B(  0-C ,  1-C ) :   1.1514 B(  0-C , 20-H ) :   0.9514 B(  0-C , 21-H ) :   0.9490
B(  0-C , 22-H ) :   0.9448 B(  1-C ,  2-O ) :   0.8975 B(  1-C , 23-H ) :   0.9209
B(  1-C , 24-H ) :   0.9235 B(  2-O ,  3-C ) :   1.2488 B(  3-C ,  4-O ) :   1.9949
B(  3-C ,  5-C ) :   1.0071 B(  5-C ,  6-C ) :   1.0239 B(  5-C , 25-H ) :   0.8890
B(  5-C , 26-H ) :   0.8845 B(  6-C ,  7-H ) :   0.8723 B(  6-C ,  8-C ) :   0.9043
B(  6-C , 13-S ) :   1.0485 B(  8-C ,  9-O ) :   1.9160 B(  8-C , 10-O ) :   1.2838
B(  9-O , 14-P ) :   0.1178 B( 10-O , 11-C ) :   0.8953 B( 11-C , 12-C ) :   1.1727
B( 11-C , 27-H ) :   0.9135 B( 11-C , 28-H ) :   0.9361 B( 12-C , 29-H ) :   0.9432
B( 12-C , 30-H ) :   0.9474 B( 12-C , 31-H ) :   0.9449 B( 13-S , 14-P ) :   0.9218
B( 13-S , 15-S ) :   0.1228 B( 14-P , 15-S ) :   1.5172 B( 14-P , 16-O ) :   1.1219
B( 14-P , 18-O ) :   1.0957 B( 16-O , 17-C ) :   0.9389 B( 17-C , 32-H ) :   0.9541
B( 17-C , 33-H ) :   0.9295 B( 17-C , 34-H ) :   0.9560 B( 18-O , 19-C ) :   0.9426
B( 19-C , 35-H ) :   0.9386 B( 19-C , 36-H ) :   0.9466 B( 19-C , 37-H ) :   0.9572

Dispersion correction           -0.055045087
FINAL SINGLE POINT ENERGY     -1979.001122268055

DIPOLE MOMENT
-------------

Method             : SCF
Type of density    : Electron Density
Multiplicity       :   1
Irrep              :   0
Energy             : -1979.1302843658322672 Eh
Relativity type    :
Basis              : AO
                                X                 Y                 Z
Electronic contribution:    -15.284529525      -2.947743933      -7.195803015
Nuclear contribution   :     17.019672469       3.966558132       6.940536692
                        -----------------------------------------
Total Dipole Moment    :      1.735142944       1.018814199      -0.255266323
                        -----------------------------------------
Magnitude (a.u.)       :      2.028266330
Magnitude (Debye)      :      5.155443301

Rotational constants in cm-1:             0.011306             0.009576             0.007136
Rotational constants in MHz :           338.957060           287.089550           213.935332

                             ****ORCA TERMINATED NORMALLY****
TOTAL RUN TIME: 0 days 0 hours 0 minutes 41 seconds 696 msec
