                         Program Version 6.0.0  -   RELEASE  -
|  1> ! r2scan-3c def2/J RI DEFGRID2 scfconv6 printgap
|  2> %output
|  3>     printlevel normal
|  4> end
|  5> * xyz 0 1
|  6> C -0.6792702729 -0.531076469 0.3668914526
|  7> C 0.6752111691 -0.5426396605 -0.3414192055
|  8> O 1.508947211 0.467924531 0.1932012281
|  9> O -1.4839792083 0.4802547072 -0.2043737692
| 10> H -0.5087171012 -0.3408004517 1.4324642212
| 11> H -1.1559018613 -1.5119584077 0.2419390585
| 12> H 0.5011006241 -0.3966205761 -1.4096391676
| 13> H 1.1532302178 -1.5178124695 -0.1813442793
| 14> H 1.9614796081 0.9389981715 -0.5162792591
| 15> H -2.2991488074 0.5719274755 0.3066750032
| 16> *
| 17>
| 18>                          ****END OF INPUT****

CARTESIAN COORDINATES (ANGSTROEM)
---------------------------------
  C     -0.679270   -0.531076    0.366891
  C      0.675211   -0.542640   -0.341419
  O      1.508947    0.467925    0.193201
  O     -1.483979    0.480255   -0.204374
  H     -0.508717   -0.340800    1.432464
  H     -1.155902   -1.511958    0.241939
  H      0.501101   -0.396621   -1.409639
  H      1.153230   -1.517812   -0.181344
  H      1.961480    0.938998   -0.516279
  H     -2.299149    0.571927    0.306675

 Total Charge           Charge          ....    0
 Multiplicity           Mult            ....    1
 Number of Electrons    NEL             ....   34
 Basis Dimension        Dim             ....  116

ORBITAL ENERGIES
----------------

  NO   OCC          E(Eh)            E(eV)
   0   2.0000     -18.947878      -515.5980
   1   2.0000     -18.945945      -515.5454
   2   2.0000     -10.077146      -274.2131
   3   2.0000     -10.075689      -274.1734
   4   2.0000      -0.990940       -26.9648
   5   2.0000      -0.975410       -26.5423
   6   2.0000      -0.704687       -19.1755
   7   2.0000      -0.576112       -15.6768
   8   2.0000      -0.497580       -13.5398
   9   2.0000      -0.481734       -13.1087
  10   2.0000      -0.403612       -10.9828
  11   2.0000      -0.389845       -10.6082
  12   2.0000      -0.383630       -10.4391
  13   2.0000      -0.318017        -8.6537
  14   2.0000      -0.289726        -7.8839
  15   2.0000      -0.238315        -6.4849
  16   2.0000      -0.236220        -6.4279
  17   0.0000       0.062283         1.6948
  18   0.0000       0.064836         1.7643
  19   0.0000       0.116126         3.1600
  20   0.0000       0.129414         3.5215
  21   0.0000       0.143882         3.9152

MULLIKEN ATOMIC CHARGES
-----------------------
   0 C :   -0.105598
   1 C :   -0.145187
   2 O :   -0.420187
   3 O :   -0.422840
   4 H :    0.129718
   5 H :    0.112605
   6 H :    0.131995
   7 H :    0.123664
   8 H :    0.303288
   9 H :    0.292541
Sum of atomic charges:   -0.0000000

LOEWDIN ATOMIC CHARGES
----------------------
   0 C :    0.017243
   1 C :    0.020644
   2 O :   -0.609279
   3 O :   -0.619707
   4 H :    0.168032
   5 H :    0.156484
   6 H :    0.170606
   7 H :    0.162174
   8 H :    0.266723
   9 H :    0.267080

  Mayer bond orders larger than 0.100000
B(  0-C ,  1-C ) :   0.9867 B(  0-C ,  3-O ) :   0.9355 B(  0-C ,  4-H ) :   0.9615
B(  0-C ,  5-H ) :   0.9506 B(  1-C ,  2-O ) :   0.9454 B(  1-C ,  6-H ) :   0.9732
B(  1-C ,  7-H ) :   0.9586 B(  2-O ,  8-H ) :   0.8976 B(  3-O ,  9-H ) :   0.9005

Dispersion correction           -0.001542985
FINAL SINGLE POINT ENERGY      -230.205310047271

DIPOLE MOMENT
-------------

Method             : SCF
Type of density    : Electron Density
Multiplicity       :   1
Irrep              :   0
Energy             :  -230.2111064864801335 Eh
Relativity type    :
Basis              : AO
                                X                 Y                 Z
Electronic contribution:      0.109047751       1.739955062      -0.005644498
Nuclear contribution   :     -0.326073193      -2.102679844      -0.118548828
                        -----------------------------------------
Total Dipole Moment    :     -0.217025442      -0.362724783      -0.124193326
                        -----------------------------------------
Magnitude (a.u.)       :      0.440560203
Magnitude (Debye)      :      1.119815044

Rotational constants in cm-1:             0.580380             0.162296             0.146139
Rotational constants in MHz :         17399.362048          4865.524362          4381.124999

                             ****ORCA TERMINATED NORMALLY****
TOTAL RUN TIME: 0 days 0 hours 0 minutes 10 seconds 272 msec
