                         Program Version 6.0.0  -   RELEASE  -
|  1> ! pbe def2-sv(p) def2/J RI DEFGRID1 loosescf d4 GCP(DFT/SV(P)) printgap
|  2> %output
|  3>     printlevel normal
|  4> end
|  5> * xyz 0 1
|  6> C 3.8785566037 -1.203152653 -2.3430862144
|  7> C 2.5096043205 -0.5643652609 -2.2399395242
|  8> O 1.8198599223 -0.971640903 -1.0431515401
|  9> P 2.2878704885 -0.5205955105 0.4025349925
| 10> S 3.134530469 1.2478692347 0.535387106
| 11> O 3.2039516316 -1.7439527188 0.8379039313
| 12> C 4.1035980769 -1.6736798276 1.9578398222
| 13> C 3.3662691528 -1.5698655973 3.2773631432
| 14> S 0.4834753343 -0.8095709471 1.4554234703
| 15> C -0.1685927047 0.8611564746 1.1979641909
| 16> S -0.5156067284 1.2527891923 -0.5462274781
| 17> P -2.5215102267 0.5357935 -0.5966089103
| 18> S -3.4277134489 0.701605364 -2.3234700477
| 19> O -3.2063489967 1.2948145735 0.6195992954
| 20> C -3.5554469211 2.6888402207 0.4941940226
| 21> C -4.3963455504 3.0638172924 1.6973791603
| 22> O -2.490354752 -0.895976629 0.0761032912
| 23> C -2.5568519438 -2.0997875401 -0.7103541895
| 24> C -1.3075924435 -2.3084916684 -1.5422537817
| 25> H 3.7960157545 -2.282990824 -2.2521864229
| 26> H 4.3221394302 -0.9520874767 -3.3014108368
| 27> H 4.5217428541 -0.8301208128 -1.5467943777
| 28> H 1.8490602612 -0.885294415 -3.0466145061
| 29> H 2.5863720422 0.5279469114 -2.2405192383
| 30> H 4.680096879 -2.5970590594 1.8889495412
| 31> H 4.7624823215 -0.8106486432 1.8180213045
| 32> H 4.0781879751 -1.6423332364 4.09334651
| 33> H 2.8521426071 -0.6117492487 3.3420368039
| 34> H 2.6327866448 -2.3674883566 3.3646378494
| 35> H 0.5743341284 1.5874675263 1.5263823169
| 36> H -1.0851410133 0.931426181 1.7786144799
| 37> H -2.6345262989 3.2791647381 0.4477884837
| 38> H -4.1083236109 2.8258963648 -0.4410827285
| 39> H -4.6771592023 4.1091801161 1.6229412801
| 40> H -5.2928770167 2.4515442925 1.727786555
| 41> H -3.8323498641 2.9067390892 2.6121590851
| 42> H -2.6849601174 -2.8888218277 0.0315453657
| 43> H -3.4383199697 -2.0436971841 -1.3566997571
| 44> H -1.3914020992 -3.2417388293 -2.0898254727
| 45> H -1.200256033 -1.4895815865 -2.2545192372
| 46> H -0.4233871601 -2.3420272989 -0.9102208022
| 47> *
| 48>
| 49>                          ****END OF INPUT****

CARTESIAN COORDINATES (ANGSTROEM)
---------------------------------
  C      3.878557   -1.203153   -2.343086
  C      2.509604   -0.564365   -2.239940
  O      1.819860   -0.971641   -1.043152
  P      2.287870   -0.520596    0.402535
  S      3.134530    1.247869    0.535387
  O      3.203952   -1.743953    0.837904
  C      4.103598   -1.673680    1.957840
  C      3.366269   -1.569866    3.277363
  S      0.483475   -0.809571    1.455423
  C     -0.168593    0.861156    1.197964
  S     -0.515607    1.252789   -0.546227
  P     -2.521510    0.535793   -0.596609
  S     -3.427713    0.701605   -2.323470
  O     -3.206349    1.294815    0.619599
  C     -3.555447    2.688840    0.494194
  C     -4.396346    3.063817    1.697379
  O     -2.490355   -0.895977    0.076103
  C     -2.556852   -2.099788   -0.710354
  C     -1.307592   -2.308492   -1.542254
  H      3.796016   -2.282991   -2.252186
  H      4.322139   -0.952087   -3.301411
  H      4.521743   -0.830121   -1.546794
  H      1.849060   -0.885294   -3.046615
  H      2.586372    0.527947   -2.240519
  H      4.680097   -2.597059    1.888950
  H      4.762482   -0.810649    1.818021
  H      4.078188   -1.642333    4.093347
  H      2.852143   -0.611749    3.342037
  H      2.632787   -2.367488    3.364638
  H      0.574334    1.587468    1.526382
  H     -1.085141    0.931426    1.778614
  H     -2.634526    3.279165    0.447788
  H     -4.108324    2.825896   -0.441083
  H     -4.677159    4.109180    1.622941
  H     -5.292877    2.451544    1.727787
  H     -3.832350    2.906739    2.612159
  H     -2.684960   -2.888822    0.031545
  H     -3.438320   -2.043697   -1.356700
  H     -1.391402   -3.241739   -2.089825
  H     -1.200256   -1.489582   -2.254519
  H     -0.423387   -2.342027   -0.910221

 Total Charge           Charge          ....    0
 Multiplicity           Mult            ....    1
 Number of Electrons    NEL             ....  202
 Basis Dimension        Dim             ....  334

ORBITAL ENERGIES
----------------

  NO   OCC          E(Eh)            E(eV)
   0   2.0000     -88.046017     -2395.8539
   1   2.0000     -88.041333     -2395.7265
   2   2.0000     -87.995504     -2394.4794
   3   2.0000     -87.986678     -2394.2392
   4   2.0000     -76.431479     -2079.8063
   5   2.0000     -76.424928     -2079.6280
   6   2.0000     -18.799387      -511.5573
   7   2.0000     -18.793301      -511.3917
   8   2.0000     -18.792713      -511.3757
   9   2.0000     -18.790190      -511.3071
  10   2.0000      -9.957663      -270.9618
  11   2.0000      -9.957524      -270.9580
  12   2.0000      -9.952778      -270.8289
  13   2.0000      -9.951691      -270.7993
  14   2.0000      -9.948551      -270.7138
  15   2.0000      -9.889002      -269.0934
  16   2.0000      -9.888471      -269.0790
  17   2.0000      -9.885130      -268.9881
  18   2.0000      -9.873681      -268.6765
  19   2.0000      -7.691224      -209.2889
  20   2.0000      -7.686105      -209.1496
  21   2.0000      -7.640347      -207.9044
  22   2.0000      -7.631880      -207.6740
  23   2.0000      -6.429040      -174.9431
  24   2.0000      -6.422603      -174.7679
  25   2.0000      -5.719008      -155.6221
  26   2.0000      -5.715871      -155.5368
  27   2.0000      -5.714195      -155.4911
  28   2.0000      -5.710439      -155.3889
  29   2.0000      -5.708069      -155.3245
  30   2.0000      -5.703121      -155.1898
  31   2.0000      -5.669084      -154.2636
  32   2.0000      -5.661005      -154.0438
  33   2.0000      -5.660864      -154.0399
  34   2.0000      -5.660701      -154.0355
  35   2.0000      -5.652376      -153.8090
  36   2.0000      -5.652108      -153.8017
  37   2.0000      -4.651426      -126.5717
  38   2.0000      -4.650758      -126.5536
  39   2.0000      -4.649705      -126.5249
  40   2.0000      -4.644883      -126.3937
  41   2.0000      -4.644856      -126.3930
  42   2.0000      -4.642836      -126.3380
  43   2.0000      -0.991621       -26.9834
  44   2.0000      -0.989013       -26.9124
  45   2.0000      -0.950555       -25.8659
  46   2.0000      -0.945737       -25.7348
  47   2.0000      -0.765295       -20.8247
  48   2.0000      -0.722995       -19.6737
  49   2.0000      -0.710576       -19.3357
  50   2.0000      -0.690279       -18.7834
  51   2.0000      -0.681984       -18.5577
  52   2.0000      -0.676516       -18.4089
  53   2.0000      -0.656304       -17.8589
  54   2.0000      -0.640713       -17.4347
  55   2.0000      -0.605146       -16.4669
  56   2.0000      -0.593927       -16.1616
  57   2.0000      -0.575706       -15.6657
  58   2.0000      -0.566044       -15.4028
  59   2.0000      -0.558983       -15.2107
  60   2.0000      -0.505673       -13.7601
  61   2.0000      -0.496202       -13.5023
  62   2.0000      -0.477445       -12.9919
  63   2.0000      -0.466849       -12.7036
  64   2.0000      -0.462102       -12.5744
  65   2.0000      -0.445554       -12.1241
  66   2.0000      -0.443948       -12.0804
  67   2.0000      -0.436180       -11.8691
  68   2.0000      -0.432554       -11.7704
  69   2.0000      -0.419384       -11.4120
  70   2.0000      -0.411267       -11.1911
  71   2.0000      -0.396034       -10.7766
  72   2.0000      -0.394141       -10.7251
  73   2.0000      -0.390276       -10.6200
  74   2.0000      -0.382934       -10.4202
  75   2.0000      -0.377895       -10.2831
  76   2.0000      -0.367567       -10.0020
  77   2.0000      -0.360366        -9.8061
  78   2.0000      -0.355590        -9.6761
  79   2.0000      -0.353140        -9.6094
  80   2.0000      -0.349872        -9.5205
  81   2.0000      -0.344929        -9.3860
  82   2.0000      -0.341341        -9.2884
  83   2.0000      -0.337780        -9.1915
  84   2.0000      -0.332498        -9.0477
  85   2.0000      -0.320057        -8.7092
  86   2.0000      -0.315281        -8.5792
  87   2.0000      -0.304379        -8.2826
  88   2.0000      -0.300061        -8.1651
  89   2.0000      -0.289459        -7.8766
  90   2.0000      -0.286093        -7.7850
  91   2.0000      -0.278333        -7.5738
  92   2.0000      -0.270284        -7.3548
  93   2.0000      -0.266292        -7.2462
  94   2.0000      -0.257638        -7.0107
  95   2.0000      -0.232664        -6.3311
  96   2.0000      -0.221249        -6.0205
  97   2.0000      -0.214736        -5.8433
  98   2.0000      -0.209884        -5.7112
  99   2.0000      -0.204644        -5.5686
 100   2.0000      -0.204040        -5.5522
 101   0.0000      -0.043729        -1.1899
 102   0.0000      -0.024984        -0.6799
 103   0.0000      -0.011475        -0.3123
 104   0.0000       0.005115         0.1392
 105   0.0000       0.007367         0.2005

MULLIKEN ATOMIC CHARGES
-----------------------
   0 C :   -0.307637
   1 C :   -0.003780
   2 O :   -0.354049
   3 P :    0.609407
   4 S :   -0.332872
   5 O :   -0.370466
   6 C :   -0.005645
   7 C :   -0.316216
   8 S :   -0.066181
   9 C :   -0.370552
  10 S :   -0.066232
  11 P :    0.573672
  12 S :   -0.318511
  13 O :   -0.369748
  14 C :   -0.014336
  15 C :   -0.276220
  16 O :   -0.365650
  17 C :    0.004586
  18 C :   -0.332381
  19 H :    0.116958
  20 H :    0.113907
  21 H :    0.120945
  22 H :    0.111030
  23 H :    0.114587
  24 H :    0.107707
  25 H :    0.112474
  26 H :    0.115094
  27 H :    0.126162
  28 H :    0.119603
  29 H :    0.193979
  30 H :    0.192074
  31 H :    0.099778
  32 H :    0.109731
  33 H :    0.113157
  34 H :    0.121601
  35 H :    0.113427
  36 H :    0.104192
  37 H :    0.110542
  38 H :    0.105161
  39 H :    0.122408
  40 H :    0.138294
Sum of atomic charges:   -0.0000000

LOEWDIN ATOMIC CHARGES
----------------------
   0 C :   -0.364635
   1 C :   -0.116422
   2 O :   -0.231979
   3 P :    0.572619
   4 S :   -0.320831
   5 O :   -0.242687
   6 C :   -0.118710
   7 C :   -0.369530
   8 S :    0.104760
   9 C :   -0.483343
  10 S :    0.081923
  11 P :    0.567369
  12 S :   -0.319695
  13 O :   -0.244880
  14 C :   -0.122963
  15 C :   -0.349486
  16 O :   -0.237833
  17 C :   -0.115574
  18 C :   -0.374434
  19 H :    0.126518
  20 H :    0.131214
  21 H :    0.121639
  22 H :    0.121038
  23 H :    0.111914
  24 H :    0.119936
  25 H :    0.111216
  26 H :    0.132090
  27 H :    0.120865
  28 H :    0.125004
  29 H :    0.130653
  30 H :    0.133828
  31 H :    0.106099
  32 H :    0.110982
  33 H :    0.131461
  34 H :    0.129719
  35 H :    0.124985
  36 H :    0.119101
  37 H :    0.110356
  38 H :    0.127968
  39 H :    0.119589
  40 H :    0.120157

  Mayer bond orders larger than 0.100000
B(  0-C ,  1-C ) :   1.1632 B(  0-C , 19-H ) :   0.9460 B(  0-C , 20-H ) :   0.9393
B(  0-C , 21-H ) :   0.9371 B(  1-C ,  2-O ) :   0.9032 B(  1-C , 22-H ) :   0.9330
B(  1-C , 23-H ) :   0.9179 B(  2-O ,  3-P ) :   1.1275 B(  3-P ,  4-S ) :   1.5853
B(  3-P ,  5-O ) :   1.1120 B(  3-P ,  8-S ) :   0.9657 B(  4-S ,  8-S ) :   0.1101
B(  5-O ,  6-C ) :   0.9069 B(  6-C ,  7-C ) :   1.1661 B(  6-C , 24-H ) :   0.9337
B(  6-C , 25-H ) :   0.9168 B(  7-C , 26-H ) :   0.9375 B(  7-C , 27-H ) :   0.9354
B(  7-C , 28-H ) :   0.9445 B(  8-S ,  9-C ) :   0.9992 B(  9-C , 10-S ) :   0.9799
B(  9-C , 29-H ) :   0.8813 B(  9-C , 30-H ) :   0.8886 B( 10-S , 11-P ) :   0.9742
B( 11-P , 12-S ) :   1.6491 B( 11-P , 13-O ) :   1.0871 B( 11-P , 16-O ) :   1.1183
B( 13-O , 14-C ) :   0.9007 B( 14-C , 15-C ) :   1.1609 B( 14-C , 31-H ) :   0.9225
B( 14-C , 32-H ) :   0.9134 B( 15-C , 33-H ) :   0.9421 B( 15-C , 34-H ) :   0.9501
B( 15-C , 35-H ) :   0.9524 B( 16-O , 17-C ) :   0.8981 B( 17-C , 18-C ) :   1.1631
B( 17-C , 36-H ) :   0.9336 B( 17-C , 37-H ) :   0.9193 B( 18-C , 38-H ) :   0.9373
B( 18-C , 39-H ) :   0.9336 B( 18-C , 40-H ) :   0.9296

Dispersion correction           -0.064840781
FINAL SINGLE POINT ENERGY     -2929.526040174382

DIPOLE MOMENT
-------------

Method             : SCF
Type of density    : Electron Density
Multiplicity       :   1
Irrep              :   0
Energy             : -2929.6466547628278931 Eh
Relativity type    :
Basis              : AO
                                X                 Y                 Z
Electronic contribution:     -5.147056111       5.478617956      -3.888744578
Nuclear contribution   :      5.730906669      -6.089811289       4.722785479
                        -----------------------------------------
Total Dipole Moment    :      0.583850559      -0.611193333       0.834040901
                        -----------------------------------------
Magnitude (a.u.)       :      1.187460732
Magnitude (Debye)      :      3.018285314

Rotational constants in cm-1:             0.012729             0.004624             0.004250
Rotational constants in MHz :           381.616811           138.630011           127.402428

                             ****ORCA TERMINATED NORMALLY****
TOTAL RUN TIME: 0 days 0 hours 0 minutes 21 seconds 371 msec
