                         Program Version 6.0.0  -   RELEASE  -
|  1> ! pbe def2-sv(p) def2/J RI DEFGRID1 loosescf d4 GCP(DFT/SV(P)) printgap
|  2> %output
|  3>     printlevel normal
|  4> end
|  5> * xyz 0 1
|  6> C 3.3110724669 2.6603721254 -0.4123580204
|  7> C 2.0711549697 1.8255603339 -0.652925531
|  8> O 1.617235595 1.2260565199 0.5870399031
|  9> P 1.9217351159 -0.2795221896 0.946685103
| 10> S 1.4386429903 -0.7524186793 2.778270235
| 11> O 3.4677467651 -0.4003333256 0.5985559496
| 12> C 4.1885595307 -1.6234061016 0.8542137429
| 13> C 5.6699179264 -1.3123229871 0.7876501433
| 14> S 1.025724871 -1.4396303001 -0.6099893212
| 15> C -0.4943556206 -1.8977071621 0.2666872682
| 16> S -1.4601894279 -0.4844918317 0.8430091761
| 17> P -2.0974859143 0.287753869 -1.0499152487
| 18> S -1.9124865319 -0.9284673529 -2.5707650256
| 19> O -1.2906701182 1.6345593438 -1.2554355887
| 20> C -1.6424284114 2.9067188643 -0.6572384952
| 21> C -1.5184938187 2.8941889267 0.8521970532
| 22> O -3.5687683484 0.831875292 -0.7868978392
| 23> C -4.7329346563 0.003934849 -0.9562449365
| 24> C -4.788741522 -1.127506407 0.0493201733
| 25> H 3.1113019544 3.4125998379 0.3456507338
| 26> H 4.1277063549 2.0286056032 -0.0735505637
| 27> H 3.5948633279 3.1487265433 -1.3393674719
| 28> H 2.2566867525 1.0336154813 -1.3843862898
| 29> H 1.2341264304 2.4368033464 -0.9934785383
| 30> H 3.8998121246 -1.9960171207 1.8424725162
| 31> H 3.8979869783 -2.3555822343 0.0957526162
| 32> H 6.2320515684 -2.2227686924 0.9671129608
| 33> H 5.9247317097 -0.9204991991 -0.1928474951
| 34> H 5.9309187609 -0.5760046519 1.5425781997
| 35> H -0.2412400975 -2.4687861629 1.1585323639
| 36> H -1.0748773104 -2.4878890108 -0.4412639408
| 37> H -0.939568595 3.6052709914 -1.1146490375
| 38> H -2.660308481 3.1575074259 -0.9607574166
| 39> H -2.2565376795 2.2219587526 1.2867380137
| 40> H -0.5283454019 2.5609694726 1.1567468123
| 41> H -1.6883706642 3.8972454489 1.2309926284
| 42> H -5.5648428068 0.6978133702 -0.8275594544
| 43> H -4.7289174279 -0.390155738 -1.9771146855
| 44> H -3.9891906096 -1.840080498 -0.1480695143
| 45> H -4.6763156417 -0.7452522969 1.0607894041
| 46> H -5.7422724142 -1.6380764675 -0.0393438995
| 47> *
| 48>
| 49>                          ****END OF INPUT****

CARTESIAN COORDINATES (ANGSTROEM)
---------------------------------
  C      3.311072    2.660372   -0.412358
  C      2.071155    1.825560   -0.652926
  O      1.617236    1.226057    0.587040
  P      1.921735   -0.279522    0.946685
  S      1.438643   -0.752419    2.778270
  O      3.467747   -0.400333    0.598556
  C      4.188560   -1.623406    0.854214
  C      5.669918   -1.312323    0.787650
  S      1.025725   -1.439630   -0.609989
  C     -0.494356   -1.897707    0.266687
  S     -1.460189   -0.484492    0.843009
  P     -2.097486    0.287754   -1.049915
  S     -1.912487   -0.928467   -2.570765
  O     -1.290670    1.634559   -1.255436
  C     -1.642428    2.906719   -0.657238
  C     -1.518494    2.894189    0.852197
  O     -3.568768    0.831875   -0.786898
  C     -4.732935    0.003935   -0.956245
  C     -4.788742   -1.127506    0.049320
  H      3.111302    3.412600    0.345651
  H      4.127706    2.028606   -0.073551
  H      3.594863    3.148727   -1.339367
  H      2.256687    1.033615   -1.384386
  H      1.234126    2.436803   -0.993479
  H      3.899812   -1.996017    1.842473
  H      3.897987   -2.355582    0.095753
  H      6.232052   -2.222769    0.967113
  H      5.924732   -0.920499   -0.192847
  H      5.930919   -0.576005    1.542578
  H     -0.241240   -2.468786    1.158532
  H     -1.074877   -2.487889   -0.441264
  H     -0.939569    3.605271   -1.114649
  H     -2.660308    3.157507   -0.960757
  H     -2.256538    2.221959    1.286738
  H     -0.528345    2.560969    1.156747
  H     -1.688371    3.897245    1.230993
  H     -5.564843    0.697813   -0.827559
  H     -4.728917   -0.390156   -1.977115
  H     -3.989191   -1.840080   -0.148070
  H     -4.676316   -0.745252    1.060789
  H     -5.742272   -1.638076   -0.039344

 Total Charge           Charge          ....    0
 Multiplicity           Mult            ....    1
 Number of Electrons    NEL             ....  202
 Basis Dimension        Dim             ....  334

ORBITAL ENERGIES
----------------

  NO   OCC          E(Eh)            E(eV)
   0   2.0000     -88.039115     -2395.6661
   1   2.0000     -88.037203     -2395.6141
   2   2.0000     -87.985313     -2394.2021
   3   2.0000     -87.984082     -2394.1686
   4   2.0000     -76.425926     -2079.6552
   5   2.0000     -76.424437     -2079.6146
   6   2.0000     -18.796286      -511.4729
   7   2.0000     -18.795205      -511.4435
   8   2.0000     -18.792516      -511.3703
   9   2.0000     -18.790132      -511.3055
  10   2.0000      -9.956538      -270.9312
  11   2.0000      -9.955286      -270.8971
  12   2.0000      -9.954294      -270.8701
  13   2.0000      -9.953819      -270.8572
  14   2.0000      -9.951554      -270.7956
  15   2.0000      -9.890177      -269.1254
  16   2.0000      -9.886102      -269.0145
  17   2.0000      -9.885109      -268.9875
  18   2.0000      -9.883685      -268.9487
  19   2.0000      -7.683278      -209.0726
  20   2.0000      -7.681946      -209.0364
  21   2.0000      -7.630544      -207.6376
  22   2.0000      -7.629413      -207.6069
  23   2.0000      -6.423355      -174.7884
  24   2.0000      -6.422048      -174.7528
  25   2.0000      -5.711242      -155.4108
  26   2.0000      -5.709788      -155.3712
  27   2.0000      -5.707827      -155.3179
  28   2.0000      -5.706474      -155.2811
  29   2.0000      -5.700250      -155.1117
  30   2.0000      -5.699029      -155.0785
  31   2.0000      -5.659512      -154.0031
  32   2.0000      -5.658457      -153.9745
  33   2.0000      -5.650989      -153.7712
  34   2.0000      -5.650803      -153.7662
  35   2.0000      -5.649788      -153.7385
  36   2.0000      -5.649652      -153.7349
  37   2.0000      -4.646407      -126.4352
  38   2.0000      -4.644920      -126.3947
  39   2.0000      -4.644790      -126.3912
  40   2.0000      -4.643811      -126.3645
  41   2.0000      -4.643698      -126.3615
  42   2.0000      -4.642213      -126.3210
  43   2.0000      -0.990178       -26.9441
  44   2.0000      -0.989144       -26.9160
  45   2.0000      -0.946194       -25.7473
  46   2.0000      -0.944301       -25.6957
  47   2.0000      -0.759928       -20.6787
  48   2.0000      -0.719423       -19.5765
  49   2.0000      -0.710719       -19.3396
  50   2.0000      -0.693098       -18.8601
  51   2.0000      -0.691204       -18.8086
  52   2.0000      -0.672650       -18.3037
  53   2.0000      -0.647967       -17.6321
  54   2.0000      -0.637172       -17.3383
  55   2.0000      -0.597309       -16.2536
  56   2.0000      -0.587454       -15.9854
  57   2.0000      -0.579497       -15.7689
  58   2.0000      -0.570220       -15.5165
  59   2.0000      -0.561583       -15.2814
  60   2.0000      -0.509040       -13.8517
  61   2.0000      -0.496730       -13.5167
  62   2.0000      -0.481996       -13.1158
  63   2.0000      -0.470998       -12.8165
  64   2.0000      -0.457825       -12.4581
  65   2.0000      -0.450963       -12.2713
  66   2.0000      -0.445094       -12.1116
  67   2.0000      -0.436635       -11.8814
  68   2.0000      -0.424858       -11.5610
  69   2.0000      -0.419600       -11.4179
  70   2.0000      -0.406577       -11.0635
  71   2.0000      -0.399803       -10.8792
  72   2.0000      -0.390329       -10.6214
  73   2.0000      -0.382450       -10.4070
  74   2.0000      -0.376226       -10.2376
  75   2.0000      -0.373307       -10.1582
  76   2.0000      -0.366527        -9.9737
  77   2.0000      -0.359659        -9.7868
  78   2.0000      -0.356060        -9.6889
  79   2.0000      -0.352304        -9.5867
  80   2.0000      -0.350434        -9.5358
  81   2.0000      -0.346991        -9.4421
  82   2.0000      -0.342836        -9.3290
  83   2.0000      -0.339416        -9.2360
  84   2.0000      -0.337172        -9.1749
  85   2.0000      -0.321723        -8.7545
  86   2.0000      -0.309776        -8.4294
  87   2.0000      -0.301264        -8.1978
  88   2.0000      -0.298046        -8.1103
  89   2.0000      -0.296279        -8.0622
  90   2.0000      -0.293524        -7.9872
  91   2.0000      -0.276278        -7.5179
  92   2.0000      -0.271809        -7.3963
  93   2.0000      -0.261837        -7.1250
  94   2.0000      -0.255533        -6.9534
  95   2.0000      -0.234191        -6.3726
  96   2.0000      -0.211972        -5.7680
  97   2.0000      -0.209938        -5.7127
  98   2.0000      -0.208226        -5.6661
  99   2.0000      -0.196075        -5.3355
 100   2.0000      -0.192405        -5.2356
 101   0.0000      -0.042997        -1.1700
 102   0.0000      -0.026984        -0.7343
 103   0.0000      -0.002828        -0.0769
 104   0.0000       0.005060         0.1377
 105   0.0000       0.007225         0.1966

MULLIKEN ATOMIC CHARGES
-----------------------
   0 C :   -0.286173
   1 C :   -0.025546
   2 O :   -0.354974
   3 P :    0.599100
   4 S :   -0.314141
   5 O :   -0.385165
   6 C :   -0.009108
   7 C :   -0.283572
   8 S :   -0.092753
   9 C :   -0.335852
  10 S :   -0.091980
  11 P :    0.619799
  12 S :   -0.318896
  13 O :   -0.370509
  14 C :   -0.004174
  15 C :   -0.340484
  16 O :   -0.387846
  17 C :    0.000337
  18 C :   -0.314212
  19 H :    0.115862
  20 H :    0.121643
  21 H :    0.109627
  22 H :    0.108133
  23 H :    0.121067
  24 H :    0.105500
  25 H :    0.103695
  26 H :    0.113824
  27 H :    0.116247
  28 H :    0.122003
  29 H :    0.187046
  30 H :    0.186401
  31 H :    0.110874
  32 H :    0.111952
  33 H :    0.122991
  34 H :    0.151986
  35 H :    0.111780
  36 H :    0.104200
  37 H :    0.113403
  38 H :    0.124424
  39 H :    0.120199
  40 H :    0.113294
Sum of atomic charges:   -0.0000000

LOEWDIN ATOMIC CHARGES
----------------------
   0 C :   -0.358182
   1 C :   -0.114899
   2 O :   -0.231416
   3 P :    0.565949
   4 S :   -0.313099
   5 O :   -0.250579
   6 C :   -0.121269
   7 C :   -0.350766
   8 S :    0.067219
   9 C :   -0.480801
  10 S :    0.092482
  11 P :    0.573522
  12 S :   -0.311307
  13 O :   -0.242294
  14 C :   -0.111594
  15 C :   -0.373178
  16 O :   -0.248366
  17 C :   -0.116858
  18 C :   -0.369318
  19 H :    0.127035
  20 H :    0.126042
  21 H :    0.129518
  22 H :    0.108301
  23 H :    0.118994
  24 H :    0.109410
  25 H :    0.108907
  26 H :    0.131834
  27 H :    0.125868
  28 H :    0.128972
  29 H :    0.132052
  30 H :    0.128053
  31 H :    0.116146
  32 H :    0.114348
  33 H :    0.118042
  34 H :    0.133007
  35 H :    0.130876
  36 H :    0.118329
  37 H :    0.112553
  38 H :    0.120388
  39 H :    0.124949
  40 H :    0.131130

  Mayer bond orders larger than 0.100000
B(  0-C ,  1-C ) :   1.1610 B(  0-C , 19-H ) :   0.9472 B(  0-C , 20-H ) :   0.9415
B(  0-C , 21-H ) :   0.9404 B(  1-C ,  2-O ) :   0.8842 B(  1-C , 22-H ) :   0.9151
B(  1-C , 23-H ) :   0.9230 B(  2-O ,  3-P ) :   1.1235 B(  3-P ,  4-S ) :   1.6462
B(  3-P ,  5-O ) :   1.0723 B(  3-P ,  8-S ) :   0.9577 B(  4-S ,  8-S ) :   0.1124
B(  5-O ,  6-C ) :   0.9047 B(  6-C ,  7-C ) :   1.1594 B(  6-C , 24-H ) :   0.9104
B(  6-C , 25-H ) :   0.9260 B(  7-C , 26-H ) :   0.9418 B(  7-C , 27-H ) :   0.9508
B(  7-C , 28-H ) :   0.9507 B(  8-S ,  9-C ) :   0.9997 B(  9-C , 10-S ) :   1.0139
B(  9-C , 29-H ) :   0.8883 B(  9-C , 30-H ) :   0.8831 B( 10-S , 11-P ) :   0.9384
B( 10-S , 12-S ) :   0.1132 B( 11-P , 12-S ) :   1.6343 B( 11-P , 13-O ) :   1.1219
B( 11-P , 16-O ) :   1.0697 B( 13-O , 14-C ) :   0.8951 B( 14-C , 15-C ) :   1.1731
B( 14-C , 31-H ) :   0.9248 B( 14-C , 32-H ) :   0.9257 B( 15-C , 33-H ) :   0.9355
B( 15-C , 34-H ) :   0.9292 B( 15-C , 35-H ) :   0.9353 B( 16-O , 17-C ) :   0.9067
B( 17-C , 18-C ) :   1.1663 B( 17-C , 36-H ) :   0.9341 B( 17-C , 37-H ) :   0.9174
B( 18-C , 38-H ) :   0.9356 B( 18-C , 39-H ) :   0.9433 B( 18-C , 40-H ) :   0.9367

Dispersion correction           -0.066122703
FINAL SINGLE POINT ENERGY     -2929.521431591230

DIPOLE MOMENT
-------------

Method             : SCF
Type of density    : Electron Density
Multiplicity       :   1
Irrep              :   0
Energy             : -2929.6417228996292579 Eh
Relativity type    :
Basis              : AO
                                X                 Y                 Z
Electronic contribution:     -5.875849043      -9.395226148      -1.391280392
Nuclear contribution   :      5.927714967      10.052855635       1.187890815
                        -----------------------------------------
Total Dipole Moment    :      0.051865924       0.657629487      -0.203389577
                        -----------------------------------------
Magnitude (a.u.)       :      0.690314375
Magnitude (Debye)      :      1.754639698

Rotational constants in cm-1:             0.013409             0.004954             0.004613
Rotational constants in MHz :           402.002940           148.519511           138.281341

                             ****ORCA TERMINATED NORMALLY****
TOTAL RUN TIME: 0 days 0 hours 0 minutes 21 seconds 619 msec
