                         Program Version 6.0.0  -   RELEASE  -
|  1> ! wb97x-v def2-tzvp def2/J RIJCOSX DEFGRID2 scfconv7 GCP(DFT/TZ) printgap
|  2> %output
|  3>     printlevel normal
|  4> end
|  5> * xyz 0 1
|  6> C 3.0055139023933273 -1.863399142561033 -0.26726757617070956
|  7> C 1.7079451870628897 -1.1573154351746704 -0.10698042922544734
|  8> C 1.542282970174839 0.19076936783566478 -0.07607496840437168
|  9> C 0.250232855196044 0.8053178684458483 0.13086623691397914
| 10> O 0.10727199503822696 2.002497781460999 0.37209566269530947
| 11> N -0.8579648235833695 -0.07455851266518052 0.02544351662345317
| 12> C -0.6915599941854402 -1.4358386852773508 0.262027856272827
| 13> O -1.5791739161888179 -2.205050405001664 0.6210924188561114
| 14> N 0.5885785261449842 -1.9202867850232312 0.06057138664072748
| 15> C -2.270449560733773 0.49978499422836437 -0.1306998848722335
| 16> C -2.2295047724115737 1.716352949858782 -1.0720397281132523
| 17> C -3.19115257080128 -0.5282309153771005 -0.8116756996020003
| 18> C -2.8123224048559363 0.8806299400406886 1.2446648409868162
| 19> Cl 2.918405077492275 1.2508111603484042 -0.18991191303206065
| 20> H 3.7237078807201662 -1.513273976687114 0.47938368799377457
| 21> H 3.4276576357575848 -1.648831842824202 -1.2543074236319895
| 22> H 2.878770870210485 -2.941962473542544 -0.16331426158124374
| 23> H 0.6936779461332762 -2.9188562331754846 0.19508471354979798
| 24> H -3.2621467436673806 1.958573986046163 -1.3340658944814912
| 25> H -1.780167819416329 2.5975626912926613 -0.6224863385969162
| 26> H -1.6965355885787885 1.4767120281240593 -1.998033941728579
| 27> H -4.073903215730534 0.011922687063910628 -1.1617534207341587
| 28> H -3.523112131709959 -1.3172073316865032 -0.14171531458584175
| 29> H -2.708319444596801 -0.9810007046364669 -1.6836631211555015
| 30> H -3.829858071045302 1.268417413450403 1.1336477011987989
| 31> H -2.84694966412909 0.007395230365164294 1.9027299370785524
| 32> H -2.196648152410478 1.6537255251286573 1.711414552584299
| 33> *
| 34>
| 35>                          ****END OF INPUT****

CARTESIAN COORDINATES (ANGSTROEM)
---------------------------------
  C      3.005514   -1.863399   -0.267268
  C      1.707945   -1.157315   -0.106980
  C      1.542283    0.190769   -0.076075
  C      0.250233    0.805318    0.130866
  O      0.107272    2.002498    0.372096
  N     -0.857965   -0.074559    0.025444
  C     -0.691560   -1.435839    0.262028
  O     -1.579174   -2.205050    0.621092
  N      0.588579   -1.920287    0.060571
  C     -2.270450    0.499785   -0.130700
  C     -2.229505    1.716353   -1.072040
  C     -3.191153   -0.528231   -0.811676
  C     -2.812322    0.880630    1.244665
  Cl     2.918405    1.250811   -0.189912
  H      3.723708   -1.513274    0.479384
  H      3.427658   -1.648832   -1.254307
  H      2.878771   -2.941962   -0.163314
  H      0.693678   -2.918856    0.195085
  H     -3.262147    1.958574   -1.334066
  H     -1.780168    2.597563   -0.622486
  H     -1.696536    1.476712   -1.998034
  H     -4.073903    0.011923   -1.161753
  H     -3.523112   -1.317207   -0.141715
  H     -2.708319   -0.981001   -1.683663
  H     -3.829858    1.268417    1.133648
  H     -2.846950    0.007395    1.902730
  H     -2.196648    1.653726    1.711415

 Total Charge           Charge          ....    0
 Multiplicity           Mult            ....    1
 Number of Electrons    NEL             ....  114
 Basis Dimension        Dim             ....  518

ORBITAL ENERGIES
----------------

  NO   OCC          E(Eh)            E(eV)
   0   2.0000    -107.150598     -2915.7160
   1   2.0000     -21.655654      -589.2803
   2   2.0000     -21.651497      -589.1672
   3   2.0000     -16.602142      -451.7673
   4   2.0000     -16.588869      -451.4061
   5   2.0000     -12.206509      -332.1560
   6   2.0000     -12.175975      -331.3251
   7   2.0000     -12.148541      -330.5786
   8   2.0000     -12.114499      -329.6523
   9   2.0000     -12.112236      -329.5907
  10   2.0000     -12.086750      -328.8972
  11   2.0000     -12.034354      -327.4714
  12   2.0000     -12.033754      -327.4551
  13   2.0000     -12.032298      -327.4155
  14   2.0000     -11.303294      -307.5783
  15   2.0000      -9.095055      -247.4890
  16   2.0000      -9.092138      -247.4096
  17   2.0000      -9.092108      -247.4088
  18   2.0000      -1.725281       -46.9473
  19   2.0000      -1.708383       -46.4875
  20   2.0000      -1.593283       -43.3554
  21   2.0000      -1.534612       -41.7589
  22   2.0000      -1.435701       -39.0674
  23   2.0000      -1.347942       -36.6794
  24   2.0000      -1.331895       -36.2427
  25   2.0000      -1.266975       -34.4762
  26   2.0000      -1.221356       -33.2348
  27   2.0000      -1.197053       -32.5735
  28   2.0000      -1.187064       -32.3016
  29   2.0000      -1.177501       -32.0414
  30   2.0000      -1.112861       -30.2825
  31   2.0000      -1.103747       -30.0345
  32   2.0000      -1.062996       -28.9256
  33   2.0000      -1.058229       -28.7959
  34   2.0000      -1.029317       -28.0091
  35   2.0000      -0.970086       -26.3974
  36   2.0000      -0.952922       -25.9303
  37   2.0000      -0.943724       -25.6800
  38   2.0000      -0.935211       -25.4484
  39   2.0000      -0.916753       -24.9461
  40   2.0000      -0.900050       -24.4916
  41   2.0000      -0.894103       -24.3298
  42   2.0000      -0.883295       -24.0357
  43   2.0000      -0.875353       -23.8196
  44   2.0000      -0.871372       -23.7113
  45   2.0000      -0.861729       -23.4488
  46   2.0000      -0.849340       -23.1117
  47   2.0000      -0.829173       -22.5629
  48   2.0000      -0.818920       -22.2839
  49   2.0000      -0.817887       -22.2558
  50   2.0000      -0.811458       -22.0809
  51   2.0000      -0.802475       -21.8364
  52   2.0000      -0.796877       -21.6841
  53   2.0000      -0.795716       -21.6525
  54   2.0000      -0.776333       -21.1251
  55   2.0000      -0.772754       -21.0277
  56   2.0000      -0.688142       -18.7253
  57   0.0000      -0.350102        -9.5268
  58   0.0000      -0.313179        -8.5220
  59   0.0000      -0.278272        -7.5722
  60   0.0000      -0.198225        -5.3940
  61   0.0000      -0.177000        -4.8164

MULLIKEN ATOMIC CHARGES
-----------------------
   0 C :   -0.346419
   1 C :    0.180358
   2 C :   -0.087280
   3 C :    0.219884
   4 O :   -0.355845
   5 N :   -0.050694
   6 C :    0.289027
   7 O :   -0.381134
   8 N :   -0.242588
   9 C :    0.135785
  10 C :   -0.370283
  11 C :   -0.358391
  12 C :   -0.401889
  13 Cl:   -0.061764
  14 H :    0.157117
  15 H :    0.154764
  16 H :    0.112913
  17 H :    0.242372
  18 H :    0.111678
  19 H :    0.165668
  20 H :    0.112316
  21 H :    0.111956
  22 H :    0.157632
  23 H :    0.112583
  24 H :    0.112093
  25 H :    0.135660
  26 H :    0.144479
Sum of atomic charges:    0.0000000

LOEWDIN ATOMIC CHARGES
----------------------
   0 C :   -0.242414
   1 C :   -0.228289
   2 C :   -0.422825
   3 C :   -0.386432
   4 O :    0.086818
   5 N :    0.279320
   6 C :   -0.449524
   7 O :    0.057348
   8 N :    0.202985
   9 C :   -0.305176
  10 C :   -0.255668
  11 C :   -0.256496
  12 C :   -0.250339
  13 Cl:    0.416015
  14 H :    0.142766
  15 H :    0.144436
  16 H :    0.126944
  17 H :    0.207059
  18 H :    0.124307
  19 H :    0.128085
  20 H :    0.123904
  21 H :    0.124423
  22 H :    0.126858
  23 H :    0.123571
  24 H :    0.126935
  25 H :    0.127062
  26 H :    0.128326

  Mayer bond orders larger than 0.100000
B(  0-C ,  1-C ) :   0.9615 B(  0-C , 14-H ) :   0.9607 B(  0-C , 15-H ) :   0.9592
B(  0-C , 16-H ) :   0.9792 B(  1-C ,  2-C ) :   1.6175 B(  1-C ,  8-N ) :   1.1538
B(  2-C ,  3-C ) :   1.0614 B(  2-C , 13-Cl) :   1.1735 B(  3-C ,  4-O ) :   2.0535
B(  3-C ,  5-N ) :   1.0966 B(  5-N ,  6-C ) :   1.1581 B(  5-N ,  9-C ) :   0.8344
B(  6-C ,  7-O ) :   2.0239 B(  6-C ,  8-N ) :   1.1341 B(  8-N , 17-H ) :   0.8990
B(  9-C , 10-C ) :   0.9638 B(  9-C , 11-C ) :   0.9560 B(  9-C , 12-C ) :   0.9741
B( 10-C , 18-H ) :   0.9710 B( 10-C , 19-H ) :   0.9722 B( 10-C , 20-H ) :   0.9757
B( 11-C , 21-H ) :   0.9713 B( 11-C , 22-H ) :   0.9742 B( 11-C , 23-H ) :   0.9772
B( 12-C , 24-H ) :   0.9729 B( 12-C , 25-H ) :   0.9751 B( 12-C , 26-H ) :   0.9739

FINAL SINGLE POINT ENERGY     -1070.963679467935

DIPOLE MOMENT
-------------

Method             : SCF
Type of density    : Electron Density
Multiplicity       :   1
Irrep              :   0
Energy             : -1070.9826380153347145 Eh
Relativity type    :
Basis              : AO
                                X                 Y                 Z
Electronic contribution:     19.105327186       2.552353791       1.866462263
Nuclear contribution   :    -18.421563400      -3.898786994      -2.358020969
                        -----------------------------------------
Total Dipole Moment    :      0.683763786      -1.346433202      -0.491558706
                        -----------------------------------------
Magnitude (a.u.)       :      1.588094848
Magnitude (Debye)      :      4.036616307

Rotational constants in cm-1:             0.033376             0.015874             0.011824
Rotational constants in MHz :          1000.601680           475.876910           354.462440

                             ****ORCA TERMINATED NORMALLY****
TOTAL RUN TIME: 0 days 0 hours 8 minutes 10 seconds 943 msec
