                         Program Version 6.0.0  -   RELEASE  -
|  1> ! wb97x-v def2-tzvp def2/J RIJCOSX DEFGRID2 scfconv7 GCP(DFT/TZ) printgap
|  2> %output
|  3>     printlevel normal
|  4> end
|  5> %cpcm
|  6>     smd true
|  7>     smdsolvent "water"
|  8> end
|  9> * xyz 0 1
| 10> C 3.0055139023933273 -1.863399142561033 -0.26726757617070956
| 11> C 1.7079451870628897 -1.1573154351746704 -0.10698042922544734
| 12> C 1.542282970174839 0.19076936783566478 -0.07607496840437168
| 13> C 0.250232855196044 0.8053178684458483 0.13086623691397914
| 14> O 0.10727199503822696 2.002497781460999 0.37209566269530947
| 15> N -0.8579648235833695 -0.07455851266518052 0.02544351662345317
| 16> C -0.6915599941854402 -1.4358386852773508 0.262027856272827
| 17> O -1.5791739161888179 -2.205050405001664 0.6210924188561114
| 18> N 0.5885785261449842 -1.9202867850232312 0.06057138664072748
| 19> C -2.270449560733773 0.49978499422836437 -0.1306998848722335
| 20> C -2.2295047724115737 1.716352949858782 -1.0720397281132523
| 21> C -3.19115257080128 -0.5282309153771005 -0.8116756996020003
| 22> C -2.8123224048559363 0.8806299400406886 1.2446648409868162
| 23> Cl 2.918405077492275 1.2508111603484042 -0.18991191303206065
| 24> H 3.7237078807201662 -1.513273976687114 0.47938368799377457
| 25> H 3.4276576357575848 -1.648831842824202 -1.2543074236319895
| 26> H 2.878770870210485 -2.941962473542544 -0.16331426158124374
| 27> H 0.6936779461332762 -2.9188562331754846 0.19508471354979798
| 28> H -3.2621467436673806 1.958573986046163 -1.3340658944814912
| 29> H -1.780167819416329 2.5975626912926613 -0.6224863385969162
| 30> H -1.6965355885787885 1.4767120281240593 -1.998033941728579
| 31> H -4.073903215730534 0.011922687063910628 -1.1617534207341587
| 32> H -3.523112131709959 -1.3172073316865032 -0.14171531458584175
| 33> H -2.708319444596801 -0.9810007046364669 -1.6836631211555015
| 34> H -3.829858071045302 1.268417413450403 1.1336477011987989
| 35> H -2.84694966412909 0.007395230365164294 1.9027299370785524
| 36> H -2.196648152410478 1.6537255251286573 1.711414552584299
| 37> *
| 38>
| 39>                          ****END OF INPUT****

CARTESIAN COORDINATES (ANGSTROEM)
---------------------------------
  C      3.005514   -1.863399   -0.267268
  C      1.707945   -1.157315   -0.106980
  C      1.542283    0.190769   -0.076075
  C      0.250233    0.805318    0.130866
  O      0.107272    2.002498    0.372096
  N     -0.857965   -0.074559    0.025444
  C     -0.691560   -1.435839    0.262028
  O     -1.579174   -2.205050    0.621092
  N      0.588579   -1.920287    0.060571
  C     -2.270450    0.499785   -0.130700
  C     -2.229505    1.716353   -1.072040
  C     -3.191153   -0.528231   -0.811676
  C     -2.812322    0.880630    1.244665
  Cl     2.918405    1.250811   -0.189912
  H      3.723708   -1.513274    0.479384
  H      3.427658   -1.648832   -1.254307
  H      2.878771   -2.941962   -0.163314
  H      0.693678   -2.918856    0.195085
  H     -3.262147    1.958574   -1.334066
  H     -1.780168    2.597563   -0.622486
  H     -1.696536    1.476712   -1.998034
  H     -4.073903    0.011923   -1.161753
  H     -3.523112   -1.317207   -0.141715
  H     -2.708319   -0.981001   -1.683663
  H     -3.829858    1.268417    1.133648
  H     -2.846950    0.007395    1.902730
  H     -2.196648    1.653726    1.711415

 Total Charge           Charge          ....    0
 Multiplicity           Mult            ....    1
 Number of Electrons    NEL             ....  114
 Basis Dimension        Dim             ....  518

ORBITAL ENERGIES
----------------

  NO   OCC          E(Eh)            E(eV)
   0   2.0000    -107.151909     -2915.7517
   1   2.0000     -21.660963      -589.4248
   2   2.0000     -21.659938      -589.3969
   3   2.0000     -16.590489      -451.4502
   4   2.0000     -16.589778      -451.4308
   5   2.0000     -12.208501      -332.2102
   6   2.0000     -12.182514      -331.5030
   7   2.0000     -12.139711      -330.3383
   8   2.0000     -12.109302      -329.5109
   9   2.0000     -12.107364      -329.4581
  10   2.0000     -12.055885      -328.0573
  11   2.0000     -12.030615      -327.3697
  12   2.0000     -12.028588      -327.3145
  13   2.0000     -12.027779      -327.2925
  14   2.0000     -11.304731      -307.6174
  15   2.0000      -9.096475      -247.5277
  16   2.0000      -9.093627      -247.4502
  17   2.0000      -9.093611      -247.4497
  18   2.0000      -1.731309       -47.1113
  19   2.0000      -1.719616       -46.7931
  20   2.0000      -1.584939       -43.1284
  21   2.0000      -1.531294       -41.6686
  22   2.0000      -1.434869       -39.0448
  23   2.0000      -1.338490       -36.4222
  24   2.0000      -1.328216       -36.1426
  25   2.0000      -1.254320       -34.1318
  26   2.0000      -1.218216       -33.1493
  27   2.0000      -1.184504       -32.2320
  28   2.0000      -1.183402       -32.2020
  29   2.0000      -1.172783       -31.9131
  30   2.0000      -1.108318       -30.1589
  31   2.0000      -1.101823       -29.9821
  32   2.0000      -1.070839       -29.1390
  33   2.0000      -1.059462       -28.8294
  34   2.0000      -1.030244       -28.0344
  35   2.0000      -0.970175       -26.3998
  36   2.0000      -0.949355       -25.8332
  37   2.0000      -0.937030       -25.4979
  38   2.0000      -0.931280       -25.3414
  39   2.0000      -0.927784       -25.2463
  40   2.0000      -0.894133       -24.3306
  41   2.0000      -0.885906       -24.1067
  42   2.0000      -0.882601       -24.0168
  43   2.0000      -0.876225       -23.8433
  44   2.0000      -0.867968       -23.6186
  45   2.0000      -0.836246       -22.7554
  46   2.0000      -0.832918       -22.6649
  47   2.0000      -0.824399       -22.4330
  48   2.0000      -0.818763       -22.2797
  49   2.0000      -0.814614       -22.1668
  50   2.0000      -0.805635       -21.9224
  51   2.0000      -0.800341       -21.7784
  52   2.0000      -0.797064       -21.6892
  53   2.0000      -0.792870       -21.5751
  54   2.0000      -0.773602       -21.0508
  55   2.0000      -0.769533       -20.9400
  56   2.0000      -0.682498       -18.5717
  57   0.0000      -0.344455        -9.3731
  58   0.0000      -0.310976        -8.4621
  59   0.0000      -0.275811        -7.5052
  60   0.0000      -0.192226        -5.2307
  61   0.0000      -0.173271        -4.7149

MULLIKEN ATOMIC CHARGES
-----------------------
   0 C :   -0.383018
   1 C :    0.206641
   2 C :   -0.100049
   3 C :    0.271345
   4 O :   -0.473854
   5 N :   -0.039555
   6 C :    0.339393
   7 O :   -0.485313
   8 N :   -0.222861
   9 C :    0.161185
  10 C :   -0.416750
  11 C :   -0.409229
  12 C :   -0.420490
  13 Cl:   -0.096028
  14 H :    0.168400
  15 H :    0.171752
  16 H :    0.161131
  17 H :    0.298083
  18 H :    0.142372
  19 H :    0.145335
  20 H :    0.139573
  21 H :    0.141501
  22 H :    0.142502
  23 H :    0.142838
  24 H :    0.141499
  25 H :    0.137823
  26 H :    0.135774
Sum of atomic charges:    0.0000000

LOEWDIN ATOMIC CHARGES
----------------------
   0 C :   -0.231520
   1 C :   -0.198976
   2 C :   -0.428566
   3 C :   -0.379261
   4 O :    0.016675
   5 N :    0.287604
   6 C :   -0.432308
   7 O :    0.001244
   8 N :    0.229064
   9 C :   -0.304201
  10 C :   -0.259499
  11 C :   -0.259745
  12 C :   -0.253350
  13 Cl:    0.393404
  14 H :    0.146928
  15 H :    0.150469
  16 H :    0.142468
  17 H :    0.229375
  18 H :    0.131952
  19 H :    0.120923
  20 H :    0.129566
  21 H :    0.131973
  22 H :    0.121090
  23 H :    0.129607
  24 H :    0.133714
  25 H :    0.126598
  26 H :    0.124775

  Mayer bond orders larger than 0.100000
B(  0-C ,  1-C ) :   0.9571 B(  0-C , 14-H ) :   0.9562 B(  0-C , 15-H ) :   0.9511
B(  0-C , 16-H ) :   0.9687 B(  1-C ,  2-C ) :   1.5781 B(  1-C ,  8-N ) :   1.1918
B(  2-C ,  3-C ) :   1.0989 B(  2-C , 13-Cl) :   1.1101 B(  3-C ,  4-O ) :   1.9534
B(  3-C ,  5-N ) :   1.1119 B(  5-N ,  6-C ) :   1.1636 B(  5-N ,  9-C ) :   0.8365
B(  6-C ,  7-O ) :   1.9334 B(  6-C ,  8-N ) :   1.1699 B(  8-N , 17-H ) :   0.8687
B(  9-C , 10-C ) :   0.9497 B(  9-C , 11-C ) :   0.9432 B(  9-C , 12-C ) :   0.9830
B( 10-C , 18-H ) :   0.9692 B( 10-C , 19-H ) :   0.9738 B( 10-C , 20-H ) :   0.9756
B( 11-C , 21-H ) :   0.9693 B( 11-C , 22-H ) :   0.9739 B( 11-C , 23-H ) :   0.9769
B( 12-C , 24-H ) :   0.9728 B( 12-C , 25-H ) :   0.9702 B( 12-C , 26-H ) :   0.9701

FINAL SINGLE POINT ENERGY     -1070.981331594887

DIPOLE MOMENT
-------------

Method             : SCF
Type of density    : Electron Density
Multiplicity       :   1
Irrep              :   0
Energy             : -1071.0002901422874402 Eh
Relativity type    :
Basis              : AO
                                X                 Y                 Z
Electronic contribution:     19.364824897       1.768658806       1.573543979
Nuclear contribution   :    -18.421563400      -3.898786994      -2.358020969
                        -----------------------------------------
Total Dipole Moment    :      0.943261497      -2.130128188      -0.784476990
                        -----------------------------------------
Magnitude (a.u.)       :      2.458168525
Magnitude (Debye)      :      6.248167841

Rotational constants in cm-1:             0.033376             0.015874             0.011824
Rotational constants in MHz :          1000.601680           475.876910           354.462440

                             ****ORCA TERMINATED NORMALLY****
TOTAL RUN TIME: 0 days 0 hours 9 minutes 49 seconds 663 msec
