                         Program Version 6.0.0  -   RELEASE  -
|  1> ! r2scan-3c def2/J RI DEFGRID2 scfconv6 printgap
|  2> %output
|  3>     printlevel normal
|  4> end
|  5> * xyz 0 1
|  6> C -2.5115010721 -0.7573716856 0.0004984033
|  7> C -1.2152390917 0.0045989698 8.76127e-05
|  8> C -1.2067256431 1.3925492797 -2.58322e-05
|  9> C -0.0191695101 2.0996804801 -0.000252077
| 10> C 1.1854602162 1.4184471019 -0.0001460431
| 11> C 1.2174475344 0.0340887523 -1.9504e-05
| 12> C 0.0082136243 -0.6689265172 -0.0001472372
| 13> O 0.0864073809 -2.03323075 -0.0005784014
| 14> C 2.5049006958 -0.7313672853 0.0005494801
| 15> H -2.5976759957 -1.3827489259 -0.8882874347
| 16> H -2.5935981065 -1.3888627692 0.8853324611
| 17> H -3.3476150762 -0.0639771412 0.0047863398
| 18> H -2.1476061609 1.9232859362 0.0001213599
| 19> H -0.0315250863 3.1789615188 -0.0003400461
| 20> H 2.1162650558 1.9662366258 -6.03377e-05
| 21> H -0.801241964 -2.4187744742 -0.001400198
| 22> H 2.5538753645 -1.3792556339 -0.8734195848
| 23> H 3.3558657912 -0.056607921 -0.0044365272
| 24> H 2.5579406222 -1.3710400076 0.8803931745
| 25> *
| 26>
| 27>                          ****END OF INPUT****

CARTESIAN COORDINATES (ANGSTROEM)
---------------------------------
  C     -2.511501   -0.757372    0.000498
  C     -1.215239    0.004599    0.000088
  C     -1.206726    1.392549   -0.000026
  C     -0.019170    2.099680   -0.000252
  C      1.185460    1.418447   -0.000146
  C      1.217448    0.034089   -0.000020
  C      0.008214   -0.668927   -0.000147
  O      0.086407   -2.033231   -0.000578
  C      2.504901   -0.731367    0.000549
  H     -2.597676   -1.382749   -0.888287
  H     -2.593598   -1.388863    0.885332
  H     -3.347615   -0.063977    0.004786
  H     -2.147606    1.923286    0.000121
  H     -0.031525    3.178962   -0.000340
  H      2.116265    1.966237   -0.000060
  H     -0.801242   -2.418774   -0.001400
  H      2.553875   -1.379256   -0.873420
  H      3.355866   -0.056608   -0.004437
  H      2.557941   -1.371040    0.880393

 Total Charge           Charge          ....    0
 Multiplicity           Mult            ....    1
 Number of Electrons    NEL             ....   66
 Basis Dimension        Dim             ....  226

ORBITAL ENERGIES
----------------

  NO   OCC          E(Eh)            E(eV)
   0   2.0000     -18.984338      -516.5901
   1   2.0000     -10.087099      -274.4839
   2   2.0000     -10.040513      -273.2163
   3   2.0000     -10.039718      -273.1946
   4   2.0000     -10.034242      -273.0456
   5   2.0000     -10.026454      -272.8337
   6   2.0000     -10.024477      -272.7799
   7   2.0000     -10.020554      -272.6731
   8   2.0000     -10.019746      -272.6512
   9   2.0000      -1.026973       -27.9454
  10   2.0000      -0.821949       -22.3664
  11   2.0000      -0.755042       -20.5457
  12   2.0000      -0.719557       -19.5801
  13   2.0000      -0.664890       -18.0926
  14   2.0000      -0.645997       -17.5785
  15   2.0000      -0.575435       -15.6584
  16   2.0000      -0.548385       -14.9223
  17   2.0000      -0.507190       -13.8014
  18   2.0000      -0.456368       -12.4184
  19   2.0000      -0.432998       -11.7825
  20   2.0000      -0.413189       -11.2435
  21   2.0000      -0.392586       -10.6828
  22   2.0000      -0.386965       -10.5298
  23   2.0000      -0.379022       -10.3137
  24   2.0000      -0.373392       -10.1605
  25   2.0000      -0.356618        -9.7041
  26   2.0000      -0.347462        -9.4549
  27   2.0000      -0.344071        -9.3626
  28   2.0000      -0.313396        -8.5280
  29   2.0000      -0.305968        -8.3258
  30   2.0000      -0.298792        -8.1305
  31   2.0000      -0.219943        -5.9849
  32   2.0000      -0.197122        -5.3640
  33   0.0000      -0.020123        -0.5476
  34   0.0000      -0.012248        -0.3333
  35   0.0000       0.046938         1.2772
  36   0.0000       0.084418         2.2971
  37   0.0000       0.103362         2.8126

MULLIKEN ATOMIC CHARGES
-----------------------
   0 C :   -0.626624
   1 C :    0.063831
   2 C :   -0.203220
   3 C :   -0.186196
   4 C :   -0.212479
   5 C :    0.064054
   6 C :    0.306781
   7 O :   -0.414096
   8 C :   -0.527665
   9 H :    0.169122
  10 H :    0.168392
  11 H :    0.161667
  12 H :    0.144118
  13 H :    0.142676
  14 H :    0.147049
  15 H :    0.326064
  16 H :    0.165127
  17 H :    0.146122
  18 H :    0.165277
Sum of atomic charges:    0.0000000

LOEWDIN ATOMIC CHARGES
----------------------
   0 C :   -0.393277
   1 C :   -0.099970
   2 C :   -0.165824
   3 C :   -0.182923
   4 C :   -0.162689
   5 C :   -0.074025
   6 C :    0.192362
   7 O :   -0.507758
   8 C :   -0.374418
   9 H :    0.160504
  10 H :    0.160381
  11 H :    0.167536
  12 H :    0.166546
  13 H :    0.165950
  14 H :    0.167886
  15 H :    0.285048
  16 H :    0.169155
  17 H :    0.156429
  18 H :    0.169088

  Mayer bond orders larger than 0.100000
B(  0-C ,  1-C ) :   0.7609 B(  0-C ,  9-H ) :   0.9825 B(  0-C , 10-H ) :   0.9825
B(  0-C , 11-H ) :   0.9724 B(  1-C ,  2-C ) :   1.3417 B(  1-C ,  6-C ) :   1.3960
B(  2-C ,  3-C ) :   1.4641 B(  2-C , 12-H ) :   0.9282 B(  3-C ,  4-C ) :   1.4318
B(  3-C , 13-H ) :   0.9408 B(  4-C ,  5-C ) :   1.3881 B(  4-C , 14-H ) :   0.9290
B(  5-C ,  6-C ) :   1.4870 B(  5-C ,  8-C ) :   0.8000 B(  6-C ,  7-O ) :   0.9823
B(  7-O , 15-H ) :   0.8646 B(  8-C , 16-H ) :   0.9736 B(  8-C , 17-H ) :   0.9939
B(  8-C , 18-H ) :   0.9734

Dispersion correction           -0.006252802
FINAL SINGLE POINT ENERGY      -386.006446916751

DIPOLE MOMENT
-------------

Method             : SCF
Type of density    : Electron Density
Multiplicity       :   1
Irrep              :   0
Energy             :  -386.0075931442301567 Eh
Relativity type    :
Basis              : AO
                                X                 Y                 Z
Electronic contribution:      0.344215558       0.732099240      -0.002578986
Nuclear contribution   :     -0.876203239      -0.961530376       0.002514358
                        -----------------------------------------
Total Dipole Moment    :     -0.531987681      -0.229431136      -0.000064628
                        -----------------------------------------
Magnitude (a.u.)       :      0.579352694
Magnitude (Debye)      :      1.472597518

Rotational constants in cm-1:             0.076699             0.059461             0.033917
Rotational constants in MHz :          2299.373512          1782.601011          1016.808305

                             ****ORCA TERMINATED NORMALLY****
TOTAL RUN TIME: 0 days 0 hours 0 minutes 31 seconds 582 msec
