                         Program Version 6.0.0  -   RELEASE  -
|  1> ! r2scan-3c def2/J RI DEFGRID2 scfconv6 printgap
|  2> %output
|  3>     printlevel normal
|  4> end
|  5> %cpcm
|  6>     smd true
|  7>     smdsolvent "water"
|  8> end
|  9> * xyz 0 1
| 10> C -2.5115010721 -0.7573716856 0.0004984033
| 11> C -1.2152390917 0.0045989698 8.76127e-05
| 12> C -1.2067256431 1.3925492797 -2.58322e-05
| 13> C -0.0191695101 2.0996804801 -0.000252077
| 14> C 1.1854602162 1.4184471019 -0.0001460431
| 15> C 1.2174475344 0.0340887523 -1.9504e-05
| 16> C 0.0082136243 -0.6689265172 -0.0001472372
| 17> O 0.0864073809 -2.03323075 -0.0005784014
| 18> C 2.5049006958 -0.7313672853 0.0005494801
| 19> H -2.5976759957 -1.3827489259 -0.8882874347
| 20> H -2.5935981065 -1.3888627692 0.8853324611
| 21> H -3.3476150762 -0.0639771412 0.0047863398
| 22> H -2.1476061609 1.9232859362 0.0001213599
| 23> H -0.0315250863 3.1789615188 -0.0003400461
| 24> H 2.1162650558 1.9662366258 -6.03377e-05
| 25> H -0.801241964 -2.4187744742 -0.001400198
| 26> H 2.5538753645 -1.3792556339 -0.8734195848
| 27> H 3.3558657912 -0.056607921 -0.0044365272
| 28> H 2.5579406222 -1.3710400076 0.8803931745
| 29> *
| 30>
| 31>                          ****END OF INPUT****

CARTESIAN COORDINATES (ANGSTROEM)
---------------------------------
  C     -2.511501   -0.757372    0.000498
  C     -1.215239    0.004599    0.000088
  C     -1.206726    1.392549   -0.000026
  C     -0.019170    2.099680   -0.000252
  C      1.185460    1.418447   -0.000146
  C      1.217448    0.034089   -0.000020
  C      0.008214   -0.668927   -0.000147
  O      0.086407   -2.033231   -0.000578
  C      2.504901   -0.731367    0.000549
  H     -2.597676   -1.382749   -0.888287
  H     -2.593598   -1.388863    0.885332
  H     -3.347615   -0.063977    0.004786
  H     -2.147606    1.923286    0.000121
  H     -0.031525    3.178962   -0.000340
  H      2.116265    1.966237   -0.000060
  H     -0.801242   -2.418774   -0.001400
  H      2.553875   -1.379256   -0.873420
  H      3.355866   -0.056608   -0.004437
  H      2.557941   -1.371040    0.880393

 Total Charge           Charge          ....    0
 Multiplicity           Mult            ....    1
 Number of Electrons    NEL             ....   66
 Basis Dimension        Dim             ....  226

ORBITAL ENERGIES
----------------

  NO   OCC          E(Eh)            E(eV)
   0   2.0000     -18.982270      -516.5338
   1   2.0000     -10.088216      -274.5143
   2   2.0000     -10.038898      -273.1723
   3   2.0000     -10.036904      -273.1180
   4   2.0000     -10.025751      -272.8145
   5   2.0000     -10.025591      -272.8102
   6   2.0000     -10.022951      -272.7384
   7   2.0000     -10.021955      -272.7113
   8   2.0000     -10.018286      -272.6114
   9   2.0000      -1.024866       -27.8880
  10   2.0000      -0.823764       -22.4158
  11   2.0000      -0.752223       -20.4690
  12   2.0000      -0.718755       -19.5583
  13   2.0000      -0.658602       -17.9215
  14   2.0000      -0.645010       -17.5516
  15   2.0000      -0.572433       -15.5767
  16   2.0000      -0.547071       -14.8866
  17   2.0000      -0.503367       -13.6973
  18   2.0000      -0.455833       -12.4038
  19   2.0000      -0.431031       -11.7290
  20   2.0000      -0.408347       -11.1117
  21   2.0000      -0.388299       -10.5662
  22   2.0000      -0.380127       -10.3438
  23   2.0000      -0.371010       -10.0957
  24   2.0000      -0.368309       -10.0222
  25   2.0000      -0.356847        -9.7103
  26   2.0000      -0.345512        -9.4019
  27   2.0000      -0.338244        -9.2041
  28   2.0000      -0.310673        -8.4538
  29   2.0000      -0.310290        -8.4434
  30   2.0000      -0.297273        -8.0892
  31   2.0000      -0.222846        -6.0639
  32   2.0000      -0.200782        -5.4636
  33   0.0000      -0.022671        -0.6169
  34   0.0000      -0.015850        -0.4313
  35   0.0000       0.066544         1.8108
  36   0.0000       0.092137         2.5072
  37   0.0000       0.107824         2.9340

MULLIKEN ATOMIC CHARGES
-----------------------
   0 C :   -0.625858
   1 C :    0.032644
   2 C :   -0.235617
   3 C :   -0.228179
   4 C :   -0.247252
   5 C :    0.041450
   6 C :    0.292928
   7 O :   -0.457970
   8 C :   -0.564643
   9 H :    0.189835
  10 H :    0.189355
  11 H :    0.178965
  12 H :    0.177239
  13 H :    0.172020
  14 H :    0.177643
  15 H :    0.380196
  16 H :    0.178167
  17 H :    0.170517
  18 H :    0.178560
Sum of atomic charges:    0.0000000

LOEWDIN ATOMIC CHARGES
----------------------
   0 C :   -0.393084
   1 C :   -0.097460
   2 C :   -0.179348
   3 C :   -0.201518
   4 C :   -0.179775
   5 C :   -0.086118
   6 C :    0.182569
   7 O :   -0.521778
   8 C :   -0.382076
   9 H :    0.171609
  10 H :    0.171533
  11 H :    0.171528
  12 H :    0.178308
  13 H :    0.175068
  14 H :    0.178332
  15 H :    0.303782
  16 H :    0.171721
  17 H :    0.164975
  18 H :    0.171732

  Mayer bond orders larger than 0.100000
B(  0-C ,  1-C ) :   0.8119 B(  0-C ,  9-H ) :   0.9691 B(  0-C , 10-H ) :   0.9692
B(  0-C , 11-H ) :   0.9705 B(  1-C ,  2-C ) :   1.3232 B(  1-C ,  6-C ) :   1.3586
B(  2-C ,  3-C ) :   1.4063 B(  2-C , 12-H ) :   0.9473 B(  3-C ,  4-C ) :   1.3882
B(  3-C , 13-H ) :   0.9597 B(  4-C ,  5-C ) :   1.3614 B(  4-C , 14-H ) :   0.9472
B(  5-C ,  6-C ) :   1.4357 B(  5-C ,  8-C ) :   0.8056 B(  6-C ,  7-O ) :   0.9855
B(  7-O , 15-H ) :   0.8372 B(  8-C , 16-H ) :   0.9719 B(  8-C , 17-H ) :   0.9834
B(  8-C , 18-H ) :   0.9717

Dispersion correction           -0.006252802
FINAL SINGLE POINT ENERGY      -386.014191028899

DIPOLE MOMENT
-------------

Method             : SCF
Type of density    : Electron Density
Multiplicity       :   1
Irrep              :   0
Energy             :  -386.0153372563777907 Eh
Relativity type    :
Basis              : AO
                                X                 Y                 Z
Electronic contribution:      0.086669238       0.597262465      -0.002581175
Nuclear contribution   :     -0.876203239      -0.961530376       0.002514358
                        -----------------------------------------
Total Dipole Moment    :     -0.789534001      -0.364267911      -0.000066817
                        -----------------------------------------
Magnitude (a.u.)       :      0.869514263
Magnitude (Debye)      :      2.210129616

Rotational constants in cm-1:             0.076699             0.059461             0.033917
Rotational constants in MHz :          2299.373512          1782.601011          1016.808305

                             ****ORCA TERMINATED NORMALLY****
TOTAL RUN TIME: 0 days 0 hours 0 minutes 38 seconds 656 msec
