                         Program Version 6.0.0  -   RELEASE  -
|  1> ! wb97x-v def2-tzvp def2/J RIJCOSX DEFGRID2 scfconv7 GCP(DFT/TZ) printgap
|  2> %output
|  3>     printlevel normal
|  4> end
|  5> * xyz 0 1
|  6> C 0.6551438930858019 1.6824023200282838 -0.042132138011221454
|  7> C 1.4000738043587488 0.3697870617332293 -0.26920424861966213
|  8> H 1.6113974307397412 0.2422864579948242 -1.3411179124291348
|  9> C 0.5456371543687855 -0.7908558353129419 0.2020622013554373
| 10> H 0.41916267121881245 -0.7263086978261812 1.2937067752033615
| 11> C -0.8180175190748333 -0.7156150924153843 -0.4779252542085337
| 12> H -0.6705495496611253 -0.8342691797390894 -1.560610333987878
| 13> C -1.4842417538379125 0.6487959430420124 -0.26366360128945
| 14> H -2.3791549959654317 0.7385101137434025 -0.8912819003057155
| 15> O -0.6161104568214494 1.684364955167321 -0.7186580466252473
| 16> O -1.8162250106671096 0.7876127607030033 1.1024332245836919
| 17> O -1.613914098485533 -1.7864564744241656 0.03427471333807065
| 18> O 1.2148811989440866 -2.010282705016176 -0.14209283537544146
| 19> O 2.619423289976035 0.36263030864087126 0.4832475370973853
| 20> H 1.2222512004170123 2.517577309760764 -0.4607652722224755
| 21> H 0.5204365741222154 1.8492113160393806 1.0345571807883223
| 22> H -2.430576502742959 1.5300991918525164 1.1806651964578403
| 23> H -2.37307885408889 -1.896739741242599 -0.5528355538731711
| 24> H 0.6666862269409236 -2.737270202550452 0.1822266843022036
| 25> H 3.2202668671315013 0.9960586720973846 0.06899067813440644
| 26> *
| 27>
| 28>                          ****END OF INPUT****

CARTESIAN COORDINATES (ANGSTROEM)
---------------------------------
  C      0.655144    1.682402   -0.042132
  C      1.400074    0.369787   -0.269204
  H      1.611397    0.242286   -1.341118
  C      0.545637   -0.790856    0.202062
  H      0.419163   -0.726309    1.293707
  C     -0.818018   -0.715615   -0.477925
  H     -0.670550   -0.834269   -1.560610
  C     -1.484242    0.648796   -0.263664
  H     -2.379155    0.738510   -0.891282
  O     -0.616110    1.684365   -0.718658
  O     -1.816225    0.787613    1.102433
  O     -1.613914   -1.786456    0.034275
  O      1.214881   -2.010283   -0.142093
  O      2.619423    0.362630    0.483248
  H      1.222251    2.517577   -0.460765
  H      0.520437    1.849211    1.034557
  H     -2.430577    1.530099    1.180665
  H     -2.373079   -1.896740   -0.552836
  H      0.666686   -2.737270    0.182227
  H      3.220267    0.996059    0.068991

 Total Charge           Charge          ....    0
 Multiplicity           Mult            ....    1
 Number of Electrons    NEL             ....   80
 Basis Dimension        Dim             ....  370

ORBITAL ENERGIES
----------------

  NO   OCC          E(Eh)            E(eV)
   0   2.0000     -21.690724      -590.2346
   1   2.0000     -21.690452      -590.2272
   2   2.0000     -21.687394      -590.1440
   3   2.0000     -21.675893      -589.8310
   4   2.0000     -21.665027      -589.5354
   5   2.0000     -12.157919      -330.8338
   6   2.0000     -12.108673      -329.4937
   7   2.0000     -12.102821      -329.3345
   8   2.0000     -12.099020      -329.2311
   9   2.0000     -12.097780      -329.1973
  10   2.0000      -1.720567       -46.8190
  11   2.0000      -1.690354       -45.9969
  12   2.0000      -1.680489       -45.7284
  13   2.0000      -1.675746       -45.5994
  14   2.0000      -1.665470       -45.3197
  15   2.0000      -1.331269       -36.2257
  16   2.0000      -1.304506       -35.4974
  17   2.0000      -1.194816       -32.5126
  18   2.0000      -1.191718       -32.4283
  19   2.0000      -1.120497       -30.4903
  20   2.0000      -1.083637       -29.4873
  21   2.0000      -1.056693       -28.7541
  22   2.0000      -1.047018       -28.4908
  23   2.0000      -1.032642       -28.0996
  24   2.0000      -1.010653       -27.5013
  25   2.0000      -0.992694       -27.0126
  26   2.0000      -0.989288       -26.9199
  27   2.0000      -0.964945       -26.2575
  28   2.0000      -0.962201       -26.1828
  29   2.0000      -0.945694       -25.7336
  30   2.0000      -0.933510       -25.4021
  31   2.0000      -0.924096       -25.1459
  32   2.0000      -0.916113       -24.9287
  33   2.0000      -0.893553       -24.3148
  34   2.0000      -0.874997       -23.8099
  35   2.0000      -0.852725       -23.2038
  36   2.0000      -0.823208       -22.4006
  37   2.0000      -0.817927       -22.2569
  38   2.0000      -0.798914       -21.7395
  39   2.0000      -0.773780       -21.0556
  40   0.0000      -0.234985        -6.3943
  41   0.0000      -0.177349        -4.8259
  42   0.0000      -0.162046        -4.4095
  43   0.0000      -0.148221        -4.0333
  44   0.0000      -0.115014        -3.1297

MULLIKEN ATOMIC CHARGES
-----------------------
   0 C :   -0.036238
   1 C :    0.002981
   2 H :    0.076124
   3 C :    0.110827
   4 H :    0.103075
   5 C :    0.045995
   6 H :    0.086500
   7 C :    0.068130
   8 H :    0.089443
   9 O :   -0.292867
  10 O :   -0.400449
  11 O :   -0.439728
  12 O :   -0.436889
  13 O :   -0.413609
  14 H :    0.109994
  15 H :    0.106430
  16 H :    0.308052
  17 H :    0.304112
  18 H :    0.310044
  19 H :    0.298074
Sum of atomic charges:    0.0000000

LOEWDIN ATOMIC CHARGES
----------------------
   0 C :   -0.281028
   1 C :   -0.327715
   2 H :    0.138729
   3 C :   -0.301503
   4 H :    0.149894
   5 C :   -0.316494
   6 H :    0.143922
   7 C :   -0.417890
   8 H :    0.125647
   9 O :    0.157681
  10 O :    0.008089
  11 O :   -0.009511
  12 O :   -0.010316
  13 O :   -0.006025
  14 H :    0.125202
  15 H :    0.127618
  16 H :    0.176744
  17 H :    0.172924
  18 H :    0.173269
  19 H :    0.170763

  Mayer bond orders larger than 0.100000
B(  0-C ,  1-C ) :   0.9592 B(  0-C ,  9-O ) :   0.9781 B(  0-C , 14-H ) :   0.9628
B(  0-C , 15-H ) :   0.9696 B(  1-C ,  2-H ) :   0.9792 B(  1-C ,  3-C ) :   0.9507
B(  1-C , 13-O ) :   1.1284 B(  3-C ,  4-H ) :   0.9662 B(  3-C ,  5-C ) :   0.9442
B(  3-C , 12-O ) :   1.0823 B(  5-C ,  6-H ) :   0.9659 B(  5-C ,  7-C ) :   0.9503
B(  5-C , 11-O ) :   1.0574 B(  7-C ,  8-H ) :   0.9417 B(  7-C ,  9-O ) :   1.0593
B(  7-C , 10-O ) :   1.2536 B( 10-O , 16-H ) :   0.8937 B( 11-O , 17-H ) :   0.9015
B( 12-O , 18-H ) :   0.8906 B( 13-O , 19-H ) :   0.9042

FINAL SINGLE POINT ENERGY      -572.698685325315

DIPOLE MOMENT
-------------

Method             : SCF
Type of density    : Electron Density
Multiplicity       :   1
Irrep              :   0
Energy             :  -572.7141627293150350 Eh
Relativity type    :
Basis              : AO
                                X                 Y                 Z
Electronic contribution:     -0.721683770      -0.809703924       0.361198485
Nuclear contribution   :     -0.184403194       1.520379115      -1.025459386
                        -----------------------------------------
Total Dipole Moment    :     -0.906086965       0.710675191      -0.664260901
                        -----------------------------------------
Magnitude (a.u.)       :      1.329396615
Magnitude (Debye)      :      3.379057656

Rotational constants in cm-1:             0.056162             0.044298             0.028685
Rotational constants in MHz :          1683.691152          1328.033687           859.952925

                             ****ORCA TERMINATED NORMALLY****
TOTAL RUN TIME: 0 days 0 hours 4 minutes 5 seconds 959 msec
