                         Program Version 6.0.0  -   RELEASE  -
|  1> ! wb97x-v def2-tzvp def2/J RIJCOSX DEFGRID2 scfconv7 GCP(DFT/TZ) printgap
|  2> %output
|  3>     printlevel normal
|  4> end
|  5> %cpcm
|  6>     smd true
|  7>     smdsolvent "water"
|  8> end
|  9> * xyz 0 1
| 10> C 0.6551438930858019 1.6824023200282838 -0.042132138011221454
| 11> C 1.4000738043587488 0.3697870617332293 -0.26920424861966213
| 12> H 1.6113974307397412 0.2422864579948242 -1.3411179124291348
| 13> C 0.5456371543687855 -0.7908558353129419 0.2020622013554373
| 14> H 0.41916267121881245 -0.7263086978261812 1.2937067752033615
| 15> C -0.8180175190748333 -0.7156150924153843 -0.4779252542085337
| 16> H -0.6705495496611253 -0.8342691797390894 -1.560610333987878
| 17> C -1.4842417538379125 0.6487959430420124 -0.26366360128945
| 18> H -2.3791549959654317 0.7385101137434025 -0.8912819003057155
| 19> O -0.6161104568214494 1.684364955167321 -0.7186580466252473
| 20> O -1.8162250106671096 0.7876127607030033 1.1024332245836919
| 21> O -1.613914098485533 -1.7864564744241656 0.03427471333807065
| 22> O 1.2148811989440866 -2.010282705016176 -0.14209283537544146
| 23> O 2.619423289976035 0.36263030864087126 0.4832475370973853
| 24> H 1.2222512004170123 2.517577309760764 -0.4607652722224755
| 25> H 0.5204365741222154 1.8492113160393806 1.0345571807883223
| 26> H -2.430576502742959 1.5300991918525164 1.1806651964578403
| 27> H -2.37307885408889 -1.896739741242599 -0.5528355538731711
| 28> H 0.6666862269409236 -2.737270202550452 0.1822266843022036
| 29> H 3.2202668671315013 0.9960586720973846 0.06899067813440644
| 30> *
| 31>
| 32>                          ****END OF INPUT****

CARTESIAN COORDINATES (ANGSTROEM)
---------------------------------
  C      0.655144    1.682402   -0.042132
  C      1.400074    0.369787   -0.269204
  H      1.611397    0.242286   -1.341118
  C      0.545637   -0.790856    0.202062
  H      0.419163   -0.726309    1.293707
  C     -0.818018   -0.715615   -0.477925
  H     -0.670550   -0.834269   -1.560610
  C     -1.484242    0.648796   -0.263664
  H     -2.379155    0.738510   -0.891282
  O     -0.616110    1.684365   -0.718658
  O     -1.816225    0.787613    1.102433
  O     -1.613914   -1.786456    0.034275
  O      1.214881   -2.010283   -0.142093
  O      2.619423    0.362630    0.483248
  H      1.222251    2.517577   -0.460765
  H      0.520437    1.849211    1.034557
  H     -2.430577    1.530099    1.180665
  H     -2.373079   -1.896740   -0.552836
  H      0.666686   -2.737270    0.182227
  H      3.220267    0.996059    0.068991

 Total Charge           Charge          ....    0
 Multiplicity           Mult            ....    1
 Number of Electrons    NEL             ....   80
 Basis Dimension        Dim             ....  370

ORBITAL ENERGIES
----------------

  NO   OCC          E(Eh)            E(eV)
   0   2.0000     -21.691040      -590.2432
   1   2.0000     -21.686300      -590.1142
   2   2.0000     -21.683288      -590.0323
   3   2.0000     -21.680855      -589.9661
   4   2.0000     -21.678691      -589.9072
   5   2.0000     -12.149109      -330.5941
   6   2.0000     -12.102819      -329.3345
   7   2.0000     -12.101460      -329.2975
   8   2.0000     -12.100193      -329.2630
   9   2.0000     -12.091258      -329.0199
  10   2.0000      -1.718161       -46.7535
  11   2.0000      -1.688769       -45.9537
  12   2.0000      -1.684541       -45.8387
  13   2.0000      -1.676675       -45.6247
  14   2.0000      -1.675131       -45.5826
  15   2.0000      -1.330853       -36.2144
  16   2.0000      -1.299731       -35.3675
  17   2.0000      -1.193513       -32.4771
  18   2.0000      -1.190893       -32.4058
  19   2.0000      -1.121545       -30.5188
  20   2.0000      -1.082388       -29.4533
  21   2.0000      -1.054849       -28.7039
  22   2.0000      -1.051191       -28.6044
  23   2.0000      -1.034835       -28.1593
  24   2.0000      -1.012213       -27.5437
  25   2.0000      -0.992310       -27.0021
  26   2.0000      -0.991778       -26.9876
  27   2.0000      -0.970025       -26.3957
  28   2.0000      -0.967000       -26.3134
  29   2.0000      -0.949778       -25.8448
  30   2.0000      -0.938832       -25.5469
  31   2.0000      -0.926941       -25.2233
  32   2.0000      -0.918459       -24.9925
  33   2.0000      -0.897400       -24.4195
  34   2.0000      -0.875044       -23.8112
  35   2.0000      -0.850608       -23.1462
  36   2.0000      -0.819687       -22.3048
  37   2.0000      -0.815176       -22.1821
  38   2.0000      -0.797335       -21.6966
  39   2.0000      -0.772257       -21.0142
  40   0.0000      -0.232129        -6.3165
  41   0.0000      -0.173406        -4.7186
  42   0.0000      -0.155798        -4.2395
  43   0.0000      -0.149620        -4.0714
  44   0.0000      -0.111042        -3.0216

MULLIKEN ATOMIC CHARGES
-----------------------
   0 C :   -0.079035
   1 C :    0.043967
   2 H :    0.105894
   3 C :    0.128758
   4 H :    0.108024
   5 C :    0.074354
   6 H :    0.113805
   7 C :    0.093418
   8 H :    0.137481
   9 O :   -0.357965
  10 O :   -0.500894
  11 O :   -0.533193
  12 O :   -0.535459
  13 O :   -0.528997
  14 H :    0.151974
  15 H :    0.115726
  16 H :    0.368469
  17 H :    0.368241
  18 H :    0.359240
  19 H :    0.366192
Sum of atomic charges:    0.0000000

LOEWDIN ATOMIC CHARGES
----------------------
   0 C :   -0.276593
   1 C :   -0.323323
   2 H :    0.148082
   3 C :   -0.307538
   4 H :    0.149906
   5 C :   -0.308635
   6 H :    0.154833
   7 C :   -0.404603
   8 H :    0.142062
   9 O :    0.135118
  10 O :   -0.022922
  11 O :   -0.039460
  12 O :   -0.049096
  13 O :   -0.046372
  14 H :    0.137112
  15 H :    0.128734
  16 H :    0.199564
  17 H :    0.197527
  18 H :    0.189322
  19 H :    0.196281

  Mayer bond orders larger than 0.100000
B(  0-C ,  1-C ) :   0.9665 B(  0-C ,  9-O ) :   0.9475 B(  0-C , 14-H ) :   0.9611
B(  0-C , 15-H ) :   0.9705 B(  1-C ,  2-H ) :   0.9761 B(  1-C ,  3-C ) :   0.9497
B(  1-C , 13-O ) :   1.0733 B(  3-C ,  4-H ) :   0.9571 B(  3-C ,  5-C ) :   0.9589
B(  3-C , 12-O ) :   1.0313 B(  5-C ,  6-H ) :   0.9601 B(  5-C ,  7-C ) :   0.9565
B(  5-C , 11-O ) :   1.0363 B(  7-C ,  8-H ) :   0.9558 B(  7-C ,  9-O ) :   1.0217
B(  7-C , 10-O ) :   1.1842 B( 10-O , 16-H ) :   0.8562 B( 11-O , 17-H ) :   0.8623
B( 12-O , 18-H ) :   0.8604 B( 13-O , 19-H ) :   0.8638

FINAL SINGLE POINT ENERGY      -572.735997074856

DIPOLE MOMENT
-------------

Method             : SCF
Type of density    : Electron Density
Multiplicity       :   1
Irrep              :   0
Energy             :  -572.7514744788561529 Eh
Relativity type    :
Basis              : AO
                                X                 Y                 Z
Electronic contribution:     -1.061525104      -0.482067481      -0.027030275
Nuclear contribution   :     -0.184403194       1.520379115      -1.025459386
                        -----------------------------------------
Total Dipole Moment    :     -1.245928298       1.038311635      -1.052489661
                        -----------------------------------------
Magnitude (a.u.)       :      1.933432921
Magnitude (Debye)      :      4.914395933

Rotational constants in cm-1:             0.056162             0.044298             0.028685
Rotational constants in MHz :          1683.691152          1328.033687           859.952925

                             ****ORCA TERMINATED NORMALLY****
TOTAL RUN TIME: 0 days 0 hours 4 minutes 9 seconds 557 msec
