                         Program Version 6.0.0  -   RELEASE  -
|  1> ! pbe def2-sv(p) def2/J RI DEFGRID1 loosescf d4 GCP(DFT/SV(P)) printgap
|  2> %output
|  3>     printlevel normal
|  4> end
|  5> * xyz 0 1
|  6> C 1.3504817967 -1.8215576155 -2.4578768815
|  7> C 1.9991608713 -0.4583750066 -2.5796055677
|  8> O 1.8049809471 0.3670325611 -1.4053427095
|  9> P 2.2398839064 0.0064476442 0.0660624308
| 10> S 2.4258484532 1.6248201832 1.1544294234
| 11> O 3.5628005984 -0.8310022445 -0.2192521059
| 12> C 4.2440166333 -1.6739963084 0.7273234003
| 13> C 4.7359695824 -0.9184823744 1.9441021984
| 14> S 0.9208230324 -1.4695697889 0.8684476152
| 15> C 0.0220920304 -0.4854352695 2.1003427198
| 16> S -1.7706805634 -0.6200491945 1.9111296287
| 17> P -1.9837618532 0.2860588426 0.0113174404
| 18> S -0.8439868749 1.8653094632 -0.2842742863
| 19> O -3.5427531293 0.5598564716 -0.0859463268
| 20> C -4.1512719675 1.6854704866 0.5787897268
| 21> C -5.4609590304 1.9889012672 -0.1204838081
| 22> O -1.7950714009 -0.9326677477 -0.9807759939
| 23> C -2.5827942243 -1.1248528649 -2.1812372486
| 24> C -2.3239151628 -0.035438178 -3.2004494603
| 25> H 0.3073465865 -1.7188646989 -2.1700775247
| 26> H 1.412783079 -2.3300459655 -3.414975296
| 27> H 1.8585138377 -2.4195446543 -1.7034317239
| 28> H 1.5438857117 0.1374025512 -3.3732709752
| 29> H 3.0729476683 -0.5478112112 -2.7550808945
| 30> H 3.5653048659 -2.4799172236 1.0203595846
| 31> H 5.0764267122 -2.0808705165 0.1500311246
| 32> H 5.3179677525 -1.5869558516 2.5702306433
| 33> H 5.353777783 -0.0760273106 1.6428654248
| 34> H 3.8942928351 -0.5340088582 2.5172669795
| 35> H 0.3389400601 0.5582466985 2.0064078512
| 36> H 0.246130079 -0.8747973773 3.0903720848
| 37> H -4.3099936476 1.4135265941 1.6251608316
| 38> H -3.4609511164 2.5345495574 0.529079302
| 39> H -6.1067959232 1.1162228523 -0.0924762378
| 40> H -5.9500302281 2.8140117596 0.3866375449
| 41> H -5.2805110238 2.2634384005 -1.1560232857
| 42> H -2.2632534767 -2.104007486 -2.5417951279
| 43> H -3.6363247952 -1.156742753 -1.8999747891
| 44> H -2.9075579546 -0.2286892101 -4.0949149505
| 45> H -2.6084341522 0.9323724422 -2.7884109217
| 46> H -1.2685463722 0.0028683389 -3.4595653258
| 47> *
| 48>
| 49>                          ****END OF INPUT****

CARTESIAN COORDINATES (ANGSTROEM)
---------------------------------
  C      1.350482   -1.821558   -2.457877
  C      1.999161   -0.458375   -2.579606
  O      1.804981    0.367033   -1.405343
  P      2.239884    0.006448    0.066062
  S      2.425848    1.624820    1.154429
  O      3.562801   -0.831002   -0.219252
  C      4.244017   -1.673996    0.727323
  C      4.735970   -0.918482    1.944102
  S      0.920823   -1.469570    0.868448
  C      0.022092   -0.485435    2.100343
  S     -1.770681   -0.620049    1.911130
  P     -1.983762    0.286059    0.011317
  S     -0.843987    1.865309   -0.284274
  O     -3.542753    0.559856   -0.085946
  C     -4.151272    1.685470    0.578790
  C     -5.460959    1.988901   -0.120484
  O     -1.795071   -0.932668   -0.980776
  C     -2.582794   -1.124853   -2.181237
  C     -2.323915   -0.035438   -3.200449
  H      0.307347   -1.718865   -2.170078
  H      1.412783   -2.330046   -3.414975
  H      1.858514   -2.419545   -1.703432
  H      1.543886    0.137403   -3.373271
  H      3.072948   -0.547811   -2.755081
  H      3.565305   -2.479917    1.020360
  H      5.076427   -2.080871    0.150031
  H      5.317968   -1.586956    2.570231
  H      5.353778   -0.076027    1.642865
  H      3.894293   -0.534009    2.517267
  H      0.338940    0.558247    2.006408
  H      0.246130   -0.874797    3.090372
  H     -4.309994    1.413527    1.625161
  H     -3.460951    2.534550    0.529079
  H     -6.106796    1.116223   -0.092476
  H     -5.950030    2.814012    0.386638
  H     -5.280511    2.263438   -1.156023
  H     -2.263253   -2.104007   -2.541795
  H     -3.636325   -1.156743   -1.899975
  H     -2.907558   -0.228689   -4.094915
  H     -2.608434    0.932372   -2.788411
  H     -1.268546    0.002868   -3.459565

 Total Charge           Charge          ....    0
 Multiplicity           Mult            ....    1
 Number of Electrons    NEL             ....  202
 Basis Dimension        Dim             ....  334

ORBITAL ENERGIES
----------------

  NO   OCC          E(Eh)            E(eV)
   0   2.0000     -88.037711     -2395.6279
   1   2.0000     -88.037638     -2395.6259
   2   2.0000     -87.977303     -2393.9841
   3   2.0000     -87.972695     -2393.8587
   4   2.0000     -76.422745     -2079.5686
   5   2.0000     -76.419963     -2079.4929
   6   2.0000     -18.795944      -511.4636
   7   2.0000     -18.789923      -511.2998
   8   2.0000     -18.787774      -511.2413
   9   2.0000     -18.780735      -511.0498
  10   2.0000      -9.957580      -270.9595
  11   2.0000      -9.954042      -270.8633
  12   2.0000      -9.953322      -270.8437
  13   2.0000      -9.951157      -270.7848
  14   2.0000      -9.948218      -270.7048
  15   2.0000      -9.890855      -269.1439
  16   2.0000      -9.887308      -269.0473
  17   2.0000      -9.885343      -268.9939
  18   2.0000      -9.878458      -268.8065
  19   2.0000      -7.683272      -209.0725
  20   2.0000      -7.682094      -209.0404
  21   2.0000      -7.621976      -207.4045
  22   2.0000      -7.617991      -207.2961
  23   2.0000      -6.420124      -174.7004
  24   2.0000      -6.416733      -174.6082
  25   2.0000      -5.711236      -155.4106
  26   2.0000      -5.709874      -155.3736
  27   2.0000      -5.707681      -155.3139
  28   2.0000      -5.706538      -155.2828
  29   2.0000      -5.700214      -155.1107
  30   2.0000      -5.699324      -155.0865
  31   2.0000      -5.650869      -153.7680
  32   2.0000      -5.647157      -153.6669
  33   2.0000      -5.642799      -153.5484
  34   2.0000      -5.642045      -153.5279
  35   2.0000      -5.638474      -153.4307
  36   2.0000      -5.637970      -153.4170
  37   2.0000      -4.643275      -126.3499
  38   2.0000      -4.641743      -126.3083
  39   2.0000      -4.640149      -126.2649
  40   2.0000      -4.639683      -126.2522
  41   2.0000      -4.638558      -126.2216
  42   2.0000      -4.636919      -126.1770
  43   2.0000      -0.989045       -26.9133
  44   2.0000      -0.982094       -26.7241
  45   2.0000      -0.944526       -25.7019
  46   2.0000      -0.936088       -25.4723
  47   2.0000      -0.758080       -20.6284
  48   2.0000      -0.718570       -19.5533
  49   2.0000      -0.708658       -19.2836
  50   2.0000      -0.693264       -18.8647
  51   2.0000      -0.687196       -18.6995
  52   2.0000      -0.672761       -18.3068
  53   2.0000      -0.646424       -17.5901
  54   2.0000      -0.628095       -17.0913
  55   2.0000      -0.591432       -16.0937
  56   2.0000      -0.585176       -15.9235
  57   2.0000      -0.577290       -15.7089
  58   2.0000      -0.574862       -15.6428
  59   2.0000      -0.559476       -15.2241
  60   2.0000      -0.506124       -13.7723
  61   2.0000      -0.492962       -13.4142
  62   2.0000      -0.476803       -12.9745
  63   2.0000      -0.466006       -12.6807
  64   2.0000      -0.450582       -12.2609
  65   2.0000      -0.448070       -12.1926
  66   2.0000      -0.440769       -11.9939
  67   2.0000      -0.433569       -11.7980
  68   2.0000      -0.425673       -11.5831
  69   2.0000      -0.416305       -11.3282
  70   2.0000      -0.408426       -11.1138
  71   2.0000      -0.403312       -10.9747
  72   2.0000      -0.398573       -10.8457
  73   2.0000      -0.389719       -10.6048
  74   2.0000      -0.380437       -10.3522
  75   2.0000      -0.367285        -9.9943
  76   2.0000      -0.355472        -9.6729
  77   2.0000      -0.352724        -9.5981
  78   2.0000      -0.351125        -9.5546
  79   2.0000      -0.349504        -9.5105
  80   2.0000      -0.344240        -9.3672
  81   2.0000      -0.342804        -9.3282
  82   2.0000      -0.341106        -9.2820
  83   2.0000      -0.336147        -9.1470
  84   2.0000      -0.332680        -9.0527
  85   2.0000      -0.318905        -8.6778
  86   2.0000      -0.313454        -8.5295
  87   2.0000      -0.303011        -8.2453
  88   2.0000      -0.293955        -7.9989
  89   2.0000      -0.290756        -7.9119
  90   2.0000      -0.284986        -7.7549
  91   2.0000      -0.274377        -7.4662
  92   2.0000      -0.270237        -7.3535
  93   2.0000      -0.256591        -6.9822
  94   2.0000      -0.251380        -6.8404
  95   2.0000      -0.232780        -6.3343
  96   2.0000      -0.217029        -5.9057
  97   2.0000      -0.207974        -5.6593
  98   2.0000      -0.192744        -5.2448
  99   2.0000      -0.183508        -4.9935
 100   2.0000      -0.177805        -4.8383
 101   0.0000      -0.041437        -1.1276
 102   0.0000      -0.029221        -0.7951
 103   0.0000      -0.002716        -0.0739
 104   0.0000       0.015889         0.4324
 105   0.0000       0.017756         0.4832

MULLIKEN ATOMIC CHARGES
-----------------------
   0 C :   -0.366429
   1 C :    0.008263
   2 O :   -0.349736
   3 P :    0.618795
   4 S :   -0.293672
   5 O :   -0.387520
   6 C :   -0.006223
   7 C :   -0.303046
   8 S :   -0.127926
   9 C :   -0.348890
  10 S :   -0.104402
  11 P :    0.615803
  12 S :   -0.290476
  13 O :   -0.392353
  14 C :   -0.008896
  15 C :   -0.285570
  16 O :   -0.372095
  17 C :   -0.004011
  18 C :   -0.314828
  19 H :    0.164406
  20 H :    0.110073
  21 H :    0.119190
  22 H :    0.113771
  23 H :    0.107272
  24 H :    0.107233
  25 H :    0.103194
  26 H :    0.106811
  27 H :    0.123334
  28 H :    0.122209
  29 H :    0.211258
  30 H :    0.176998
  31 H :    0.104919
  32 H :    0.108857
  33 H :    0.115410
  34 H :    0.114748
  35 H :    0.119309
  36 H :    0.108941
  37 H :    0.114530
  38 H :    0.109430
  39 H :    0.128129
  40 H :    0.123190
Sum of atomic charges:    0.0000000

LOEWDIN ATOMIC CHARGES
----------------------
   0 C :   -0.377558
   1 C :   -0.107098
   2 O :   -0.228739
   3 P :    0.571073
   4 S :   -0.292517
   5 O :   -0.248026
   6 C :   -0.117954
   7 C :   -0.368176
   8 S :    0.066615
   9 C :   -0.482431
  10 S :    0.068633
  11 P :    0.559125
  12 S :   -0.291507
  13 O :   -0.250325
  14 C :   -0.120654
  15 C :   -0.351222
  16 O :   -0.244664
  17 C :   -0.110784
  18 C :   -0.364189
  19 H :    0.130263
  20 H :    0.129737
  21 H :    0.117093
  22 H :    0.120403
  23 H :    0.113791
  24 H :    0.103807
  25 H :    0.117942
  26 H :    0.127840
  27 H :    0.129722
  28 H :    0.120317
  29 H :    0.125182
  30 H :    0.134436
  31 H :    0.112094
  32 H :    0.109459
  33 H :    0.125879
  34 H :    0.132404
  35 H :    0.127231
  36 H :    0.118248
  37 H :    0.114210
  38 H :    0.128976
  39 H :    0.124149
  40 H :    0.127214

  Mayer bond orders larger than 0.100000
B(  0-C ,  1-C ) :   1.1686 B(  0-C , 19-H ) :   0.9183 B(  0-C , 20-H ) :   0.9352
B(  0-C , 21-H ) :   0.9366 B(  1-C ,  2-O ) :   0.9078 B(  1-C , 22-H ) :   0.9288
B(  1-C , 23-H ) :   0.9287 B(  2-O ,  3-P ) :   1.1346 B(  3-P ,  4-S ) :   1.6404
B(  3-P ,  5-O ) :   1.0660 B(  3-P ,  8-S ) :   0.9346 B(  4-S ,  8-S ) :   0.1209
B(  4-S , 29-H ) :   0.1042 B(  5-O ,  6-C ) :   0.9145 B(  6-C ,  7-C ) :   1.1679
B(  6-C , 24-H ) :   0.9204 B(  6-C , 25-H ) :   0.9338 B(  7-C , 26-H ) :   0.9355
B(  7-C , 27-H ) :   0.9450 B(  7-C , 28-H ) :   0.9328 B(  8-S ,  9-C ) :   0.9979
B(  9-C , 10-S ) :   1.0036 B(  9-C , 29-H ) :   0.8396 B(  9-C , 30-H ) :   0.9109
B( 10-S , 11-P ) :   0.9444 B( 10-S , 12-S ) :   0.1227 B( 11-P , 12-S ) :   1.6717
B( 11-P , 13-O ) :   1.0695 B( 11-P , 16-O ) :   1.1043 B( 13-O , 14-C ) :   0.9007
B( 14-C , 15-C ) :   1.1593 B( 14-C , 31-H ) :   0.9308 B( 14-C , 32-H ) :   0.9041
B( 15-C , 33-H ) :   0.9505 B( 15-C , 34-H ) :   0.9418 B( 15-C , 35-H ) :   0.9516
B( 16-O , 17-C ) :   0.8933 B( 17-C , 18-C ) :   1.1729 B( 17-C , 36-H ) :   0.9303
B( 17-C , 37-H ) :   0.9264 B( 18-C , 38-H ) :   0.9362 B( 18-C , 39-H ) :   0.9312
B( 18-C , 40-H ) :   0.9449

Dispersion correction           -0.066944903
FINAL SINGLE POINT ENERGY     -2929.510067329562

DIPOLE MOMENT
-------------

Method             : SCF
Type of density    : Electron Density
Multiplicity       :   1
Irrep              :   0
Energy             : -2929.6291808380733528 Eh
Relativity type    :
Basis              : AO
                                X                 Y                 Z
Electronic contribution:      4.921720959       4.855214038      12.482626564
Nuclear contribution   :     -5.694818047      -6.286357582     -13.266105322
                        -----------------------------------------
Total Dipole Moment    :     -0.773097088      -1.431143543      -0.783478758
                        -----------------------------------------
Magnitude (a.u.)       :      1.805461136
Magnitude (Debye)      :      4.589117505

Rotational constants in cm-1:             0.013528             0.005199             0.004693
Rotational constants in MHz :           405.558758           155.865211           140.681591

                             ****ORCA TERMINATED NORMALLY****
TOTAL RUN TIME: 0 days 0 hours 0 minutes 21 seconds 364 msec
