                         Program Version 6.0.0  -   RELEASE  -
|  1> ! r2scan-3c def2/J RI DEFGRID2 scfconv6 printgap
|  2> %output
|  3>     printlevel normal
|  4> end
|  5> * xyz 0 1
|  6> C -1.6348368376 -0.474601013 7.43e-07
|  7> C -0.601761901 0.6561539188 4.7524e-06
|  8> C 0.7360774462 0.1351063071 -1.5148e-05
|  9> N 1.7985646269 -0.2941208449 7.3639e-06
| 10> H -1.517662625 -1.0992439195 0.8822236964
| 11> H -2.6356749419 -0.0525714281 -9.20154e-05
| 12> H -1.5175356683 -1.0993679414 -0.8821260118
| 13> H -0.721108292 1.2825252934 0.8874389312
| 14> H -0.7211310026 1.2825189099 -0.8874319109
| 15> *
| 16>
| 17>                          ****END OF INPUT****

CARTESIAN COORDINATES (ANGSTROEM)
---------------------------------
  C     -1.634837   -0.474601    0.000001
  C     -0.601762    0.656154    0.000005
  C      0.736077    0.135106   -0.000015
  N      1.798565   -0.294121    0.000007
  H     -1.517663   -1.099244    0.882224
  H     -2.635675   -0.052571   -0.000092
  H     -1.517536   -1.099368   -0.882126
  H     -0.721108    1.282525    0.887439
  H     -0.721131    1.282519   -0.887432

 Total Charge           Charge          ....    0
 Multiplicity           Mult            ....    1
 Number of Electrons    NEL             ....   30
 Basis Dimension        Dim             ....  106

ORBITAL ENERGIES
----------------

  NO   OCC          E(Eh)            E(eV)
   0   2.0000     -14.150713      -385.0605
   1   2.0000     -10.087978      -274.5078
   2   2.0000     -10.065751      -273.9030
   3   2.0000     -10.052787      -273.5502
   4   2.0000      -0.875912       -23.8348
   5   2.0000      -0.782595       -21.2955
   6   2.0000      -0.647801       -17.6276
   7   2.0000      -0.494270       -13.4498
   8   2.0000      -0.463231       -12.6052
   9   2.0000      -0.406871       -11.0715
  10   2.0000      -0.372599       -10.1389
  11   2.0000      -0.364087        -9.9073
  12   2.0000      -0.324042        -8.8176
  13   2.0000      -0.303291        -8.2530
  14   2.0000      -0.302297        -8.2259
  15   0.0000       0.006893         0.1876
  16   0.0000       0.012330         0.3355
  17   0.0000       0.059681         1.6240
  18   0.0000       0.118925         3.2361
  19   0.0000       0.139188         3.7875

MULLIKEN ATOMIC CHARGES
-----------------------
   0 C :   -0.423727
   1 C :   -0.348635
   2 C :    0.195739
   3 N :   -0.240662
   4 H :    0.156939
   5 H :    0.157880
   6 H :    0.156938
   7 H :    0.172765
   8 H :    0.172763
Sum of atomic charges:   -0.0000000

LOEWDIN ATOMIC CHARGES
----------------------
   0 C :   -0.389153
   1 C :   -0.265344
   2 C :    0.127954
   3 N :   -0.318798
   4 H :    0.161574
   5 H :    0.155295
   6 H :    0.161576
   7 H :    0.183449
   8 H :    0.183448

  Mayer bond orders larger than 0.100000
B(  0-C ,  1-C ) :   0.9067 B(  0-C ,  4-H ) :   0.9692 B(  0-C ,  5-H ) :   0.9718
B(  0-C ,  6-H ) :   0.9692 B(  1-C ,  2-C ) :   0.9895 B(  1-C ,  7-H ) :   0.9658
B(  1-C ,  8-H ) :   0.9658 B(  2-C ,  3-N ) :   2.8982

Dispersion correction           -0.001538591
FINAL SINGLE POINT ENERGY      -172.013534060377

DIPOLE MOMENT
-------------

Method             : SCF
Type of density    : Electron Density
Multiplicity       :   1
Irrep              :   0
Energy             :  -172.0156173933490891 Eh
Relativity type    :
Basis              : AO
                                X                 Y                 Z
Electronic contribution:      5.117772054       0.215096007      -0.000014737
Nuclear contribution   :     -6.663426140       0.292836013       0.000011946
                        -----------------------------------------
Total Dipole Moment    :     -1.545654085       0.507932020      -0.000002791
                        -----------------------------------------
Magnitude (a.u.)       :      1.626973106
Magnitude (Debye)      :      4.135436987

Rotational constants in cm-1:             0.925264             0.161907             0.145293
Rotational constants in MHz :         27738.710345          4853.842323          4355.760183

                             ****ORCA TERMINATED NORMALLY****
TOTAL RUN TIME: 0 days 0 hours 0 minutes 12 seconds 952 msec
