                         Program Version 6.0.0  -   RELEASE  -
|  1> ! r2scan-3c def2/J RI DEFGRID2 scfconv6 printgap
|  2> %output
|  3>     printlevel normal
|  4> end
|  5> %cpcm
|  6>     smd true
|  7>     smdsolvent "water"
|  8> end
|  9> * xyz 0 1
| 10> C -1.6348368376 -0.474601013 7.43e-07
| 11> C -0.601761901 0.6561539188 4.7524e-06
| 12> C 0.7360774462 0.1351063071 -1.5148e-05
| 13> N 1.7985646269 -0.2941208449 7.3639e-06
| 14> H -1.517662625 -1.0992439195 0.8822236964
| 15> H -2.6356749419 -0.0525714281 -9.20154e-05
| 16> H -1.5175356683 -1.0993679414 -0.8821260118
| 17> H -0.721108292 1.2825252934 0.8874389312
| 18> H -0.7211310026 1.2825189099 -0.8874319109
| 19> *
| 20>
| 21>                          ****END OF INPUT****

CARTESIAN COORDINATES (ANGSTROEM)
---------------------------------
  C     -1.634837   -0.474601    0.000001
  C     -0.601762    0.656154    0.000005
  C      0.736077    0.135106   -0.000015
  N      1.798565   -0.294121    0.000007
  H     -1.517663   -1.099244    0.882224
  H     -2.635675   -0.052571   -0.000092
  H     -1.517536   -1.099368   -0.882126
  H     -0.721108    1.282525    0.887439
  H     -0.721131    1.282519   -0.887432

 Total Charge           Charge          ....    0
 Multiplicity           Mult            ....    1
 Number of Electrons    NEL             ....   30
 Basis Dimension        Dim             ....  106

ORBITAL ENERGIES
----------------

  NO   OCC          E(Eh)            E(eV)
   0   2.0000     -14.155282      -385.1848
   1   2.0000     -10.074793      -274.1490
   2   2.0000     -10.066166      -273.9143
   3   2.0000     -10.028304      -272.8840
   4   2.0000      -0.882623       -24.0174
   5   2.0000      -0.764266       -20.7967
   6   2.0000      -0.627112       -17.0646
   7   2.0000      -0.475908       -12.9501
   8   2.0000      -0.440770       -11.9940
   9   2.0000      -0.390458       -10.6249
  10   2.0000      -0.354735        -9.6528
  11   2.0000      -0.344990        -9.3877
  12   2.0000      -0.334102        -9.0914
  13   2.0000      -0.306136        -8.3304
  14   2.0000      -0.302033        -8.2187
  15   0.0000       0.006756         0.1838
  16   0.0000       0.011437         0.3112
  17   0.0000       0.069109         1.8806
  18   0.0000       0.140881         3.8336
  19   0.0000       0.157721         4.2918

MULLIKEN ATOMIC CHARGES
-----------------------
   0 C :   -0.467900
   1 C :   -0.335481
   2 C :    0.246081
   3 N :   -0.363110
   4 H :    0.167223
   5 H :    0.178016
   6 H :    0.167221
   7 H :    0.203976
   8 H :    0.203974
Sum of atomic charges:   -0.0000000

LOEWDIN ATOMIC CHARGES
----------------------
   0 C :   -0.390623
   1 C :   -0.258759
   2 C :    0.158547
   3 N :   -0.398656
   4 H :    0.163522
   5 H :    0.163773
   6 H :    0.163524
   7 H :    0.199336
   8 H :    0.199336

  Mayer bond orders larger than 0.100000
B(  0-C ,  1-C ) :   0.8741 B(  0-C ,  4-H ) :   0.9691 B(  0-C ,  5-H ) :   0.9649
B(  0-C ,  6-H ) :   0.9691 B(  1-C ,  2-C ) :   1.0037 B(  1-C ,  7-H ) :   0.9507
B(  1-C ,  8-H ) :   0.9507 B(  2-C ,  3-N ) :   2.8783

Dispersion correction           -0.001538591
FINAL SINGLE POINT ENERGY      -172.019784364159

DIPOLE MOMENT
-------------

Method             : SCF
Type of density    : Electron Density
Multiplicity       :   1
Irrep              :   0
Energy             :  -172.0218676971310003 Eh
Relativity type    :
Basis              : AO
                                X                 Y                 Z
Electronic contribution:      4.658650598       0.428429727      -0.000018122
Nuclear contribution   :     -6.663426140       0.292836013       0.000011946
                        -----------------------------------------
Total Dipole Moment    :     -2.004775541       0.721265740      -0.000006177
                        -----------------------------------------
Magnitude (a.u.)       :      2.130574861
Magnitude (Debye)      :      5.415490921

Rotational constants in cm-1:             0.925264             0.161907             0.145293
Rotational constants in MHz :         27738.710345          4853.842323          4355.760183

                             ****ORCA TERMINATED NORMALLY****
TOTAL RUN TIME: 0 days 0 hours 0 minutes 14 seconds 620 msec
