                         Program Version 6.0.0  -   RELEASE  -
|  1> ! pbe def2-sv(p) def2/J RI DEFGRID1 loosescf d4 GCP(DFT/SV(P)) printgap
|  2> %output
|  3>     printlevel normal
|  4> end
|  5> * xyz 0 1
|  6> C 2.1136983574 2.5218892752 0.7064272912
|  7> C 1.5893207887 1.8957449688 1.9806806185
|  8> O 0.8861889259 0.6507608179 1.7493149502
|  9> P 1.5082321006 -0.6150025121 1.0367327629
| 10> S 0.7157580577 -2.3140317017 1.6150095284
| 11> O 3.0442757236 -0.4627389193 1.4397222357
| 12> C 3.9673478993 -1.5632166383 1.4131053734
| 13> C 4.2185585198 -2.0812356355 0.0115088493
| 14> S 1.5000622173 -0.2410145091 -1.0626880054
| 15> C 0.3481501875 -1.5144082219 -1.6179699448
| 16> S -1.1949786261 -0.8639832401 -2.3378732189
| 17> P -1.9552432062 0.3511461295 -0.7898672168
| 18> S -3.8601031062 0.7653730995 -0.9624109915
| 19> O -1.017662867 1.6364668511 -0.6716363844
| 20> C -1.2374305093 2.8042843009 -1.4831704324
| 21> C -0.6742070696 2.6297071075 -2.8801030061
| 22> O -1.4967138514 -0.4602925333 0.498729958
| 23> C -2.3590092374 -0.565655424 1.6505464357
| 24> C -2.3829598 0.7190436016 2.4493593357
| 25> H 1.3077218266 2.637869222 -0.0124180515
| 26> H 2.5340211686 3.4959641477 0.936928278
| 27> H 2.8874042903 1.8954925832 0.2663969607
| 28> H 0.8329177739 2.525987908 2.4521829834
| 29> H 2.4012837512 1.7010419521 2.6843830897
| 30> H 4.8743725841 -1.1499391029 1.8567801474
| 31> H 3.5722054345 -2.3605791479 2.0503282754
| 32> H 4.4949901964 -1.2664348699 -0.6525342375
| 33> H 5.021602154 -2.8107070693 0.041150103
| 34> H 3.3216154379 -2.5637731346 -0.3736625516
| 35> H 0.1154991793 -2.170727689 -0.7752145701
| 36> H 0.8113861993 -2.0655029779 -2.4329071501
| 37> H -2.3137346319 3.0049082556 -1.5170761996
| 38> H -0.7332085365 3.6078130248 -0.9435105376
| 39> H 0.3652667434 2.3134041919 -2.8309569036
| 40> H -1.2435863051 1.8776322004 -3.4241933825
| 41> H -0.7393141796 3.5736736085 -3.4115215807
| 42> H -3.3645214184 -0.8271860806 1.3067011626
| 43> H -1.9356852552 -1.3939820278 2.2219418997
| 44> H -3.0093513078 0.5827917541 3.3252318861
| 45> H -1.3752077519 0.9810093732 2.7589922767
| 46> H -2.7917136866 1.5230389518 1.8384892013
| 47> *
| 48>
| 49>                          ****END OF INPUT****

CARTESIAN COORDINATES (ANGSTROEM)
---------------------------------
  C      2.113698    2.521889    0.706427
  C      1.589321    1.895745    1.980681
  O      0.886189    0.650761    1.749315
  P      1.508232   -0.615003    1.036733
  S      0.715758   -2.314032    1.615010
  O      3.044276   -0.462739    1.439722
  C      3.967348   -1.563217    1.413105
  C      4.218559   -2.081236    0.011509
  S      1.500062   -0.241015   -1.062688
  C      0.348150   -1.514408   -1.617970
  S     -1.194979   -0.863983   -2.337873
  P     -1.955243    0.351146   -0.789867
  S     -3.860103    0.765373   -0.962411
  O     -1.017663    1.636467   -0.671636
  C     -1.237431    2.804284   -1.483170
  C     -0.674207    2.629707   -2.880103
  O     -1.496714   -0.460293    0.498730
  C     -2.359009   -0.565655    1.650546
  C     -2.382960    0.719044    2.449359
  H      1.307722    2.637869   -0.012418
  H      2.534021    3.495964    0.936928
  H      2.887404    1.895493    0.266397
  H      0.832918    2.525988    2.452183
  H      2.401284    1.701042    2.684383
  H      4.874373   -1.149939    1.856780
  H      3.572205   -2.360579    2.050328
  H      4.494990   -1.266435   -0.652534
  H      5.021602   -2.810707    0.041150
  H      3.321615   -2.563773   -0.373663
  H      0.115499   -2.170728   -0.775215
  H      0.811386   -2.065503   -2.432907
  H     -2.313735    3.004908   -1.517076
  H     -0.733209    3.607813   -0.943511
  H      0.365267    2.313404   -2.830957
  H     -1.243586    1.877632   -3.424193
  H     -0.739314    3.573674   -3.411522
  H     -3.364521   -0.827186    1.306701
  H     -1.935685   -1.393982    2.221942
  H     -3.009351    0.582792    3.325232
  H     -1.375208    0.981009    2.758992
  H     -2.791714    1.523039    1.838489

 Total Charge           Charge          ....    0
 Multiplicity           Mult            ....    1
 Number of Electrons    NEL             ....  202
 Basis Dimension        Dim             ....  334

ORBITAL ENERGIES
----------------

  NO   OCC          E(Eh)            E(eV)
   0   2.0000     -88.046755     -2395.8740
   1   2.0000     -88.039322     -2395.6717
   2   2.0000     -87.991715     -2394.3763
   3   2.0000     -87.984793     -2394.1879
   4   2.0000     -76.433094     -2079.8502
   5   2.0000     -76.422455     -2079.5607
   6   2.0000     -18.799628      -511.5639
   7   2.0000     -18.795061      -511.4396
   8   2.0000     -18.787743      -511.2405
   9   2.0000     -18.785447      -511.1780
  10   2.0000      -9.961486      -271.0658
  11   2.0000      -9.957634      -270.9610
  12   2.0000      -9.955229      -270.8955
  13   2.0000      -9.950000      -270.7533
  14   2.0000      -9.938755      -270.4473
  15   2.0000      -9.893225      -269.2083
  16   2.0000      -9.888349      -269.0756
  17   2.0000      -9.882175      -268.9076
  18   2.0000      -9.871471      -268.6164
  19   2.0000      -7.691226      -209.2889
  20   2.0000      -7.684728      -209.1121
  21   2.0000      -7.636582      -207.8020
  22   2.0000      -7.629960      -207.6218
  23   2.0000      -6.430081      -174.9714
  24   2.0000      -6.420344      -174.7064
  25   2.0000      -5.719150      -155.6260
  26   2.0000      -5.715830      -155.5357
  27   2.0000      -5.713052      -155.4601
  28   2.0000      -5.708836      -155.3453
  29   2.0000      -5.708081      -155.3248
  30   2.0000      -5.701607      -155.1486
  31   2.0000      -5.665635      -154.1698
  32   2.0000      -5.658888      -153.9862
  33   2.0000      -5.657073      -153.9368
  34   2.0000      -5.656681      -153.9261
  35   2.0000      -5.650704      -153.7635
  36   2.0000      -5.649970      -153.7435
  37   2.0000      -4.653074      -126.6166
  38   2.0000      -4.651504      -126.5739
  39   2.0000      -4.650573      -126.5485
  40   2.0000      -4.642616      -126.3320
  41   2.0000      -4.642294      -126.3232
  42   2.0000      -4.640854      -126.2841
  43   2.0000      -0.993820       -27.0432
  44   2.0000      -0.981167       -26.6989
  45   2.0000      -0.948301       -25.8046
  46   2.0000      -0.940498       -25.5923
  47   2.0000      -0.762333       -20.7441
  48   2.0000      -0.722013       -19.6470
  49   2.0000      -0.707713       -19.2578
  50   2.0000      -0.695866       -18.9355
  51   2.0000      -0.682798       -18.5799
  52   2.0000      -0.674837       -18.3632
  53   2.0000      -0.654303       -17.8045
  54   2.0000      -0.638202       -17.3664
  55   2.0000      -0.603703       -16.4276
  56   2.0000      -0.593657       -16.1542
  57   2.0000      -0.584845       -15.9145
  58   2.0000      -0.562901       -15.3173
  59   2.0000      -0.560985       -15.2652
  60   2.0000      -0.500204       -13.6112
  61   2.0000      -0.489365       -13.3163
  62   2.0000      -0.475394       -12.9361
  63   2.0000      -0.468347       -12.7444
  64   2.0000      -0.458560       -12.4781
  65   2.0000      -0.451623       -12.2893
  66   2.0000      -0.445322       -12.1178
  67   2.0000      -0.437414       -11.9026
  68   2.0000      -0.428018       -11.6470
  69   2.0000      -0.416683       -11.3385
  70   2.0000      -0.410448       -11.1689
  71   2.0000      -0.406676       -11.0662
  72   2.0000      -0.393876       -10.7179
  73   2.0000      -0.387749       -10.5512
  74   2.0000      -0.382355       -10.4044
  75   2.0000      -0.375237       -10.2107
  76   2.0000      -0.364269        -9.9123
  77   2.0000      -0.360519        -9.8102
  78   2.0000      -0.357773        -9.7355
  79   2.0000      -0.352331        -9.5874
  80   2.0000      -0.346589        -9.4312
  81   2.0000      -0.344091        -9.3632
  82   2.0000      -0.342093        -9.3088
  83   2.0000      -0.335843        -9.1387
  84   2.0000      -0.327277        -8.9057
  85   2.0000      -0.318313        -8.6617
  86   2.0000      -0.313990        -8.5441
  87   2.0000      -0.302722        -8.2375
  88   2.0000      -0.300261        -8.1705
  89   2.0000      -0.294573        -8.0157
  90   2.0000      -0.282384        -7.6841
  91   2.0000      -0.275220        -7.4891
  92   2.0000      -0.264938        -7.2093
  93   2.0000      -0.264275        -7.1913
  94   2.0000      -0.258939        -7.0461
  95   2.0000      -0.226989        -6.1767
  96   2.0000      -0.222325        -6.0498
  97   2.0000      -0.212715        -5.7883
  98   2.0000      -0.206296        -5.6136
  99   2.0000      -0.202096        -5.4993
 100   2.0000      -0.196192        -5.3386
 101   0.0000      -0.044294        -1.2053
 102   0.0000      -0.033315        -0.9065
 103   0.0000      -0.020015        -0.5446
 104   0.0000       0.002891         0.0787
 105   0.0000       0.007923         0.2156

MULLIKEN ATOMIC CHARGES
-----------------------
   0 C :   -0.368292
   1 C :    0.013674
   2 O :   -0.362593
   3 P :    0.636933
   4 S :   -0.303438
   5 O :   -0.387463
   6 C :    0.000728
   7 C :   -0.311886
   8 S :   -0.112625
   9 C :   -0.340551
  10 S :   -0.090939
  11 P :    0.624908
  12 S :   -0.323669
  13 O :   -0.369228
  14 C :   -0.014971
  15 C :   -0.308362
  16 O :   -0.378295
  17 C :   -0.007058
  18 C :   -0.315562
  19 H :    0.161506
  20 H :    0.115958
  21 H :    0.125952
  22 H :    0.110296
  23 H :    0.110010
  24 H :    0.103625
  25 H :    0.114010
  26 H :    0.117689
  27 H :    0.113943
  28 H :    0.120645
  29 H :    0.203370
  30 H :    0.179545
  31 H :    0.113707
  32 H :    0.103808
  33 H :    0.116296
  34 H :    0.125456
  35 H :    0.109441
  36 H :    0.111404
  37 H :    0.112694
  38 H :    0.106182
  39 H :    0.130046
  40 H :    0.113104
Sum of atomic charges:   -0.0000000

LOEWDIN ATOMIC CHARGES
----------------------
   0 C :   -0.376740
   1 C :   -0.106082
   2 O :   -0.231433
   3 P :    0.588850
   4 S :   -0.285253
   5 O :   -0.249892
   6 C :   -0.118038
   7 C :   -0.370215
   8 S :    0.089487
   9 C :   -0.483805
  10 S :    0.083084
  11 P :    0.569516
  12 S :   -0.315348
  13 O :   -0.243123
  14 C :   -0.124496
  15 C :   -0.367181
  16 O :   -0.241789
  17 C :   -0.121249
  18 C :   -0.368395
  19 H :    0.130800
  20 H :    0.133330
  21 H :    0.117983
  22 H :    0.121100
  23 H :    0.114885
  24 H :    0.117990
  25 H :    0.112038
  26 H :    0.123186
  27 H :    0.131276
  28 H :    0.119619
  29 H :    0.125134
  30 H :    0.137696
  31 H :    0.108176
  32 H :    0.112280
  33 H :    0.121861
  34 H :    0.121310
  35 H :    0.128852
  36 H :    0.108898
  37 H :    0.113633
  38 H :    0.128543
  39 H :    0.125520
  40 H :    0.117992

  Mayer bond orders larger than 0.100000
B(  0-C ,  1-C ) :   1.1731 B(  0-C , 19-H ) :   0.9227 B(  0-C , 20-H ) :   0.9336
B(  0-C , 21-H ) :   0.9325 B(  1-C ,  2-O ) :   0.9003 B(  1-C , 22-H ) :   0.9275
B(  1-C , 23-H ) :   0.9291 B(  2-O ,  3-P ) :   1.1227 B(  3-P ,  4-S ) :   1.6011
B(  3-P ,  5-O ) :   1.0650 B(  3-P ,  8-S ) :   0.9516 B(  4-S ,  8-S ) :   0.1177
B(  4-S , 29-H ) :   0.1139 B(  5-O ,  6-C ) :   0.9091 B(  6-C ,  7-C ) :   1.1672
B(  6-C , 24-H ) :   0.9340 B(  6-C , 25-H ) :   0.9161 B(  7-C , 26-H ) :   0.9432
B(  7-C , 27-H ) :   0.9368 B(  7-C , 28-H ) :   0.9376 B(  8-S ,  9-C ) :   1.0132
B(  9-C , 10-S ) :   0.9804 B(  9-C , 29-H ) :   0.8481 B(  9-C , 30-H ) :   0.9090
B( 10-S , 11-P ) :   0.9831 B( 11-P , 12-S ) :   1.6319 B( 11-P , 13-O ) :   1.0791
B( 11-P , 16-O ) :   1.1080 B( 13-O , 14-C ) :   0.9083 B( 14-C , 15-C ) :   1.1703
B( 14-C , 31-H ) :   0.9084 B( 14-C , 32-H ) :   0.9243 B( 15-C , 33-H ) :   0.9461
B( 15-C , 34-H ) :   0.9366 B( 15-C , 35-H ) :   0.9390 B( 16-O , 17-C ) :   0.8891
B( 17-C , 18-C ) :   1.1668 B( 17-C , 36-H ) :   0.9169 B( 17-C , 37-H ) :   0.9163
B( 18-C , 38-H ) :   0.9384 B( 18-C , 39-H ) :   0.9348 B( 18-C , 40-H ) :   0.9356

Dispersion correction           -0.070680486
FINAL SINGLE POINT ENERGY     -2929.515520198008

DIPOLE MOMENT
-------------

Method             : SCF
Type of density    : Electron Density
Multiplicity       :   1
Irrep              :   0
Energy             : -2929.6355204420133305 Eh
Relativity type    :
Basis              : AO
                                X                 Y                 Z
Electronic contribution:    -12.636181318     -11.779476272      -4.652754727
Nuclear contribution   :     14.607008745      12.633893543       4.937410934
                        -----------------------------------------
Total Dipole Moment    :      1.970827427       0.854417272       0.284656207
                        -----------------------------------------
Magnitude (a.u.)       :      2.166845351
Magnitude (Debye)      :      5.507683180

Rotational constants in cm-1:             0.012003             0.006016             0.005853
Rotational constants in MHz :           359.840753           180.365390           175.483492

                             ****ORCA TERMINATED NORMALLY****
TOTAL RUN TIME: 0 days 0 hours 0 minutes 24 seconds 728 msec
