                         Program Version 6.0.1  -  RELEASE   -
|  1> ! r2scan-3c def2/J RI DEFGRID2 scfconv6 printgap
|  2> %output
|  3>     printlevel normal
|  4> end
|  5> * xyz 0 1
|  6> C 2.5719195424 -2.7703309551 0.7406692144
|  7> C 3.2741562983 -1.8702965598 -0.260705068
|  8> O 2.3079096544 -0.9657816715 -0.8317022666
|  9> C 2.203358159 -0.8721464093 -2.1442805769
| 10> O 2.9195808821 -1.4505412882 -2.9313170993
| 11> C 1.079520176 0.0500432313 -2.5702280169
| 12> C 0.2160455577 0.521147195 -1.4097635936
| 13> H -0.5562235527 1.2106728484 -1.7736393074
| 14> C 1.0402124117 1.2867851447 -0.3891277123
| 15> O 1.942551233 2.0277596753 -0.7038178109
| 16> O 0.6138209537 1.0921719812 0.8405939858
| 17> C 1.259311118 1.7978554479 1.9190663725
| 18> C 2.3862324519 0.9656827533 2.5055793701
| 19> S -0.6561363183 -0.8815021113 -0.6349036682
| 20> P -2.0101180485 0.2306817262 0.5718136858
| 21> S -2.3641998865 2.0798037983 0.028654159
| 22> O -3.3080674788 -0.7112395023 0.555334565
| 23> C -4.0926637772 -0.8732298893 -0.630120526
| 24> O -1.597352103 0.0890290408 2.0892259002
| 25> C -1.3478526064 -1.196187367 2.6922200424
| 26> H 2.1076082671 -2.1696561852 1.5172019745
| 27> H 1.8035805184 -3.3558069519 0.2428868354
| 28> H 3.2981694836 -3.4386003428 1.1909130273
| 29> H 3.7311031006 -2.4426039864 -1.072906096
| 30> H 4.0367598431 -1.2539080289 0.222291016
| 31> H 0.4801884657 -0.4719395394 -3.3171025079
| 32> H 1.5368816452 0.9200829978 -3.0486117905
| 33> H 1.6319168056 2.7492467896 1.5293759051
| 34> H 0.4633384713 1.9730639988 2.6445014984
| 35> H 3.1471989302 0.7881893455 1.7493658426
| 36> H 2.8311197501 1.5051739405 3.3350666813
| 37> H 2.0054556624 0.0125541328 2.8613844266
| 38> H -3.5454991482 -1.4720807985 -1.3580321721
| 39> H -4.335915481 0.1015922765 -1.0559157504
| 40> H -4.9982082473 -1.3854242582 -0.3152496356
| 41> H -0.6287826803 -1.7549084113 2.0928379959
| 42> H -2.2784024051 -1.7547900836 2.7707199409
| 43> H -0.9454249305 -0.976513152 3.6777323607
| 44> *
| 45>
| 46>                          ****END OF INPUT****

CARTESIAN COORDINATES (ANGSTROEM)
---------------------------------
  C      2.571920   -2.770331    0.740669
  C      3.274156   -1.870297   -0.260705
  O      2.307910   -0.965782   -0.831702
  C      2.203358   -0.872146   -2.144281
  O      2.919581   -1.450541   -2.931317
  C      1.079520    0.050043   -2.570228
  C      0.216046    0.521147   -1.409764
  H     -0.556224    1.210673   -1.773639
  C      1.040212    1.286785   -0.389128
  O      1.942551    2.027760   -0.703818
  O      0.613821    1.092172    0.840594
  C      1.259311    1.797855    1.919066
  C      2.386232    0.965683    2.505579
  S     -0.656136   -0.881502   -0.634904
  P     -2.010118    0.230682    0.571814
  S     -2.364200    2.079804    0.028654
  O     -3.308067   -0.711240    0.555335
  C     -4.092664   -0.873230   -0.630121
  O     -1.597352    0.089029    2.089226
  C     -1.347853   -1.196187    2.692220
  H      2.107608   -2.169656    1.517202
  H      1.803581   -3.355807    0.242887
  H      3.298169   -3.438600    1.190913
  H      3.731103   -2.442604   -1.072906
  H      4.036760   -1.253908    0.222291
  H      0.480188   -0.471940   -3.317103
  H      1.536882    0.920083   -3.048612
  H      1.631917    2.749247    1.529376
  H      0.463338    1.973064    2.644501
  H      3.147199    0.788189    1.749366
  H      2.831120    1.505174    3.335067
  H      2.005456    0.012554    2.861384
  H     -3.545499   -1.472081   -1.358032
  H     -4.335915    0.101592   -1.055916
  H     -4.998208   -1.385424   -0.315250
  H     -0.628783   -1.754908    2.092838
  H     -2.278402   -1.754790    2.770720
  H     -0.945425   -0.976513    3.677732

 Total Charge           Charge          ....    0
 Multiplicity           Mult            ....    1
 Number of Electrons    NEL             ....  174
 Basis Dimension        Dim             ....  510

ORBITAL ENERGIES
----------------

  NO   OCC          E(Eh)            E(eV)
   0   2.0000     -88.577938     -2410.3282
   1   2.0000     -88.520852     -2408.7748
   2   2.0000     -76.917358     -2093.0277
   3   2.0000     -19.009647      -517.2788
   4   2.0000     -19.004986      -517.1520
   5   2.0000     -18.999504      -517.0028
   6   2.0000     -18.993801      -516.8476
   7   2.0000     -18.938042      -515.3303
   8   2.0000     -18.935265      -515.2547
   9   2.0000     -10.165321      -276.6125
  10   2.0000     -10.164929      -276.6018
  11   2.0000     -10.104722      -274.9635
  12   2.0000     -10.100212      -274.8407
  13   2.0000     -10.097044      -274.7545
  14   2.0000     -10.096224      -274.7322
  15   2.0000     -10.093723      -274.6642
  16   2.0000     -10.065588      -273.8986
  17   2.0000     -10.040016      -273.2027
  18   2.0000     -10.038115      -273.1510
  19   2.0000      -7.872234      -214.2144
  20   2.0000      -7.815516      -212.6710
  21   2.0000      -6.595555      -179.4742
  22   2.0000      -5.819056      -158.3446
  23   2.0000      -5.816168      -158.2660
  24   2.0000      -5.809331      -158.0799
  25   2.0000      -5.763412      -156.8304
  26   2.0000      -5.755748      -156.6219
  27   2.0000      -5.755337      -156.6107
  28   2.0000      -4.741296      -129.0172
  29   2.0000      -4.740618      -128.9988
  30   2.0000      -4.739002      -128.9548
  31   2.0000      -1.087172       -29.5835
  32   2.0000      -1.081952       -29.4414
  33   2.0000      -1.055275       -28.7155
  34   2.0000      -1.012642       -27.5554
  35   2.0000      -0.989031       -26.9129
  36   2.0000      -0.986096       -26.8330
  37   2.0000      -0.816489       -22.2178
  38   2.0000      -0.761382       -20.7183
  39   2.0000      -0.747659       -20.3448
  40   2.0000      -0.737708       -20.0741
  41   2.0000      -0.702609       -19.1190
  42   2.0000      -0.680117       -18.5069
  43   2.0000      -0.662384       -18.0244
  44   2.0000      -0.653314       -17.7776
  45   2.0000      -0.635533       -17.2937
  46   2.0000      -0.606045       -16.4913
  47   2.0000      -0.545651       -14.8479
  48   2.0000      -0.543234       -14.7821
  49   2.0000      -0.529542       -14.4096
  50   2.0000      -0.505829       -13.7643
  51   2.0000      -0.498158       -13.5556
  52   2.0000      -0.489511       -13.3203
  53   2.0000      -0.471235       -12.8230
  54   2.0000      -0.461144       -12.5484
  55   2.0000      -0.456358       -12.4181
  56   2.0000      -0.449715       -12.2374
  57   2.0000      -0.446044       -12.1375
  58   2.0000      -0.438028       -11.9193
  59   2.0000      -0.432422       -11.7668
  60   2.0000      -0.428351       -11.6560
  61   2.0000      -0.423644       -11.5280
  62   2.0000      -0.417537       -11.3618
  63   2.0000      -0.403987       -10.9931
  64   2.0000      -0.396909       -10.8004
  65   2.0000      -0.392709       -10.6862
  66   2.0000      -0.384349       -10.4587
  67   2.0000      -0.376075       -10.2335
  68   2.0000      -0.364925        -9.9301
  69   2.0000      -0.360317        -9.8047
  70   2.0000      -0.353432        -9.6174
  71   2.0000      -0.350799        -9.5457
  72   2.0000      -0.345894        -9.4123
  73   2.0000      -0.335192        -9.1210
  74   2.0000      -0.326827        -8.8934
  75   2.0000      -0.320389        -8.7182
  76   2.0000      -0.317518        -8.6401
  77   2.0000      -0.312160        -8.4943
  78   2.0000      -0.291888        -7.9427
  79   2.0000      -0.285760        -7.7759
  80   2.0000      -0.282133        -7.6772
  81   2.0000      -0.275139        -7.4869
  82   2.0000      -0.262014        -7.1298
  83   2.0000      -0.246035        -6.6950
  84   2.0000      -0.229058        -6.2330
  85   2.0000      -0.219272        -5.9667
  86   2.0000      -0.216265        -5.8849
  87   0.0000      -0.047218        -1.2849
  88   0.0000      -0.021672        -0.5897
  89   0.0000      -0.020269        -0.5515
  90   0.0000       0.002134         0.0581
  91   0.0000       0.012284         0.3343

MULLIKEN ATOMIC CHARGES
-----------------------
   0 C :   -0.458648
   1 C :   -0.164276
   2 O :   -0.098995
   3 C :    0.284495
   4 O :   -0.404723
   5 C :   -0.385659
   6 C :    0.066631
   7 H :    0.255638
   8 C :    0.181513
   9 O :   -0.387667
  10 O :   -0.109720
  11 C :   -0.135410
  12 C :   -0.494349
  13 S :   -0.231323
  14 P :    0.779778
  15 S :   -0.446643
  16 O :   -0.352519
  17 C :   -0.296562
  18 O :   -0.312200
  19 C :   -0.297289
  20 H :    0.152130
  21 H :    0.159612
  22 H :    0.150860
  23 H :    0.192924
  24 H :    0.149324
  25 H :    0.193756
  26 H :    0.204821
  27 H :    0.175923
  28 H :    0.171938
  29 H :    0.170174
  30 H :    0.154691
  31 H :    0.149516
  32 H :    0.158290
  33 H :    0.174896
  34 H :    0.151869
  35 H :    0.168766
  36 H :    0.170527
  37 H :    0.157911
Sum of atomic charges:   -0.0000000

LOEWDIN ATOMIC CHARGES
----------------------
   0 C :   -0.388841
   1 C :    0.037636
   2 O :   -0.613733
   3 C :    0.366662
   4 O :   -0.422964
   5 C :   -0.201307
   6 C :   -0.197334
   7 H :    0.211374
   8 C :    0.351723
   9 O :   -0.414955
  10 O :   -0.622862
  11 C :    0.036785
  12 C :   -0.387235
  13 S :    0.218713
  14 P :    0.400039
  15 S :   -0.090452
  16 O :   -0.685726
  17 C :   -0.060692
  18 O :   -0.649123
  19 C :   -0.053869
  20 H :    0.156253
  21 H :    0.161106
  22 H :    0.160224
  23 H :    0.198943
  24 H :    0.177702
  25 H :    0.192510
  26 H :    0.209189
  27 H :    0.194285
  28 H :    0.187098
  29 H :    0.163685
  30 H :    0.161135
  31 H :    0.153962
  32 H :    0.168807
  33 H :    0.176674
  34 H :    0.177072
  35 H :    0.172838
  36 H :    0.175430
  37 H :    0.179251

  Mayer bond orders larger than 0.100000
B(  0-C ,  1-C ) :   0.9291 B(  0-C , 20-H ) :   0.9712 B(  0-C , 21-H ) :   0.9717
B(  0-C , 22-H ) :   0.9666 B(  1-C ,  2-O ) :   0.7466 B(  1-C , 23-H ) :   0.9616
B(  1-C , 24-H ) :   0.9544 B(  2-O ,  3-C ) :   1.1039 B(  2-O ,  8-C ) :   0.1312
B(  3-C ,  4-O ) :   1.9066 B(  3-C ,  5-C ) :   0.9664 B(  5-C ,  6-C ) :   0.9494
B(  5-C , 25-H ) :   0.9584 B(  5-C , 26-H ) :   0.9158 B(  6-C ,  7-H ) :   0.8931
B(  6-C ,  8-C ) :   0.8514 B(  6-C , 13-S ) :   0.7875 B(  8-C ,  9-O ) :   1.8912
B(  8-C , 10-O ) :   1.1552 B( 10-O , 11-C ) :   0.7602 B( 11-C , 12-C ) :   0.9049
B( 11-C , 27-H ) :   0.9598 B( 11-C , 28-H ) :   0.9625 B( 12-C , 29-H ) :   0.9715
B( 12-C , 30-H ) :   0.9682 B( 12-C , 31-H ) :   0.9783 B( 13-S , 14-P ) :   0.9794
B( 14-P , 15-S ) :   1.8059 B( 14-P , 16-O ) :   1.0260 B( 14-P , 18-O ) :   1.1485
B( 16-O , 17-C ) :   0.8320 B( 17-C , 32-H ) :   0.9564 B( 17-C , 33-H ) :   0.9591
B( 17-C , 34-H ) :   0.9674 B( 18-O , 19-C ) :   0.7893 B( 19-C , 35-H ) :   0.9580
B( 19-C , 36-H ) :   0.9595 B( 19-C , 37-H ) :   0.9657

Dispersion correction           -0.018651549
FINAL SINGLE POINT ENERGY     -1981.452503162828

DIPOLE MOMENT
-------------

Method             : SCF
Type of density    : Electron Density
Multiplicity       :   1
Irrep              :   0
Energy             : -1981.4716238778523802 Eh
Relativity type    :
Basis              : AO
                                X                 Y                 Z
Electronic contribution:    -11.315494143       9.308479993      -9.257575147
Nuclear contribution   :     11.105997549     -10.761805813      10.649595264
                        -----------------------------------------
Total Dipole Moment    :     -0.209496594      -1.453325820       1.392020118
                        -----------------------------------------
Magnitude (a.u.)       :      2.023305407
Magnitude (Debye)      :      5.142833637

Rotational constants in cm-1:             0.013761             0.007555             0.007102
Rotational constants in MHz :           412.558602           226.488826           212.919232

                             ****ORCA TERMINATED NORMALLY****
TOTAL RUN TIME: 0 days 0 hours 1 minutes 27 seconds 674 msec
