                         Program Version 6.0.1  -  RELEASE   -
|  1> ! r2scan-3c def2/J RI DEFGRID2 scfconv6 printgap
|  2> %output
|  3>     printlevel normal
|  4> end
|  5> %cpcm
|  6>     smd true
|  7>     smdsolvent "water"
|  8> end
|  9> * xyz 0 1
| 10> C 2.5719195424 -2.7703309551 0.7406692144
| 11> C 3.2741562983 -1.8702965598 -0.260705068
| 12> O 2.3079096544 -0.9657816715 -0.8317022666
| 13> C 2.203358159 -0.8721464093 -2.1442805769
| 14> O 2.9195808821 -1.4505412882 -2.9313170993
| 15> C 1.079520176 0.0500432313 -2.5702280169
| 16> C 0.2160455577 0.521147195 -1.4097635936
| 17> H -0.5562235527 1.2106728484 -1.7736393074
| 18> C 1.0402124117 1.2867851447 -0.3891277123
| 19> O 1.942551233 2.0277596753 -0.7038178109
| 20> O 0.6138209537 1.0921719812 0.8405939858
| 21> C 1.259311118 1.7978554479 1.9190663725
| 22> C 2.3862324519 0.9656827533 2.5055793701
| 23> S -0.6561363183 -0.8815021113 -0.6349036682
| 24> P -2.0101180485 0.2306817262 0.5718136858
| 25> S -2.3641998865 2.0798037983 0.028654159
| 26> O -3.3080674788 -0.7112395023 0.555334565
| 27> C -4.0926637772 -0.8732298893 -0.630120526
| 28> O -1.597352103 0.0890290408 2.0892259002
| 29> C -1.3478526064 -1.196187367 2.6922200424
| 30> H 2.1076082671 -2.1696561852 1.5172019745
| 31> H 1.8035805184 -3.3558069519 0.2428868354
| 32> H 3.2981694836 -3.4386003428 1.1909130273
| 33> H 3.7311031006 -2.4426039864 -1.072906096
| 34> H 4.0367598431 -1.2539080289 0.222291016
| 35> H 0.4801884657 -0.4719395394 -3.3171025079
| 36> H 1.5368816452 0.9200829978 -3.0486117905
| 37> H 1.6319168056 2.7492467896 1.5293759051
| 38> H 0.4633384713 1.9730639988 2.6445014984
| 39> H 3.1471989302 0.7881893455 1.7493658426
| 40> H 2.8311197501 1.5051739405 3.3350666813
| 41> H 2.0054556624 0.0125541328 2.8613844266
| 42> H -3.5454991482 -1.4720807985 -1.3580321721
| 43> H -4.335915481 0.1015922765 -1.0559157504
| 44> H -4.9982082473 -1.3854242582 -0.3152496356
| 45> H -0.6287826803 -1.7549084113 2.0928379959
| 46> H -2.2784024051 -1.7547900836 2.7707199409
| 47> H -0.9454249305 -0.976513152 3.6777323607
| 48> *
| 49>
| 50>                          ****END OF INPUT****

CARTESIAN COORDINATES (ANGSTROEM)
---------------------------------
  C      2.571920   -2.770331    0.740669
  C      3.274156   -1.870297   -0.260705
  O      2.307910   -0.965782   -0.831702
  C      2.203358   -0.872146   -2.144281
  O      2.919581   -1.450541   -2.931317
  C      1.079520    0.050043   -2.570228
  C      0.216046    0.521147   -1.409764
  H     -0.556224    1.210673   -1.773639
  C      1.040212    1.286785   -0.389128
  O      1.942551    2.027760   -0.703818
  O      0.613821    1.092172    0.840594
  C      1.259311    1.797855    1.919066
  C      2.386232    0.965683    2.505579
  S     -0.656136   -0.881502   -0.634904
  P     -2.010118    0.230682    0.571814
  S     -2.364200    2.079804    0.028654
  O     -3.308067   -0.711240    0.555335
  C     -4.092664   -0.873230   -0.630121
  O     -1.597352    0.089029    2.089226
  C     -1.347853   -1.196187    2.692220
  H      2.107608   -2.169656    1.517202
  H      1.803581   -3.355807    0.242887
  H      3.298169   -3.438600    1.190913
  H      3.731103   -2.442604   -1.072906
  H      4.036760   -1.253908    0.222291
  H      0.480188   -0.471940   -3.317103
  H      1.536882    0.920083   -3.048612
  H      1.631917    2.749247    1.529376
  H      0.463338    1.973064    2.644501
  H      3.147199    0.788189    1.749366
  H      2.831120    1.505174    3.335067
  H      2.005456    0.012554    2.861384
  H     -3.545499   -1.472081   -1.358032
  H     -4.335915    0.101592   -1.055916
  H     -4.998208   -1.385424   -0.315250
  H     -0.628783   -1.754908    2.092838
  H     -2.278402   -1.754790    2.770720
  H     -0.945425   -0.976513    3.677732

 Total Charge           Charge          ....    0
 Multiplicity           Mult            ....    1
 Number of Electrons    NEL             ....  174
 Basis Dimension        Dim             ....  510

ORBITAL ENERGIES
----------------

  NO   OCC          E(Eh)            E(eV)
   0   2.0000     -88.577269     -2410.3100
   1   2.0000     -88.528262     -2408.9765
   2   2.0000     -76.919813     -2093.0945
   3   2.0000     -19.010947      -517.3142
   4   2.0000     -19.008716      -517.2534
   5   2.0000     -18.997137      -516.9384
   6   2.0000     -18.993032      -516.8267
   7   2.0000     -18.950703      -515.6748
   8   2.0000     -18.947586      -515.5900
   9   2.0000     -10.174540      -276.8633
  10   2.0000     -10.172818      -276.8164
  11   2.0000     -10.096008      -274.7264
  12   2.0000     -10.087046      -274.4825
  13   2.0000     -10.086362      -274.4639
  14   2.0000     -10.085035      -274.4278
  15   2.0000     -10.080863      -274.3142
  16   2.0000     -10.060551      -273.7615
  17   2.0000     -10.020293      -272.6660
  18   2.0000     -10.019580      -272.6466
  19   2.0000      -7.871489      -214.1941
  20   2.0000      -7.823315      -212.8832
  21   2.0000      -6.598075      -179.5428
  22   2.0000      -5.818379      -158.3261
  23   2.0000      -5.815474      -158.2471
  24   2.0000      -5.808472      -158.0566
  25   2.0000      -5.771066      -157.0387
  26   2.0000      -5.763584      -156.8351
  27   2.0000      -5.763168      -156.8238
  28   2.0000      -4.743766      -129.0844
  29   2.0000      -4.743087      -129.0660
  30   2.0000      -4.741667      -129.0273
  31   2.0000      -1.091550       -29.7026
  32   2.0000      -1.086061       -29.5532
  33   2.0000      -1.053372       -28.6637
  34   2.0000      -1.010301       -27.4917
  35   2.0000      -0.999770       -27.2051
  36   2.0000      -0.996230       -27.1088
  37   2.0000      -0.814965       -22.1763
  38   2.0000      -0.753378       -20.5004
  39   2.0000      -0.738819       -20.1043
  40   2.0000      -0.730944       -19.8900
  41   2.0000      -0.696135       -18.9428
  42   2.0000      -0.669695       -18.2233
  43   2.0000      -0.659572       -17.9479
  44   2.0000      -0.650866       -17.7110
  45   2.0000      -0.625262       -17.0142
  46   2.0000      -0.599567       -16.3151
  47   2.0000      -0.540313       -14.7027
  48   2.0000      -0.535217       -14.5640
  49   2.0000      -0.525450       -14.2982
  50   2.0000      -0.504423       -13.7260
  51   2.0000      -0.491635       -13.3781
  52   2.0000      -0.487529       -13.2663
  53   2.0000      -0.470029       -12.7901
  54   2.0000      -0.461077       -12.5465
  55   2.0000      -0.458207       -12.4685
  56   2.0000      -0.448741       -12.2109
  57   2.0000      -0.442780       -12.0486
  58   2.0000      -0.438723       -11.9383
  59   2.0000      -0.426960       -11.6182
  60   2.0000      -0.423332       -11.5194
  61   2.0000      -0.412723       -11.2308
  62   2.0000      -0.410525       -11.1710
  63   2.0000      -0.398130       -10.8337
  64   2.0000      -0.389369       -10.5953
  65   2.0000      -0.386642       -10.5211
  66   2.0000      -0.374149       -10.1811
  67   2.0000      -0.364061        -9.9066
  68   2.0000      -0.358762        -9.7624
  69   2.0000      -0.354112        -9.6359
  70   2.0000      -0.350442        -9.5360
  71   2.0000      -0.344558        -9.3759
  72   2.0000      -0.338470        -9.2102
  73   2.0000      -0.329560        -8.9678
  74   2.0000      -0.319723        -8.7001
  75   2.0000      -0.314921        -8.5694
  76   2.0000      -0.312483        -8.5031
  77   2.0000      -0.306398        -8.3375
  78   2.0000      -0.288931        -7.8622
  79   2.0000      -0.287522        -7.8239
  80   2.0000      -0.282395        -7.6844
  81   2.0000      -0.277240        -7.5441
  82   2.0000      -0.269711        -7.3392
  83   2.0000      -0.258915        -7.0454
  84   2.0000      -0.235616        -6.4115
  85   2.0000      -0.227187        -6.1821
  86   2.0000      -0.222771        -6.0619
  87   0.0000      -0.049240        -1.3399
  88   0.0000      -0.028340        -0.7712
  89   0.0000      -0.025610        -0.6969
  90   0.0000       0.004281         0.1165
  91   0.0000       0.011543         0.3141

MULLIKEN ATOMIC CHARGES
-----------------------
   0 C :   -0.503297
   1 C :   -0.149128
   2 O :   -0.111724
   3 C :    0.326282
   4 O :   -0.481432
   5 C :   -0.438833
   6 C :    0.083521
   7 H :    0.278890
   8 C :    0.184415
   9 O :   -0.449944
  10 O :   -0.121826
  11 C :   -0.132552
  12 C :   -0.523252
  13 S :   -0.215918
  14 P :    0.800152
  15 S :   -0.509462
  16 O :   -0.380219
  17 C :   -0.307692
  18 O :   -0.348318
  19 C :   -0.300202
  20 H :    0.171534
  21 H :    0.168701
  22 H :    0.171539
  23 H :    0.186054
  24 H :    0.176620
  25 H :    0.227185
  26 H :    0.231776
  27 H :    0.177827
  28 H :    0.182797
  29 H :    0.175161
  30 H :    0.175498
  31 H :    0.174522
  32 H :    0.174871
  33 H :    0.176322
  34 H :    0.178881
  35 H :    0.181452
  36 H :    0.184066
  37 H :    0.185733
Sum of atomic charges:   -0.0000000

LOEWDIN ATOMIC CHARGES
----------------------
   0 C :   -0.389966
   1 C :    0.043899
   2 O :   -0.609830
   3 C :    0.373306
   4 O :   -0.480942
   5 C :   -0.196947
   6 C :   -0.192094
   7 H :    0.219147
   8 C :    0.354293
   9 O :   -0.463969
  10 O :   -0.624276
  11 C :    0.040310
  12 C :   -0.387847
  13 S :    0.234196
  14 P :    0.402152
  15 S :   -0.137252
  16 O :   -0.696527
  17 C :   -0.056627
  18 O :   -0.667674
  19 C :   -0.044107
  20 H :    0.162182
  21 H :    0.162825
  22 H :    0.168505
  23 H :    0.197578
  24 H :    0.188668
  25 H :    0.205715
  26 H :    0.216690
  27 H :    0.194205
  28 H :    0.192674
  29 H :    0.164702
  30 H :    0.169139
  31 H :    0.163535
  32 H :    0.175835
  33 H :    0.177118
  34 H :    0.188355
  35 H :    0.179730
  36 H :    0.181643
  37 H :    0.191655

  Mayer bond orders larger than 0.100000
B(  0-C ,  1-C ) :   0.9215 B(  0-C , 20-H ) :   0.9672 B(  0-C , 21-H ) :   0.9701
B(  0-C , 22-H ) :   0.9606 B(  1-C ,  2-O ) :   0.7369 B(  1-C , 23-H ) :   0.9569
B(  1-C , 24-H ) :   0.9436 B(  2-O ,  3-C ) :   1.1373 B(  2-O ,  8-C ) :   0.1284
B(  3-C ,  4-O ) :   1.8430 B(  3-C ,  5-C ) :   0.9472 B(  5-C ,  6-C ) :   0.9338
B(  5-C , 25-H ) :   0.9450 B(  5-C , 26-H ) :   0.9207 B(  6-C ,  7-H ) :   0.8818
B(  6-C ,  8-C ) :   0.8492 B(  6-C , 13-S ) :   0.7872 B(  8-C ,  9-O ) :   1.8352
B(  8-C , 10-O ) :   1.1733 B( 10-O , 11-C ) :   0.7472 B( 11-C , 12-C ) :   0.9058
B( 11-C , 27-H ) :   0.9554 B( 11-C , 28-H ) :   0.9533 B( 12-C , 29-H ) :   0.9666
B( 12-C , 30-H ) :   0.9622 B( 12-C , 31-H ) :   0.9704 B( 13-S , 14-P ) :   0.9960
B( 14-P , 15-S ) :   1.7739 B( 14-P , 16-O ) :   1.0321 B( 14-P , 18-O ) :   1.1568
B( 16-O , 17-C ) :   0.8247 B( 17-C , 32-H ) :   0.9503 B( 17-C , 33-H ) :   0.9557
B( 17-C , 34-H ) :   0.9574 B( 18-O , 19-C ) :   0.7819 B( 19-C , 35-H ) :   0.9484
B( 19-C , 36-H ) :   0.9516 B( 19-C , 37-H ) :   0.9544

Dispersion correction           -0.018651549
FINAL SINGLE POINT ENERGY     -1981.468274211016

DIPOLE MOMENT
-------------

Method             : SCF
Type of density    : Electron Density
Multiplicity       :   1
Irrep              :   0
Energy             : -1981.4873949260404515 Eh
Relativity type    :
Basis              : AO
                                X                 Y                 Z
Electronic contribution:    -11.434925349       8.631598437      -8.803575509
Nuclear contribution   :     11.105997549     -10.761805813      10.649595264
                        -----------------------------------------
Total Dipole Moment    :     -0.328927800      -2.130207376       1.846019756
                        -----------------------------------------
Magnitude (a.u.)       :      2.837915767
Magnitude (Debye)      :      7.213408622

Rotational constants in cm-1:             0.013761             0.007555             0.007102
Rotational constants in MHz :           412.558602           226.488826           212.919232

                             ****ORCA TERMINATED NORMALLY****
TOTAL RUN TIME: 0 days 0 hours 2 minutes 0 seconds 677 msec
