                         Program Version 6.0.0  -   RELEASE  -
|  1> ! pbe def2-sv(p) def2/J RI DEFGRID1 loosescf d4 GCP(DFT/SV(P)) printgap
|  2> %output
|  3>     printlevel normal
|  4> end
|  5> * xyz 0 1
|  6> C 1.8477321221 -2.2630492761 2.8382943431
|  7> C 0.7617873506 -1.5829646414 2.028361309
|  8> O 1.2919951996 -0.4623165899 1.3039575837
|  9> P 1.9018899643 -0.5884858857 -0.1638149681
| 10> S 1.4881677463 -2.2221477607 -1.1567850687
| 11> O 3.4773416434 -0.4677238212 0.0189269301
| 12> C 4.1504050664 0.301406721 1.0411536771
| 13> C 3.7307432514 1.7556534274 1.059569101
| 14> S 1.3936202237 1.2351172066 -1.115555672
| 15> C 0.2119253273 0.647181766 -2.3558565869
| 16> S -1.4915109313 1.258644706 -2.1460398707
| 17> P -1.9781251077 0.4741410031 -0.2338246087
| 18> S -3.8855635612 0.6239631259 0.1734529175
| 19> O -0.9738818057 1.1550964727 0.7845816881
| 20> C -1.1281176671 2.55071387 1.1203892064
| 21> C -1.7774758825 2.6959454533 2.4818012097
| 22> O -1.3192474625 -0.9702805614 -0.193176635
| 23> C -2.0499430279 -2.1047395713 -0.7117841121
| 24> C -2.765544034 -2.8391290843 0.4036283982
| 25> H 1.4155791191 -3.0895163058 3.3937458534
| 26> H 2.6170582441 -2.6507792743 2.170908535
| 27> H 2.2977973903 -1.5616676708 3.5358966797
| 28> H -0.0206474858 -1.1609573676 2.6612119879
| 29> H 0.3165208497 -2.2840906118 1.3163293934
| 30> H 3.9542763715 -0.1693169957 2.0074488579
| 31> H 5.204641269 0.1884163032 0.783463317
| 32> H 4.3182771766 2.2859594498 1.8028090792
| 33> H 3.8875622751 2.2121828062 0.0854036473
| 34> H 2.6758597218 1.8346815434 1.3189039138
| 35> H 0.2229399933 -0.4457744547 -2.3573324057
| 36> H 0.5229098336 1.0397352281 -3.3209164635
| 37> H -0.1157575589 2.9610924972 1.1086292145
| 38> H -1.7260950258 3.0461593899 0.347456386
| 39> H -1.8429351339 3.7489479574 2.7357603683
| 40> H -2.7788758782 2.2707976675 2.4635529847
| 41> H -1.1889491192 2.1786056306 3.2339871651
| 42> H -2.7633206015 -1.7592517345 -1.466951496
| 43> H -1.2918523397 -2.7340778738 -1.1853506037
| 44> H -2.0555362751 -3.1663350851 1.1578999218
| 45> H -3.5009758192 -2.185904792 0.8684574779
| 46> H -3.2714130543 -3.7044236164 -0.0125882277
| 47> *
| 48>
| 49>                          ****END OF INPUT****

CARTESIAN COORDINATES (ANGSTROEM)
---------------------------------
  C      1.847732   -2.263049    2.838294
  C      0.761787   -1.582965    2.028361
  O      1.291995   -0.462317    1.303958
  P      1.901890   -0.588486   -0.163815
  S      1.488168   -2.222148   -1.156785
  O      3.477342   -0.467724    0.018927
  C      4.150405    0.301407    1.041154
  C      3.730743    1.755653    1.059569
  S      1.393620    1.235117   -1.115556
  C      0.211925    0.647182   -2.355857
  S     -1.491511    1.258645   -2.146040
  P     -1.978125    0.474141   -0.233825
  S     -3.885564    0.623963    0.173453
  O     -0.973882    1.155096    0.784582
  C     -1.128118    2.550714    1.120389
  C     -1.777476    2.695945    2.481801
  O     -1.319247   -0.970281   -0.193177
  C     -2.049943   -2.104740   -0.711784
  C     -2.765544   -2.839129    0.403628
  H      1.415579   -3.089516    3.393746
  H      2.617058   -2.650779    2.170909
  H      2.297797   -1.561668    3.535897
  H     -0.020647   -1.160957    2.661212
  H      0.316521   -2.284091    1.316329
  H      3.954276   -0.169317    2.007449
  H      5.204641    0.188416    0.783463
  H      4.318277    2.285959    1.802809
  H      3.887562    2.212183    0.085404
  H      2.675860    1.834682    1.318904
  H      0.222940   -0.445774   -2.357332
  H      0.522910    1.039735   -3.320916
  H     -0.115758    2.961092    1.108629
  H     -1.726095    3.046159    0.347456
  H     -1.842935    3.748948    2.735760
  H     -2.778876    2.270798    2.463553
  H     -1.188949    2.178606    3.233987
  H     -2.763321   -1.759252   -1.466951
  H     -1.291852   -2.734078   -1.185351
  H     -2.055536   -3.166335    1.157900
  H     -3.500976   -2.185905    0.868457
  H     -3.271413   -3.704424   -0.012588

 Total Charge           Charge          ....    0
 Multiplicity           Mult            ....    1
 Number of Electrons    NEL             ....  202
 Basis Dimension        Dim             ....  334

ORBITAL ENERGIES
----------------

  NO   OCC          E(Eh)            E(eV)
   0   2.0000     -88.044909     -2395.8238
   1   2.0000     -88.040237     -2395.6967
   2   2.0000     -87.990533     -2394.3441
   3   2.0000     -87.986081     -2394.2230
   4   2.0000     -76.430567     -2079.7814
   5   2.0000     -76.426933     -2079.6826
   6   2.0000     -18.796081      -511.4674
   7   2.0000     -18.795439      -511.4499
   8   2.0000     -18.791978      -511.3557
   9   2.0000     -18.790440      -511.3139
  10   2.0000      -9.962922      -271.1049
  11   2.0000      -9.954966      -270.8884
  12   2.0000      -9.952819      -270.8300
  13   2.0000      -9.952086      -270.8100
  14   2.0000      -9.948991      -270.7258
  15   2.0000      -9.897407      -269.3221
  16   2.0000      -9.891053      -269.1492
  17   2.0000      -9.882862      -268.9263
  18   2.0000      -9.880990      -268.8754
  19   2.0000      -7.689815      -209.2505
  20   2.0000      -7.685642      -209.1369
  21   2.0000      -7.635628      -207.7760
  22   2.0000      -7.631454      -207.6624
  23   2.0000      -6.428113      -174.9178
  24   2.0000      -6.424449      -174.8181
  25   2.0000      -5.717783      -155.5888
  26   2.0000      -5.714441      -155.4978
  27   2.0000      -5.713731      -155.4785
  28   2.0000      -5.709664      -155.3679
  29   2.0000      -5.706538      -155.2828
  30   2.0000      -5.702882      -155.1833
  31   2.0000      -5.664597      -154.1415
  32   2.0000      -5.660375      -154.0266
  33   2.0000      -5.656375      -153.9178
  34   2.0000      -5.655493      -153.8938
  35   2.0000      -5.652140      -153.8026
  36   2.0000      -5.651488      -153.7848
  37   2.0000      -4.651019      -126.5607
  38   2.0000      -4.649291      -126.5136
  39   2.0000      -4.648886      -126.5026
  40   2.0000      -4.646901      -126.4486
  41   2.0000      -4.646676      -126.4425
  42   2.0000      -4.644594      -126.3858
  43   2.0000      -0.991202       -26.9720
  44   2.0000      -0.986633       -26.8477
  45   2.0000      -0.946849       -25.7651
  46   2.0000      -0.945324       -25.7236
  47   2.0000      -0.761455       -20.7202
  48   2.0000      -0.723752       -19.6943
  49   2.0000      -0.711394       -19.3580
  50   2.0000      -0.697214       -18.9722
  51   2.0000      -0.682401       -18.5691
  52   2.0000      -0.679180       -18.4814
  53   2.0000      -0.656510       -17.8646
  54   2.0000      -0.639134       -17.3917
  55   2.0000      -0.601989       -16.3809
  56   2.0000      -0.592791       -16.1307
  57   2.0000      -0.583211       -15.8700
  58   2.0000      -0.565283       -15.3821
  59   2.0000      -0.559682       -15.2297
  60   2.0000      -0.506700       -13.7880
  61   2.0000      -0.495961       -13.4958
  62   2.0000      -0.482029       -13.1167
  63   2.0000      -0.477103       -12.9826
  64   2.0000      -0.453397       -12.3376
  65   2.0000      -0.448960       -12.2168
  66   2.0000      -0.443685       -12.0733
  67   2.0000      -0.441031       -12.0011
  68   2.0000      -0.424654       -11.5554
  69   2.0000      -0.422428       -11.4949
  70   2.0000      -0.410920       -11.1817
  71   2.0000      -0.402058       -10.9406
  72   2.0000      -0.395568       -10.7640
  73   2.0000      -0.391071       -10.6416
  74   2.0000      -0.380747       -10.3607
  75   2.0000      -0.378484       -10.2991
  76   2.0000      -0.363990        -9.9047
  77   2.0000      -0.360750        -9.8165
  78   2.0000      -0.359614        -9.7856
  79   2.0000      -0.354798        -9.6546
  80   2.0000      -0.351878        -9.5751
  81   2.0000      -0.348261        -9.4767
  82   2.0000      -0.344020        -9.3613
  83   2.0000      -0.335849        -9.1389
  84   2.0000      -0.328664        -8.9434
  85   2.0000      -0.327020        -8.8987
  86   2.0000      -0.314045        -8.5456
  87   2.0000      -0.308518        -8.3952
  88   2.0000      -0.298184        -8.1140
  89   2.0000      -0.294933        -8.0255
  90   2.0000      -0.286583        -7.7983
  91   2.0000      -0.276988        -7.5372
  92   2.0000      -0.269456        -7.3323
  93   2.0000      -0.264134        -7.1874
  94   2.0000      -0.257236        -6.9998
  95   2.0000      -0.235094        -6.3972
  96   2.0000      -0.220988        -6.0134
  97   2.0000      -0.212438        -5.7807
  98   2.0000      -0.206693        -5.6244
  99   2.0000      -0.201400        -5.4804
 100   2.0000      -0.198880        -5.4118
 101   0.0000      -0.038959        -1.0601
 102   0.0000      -0.028470        -0.7747
 103   0.0000      -0.017096        -0.4652
 104   0.0000      -0.003516        -0.0957
 105   0.0000       0.009724         0.2646

MULLIKEN ATOMIC CHARGES
-----------------------
   0 C :   -0.302316
   1 C :   -0.032420
   2 O :   -0.379479
   3 P :    0.645272
   4 S :   -0.316565
   5 O :   -0.371460
   6 C :   -0.000979
   7 C :   -0.354052
   8 S :   -0.107810
   9 C :   -0.341168
  10 S :   -0.089818
  11 P :    0.574733
  12 S :   -0.314037
  13 O :   -0.348874
  14 C :   -0.016975
  15 C :   -0.280144
  16 O :   -0.369174
  17 C :   -0.016557
  18 C :   -0.289550
  19 H :    0.113866
  20 H :    0.123372
  21 H :    0.116644
  22 H :    0.107565
  23 H :    0.133459
  24 H :    0.106806
  25 H :    0.113083
  26 H :    0.119066
  27 H :    0.135217
  28 H :    0.142446
  29 H :    0.199710
  30 H :    0.182688
  31 H :    0.109075
  32 H :    0.101653
  33 H :    0.106909
  34 H :    0.124633
  35 H :    0.109546
  36 H :    0.104444
  37 H :    0.117200
  38 H :    0.110663
  39 H :    0.124453
  40 H :    0.108878
Sum of atomic charges:    0.0000000

LOEWDIN ATOMIC CHARGES
----------------------
   0 C :   -0.361131
   1 C :   -0.122644
   2 O :   -0.241573
   3 P :    0.583434
   4 S :   -0.289836
   5 O :   -0.247894
   6 C :   -0.110641
   7 C :   -0.377591
   8 S :    0.095717
   9 C :   -0.483997
  10 S :    0.067631
  11 P :    0.558596
  12 S :   -0.316562
  13 O :   -0.233379
  14 C :   -0.120351
  15 C :   -0.359300
  16 O :   -0.236006
  17 C :   -0.124786
  18 C :   -0.360621
  19 H :    0.131893
  20 H :    0.125584
  21 H :    0.121177
  22 H :    0.117305
  23 H :    0.108750
  24 H :    0.111472
  25 H :    0.124173
  26 H :    0.134559
  27 H :    0.128018
  28 H :    0.121230
  29 H :    0.123559
  30 H :    0.139919
  31 H :    0.111745
  32 H :    0.107109
  33 H :    0.128485
  34 H :    0.125891
  35 H :    0.123311
  36 H :    0.109399
  37 H :    0.112072
  38 H :    0.121180
  39 H :    0.123644
  40 H :    0.130458

  Mayer bond orders larger than 0.100000
B(  0-C ,  1-C ) :   1.1559 B(  0-C , 19-H ) :   0.9396 B(  0-C , 20-H ) :   0.9413
B(  0-C , 21-H ) :   0.9406 B(  1-C ,  2-O ) :   0.9014 B(  1-C , 22-H ) :   0.9320
B(  1-C , 23-H ) :   0.8983 B(  2-O ,  3-P ) :   1.0819 B(  3-P ,  4-S ) :   1.6065
B(  3-P ,  5-O ) :   1.1123 B(  3-P ,  8-S ) :   0.9678 B(  4-S ,  8-S ) :   0.1095
B(  4-S , 29-H ) :   0.1106 B(  5-O ,  6-C ) :   0.9098 B(  6-C ,  7-C ) :   1.1673
B(  6-C , 24-H ) :   0.9241 B(  6-C , 25-H ) :   0.9334 B(  7-C , 26-H ) :   0.9336
B(  7-C , 27-H ) :   0.9370 B(  7-C , 28-H ) :   0.9298 B(  8-S ,  9-C ) :   1.0111
B(  9-C , 10-S ) :   0.9706 B(  9-C , 29-H ) :   0.8517 B(  9-C , 30-H ) :   0.9104
B( 10-S , 11-P ) :   0.9790 B( 11-P , 12-S ) :   1.6442 B( 11-P , 13-O ) :   1.1105
B( 11-P , 16-O ) :   1.0905 B( 13-O , 14-C ) :   0.9020 B( 14-C , 15-C ) :   1.1680
B( 14-C , 31-H ) :   0.9254 B( 14-C , 32-H ) :   0.9097 B( 15-C , 33-H ) :   0.9406
B( 15-C , 34-H ) :   0.9352 B( 15-C , 35-H ) :   0.9482 B( 16-O , 17-C ) :   0.8888
B( 17-C , 18-C ) :   1.1724 B( 17-C , 36-H ) :   0.9112 B( 17-C , 37-H ) :   0.9130
B( 18-C , 38-H ) :   0.9470 B( 18-C , 39-H ) :   0.9319 B( 18-C , 40-H ) :   0.9393

Dispersion correction           -0.069199906
FINAL SINGLE POINT ENERGY     -2929.517144612000

DIPOLE MOMENT
-------------

Method             : SCF
Type of density    : Electron Density
Multiplicity       :   1
Irrep              :   0
Energy             : -2929.6373335316038720 Eh
Relativity type    :
Basis              : AO
                                X                 Y                 Z
Electronic contribution:     -5.431527640       3.230546743     -20.692399861
Nuclear contribution   :      6.628888623      -2.885829210      21.754918627
                        -----------------------------------------
Total Dipole Moment    :      1.197360983       0.344717533       1.062518765
                        -----------------------------------------
Magnitude (a.u.)       :      1.637513245
Magnitude (Debye)      :      4.162227892

Rotational constants in cm-1:             0.010782             0.006272             0.005867
Rotational constants in MHz :           323.231271           188.023932           175.879287

                             ****ORCA TERMINATED NORMALLY****
TOTAL RUN TIME: 0 days 0 hours 0 minutes 24 seconds 717 msec
