                         Program Version 6.0.0  -   RELEASE  -
|  1> ! wb97x-v def2-tzvp def2/J RIJCOSX DEFGRID2 scfconv7 GCP(DFT/TZ) printgap
|  2> %output
|  3>     printlevel normal
|  4> end
|  5> * xyz 0 1
|  6> C -2.614962848663923 0.5615185488829028 0.0008588017156067081
|  7> C -1.2344784788227823 -0.04308268776626853 -0.00028217652348475183
|  8> C -1.1503285233584297 -1.444886142076276 -0.00047033096318900135
|  9> C 0.07532591097474174 -2.0939491180296463 -0.0005793638779136585
| 10> C 1.2539772812390653 -1.353529590569954 -8.085329058092113e-05
| 11> C 1.173630727163286 0.03386494487742538 0.00022367167734827016
| 12> C -0.05505377335014873 0.7205422439410237 -0.0006405835683658777
| 13> C -0.006998145492424756 2.222945056163884 -0.0007751660959786472
| 14> O 2.3128708902447506 0.8148102352759117 0.0017027375213593127
| 15> H -3.175095252352709 0.22448674836021734 0.8797115702256078
| 16> H -2.617210197021919 1.6504234125658128 0.0036888887142845226
| 17> H -3.1752373869226402 0.2287475574315791 -0.8795560947583314
| 18> H -2.069260193094031 -2.024393871252929 -0.00031328056538170124
| 19> H 0.1210936106109926 -3.178623686797803 -0.0007438291374521025
| 20> H 2.22610825678308 -1.839109618093243 0.0002153862748187334
| 21> H 0.5481326460352975 2.5941084481792376 -0.869122465188156
| 22> H -0.9972336707205327 2.6742737475487894 -0.020164304546569263
| 23> H 0.514910520160904 2.5960859180865423 0.8874067603273942
| 24> H 3.0859036869572605 0.23319832327920811 0.0013164357619426458
| 25> *
| 26>
| 27>                          ****END OF INPUT****

CARTESIAN COORDINATES (ANGSTROEM)
---------------------------------
  C     -2.614963    0.561519    0.000859
  C     -1.234478   -0.043083   -0.000282
  C     -1.150329   -1.444886   -0.000470
  C      0.075326   -2.093949   -0.000579
  C      1.253977   -1.353530   -0.000081
  C      1.173631    0.033865    0.000224
  C     -0.055054    0.720542   -0.000641
  C     -0.006998    2.222945   -0.000775
  O      2.312871    0.814810    0.001703
  H     -3.175095    0.224487    0.879712
  H     -2.617210    1.650423    0.003689
  H     -3.175237    0.228748   -0.879556
  H     -2.069260   -2.024394   -0.000313
  H      0.121094   -3.178624   -0.000744
  H      2.226108   -1.839110    0.000215
  H      0.548133    2.594108   -0.869122
  H     -0.997234    2.674274   -0.020164
  H      0.514911    2.596086    0.887407
  H      3.085904    0.233198    0.001316

 Total Charge           Charge          ....    0
 Multiplicity           Mult            ....    1
 Number of Electrons    NEL             ....   66
 Basis Dimension        Dim             ....  339

ORBITAL ENERGIES
----------------

  NO   OCC          E(Eh)            E(eV)
   0   2.0000     -21.700604      -590.5035
   1   2.0000     -12.107049      -329.4496
   2   2.0000     -12.059301      -328.1503
   3   2.0000     -12.052494      -327.9650
   4   2.0000     -12.049202      -327.8755
   5   2.0000     -12.044670      -327.7521
   6   2.0000     -12.040627      -327.6421
   7   2.0000     -12.036641      -327.5337
   8   2.0000     -12.035347      -327.4984
   9   2.0000      -1.712920       -46.6109
  10   2.0000      -1.384041       -37.6617
  11   2.0000      -1.297838       -35.3160
  12   2.0000      -1.286724       -35.0135
  13   2.0000      -1.208887       -32.8955
  14   2.0000      -1.178390       -32.0656
  15   2.0000      -1.142625       -31.0924
  16   2.0000      -1.087168       -29.5833
  17   2.0000      -1.039342       -28.2819
  18   2.0000      -1.002281       -27.2735
  19   2.0000      -0.945917       -25.7397
  20   2.0000      -0.944491       -25.7009
  21   2.0000      -0.933277       -25.3958
  22   2.0000      -0.887362       -24.1464
  23   2.0000      -0.867977       -23.6188
  24   2.0000      -0.840364       -22.8675
  25   2.0000      -0.839957       -22.8564
  26   2.0000      -0.822263       -22.3749
  27   2.0000      -0.821245       -22.3472
  28   2.0000      -0.807053       -21.9610
  29   2.0000      -0.800088       -21.7715
  30   2.0000      -0.750689       -20.4273
  31   2.0000      -0.630606       -17.1597
  32   2.0000      -0.627562       -17.0768
  33   0.0000      -0.241635        -6.5752
  34   0.0000      -0.237440        -6.4611
  35   0.0000      -0.146862        -3.9963
  36   0.0000      -0.073332        -1.9955
  37   0.0000      -0.066948        -1.8218

MULLIKEN ATOMIC CHARGES
-----------------------
   0 C :   -0.364896
   1 C :    0.143443
   2 C :   -0.230955
   3 C :   -0.121048
   4 C :   -0.233772
   5 C :    0.234779
   6 C :   -0.053744
   7 C :   -0.317115
   8 O :   -0.396984
   9 H :    0.126410
  10 H :    0.105572
  11 H :    0.126523
  12 H :    0.111448
  13 H :    0.114226
  14 H :    0.100639
  15 H :    0.125391
  16 H :    0.096002
  17 H :    0.124716
  18 H :    0.309366
Sum of atomic charges:    0.0000000

LOEWDIN ATOMIC CHARGES
----------------------
   0 C :   -0.249954
   1 C :   -0.136254
   2 C :   -0.135354
   3 C :   -0.144106
   4 C :   -0.156584
   5 C :   -0.227402
   6 C :   -0.126735
   7 C :   -0.249250
   8 O :    0.065850
   9 H :    0.129016
  10 H :    0.118032
  11 H :    0.128982
  12 H :    0.142996
  13 H :    0.141688
  14 H :    0.137886
  15 H :    0.130005
  16 H :    0.116968
  17 H :    0.129946
  18 H :    0.184272

  Mayer bond orders larger than 0.100000
B(  0-C ,  1-C ) :   0.8894 B(  0-C ,  9-H ) :   0.9771 B(  0-C , 10-H ) :   1.0078
B(  0-C , 11-H ) :   0.9770 B(  1-C ,  2-C ) :   1.3653 B(  1-C ,  6-C ) :   1.4284
B(  2-C ,  3-C ) :   1.4683 B(  2-C , 12-H ) :   0.9845 B(  3-C ,  4-C ) :   1.4066
B(  3-C , 13-H ) :   0.9714 B(  4-C ,  5-C ) :   1.4054 B(  4-C , 14-H ) :   0.9681
B(  5-C ,  6-C ) :   1.3454 B(  5-C ,  8-O ) :   1.1726 B(  6-C ,  7-C ) :   0.9611
B(  7-C , 15-H ) :   0.9671 B(  7-C , 16-H ) :   0.9999 B(  7-C , 17-H ) :   0.9668
B(  8-O , 18-H ) :   0.8900

FINAL SINGLE POINT ENERGY      -386.119207132465

DIPOLE MOMENT
-------------

Method             : SCF
Type of density    : Electron Density
Multiplicity       :   1
Irrep              :   0
Energy             :  -386.1305718209646329 Eh
Relativity type    :
Basis              : AO
                                X                 Y                 Z
Electronic contribution:      5.354675130      -3.273381128      -0.001375275
Nuclear contribution   :     -5.214122621       3.018519977       0.001642025
                        -----------------------------------------
Total Dipole Moment    :      0.140552509      -0.254861151       0.000266751
                        -----------------------------------------
Magnitude (a.u.)       :      0.291048595
Magnitude (Debye)      :      0.739786738

Rotational constants in cm-1:             0.075306             0.058384             0.033292
Rotational constants in MHz :          2257.606125          1750.312709           998.059934

                             ****ORCA TERMINATED NORMALLY****
TOTAL RUN TIME: 0 days 0 hours 2 minutes 36 seconds 773 msec
