                         Program Version 6.0.0  -   RELEASE  -
|  1> ! wb97x-v def2-tzvp def2/J RIJCOSX DEFGRID2 scfconv7 GCP(DFT/TZ) printgap
|  2> %output
|  3>     printlevel normal
|  4> end
|  5> %cpcm
|  6>     smd true
|  7>     smdsolvent "water"
|  8> end
|  9> * xyz 0 1
| 10> C -2.614962848663923 0.5615185488829028 0.0008588017156067081
| 11> C -1.2344784788227823 -0.04308268776626853 -0.00028217652348475183
| 12> C -1.1503285233584297 -1.444886142076276 -0.00047033096318900135
| 13> C 0.07532591097474174 -2.0939491180296463 -0.0005793638779136585
| 14> C 1.2539772812390653 -1.353529590569954 -8.085329058092113e-05
| 15> C 1.173630727163286 0.03386494487742538 0.00022367167734827016
| 16> C -0.05505377335014873 0.7205422439410237 -0.0006405835683658777
| 17> C -0.006998145492424756 2.222945056163884 -0.0007751660959786472
| 18> O 2.3128708902447506 0.8148102352759117 0.0017027375213593127
| 19> H -3.175095252352709 0.22448674836021734 0.8797115702256078
| 20> H -2.617210197021919 1.6504234125658128 0.0036888887142845226
| 21> H -3.1752373869226402 0.2287475574315791 -0.8795560947583314
| 22> H -2.069260193094031 -2.024393871252929 -0.00031328056538170124
| 23> H 0.1210936106109926 -3.178623686797803 -0.0007438291374521025
| 24> H 2.22610825678308 -1.839109618093243 0.0002153862748187334
| 25> H 0.5481326460352975 2.5941084481792376 -0.869122465188156
| 26> H -0.9972336707205327 2.6742737475487894 -0.020164304546569263
| 27> H 0.514910520160904 2.5960859180865423 0.8874067603273942
| 28> H 3.0859036869572605 0.23319832327920811 0.0013164357619426458
| 29> *
| 30>
| 31>                          ****END OF INPUT****

CARTESIAN COORDINATES (ANGSTROEM)
---------------------------------
  C     -2.614963    0.561519    0.000859
  C     -1.234478   -0.043083   -0.000282
  C     -1.150329   -1.444886   -0.000470
  C      0.075326   -2.093949   -0.000579
  C      1.253977   -1.353530   -0.000081
  C      1.173631    0.033865    0.000224
  C     -0.055054    0.720542   -0.000641
  C     -0.006998    2.222945   -0.000775
  O      2.312871    0.814810    0.001703
  H     -3.175095    0.224487    0.879712
  H     -2.617210    1.650423    0.003689
  H     -3.175237    0.228748   -0.879556
  H     -2.069260   -2.024394   -0.000313
  H      0.121094   -3.178624   -0.000744
  H      2.226108   -1.839110    0.000215
  H      0.548133    2.594108   -0.869122
  H     -0.997234    2.674274   -0.020164
  H      0.514911    2.596086    0.887407
  H      3.085904    0.233198    0.001316

 Total Charge           Charge          ....    0
 Multiplicity           Mult            ....    1
 Number of Electrons    NEL             ....   66
 Basis Dimension        Dim             ....  339

ORBITAL ENERGIES
----------------

  NO   OCC          E(Eh)            E(eV)
   0   2.0000     -21.698750      -590.4530
   1   2.0000     -12.107326      -329.4571
   2   2.0000     -12.059244      -328.1487
   3   2.0000     -12.053329      -327.9878
   4   2.0000     -12.047433      -327.8273
   5   2.0000     -12.041515      -327.6663
   6   2.0000     -12.035843      -327.5119
   7   2.0000     -12.032634      -327.4246
   8   2.0000     -12.032070      -327.4093
   9   2.0000      -1.711431       -46.5704
  10   2.0000      -1.384781       -37.6818
  11   2.0000      -1.296933       -35.2914
  12   2.0000      -1.286282       -35.0015
  13   2.0000      -1.206049       -32.8183
  14   2.0000      -1.175602       -31.9898
  15   2.0000      -1.141035       -31.0491
  16   2.0000      -1.085875       -29.5482
  17   2.0000      -1.037763       -28.2390
  18   2.0000      -1.003458       -27.3055
  19   2.0000      -0.945353       -25.7244
  20   2.0000      -0.945151       -25.7189
  21   2.0000      -0.930535       -25.3211
  22   2.0000      -0.883581       -24.0435
  23   2.0000      -0.865037       -23.5389
  24   2.0000      -0.836543       -22.7635
  25   2.0000      -0.836117       -22.7519
  26   2.0000      -0.818482       -22.2720
  27   2.0000      -0.816557       -22.2197
  28   2.0000      -0.803589       -21.8668
  29   2.0000      -0.795409       -21.6442
  30   2.0000      -0.751612       -20.4524
  31   2.0000      -0.631003       -17.1705
  32   2.0000      -0.629929       -17.1412
  33   0.0000      -0.243214        -6.6182
  34   0.0000      -0.238167        -6.4809
  35   0.0000      -0.145235        -3.9520
  36   0.0000      -0.073389        -1.9970
  37   0.0000      -0.037368        -1.0168

MULLIKEN ATOMIC CHARGES
-----------------------
   0 C :   -0.397283
   1 C :    0.116260
   2 C :   -0.283040
   3 C :   -0.150103
   4 C :   -0.295127
   5 C :    0.239742
   6 C :   -0.055864
   7 C :   -0.381914
   8 O :   -0.471844
   9 H :    0.143071
  10 H :    0.134071
  11 H :    0.143083
  12 H :    0.153982
  13 H :    0.159628
  14 H :    0.162676
  15 H :    0.138042
  16 H :    0.132722
  17 H :    0.138431
  18 H :    0.373467
Sum of atomic charges:    0.0000000

LOEWDIN ATOMIC CHARGES
----------------------
   0 C :   -0.251625
   1 C :   -0.145467
   2 C :   -0.147722
   3 C :   -0.156667
   4 C :   -0.156028
   5 C :   -0.237123
   6 C :   -0.137308
   7 C :   -0.255625
   8 O :    0.043555
   9 H :    0.133446
  10 H :    0.124248
  11 H :    0.133417
  12 H :    0.151559
  13 H :    0.151017
  14 H :    0.154201
  15 H :    0.130726
  16 H :    0.125665
  17 H :    0.130940
  18 H :    0.208790

  Mayer bond orders larger than 0.100000
B(  0-C ,  1-C ) :   0.9068 B(  0-C ,  9-H ) :   0.9704 B(  0-C , 10-H ) :   1.0026
B(  0-C , 11-H ) :   0.9701 B(  1-C ,  2-C ) :   1.3465 B(  1-C ,  6-C ) :   1.4106
B(  2-C ,  3-C ) :   1.4368 B(  2-C , 12-H ) :   0.9915 B(  3-C ,  4-C ) :   1.3622
B(  3-C , 13-H ) :   0.9754 B(  4-C ,  5-C ) :   1.4078 B(  4-C , 14-H ) :   0.9764
B(  5-C ,  6-C ) :   1.3326 B(  5-C ,  8-O ) :   1.1427 B(  6-C ,  7-C ) :   0.9482
B(  7-C , 15-H ) :   0.9684 B(  7-C , 16-H ) :   0.9945 B(  7-C , 17-H ) :   0.9681
B(  8-O , 18-H ) :   0.8501

FINAL SINGLE POINT ENERGY      -386.127433084881

DIPOLE MOMENT
-------------

Method             : SCF
Type of density    : Electron Density
Multiplicity       :   1
Irrep              :   0
Energy             :  -386.1387977733814409 Eh
Relativity type    :
Basis              : AO
                                X                 Y                 Z
Electronic contribution:      5.389330776      -3.400157875      -0.001308086
Nuclear contribution   :     -5.214122621       3.018519977       0.001642025
                        -----------------------------------------
Total Dipole Moment    :      0.175208155      -0.381637898       0.000333939
                        -----------------------------------------
Magnitude (a.u.)       :      0.419935107
Magnitude (Debye)      :      1.067390215

Rotational constants in cm-1:             0.075306             0.058384             0.033292
Rotational constants in MHz :          2257.606125          1750.312709           998.059934

                             ****ORCA TERMINATED NORMALLY****
TOTAL RUN TIME: 0 days 0 hours 2 minutes 43 seconds 150 msec
