                         Program Version 6.0.0  -   RELEASE  -
|  1> ! pbe def2-sv(p) def2/J RI DEFGRID1 loosescf d4 GCP(DFT/SV(P)) printgap
|  2> %output
|  3>     printlevel normal
|  4> end
|  5> * xyz 0 1
|  6> C 3.4758346142 1.9218002348 -1.0036418289
|  7> C 3.6152047908 0.9188710674 0.1240539646
|  8> O 2.9457789657 -0.3135965382 -0.2105851826
|  9> P 1.7290486757 -0.9544583333 0.5928538339
| 10> S 1.1582173733 0.0670659167 2.1691993029
| 11> O 2.1538885295 -2.4531587144 0.9119380985
| 12> C 2.7599904275 -2.8293540286 2.1621967712
| 13> C 4.1675166385 -2.2820997655 2.2890316202
| 14> S 0.4230920608 -1.5216612435 -0.9650601945
| 15> C 0.3947547167 0.027859811 -1.9127530542
| 16> S -0.1171145633 1.4597985693 -0.9248228417
| 17> P -2.0843318489 0.8155769345 -0.5477611776
| 18> S -2.9947871604 -0.1625790849 -1.9878397261
| 19> O -2.8037544514 2.1203204759 0.0029805457
| 20> C -2.802285174 3.4151234367 -0.6304325741
| 21> C -3.1919043932 3.360752062 -2.092942066
| 22> O -1.9364923445 -0.0057844797 0.7986524227
| 23> C -2.7971438991 -1.0942123482 1.1904160771
| 24> C -1.9663998314 -2.1484419509 1.8940108046
| 25> H 2.4361789697 2.2227589238 -1.121085805
| 26> H 4.0695798996 2.7985812668 -0.7663426431
| 27> H 3.8341325081 1.4912978617 -1.9346694725
| 28> H 3.1900652675 1.3102787712 1.0547664787
| 29> H 4.6618748096 0.650989287 0.2831544524
| 30> H 2.1299011644 -2.4633084914 2.9794909215
| 31> H 2.7481457288 -3.9198979421 2.1433490781
| 32> H 4.7584081558 -2.5640588088 1.4213504943
| 33> H 4.134596156 -1.195381374 2.361183923
| 34> H 4.6302517559 -2.6805975594 3.1864088953
| 35> H -0.3232295307 -0.1306653952 -2.718237458
| 36> H 1.3871066719 0.2445333562 -2.3002994742
| 37> H -3.5252711556 3.9856833981 -0.0446945667
| 38> H -1.8049687703 3.8474220432 -0.5093678634
| 39> H -3.2574883122 4.3709620511 -2.4839872527
| 40> H -2.4457920485 2.8073384238 -2.6616514861
| 41> H -4.152606655 2.865117856 -2.2118684263
| 42> H -3.5545385032 -0.6782723674 1.8588128694
| 43> H -3.2832888654 -1.4991476665 0.29546218
| 44> H -2.6234723337 -2.9235489513 2.2743013928
| 45> H -1.2509866415 -2.5928135186 1.2042823297
| 46> H -1.4225499732 -1.6963634463 2.7201054904
| 47> *
| 48>
| 49>                          ****END OF INPUT****

CARTESIAN COORDINATES (ANGSTROEM)
---------------------------------
  C      3.475835    1.921800   -1.003642
  C      3.615205    0.918871    0.124054
  O      2.945779   -0.313597   -0.210585
  P      1.729049   -0.954458    0.592854
  S      1.158217    0.067066    2.169199
  O      2.153889   -2.453159    0.911938
  C      2.759990   -2.829354    2.162197
  C      4.167517   -2.282100    2.289032
  S      0.423092   -1.521661   -0.965060
  C      0.394755    0.027860   -1.912753
  S     -0.117115    1.459799   -0.924823
  P     -2.084332    0.815577   -0.547761
  S     -2.994787   -0.162579   -1.987840
  O     -2.803754    2.120320    0.002981
  C     -2.802285    3.415123   -0.630433
  C     -3.191904    3.360752   -2.092942
  O     -1.936492   -0.005784    0.798652
  C     -2.797144   -1.094212    1.190416
  C     -1.966400   -2.148442    1.894011
  H      2.436179    2.222759   -1.121086
  H      4.069580    2.798581   -0.766343
  H      3.834133    1.491298   -1.934669
  H      3.190065    1.310279    1.054766
  H      4.661875    0.650989    0.283154
  H      2.129901   -2.463308    2.979491
  H      2.748146   -3.919898    2.143349
  H      4.758408   -2.564059    1.421350
  H      4.134596   -1.195381    2.361184
  H      4.630252   -2.680598    3.186409
  H     -0.323230   -0.130665   -2.718237
  H      1.387107    0.244533   -2.300299
  H     -3.525271    3.985683   -0.044695
  H     -1.804969    3.847422   -0.509368
  H     -3.257488    4.370962   -2.483987
  H     -2.445792    2.807338   -2.661651
  H     -4.152607    2.865118   -2.211868
  H     -3.554539   -0.678272    1.858813
  H     -3.283289   -1.499148    0.295462
  H     -2.623472   -2.923549    2.274301
  H     -1.250987   -2.592814    1.204282
  H     -1.422550   -1.696363    2.720105

 Total Charge           Charge          ....    0
 Multiplicity           Mult            ....    1
 Number of Electrons    NEL             ....  202
 Basis Dimension        Dim             ....  334

ORBITAL ENERGIES
----------------

  NO   OCC          E(Eh)            E(eV)
   0   2.0000     -88.047025     -2395.8814
   1   2.0000     -88.040522     -2395.7044
   2   2.0000     -87.984998     -2394.1935
   3   2.0000     -87.982736     -2394.1320
   4   2.0000     -76.425451     -2079.6423
   5   2.0000     -76.424071     -2079.6047
   6   2.0000     -18.795581      -511.4538
   7   2.0000     -18.789744      -511.2949
   8   2.0000     -18.788569      -511.2629
   9   2.0000     -18.778010      -510.9756
  10   2.0000      -9.958774      -270.9920
  11   2.0000      -9.956189      -270.9217
  12   2.0000      -9.955098      -270.8920
  13   2.0000      -9.951460      -270.7930
  14   2.0000      -9.938753      -270.4472
  15   2.0000      -9.892423      -269.1865
  16   2.0000      -9.887657      -269.0568
  17   2.0000      -9.882151      -268.9070
  18   2.0000      -9.869478      -268.5622
  19   2.0000      -7.691730      -209.3026
  20   2.0000      -7.685615      -209.1362
  21   2.0000      -7.629944      -207.6213
  22   2.0000      -7.627784      -207.5625
  23   2.0000      -6.422809      -174.7735
  24   2.0000      -6.421204      -174.7299
  25   2.0000      -5.719508      -155.6357
  26   2.0000      -5.716238      -155.5467
  27   2.0000      -5.713774      -155.4797
  28   2.0000      -5.710160      -155.3813
  29   2.0000      -5.708819      -155.3449
  30   2.0000      -5.702226      -155.1655
  31   2.0000      -5.658750      -153.9824
  32   2.0000      -5.656614      -153.9243
  33   2.0000      -5.650503      -153.7580
  34   2.0000      -5.650258      -153.7513
  35   2.0000      -5.648545      -153.7047
  36   2.0000      -5.647892      -153.6870
  37   2.0000      -4.645503      -126.4106
  38   2.0000      -4.644469      -126.3824
  39   2.0000      -4.643643      -126.3600
  40   2.0000      -4.643281      -126.3501
  41   2.0000      -4.643124      -126.3458
  42   2.0000      -4.641696      -126.3070
  43   2.0000      -0.984270       -26.7834
  44   2.0000      -0.979200       -26.6454
  45   2.0000      -0.947038       -25.7702
  46   2.0000      -0.936333       -25.4789
  47   2.0000      -0.766683       -20.8625
  48   2.0000      -0.723427       -19.6855
  49   2.0000      -0.707886       -19.2626
  50   2.0000      -0.691591       -18.8192
  51   2.0000      -0.681616       -18.5477
  52   2.0000      -0.668600       -18.1935
  53   2.0000      -0.650280       -17.6950
  54   2.0000      -0.639002       -17.3881
  55   2.0000      -0.600365       -16.3368
  56   2.0000      -0.589596       -16.0437
  57   2.0000      -0.577299       -15.7091
  58   2.0000      -0.570610       -15.5271
  59   2.0000      -0.554190       -15.0803
  60   2.0000      -0.499737       -13.5985
  61   2.0000      -0.495894       -13.4940
  62   2.0000      -0.479144       -13.0382
  63   2.0000      -0.466066       -12.6823
  64   2.0000      -0.460678       -12.5357
  65   2.0000      -0.441766       -12.0211
  66   2.0000      -0.440364       -11.9829
  67   2.0000      -0.431783       -11.7494
  68   2.0000      -0.423034       -11.5113
  69   2.0000      -0.413724       -11.2580
  70   2.0000      -0.402098       -10.9416
  71   2.0000      -0.398513       -10.8441
  72   2.0000      -0.397443       -10.8150
  73   2.0000      -0.389425       -10.5968
  74   2.0000      -0.380019       -10.3408
  75   2.0000      -0.373239       -10.1564
  76   2.0000      -0.368860       -10.0372
  77   2.0000      -0.361978        -9.8499
  78   2.0000      -0.354424        -9.6444
  79   2.0000      -0.346608        -9.4317
  80   2.0000      -0.345926        -9.4131
  81   2.0000      -0.342279        -9.3139
  82   2.0000      -0.338725        -9.2172
  83   2.0000      -0.334306        -9.0969
  84   2.0000      -0.329655        -8.9704
  85   2.0000      -0.322293        -8.7700
  86   2.0000      -0.308407        -8.3922
  87   2.0000      -0.296956        -8.0806
  88   2.0000      -0.293886        -7.9970
  89   2.0000      -0.282748        -7.6940
  90   2.0000      -0.282648        -7.6912
  91   2.0000      -0.277228        -7.5438
  92   2.0000      -0.267113        -7.2685
  93   2.0000      -0.263680        -7.1751
  94   2.0000      -0.260197        -7.0803
  95   2.0000      -0.235716        -6.4142
  96   2.0000      -0.217444        -5.9169
  97   2.0000      -0.205793        -5.5999
  98   2.0000      -0.198906        -5.4125
  99   2.0000      -0.197392        -5.3713
 100   2.0000      -0.194230        -5.2853
 101   0.0000      -0.051896        -1.4122
 102   0.0000      -0.027073        -0.7367
 103   0.0000      -0.004914        -0.1337
 104   0.0000       0.000301         0.0082
 105   0.0000       0.017189         0.4677

MULLIKEN ATOMIC CHARGES
-----------------------
   0 C :   -0.306387
   1 C :   -0.018820
   2 O :   -0.383639
   3 P :    0.625483
   4 S :   -0.305579
   5 O :   -0.377644
   6 C :   -0.003448
   7 C :   -0.316845
   8 S :   -0.065941
   9 C :   -0.361313
  10 S :   -0.115318
  11 P :    0.632437
  12 S :   -0.338662
  13 O :   -0.370127
  14 C :   -0.008458
  15 C :   -0.309917
  16 O :   -0.350153
  17 C :   -0.004830
  18 C :   -0.293718
  19 H :    0.131643
  20 H :    0.114517
  21 H :    0.119773
  22 H :    0.115428
  23 H :    0.104773
  24 H :    0.112973
  25 H :    0.106229
  26 H :    0.118169
  27 H :    0.121930
  28 H :    0.114327
  29 H :    0.194019
  30 H :    0.188048
  31 H :    0.110008
  32 H :    0.111441
  33 H :    0.110042
  34 H :    0.121507
  35 H :    0.128254
  36 H :    0.098112
  37 H :    0.107900
  38 H :    0.100379
  39 H :    0.120820
  40 H :    0.122585
Sum of atomic charges:   -0.0000000

LOEWDIN ATOMIC CHARGES
----------------------
   0 C :   -0.360260
   1 C :   -0.121961
   2 O :   -0.251297
   3 P :    0.565581
   4 S :   -0.297608
   5 O :   -0.248619
   6 C :   -0.119707
   7 C :   -0.365430
   8 S :    0.110391
   9 C :   -0.477909
  10 S :    0.087621
  11 P :    0.573717
  12 S :   -0.320353
  13 O :   -0.244739
  14 C :   -0.112902
  15 C :   -0.370487
  16 O :   -0.233686
  17 C :   -0.114880
  18 C :   -0.359223
  19 H :    0.115555
  20 H :    0.133607
  21 H :    0.125459
  22 H :    0.107186
  23 H :    0.115268
  24 H :    0.110153
  25 H :    0.119426
  26 H :    0.126438
  27 H :    0.120723
  28 H :    0.131675
  29 H :    0.131977
  30 H :    0.131402
  31 H :    0.122048
  32 H :    0.108920
  33 H :    0.129269
  34 H :    0.119035
  35 H :    0.130279
  36 H :    0.112100
  37 H :    0.104610
  38 H :    0.124976
  39 H :    0.117436
  40 H :    0.124208

  Mayer bond orders larger than 0.100000
B(  0-C ,  1-C ) :   1.1677 B(  0-C , 19-H ) :   0.9308 B(  0-C , 20-H ) :   0.9372
B(  0-C , 21-H ) :   0.9436 B(  1-C ,  2-O ) :   0.9083 B(  1-C , 22-H ) :   0.8955
B(  1-C , 23-H ) :   0.9306 B(  2-O ,  3-P ) :   1.0912 B(  3-P ,  4-S ) :   1.6165
B(  3-P ,  5-O ) :   1.1100 B(  3-P ,  8-S ) :   0.9599 B(  4-S ,  8-S ) :   0.1069
B(  5-O ,  6-C ) :   0.9138 B(  6-C ,  7-C ) :   1.1614 B(  6-C , 24-H ) :   0.9137
B(  6-C , 25-H ) :   0.9340 B(  7-C , 26-H ) :   0.9463 B(  7-C , 27-H ) :   0.9337
B(  7-C , 28-H ) :   0.9392 B(  8-S ,  9-C ) :   1.0032 B(  9-C , 10-S ) :   1.0108
B(  9-C , 29-H ) :   0.8810 B(  9-C , 30-H ) :   0.8968 B( 10-S , 11-P ) :   0.9379
B( 10-S , 12-S ) :   0.1053 B( 11-P , 12-S ) :   1.6021 B( 11-P , 13-O ) :   1.1235
B( 11-P , 16-O ) :   1.1499 B( 13-O , 14-C ) :   0.9160 B( 14-C , 15-C ) :   1.1633
B( 14-C , 31-H ) :   0.9345 B( 14-C , 32-H ) :   0.9289 B( 15-C , 33-H ) :   0.9348
B( 15-C , 34-H ) :   0.9333 B( 15-C , 35-H ) :   0.9418 B( 16-O , 17-C ) :   0.9026
B( 17-C , 18-C ) :   1.1641 B( 17-C , 36-H ) :   0.9337 B( 17-C , 37-H ) :   0.9034
B( 18-C , 38-H ) :   0.9392 B( 18-C , 39-H ) :   0.9442 B( 18-C , 40-H ) :   0.9425

Dispersion correction           -0.067741013
FINAL SINGLE POINT ENERGY     -2929.518462037482

DIPOLE MOMENT
-------------

Method             : SCF
Type of density    : Electron Density
Multiplicity       :   1
Irrep              :   0
Energy             : -2929.6352493137051169 Eh
Relativity type    :
Basis              : AO
                                X                 Y                 Z
Electronic contribution:     -8.924680663      -3.507085122      -4.575265658
Nuclear contribution   :     10.064065848       4.107069187       4.750865603
                        -----------------------------------------
Total Dipole Moment    :      1.139385186       0.599984065       0.175599945
                        -----------------------------------------
Magnitude (a.u.)       :      1.299621030
Magnitude (Debye)      :      3.303374134

Rotational constants in cm-1:             0.012755             0.005483             0.004742
Rotational constants in MHz :           382.396363           164.364390           142.173054

                             ****ORCA TERMINATED NORMALLY****
TOTAL RUN TIME: 0 days 0 hours 0 minutes 21 seconds 603 msec
