                         Program Version 6.0.0  -   RELEASE  -
|  1> ! wb97x-v def2-tzvp def2/J RIJCOSX DEFGRID2 scfconv7 GCP(DFT/TZ) printgap
|  2> %output
|  3>     printlevel normal
|  4> end
|  5> * xyz 0 1
|  6> C -0.4433843740951013 -0.6054708744635725 1.0521965851100645e-05
|  7> C 0.44313557055665936 0.6052139801848462 -1.7833810283929465e-05
|  8> Br 2.3324542060558096 -0.031063345852964976 -3.0366527607855e-05
|  9> Br -2.33268701444544 0.030856435033459174 1.6747049391790958e-05
| 10> H -0.33549806286659106 -1.2126919407179786 0.8971423330951531
| 11> H -0.33551444164531097 -1.2127252062987277 -0.8971008777436582
| 12> H 0.33526281149167436 1.2124399286342782 -0.8971459589256465
| 13> H 0.33527735956604854 1.2124741669850678 0.8970891438365215
| 14> *
| 15>
| 16>                          ****END OF INPUT****

CARTESIAN COORDINATES (ANGSTROEM)
---------------------------------
  C     -0.443384   -0.605471    0.000011
  C      0.443136    0.605214   -0.000018
  Br     2.332454   -0.031063   -0.000030
  Br    -2.332687    0.030856    0.000017
  H     -0.335498   -1.212692    0.897142
  H     -0.335514   -1.212725   -0.897101
  H      0.335263    1.212440   -0.897146
  H      0.335277    1.212474    0.897089

 Total Charge           Charge          ....    0
 Multiplicity           Mult            ....    1
 Number of Electrons    NEL             ....   86
 Basis Dimension        Dim             ....  182

ORBITAL ENERGIES
----------------

  NO   OCC          E(Eh)            E(eV)
   0   2.0000    -494.725178    -13462.1565
   1   2.0000    -494.725174    -13462.1564
   2   2.0000     -66.894846     -1820.3013
   3   2.0000     -66.894828     -1820.3008
   4   2.0000     -60.951796     -1658.5827
   5   2.0000     -60.951703     -1658.5802
   6   2.0000     -60.950087     -1658.5362
   7   2.0000     -60.950078     -1658.5359
   8   2.0000     -60.950009     -1658.5341
   9   2.0000     -60.950002     -1658.5339
  10   2.0000     -12.130181      -330.0790
  11   2.0000     -12.128827      -330.0422
  12   2.0000     -10.646604      -289.7088
  13   2.0000     -10.646539      -289.7070
  14   2.0000      -8.427290      -229.3182
  15   2.0000      -8.425486      -229.2691
  16   2.0000      -8.419591      -229.1087
  17   2.0000      -8.419576      -229.1083
  18   2.0000      -8.419548      -229.1076
  19   2.0000      -8.419385      -229.1031
  20   2.0000      -4.411473      -120.0423
  21   2.0000      -4.411411      -120.0406
  22   2.0000      -4.408849      -119.9709
  23   2.0000      -4.408811      -119.9698
  24   2.0000      -4.408751      -119.9682
  25   2.0000      -4.408725      -119.9675
  26   2.0000      -4.401318      -119.7660
  27   2.0000      -4.401317      -119.7659
  28   2.0000      -4.401293      -119.7653
  29   2.0000      -4.401287      -119.7651
  30   2.0000      -1.371591       -37.3229
  31   2.0000      -1.332398       -36.2564
  32   2.0000      -1.253407       -34.1069
  33   2.0000      -1.117180       -30.4000
  34   2.0000      -0.940238       -25.5852
  35   2.0000      -0.900185       -24.4953
  36   2.0000      -0.878145       -23.8955
  37   2.0000      -0.845743       -23.0138
  38   2.0000      -0.804198       -21.8833
  39   2.0000      -0.733979       -19.9726
  40   2.0000      -0.727561       -19.7979
  41   2.0000      -0.726748       -19.7758
  42   2.0000      -0.726576       -19.7711
  43   0.0000      -0.342972        -9.3327
  44   0.0000      -0.258278        -7.0281
  45   0.0000      -0.045873        -1.2483
  46   0.0000      -0.017532        -0.4771
  47   0.0000      -0.004978        -0.1355

MULLIKEN ATOMIC CHARGES
-----------------------
   0 C :   -0.177689
   1 C :   -0.177693
   2 Br:   -0.128689
   3 Br:   -0.128684
   4 H :    0.153188
   5 H :    0.153189
   6 H :    0.153189
   7 H :    0.153191
Sum of atomic charges:   -0.0000000

LOEWDIN ATOMIC CHARGES
----------------------
   0 C :   -0.457767
   1 C :   -0.457773
   2 Br:    0.200720
   3 Br:    0.200725
   4 H :    0.128524
   5 H :    0.128524
   6 H :    0.128523
   7 H :    0.128524

  Mayer bond orders larger than 0.100000
B(  0-C ,  1-C ) :   1.0147 B(  0-C ,  3-Br) :   1.0222 B(  0-C ,  4-H ) :   0.9608
B(  0-C ,  5-H ) :   0.9608 B(  1-C ,  2-Br) :   1.0222 B(  1-C ,  6-H ) :   0.9608
B(  1-C ,  7-H ) :   0.9608

FINAL SINGLE POINT ENERGY     -5226.462462465622

DIPOLE MOMENT
-------------

Method             : SCF
Type of density    : Electron Density
Multiplicity       :   1
Irrep              :   0
Energy             : -5226.4715203038213076 Eh
Relativity type    :
Basis              : AO
                                X                 Y                 Z
Electronic contribution:      0.000001989       0.000127512      -0.000016616
Nuclear contribution   :     -0.000021989      -0.000138161       0.000018065
                        -----------------------------------------
Total Dipole Moment    :     -0.000020000      -0.000010649       0.000001449
                        -----------------------------------------
Magnitude (a.u.)       :      0.000022705
Magnitude (Debye)      :      0.000057711

Rotational constants in cm-1:             0.930569             0.019203             0.018952
Rotational constants in MHz :         27897.742393           575.677912           568.154179

                             ****ORCA TERMINATED NORMALLY****
TOTAL RUN TIME: 0 days 0 hours 1 minutes 4 seconds 885 msec
