                         Program Version 6.0.0  -   RELEASE  -
|  1> ! wb97x-v def2-tzvp def2/J RIJCOSX DEFGRID2 scfconv7 GCP(DFT/TZ) printgap
|  2> %output
|  3>     printlevel normal
|  4> end
|  5> %cpcm
|  6>     smd true
|  7>     smdsolvent "water"
|  8> end
|  9> * xyz 0 1
| 10> C -0.4433843740951013 -0.6054708744635725 1.0521965851100645e-05
| 11> C 0.44313557055665936 0.6052139801848462 -1.7833810283929465e-05
| 12> Br 2.3324542060558096 -0.031063345852964976 -3.0366527607855e-05
| 13> Br -2.33268701444544 0.030856435033459174 1.6747049391790958e-05
| 14> H -0.33549806286659106 -1.2126919407179786 0.8971423330951531
| 15> H -0.33551444164531097 -1.2127252062987277 -0.8971008777436582
| 16> H 0.33526281149167436 1.2124399286342782 -0.8971459589256465
| 17> H 0.33527735956604854 1.2124741669850678 0.8970891438365215
| 18> *
| 19>
| 20>                          ****END OF INPUT****

CARTESIAN COORDINATES (ANGSTROEM)
---------------------------------
  C     -0.443384   -0.605471    0.000011
  C      0.443136    0.605214   -0.000018
  Br     2.332454   -0.031063   -0.000030
  Br    -2.332687    0.030856    0.000017
  H     -0.335498   -1.212692    0.897142
  H     -0.335514   -1.212725   -0.897101
  H      0.335263    1.212440   -0.897146
  H      0.335277    1.212474    0.897089

 Total Charge           Charge          ....    0
 Multiplicity           Mult            ....    1
 Number of Electrons    NEL             ....   86
 Basis Dimension        Dim             ....  182

ORBITAL ENERGIES
----------------

  NO   OCC          E(Eh)            E(eV)
   0   2.0000    -494.717163    -13461.9384
   1   2.0000    -494.717159    -13461.9383
   2   2.0000     -66.886917     -1820.0855
   3   2.0000     -66.886899     -1820.0851
   4   2.0000     -60.943829     -1658.3659
   5   2.0000     -60.943736     -1658.3634
   6   2.0000     -60.942183     -1658.3211
   7   2.0000     -60.942175     -1658.3209
   8   2.0000     -60.942109     -1658.3191
   9   2.0000     -60.942102     -1658.3189
  10   2.0000     -12.114984      -329.6655
  11   2.0000     -12.113632      -329.6287
  12   2.0000     -10.638752      -289.4952
  13   2.0000     -10.638677      -289.4931
  14   2.0000      -8.419298      -229.1008
  15   2.0000      -8.417498      -229.0518
  16   2.0000      -8.411865      -228.8985
  17   2.0000      -8.411856      -228.8982
  18   2.0000      -8.411828      -228.8975
  19   2.0000      -8.411668      -228.8931
  20   2.0000      -4.403447      -119.8239
  21   2.0000      -4.403382      -119.8221
  22   2.0000      -4.400931      -119.7554
  23   2.0000      -4.400891      -119.7543
  24   2.0000      -4.400837      -119.7529
  25   2.0000      -4.400810      -119.7521
  26   2.0000      -4.393667      -119.5578
  27   2.0000      -4.393666      -119.5577
  28   2.0000      -4.393642      -119.5571
  29   2.0000      -4.393636      -119.5569
  30   2.0000      -1.360355       -37.0172
  31   2.0000      -1.324080       -36.0300
  32   2.0000      -1.241905       -33.7940
  33   2.0000      -1.101675       -29.9781
  34   2.0000      -0.924040       -25.1444
  35   2.0000      -0.884985       -24.0817
  36   2.0000      -0.866873       -23.5888
  37   2.0000      -0.829422       -22.5697
  38   2.0000      -0.793934       -21.6040
  39   2.0000      -0.726471       -19.7683
  40   2.0000      -0.719864       -19.5885
  41   2.0000      -0.719031       -19.5658
  42   2.0000      -0.718369       -19.5478
  43   0.0000      -0.332438        -9.0461
  44   0.0000      -0.245760        -6.6875
  45   0.0000      -0.030957        -0.8424
  46   0.0000       0.001541         0.0419
  47   0.0000       0.015578         0.4239

MULLIKEN ATOMIC CHARGES
-----------------------
   0 C :   -0.195029
   1 C :   -0.195031
   2 Br:   -0.160437
   3 Br:   -0.160431
   4 H :    0.177732
   5 H :    0.177732
   6 H :    0.177731
   7 H :    0.177733
Sum of atomic charges:   -0.0000000

LOEWDIN ATOMIC CHARGES
----------------------
   0 C :   -0.450619
   1 C :   -0.450625
   2 Br:    0.180646
   3 Br:    0.180652
   4 H :    0.134987
   5 H :    0.134987
   6 H :    0.134986
   7 H :    0.134986

  Mayer bond orders larger than 0.100000
B(  0-C ,  1-C ) :   1.0114 B(  0-C ,  3-Br) :   0.9986 B(  0-C ,  4-H ) :   0.9555
B(  0-C ,  5-H ) :   0.9554 B(  1-C ,  2-Br) :   0.9986 B(  1-C ,  6-H ) :   0.9555
B(  1-C ,  7-H ) :   0.9555

FINAL SINGLE POINT ENERGY     -5226.467324672265

DIPOLE MOMENT
-------------

Method             : SCF
Type of density    : Electron Density
Multiplicity       :   1
Irrep              :   0
Energy             : -5226.4763825104646457 Eh
Relativity type    :
Basis              : AO
                                X                 Y                 Z
Electronic contribution:     -0.000000237       0.000122185      -0.000015693
Nuclear contribution   :     -0.000021989      -0.000138161       0.000018065
                        -----------------------------------------
Total Dipole Moment    :     -0.000022226      -0.000015976       0.000002372
                        -----------------------------------------
Magnitude (a.u.)       :      0.000027475
Magnitude (Debye)      :      0.000069836

Rotational constants in cm-1:             0.930569             0.019203             0.018952
Rotational constants in MHz :         27897.742393           575.677912           568.154179

                             ****ORCA TERMINATED NORMALLY****
TOTAL RUN TIME: 0 days 0 hours 1 minutes 8 seconds 317 msec
