                         Program Version 6.0.0  -   RELEASE  -
|  1> ! pbe def2-sv(p) def2/J RI DEFGRID1 loosescf d4 GCP(DFT/SV(P)) printgap
|  2> %output
|  3>     printlevel normal
|  4> end
|  5> * xyz 0 1
|  6> C 2.419812807 2.2730984914 2.5105295688
|  7> C 1.4301545906 1.9053828534 1.4241298906
|  8> O 0.9894707057 0.5345433626 1.5750302038
|  9> P 1.5810063315 -0.6525147499 0.7262997219
| 10> S 0.8803507487 -2.3898660811 1.2939324045
| 11> O 3.1435900367 -0.4088195057 0.9321619312
| 12> C 4.1744895816 -1.1504776914 0.2557202583
| 13> C 4.4937894871 -2.4501019639 0.9687018553
| 14> S 1.3739140006 -0.1872323453 -1.3457977338
| 15> C 0.1438901396 -1.417477562 -1.8315966112
| 16> S -1.4512044598 -0.7193550995 -2.3636971384
| 17> P -2.0410952353 0.3873488261 -0.6659520453
| 18> S -3.929522155 0.8965629345 -0.6355806762
| 19> O -1.0282949142 1.6127230456 -0.5207092523
| 20> C -1.2423681674 2.8590837548 -1.2069639264
| 21> C -0.9358946388 2.7511114069 -2.6876701467
| 22> O -1.5161556439 -0.5538712319 0.5023197831
| 23> C -2.2738052122 -0.7384863806 1.7160912304
| 24> C -2.1740172896 0.466426741 2.6260810688
| 25> H 2.6879432762 3.319776685 2.4057906854
| 26> H 1.9764218909 2.1131929356 3.489611728
| 27> H 3.3143422191 1.6620079892 2.4279911108
| 28> H 1.8650679515 2.0310314773 0.4289215957
| 29> H 0.516061787 2.4973548199 1.5014515772
| 30> H 3.8645727977 -1.3333197873 -0.777038718
| 31> H 5.0338674365 -0.4770309633 0.2624683697
| 32> H 4.7666181214 -2.2537618486 2.0020683385
| 33> H 3.6315093259 -3.1129954494 0.9589006889
| 34> H 5.322103982 -2.9387271214 0.4658692899
| 35> H -0.0082126531 -2.1066176295 -0.9965040103
| 36> H 0.5174309562 -1.9381454513 -2.7101935311
| 37> H -2.2809780046 3.1666648507 -1.0463401439
| 38> H -0.5666470699 3.5563032539 -0.7091787865
| 39> H 0.058843804 2.3376676565 -2.8379479238
| 40> H -1.6630979238 2.1036394087 -3.1760713434
| 41> H -0.9871715168 3.738275143 -3.1355085009
| 42> H -3.3159032516 -0.9351351171 1.4461584197
| 43> H -1.8314957457 -1.6283715853 2.1679952933
| 44> H -2.6034134906 1.3366168811 2.1307429868
| 45> H -2.7253660669 0.2692227695 3.5399707857
| 46> H -1.1331399845 0.6659477766 2.8655765491
| 47> *
| 48>
| 49>                          ****END OF INPUT****

CARTESIAN COORDINATES (ANGSTROEM)
---------------------------------
  C      2.419813    2.273098    2.510530
  C      1.430155    1.905383    1.424130
  O      0.989471    0.534543    1.575030
  P      1.581006   -0.652515    0.726300
  S      0.880351   -2.389866    1.293932
  O      3.143590   -0.408820    0.932162
  C      4.174490   -1.150478    0.255720
  C      4.493789   -2.450102    0.968702
  S      1.373914   -0.187232   -1.345798
  C      0.143890   -1.417478   -1.831597
  S     -1.451204   -0.719355   -2.363697
  P     -2.041095    0.387349   -0.665952
  S     -3.929522    0.896563   -0.635581
  O     -1.028295    1.612723   -0.520709
  C     -1.242368    2.859084   -1.206964
  C     -0.935895    2.751111   -2.687670
  O     -1.516156   -0.553871    0.502320
  C     -2.273805   -0.738486    1.716091
  C     -2.174017    0.466427    2.626081
  H      2.687943    3.319777    2.405791
  H      1.976422    2.113193    3.489612
  H      3.314342    1.662008    2.427991
  H      1.865068    2.031031    0.428922
  H      0.516062    2.497355    1.501452
  H      3.864573   -1.333320   -0.777039
  H      5.033867   -0.477031    0.262468
  H      4.766618   -2.253762    2.002068
  H      3.631509   -3.112995    0.958901
  H      5.322104   -2.938727    0.465869
  H     -0.008213   -2.106618   -0.996504
  H      0.517431   -1.938145   -2.710194
  H     -2.280978    3.166665   -1.046340
  H     -0.566647    3.556303   -0.709179
  H      0.058844    2.337668   -2.837948
  H     -1.663098    2.103639   -3.176071
  H     -0.987172    3.738275   -3.135509
  H     -3.315903   -0.935135    1.446158
  H     -1.831496   -1.628372    2.167995
  H     -2.603413    1.336617    2.130743
  H     -2.725366    0.269223    3.539971
  H     -1.133140    0.665948    2.865577

 Total Charge           Charge          ....    0
 Multiplicity           Mult            ....    1
 Number of Electrons    NEL             ....  202
 Basis Dimension        Dim             ....  334

ORBITAL ENERGIES
----------------

  NO   OCC          E(Eh)            E(eV)
   0   2.0000     -88.049495     -2395.9486
   1   2.0000     -88.040787     -2395.7116
   2   2.0000     -87.991056     -2394.3584
   3   2.0000     -87.986665     -2394.2389
   4   2.0000     -76.432597     -2079.8367
   5   2.0000     -76.423878     -2079.5995
   6   2.0000     -18.800595      -511.5902
   7   2.0000     -18.796997      -511.4923
   8   2.0000     -18.789423      -511.2862
   9   2.0000     -18.785791      -511.1873
  10   2.0000      -9.960473      -271.0382
  11   2.0000      -9.959024      -270.9988
  12   2.0000      -9.956815      -270.9387
  13   2.0000      -9.952092      -270.8102
  14   2.0000      -9.940416      -270.4925
  15   2.0000      -9.890309      -269.1290
  16   2.0000      -9.883982      -268.9568
  17   2.0000      -9.883175      -268.9349
  18   2.0000      -9.872191      -268.6360
  19   2.0000      -7.694018      -209.3649
  20   2.0000      -7.686197      -209.1520
  21   2.0000      -7.636036      -207.7871
  22   2.0000      -7.631824      -207.6725
  23   2.0000      -6.429790      -174.9635
  24   2.0000      -6.421711      -174.7436
  25   2.0000      -5.721815      -155.6985
  26   2.0000      -5.718469      -155.6075
  27   2.0000      -5.714525      -155.5001
  28   2.0000      -5.711152      -155.4084
  29   2.0000      -5.710316      -155.3856
  30   2.0000      -5.703052      -155.1879
  31   2.0000      -5.665121      -154.1558
  32   2.0000      -5.660758      -154.0371
  33   2.0000      -5.656647      -153.9252
  34   2.0000      -5.655945      -153.9061
  35   2.0000      -5.652540      -153.8134
  36   2.0000      -5.651864      -153.7950
  37   2.0000      -4.652519      -126.6015
  38   2.0000      -4.651612      -126.5768
  39   2.0000      -4.650115      -126.5361
  40   2.0000      -4.643973      -126.3689
  41   2.0000      -4.643671      -126.3607
  42   2.0000      -4.642230      -126.3215
  43   2.0000      -0.995269       -27.0826
  44   2.0000      -0.982420       -26.7330
  45   2.0000      -0.949972       -25.8500
  46   2.0000      -0.941557       -25.6211
  47   2.0000      -0.763776       -20.7834
  48   2.0000      -0.723615       -19.6906
  49   2.0000      -0.708843       -19.2886
  50   2.0000      -0.694312       -18.8932
  51   2.0000      -0.683505       -18.5991
  52   2.0000      -0.674253       -18.3473
  53   2.0000      -0.654595       -17.8124
  54   2.0000      -0.641137       -17.4462
  55   2.0000      -0.597787       -16.2666
  56   2.0000      -0.592239       -16.1156
  57   2.0000      -0.578370       -15.7382
  58   2.0000      -0.568307       -15.4644
  59   2.0000      -0.564185       -15.3522
  60   2.0000      -0.510774       -13.8989
  61   2.0000      -0.489967       -13.3327
  62   2.0000      -0.484326       -13.1792
  63   2.0000      -0.469135       -12.7658
  64   2.0000      -0.456340       -12.4176
  65   2.0000      -0.449213       -12.2237
  66   2.0000      -0.441760       -12.0209
  67   2.0000      -0.438515       -11.9326
  68   2.0000      -0.428767       -11.6674
  69   2.0000      -0.416298       -11.3281
  70   2.0000      -0.410245       -11.1633
  71   2.0000      -0.401668       -10.9299
  72   2.0000      -0.395360       -10.7583
  73   2.0000      -0.390838       -10.6352
  74   2.0000      -0.383706       -10.4412
  75   2.0000      -0.366886        -9.9835
  76   2.0000      -0.365032        -9.9330
  77   2.0000      -0.361933        -9.8487
  78   2.0000      -0.356330        -9.6962
  79   2.0000      -0.352276        -9.5859
  80   2.0000      -0.348704        -9.4887
  81   2.0000      -0.341984        -9.3059
  82   2.0000      -0.340268        -9.2592
  83   2.0000      -0.336727        -9.1628
  84   2.0000      -0.327116        -8.9013
  85   2.0000      -0.321655        -8.7527
  86   2.0000      -0.318224        -8.6593
  87   2.0000      -0.301255        -8.1976
  88   2.0000      -0.299775        -8.1573
  89   2.0000      -0.294973        -8.0266
  90   2.0000      -0.284010        -7.7283
  91   2.0000      -0.277102        -7.5403
  92   2.0000      -0.267363        -7.2753
  93   2.0000      -0.267004        -7.2655
  94   2.0000      -0.260002        -7.0750
  95   2.0000      -0.230558        -6.2738
  96   2.0000      -0.224985        -6.1222
  97   2.0000      -0.211988        -5.7685
  98   2.0000      -0.207526        -5.6471
  99   2.0000      -0.201035        -5.4704
 100   2.0000      -0.198607        -5.4044
 101   0.0000      -0.041771        -1.1367
 102   0.0000      -0.032031        -0.8716
 103   0.0000      -0.020636        -0.5615
 104   0.0000       0.002024         0.0551
 105   0.0000       0.008740         0.2378

MULLIKEN ATOMIC CHARGES
-----------------------
   0 C :   -0.281687
   1 C :   -0.022313
   2 O :   -0.353610
   3 P :    0.620794
   4 S :   -0.296449
   5 O :   -0.380817
   6 C :   -0.009039
   7 C :   -0.297511
   8 S :   -0.113939
   9 C :   -0.340750
  10 S :   -0.088738
  11 P :    0.621481
  12 S :   -0.322122
  13 O :   -0.367529
  14 C :   -0.010129
  15 C :   -0.311474
  16 O :   -0.376957
  17 C :   -0.003406
  18 C :   -0.319758
  19 H :    0.108577
  20 H :    0.119685
  21 H :    0.121621
  22 H :    0.102449
  23 H :    0.121501
  24 H :    0.100366
  25 H :    0.104348
  26 H :    0.115008
  27 H :    0.130414
  28 H :    0.107767
  29 H :    0.204200
  30 H :    0.180079
  31 H :    0.111536
  32 H :    0.096767
  33 H :    0.117650
  34 H :    0.126804
  35 H :    0.110172
  36 H :    0.110613
  37 H :    0.112422
  38 H :    0.113132
  39 H :    0.106906
  40 H :    0.131938
Sum of atomic charges:   -0.0000000

LOEWDIN ATOMIC CHARGES
----------------------
   0 C :   -0.358438
   1 C :   -0.114686
   2 O :   -0.222700
   3 P :    0.576811
   4 S :   -0.280778
   5 O :   -0.246917
   6 C :   -0.119612
   7 C :   -0.365549
   8 S :    0.078533
   9 C :   -0.482408
  10 S :    0.085238
  11 P :    0.568244
  12 S :   -0.315444
  13 O :   -0.243124
  14 C :   -0.121683
  15 C :   -0.368795
  16 O :   -0.241148
  17 C :   -0.118868
  18 C :   -0.369409
  19 H :    0.129303
  20 H :    0.128878
  21 H :    0.126588
  22 H :    0.104586
  23 H :    0.120155
  24 H :    0.101900
  25 H :    0.117428
  26 H :    0.126923
  27 H :    0.123383
  28 H :    0.128943
  29 H :    0.125105
  30 H :    0.138484
  31 H :    0.109137
  32 H :    0.111781
  33 H :    0.121109
  34 H :    0.121221
  35 H :    0.129232
  36 H :    0.109050
  37 H :    0.115309
  38 H :    0.117628
  39 H :    0.128879
  40 H :    0.125713

  Mayer bond orders larger than 0.100000
B(  0-C ,  1-C ) :   1.1618 B(  0-C , 19-H ) :   0.9400 B(  0-C , 20-H ) :   0.9475
B(  0-C , 21-H ) :   0.9401 B(  1-C ,  2-O ) :   0.8795 B(  1-C , 22-H ) :   0.9180
B(  1-C , 23-H ) :   0.9249 B(  2-O ,  3-P ) :   1.1311 B(  3-P ,  4-S ) :   1.6281
B(  3-P ,  5-O ) :   1.0705 B(  3-P ,  8-S ) :   0.9572 B(  4-S ,  8-S ) :   0.1172
B(  4-S , 29-H ) :   0.1154 B(  5-O ,  6-C ) :   0.9105 B(  6-C ,  7-C ) :   1.1656
B(  6-C , 24-H ) :   0.9117 B(  6-C , 25-H ) :   0.9358 B(  7-C , 26-H ) :   0.9475
B(  7-C , 27-H ) :   0.9307 B(  7-C , 28-H ) :   0.9384 B(  8-S ,  9-C ) :   1.0102
B(  9-C , 10-S ) :   0.9824 B(  9-C , 29-H ) :   0.8467 B(  9-C , 30-H ) :   0.9099
B( 10-S , 11-P ) :   0.9809 B( 11-P , 12-S ) :   1.6331 B( 11-P , 13-O ) :   1.0733
B( 11-P , 16-O ) :   1.1104 B( 13-O , 14-C ) :   0.9163 B( 14-C , 15-C ) :   1.1661
B( 14-C , 31-H ) :   0.9123 B( 14-C , 32-H ) :   0.9294 B( 15-C , 33-H ) :   0.9431
B( 15-C , 34-H ) :   0.9374 B( 15-C , 35-H ) :   0.9384 B( 16-O , 17-C ) :   0.8894
B( 17-C , 18-C ) :   1.1674 B( 17-C , 36-H ) :   0.9178 B( 17-C , 37-H ) :   0.9187
B( 18-C , 38-H ) :   0.9356 B( 18-C , 39-H ) :   0.9383 B( 18-C , 40-H ) :   0.9336

Dispersion correction           -0.069401202
FINAL SINGLE POINT ENERGY     -2929.519447643659

DIPOLE MOMENT
-------------

Method             : SCF
Type of density    : Electron Density
Multiplicity       :   1
Irrep              :   0
Energy             : -2929.6399995442684485 Eh
Relativity type    :
Basis              : AO
                                X                 Y                 Z
Electronic contribution:    -14.084143368     -10.740827466     -10.136316083
Nuclear contribution   :     15.948063727      11.651049160      10.114140755
                        -----------------------------------------
Total Dipole Moment    :      1.863920359       0.910221694      -0.022175327
                        -----------------------------------------
Magnitude (a.u.)       :      2.074414226
Magnitude (Debye)      :      5.272741931

Rotational constants in cm-1:             0.011943             0.005783             0.005664
Rotational constants in MHz :           358.051362           173.383434           169.802345

                             ****ORCA TERMINATED NORMALLY****
TOTAL RUN TIME: 0 days 0 hours 0 minutes 22 seconds 347 msec
