                         Program Version 6.0.0  -   RELEASE  -
|  1> ! pbe def2-sv(p) def2/J RI DEFGRID1 loosescf d4 GCP(DFT/SV(P)) printgap
|  2> %output
|  3>     printlevel normal
|  4> end
|  5> * xyz 0 1
|  6> C 4.3599128851 -0.3712944194 -2.0938189818
|  7> C 4.4170266957 0.6559737266 -0.981979428
|  8> O 3.6148317411 0.283378962 0.1524331749
|  9> P 2.0304284732 0.1777049889 0.092119156
| 10> S 1.1255123668 1.5898031459 -0.9223330138
| 11> O 1.6261564551 0.2103692643 1.6172378485
| 12> C 2.1442969132 -0.7112586049 2.6123714238
| 13> C 3.3113806695 -0.0974209481 3.3569832956
| 14> S 1.6935194167 -1.8278687306 -0.5334505474
| 15> C -0.0633195907 -1.6849890476 -0.9273052151
| 16> S -1.0633292555 -1.159579082 0.5010079712
| 17> P -2.2094064105 0.4078064119 -0.3775265747
| 18> S -2.0942370583 0.5999002787 -2.3210637586
| 19> O -1.8617956738 1.7362339767 0.3933377014
| 20> C -1.4735679878 1.8711621287 1.779661414
| 21> C -2.4445676311 1.2058978648 2.7303215712
| 22> O -3.6893084731 0.1284339631 0.144538069
| 23> C -4.6224680843 -0.7031433442 -0.5634209869
| 24> C -4.1845548858 -2.1530086509 -0.6177032389
| 25> H 4.5785181137 -1.3630885466 -1.7059689659
| 26> H 3.368354017 -0.3793083174 -2.5442922137
| 27> H 5.0872381432 -0.1129827263 -2.8568544043
| 28> H 4.0731130429 1.6309733615 -1.3407204622
| 29> H 5.4229570771 0.7462483333 -0.5694797299
| 30> H 1.2971055498 -0.8973964837 3.2749620654
| 31> H 2.4345991682 -1.6408130166 2.1156217448
| 32> H 4.1417354584 0.0775766897 2.6784127242
| 33> H 3.0161184941 0.8491479793 3.8011739864
| 34> H 3.6266354239 -0.7785952384 4.1411002746
| 35> H -0.3795004998 -2.6802399532 -1.2301270376
| 36> H -0.2132299139 -0.9609585357 -1.7337062661
| 37> H -0.4642924659 1.462900672 1.8894727148
| 38> H -1.4413503867 2.9528111765 1.9210635457
| 39> H -2.1412647735 1.418452432 3.7508212449
| 40> H -3.4495380591 1.5851586845 2.5643034699
| 41> H -2.4448519416 0.1278218485 2.5758988493
| 42> H -5.5512247258 -0.5831205357 -0.0039012868
| 43> H -4.7423235964 -0.3021921532 -1.5748747546
| 44> H -3.3038196252 -2.2481117464 -1.2513264471
| 45> H -3.9480588226 -2.5169058814 0.3788395477
| 46> H -4.9852225612 -2.7513067074 -1.0403930231
| 47> *
| 48>
| 49>                          ****END OF INPUT****

CARTESIAN COORDINATES (ANGSTROEM)
---------------------------------
  C      4.359913   -0.371294   -2.093819
  C      4.417027    0.655974   -0.981979
  O      3.614832    0.283379    0.152433
  P      2.030428    0.177705    0.092119
  S      1.125512    1.589803   -0.922333
  O      1.626156    0.210369    1.617238
  C      2.144297   -0.711259    2.612371
  C      3.311381   -0.097421    3.356983
  S      1.693519   -1.827869   -0.533451
  C     -0.063320   -1.684989   -0.927305
  S     -1.063329   -1.159579    0.501008
  P     -2.209406    0.407806   -0.377527
  S     -2.094237    0.599900   -2.321064
  O     -1.861796    1.736234    0.393338
  C     -1.473568    1.871162    1.779661
  C     -2.444568    1.205898    2.730322
  O     -3.689308    0.128434    0.144538
  C     -4.622468   -0.703143   -0.563421
  C     -4.184555   -2.153009   -0.617703
  H      4.578518   -1.363089   -1.705969
  H      3.368354   -0.379308   -2.544292
  H      5.087238   -0.112983   -2.856854
  H      4.073113    1.630973   -1.340720
  H      5.422957    0.746248   -0.569480
  H      1.297106   -0.897396    3.274962
  H      2.434599   -1.640813    2.115622
  H      4.141735    0.077577    2.678413
  H      3.016118    0.849148    3.801174
  H      3.626635   -0.778595    4.141100
  H     -0.379500   -2.680240   -1.230127
  H     -0.213230   -0.960959   -1.733706
  H     -0.464292    1.462901    1.889473
  H     -1.441350    2.952811    1.921064
  H     -2.141265    1.418452    3.750821
  H     -3.449538    1.585159    2.564303
  H     -2.444852    0.127822    2.575899
  H     -5.551225   -0.583121   -0.003901
  H     -4.742324   -0.302192   -1.574875
  H     -3.303820   -2.248112   -1.251326
  H     -3.948059   -2.516906    0.378840
  H     -4.985223   -2.751307   -1.040393

 Total Charge           Charge          ....    0
 Multiplicity           Mult            ....    1
 Number of Electrons    NEL             ....  202
 Basis Dimension        Dim             ....  334

ORBITAL ENERGIES
----------------

  NO   OCC          E(Eh)            E(eV)
   0   2.0000     -88.045732     -2395.8462
   1   2.0000     -88.040806     -2395.7121
   2   2.0000     -87.982652     -2394.1297
   3   2.0000     -87.977476     -2393.9888
   4   2.0000     -76.426424     -2079.6687
   5   2.0000     -76.420060     -2079.4955
   6   2.0000     -18.795741      -511.4581
   7   2.0000     -18.793906      -511.4082
   8   2.0000     -18.782360      -511.0940
   9   2.0000     -18.780914      -511.0546
  10   2.0000      -9.958120      -270.9742
  11   2.0000      -9.955311      -270.8978
  12   2.0000      -9.953862      -270.8584
  13   2.0000      -9.946281      -270.6521
  14   2.0000      -9.944646      -270.6076
  15   2.0000      -9.889405      -269.1044
  16   2.0000      -9.885511      -268.9984
  17   2.0000      -9.883450      -268.9424
  18   2.0000      -9.880688      -268.8672
  19   2.0000      -7.690690      -209.2743
  20   2.0000      -7.685044      -209.1207
  21   2.0000      -7.627349      -207.5507
  22   2.0000      -7.622700      -207.4242
  23   2.0000      -6.423701      -174.7978
  24   2.0000      -6.417065      -174.6172
  25   2.0000      -5.718555      -155.6098
  26   2.0000      -5.715042      -155.5142
  27   2.0000      -5.712937      -155.4569
  28   2.0000      -5.709590      -155.3658
  29   2.0000      -5.707855      -155.3186
  30   2.0000      -5.702055      -155.1608
  31   2.0000      -5.656464      -153.9202
  32   2.0000      -5.651717      -153.7910
  33   2.0000      -5.647774      -153.6837
  34   2.0000      -5.647573      -153.6783
  35   2.0000      -5.643388      -153.5644
  36   2.0000      -5.642631      -153.5438
  37   2.0000      -4.646583      -126.4399
  38   2.0000      -4.645519      -126.4110
  39   2.0000      -4.643837      -126.3652
  40   2.0000      -4.639695      -126.2525
  41   2.0000      -4.638842      -126.2293
  42   2.0000      -4.637566      -126.1946
  43   2.0000      -0.990392       -26.9499
  44   2.0000      -0.977436       -26.5974
  45   2.0000      -0.947942       -25.7948
  46   2.0000      -0.935033       -25.4435
  47   2.0000      -0.761848       -20.7309
  48   2.0000      -0.718640       -19.5552
  49   2.0000      -0.708059       -19.2673
  50   2.0000      -0.692619       -18.8471
  51   2.0000      -0.684039       -18.6136
  52   2.0000      -0.677409       -18.4332
  53   2.0000      -0.649269       -17.6675
  54   2.0000      -0.631909       -17.1951
  55   2.0000      -0.598013       -16.2728
  56   2.0000      -0.590114       -16.0578
  57   2.0000      -0.578067       -15.7300
  58   2.0000      -0.568990       -15.4830
  59   2.0000      -0.561596       -15.2818
  60   2.0000      -0.503105       -13.6902
  61   2.0000      -0.485397       -13.2083
  62   2.0000      -0.476493       -12.9660
  63   2.0000      -0.462524       -12.5859
  64   2.0000      -0.451355       -12.2820
  65   2.0000      -0.447122       -12.1668
  66   2.0000      -0.443016       -12.0551
  67   2.0000      -0.434644       -11.8273
  68   2.0000      -0.431072       -11.7301
  69   2.0000      -0.421725       -11.4757
  70   2.0000      -0.413210       -11.2440
  71   2.0000      -0.395735       -10.7685
  72   2.0000      -0.391448       -10.6519
  73   2.0000      -0.385930       -10.5017
  74   2.0000      -0.380201       -10.3458
  75   2.0000      -0.366390        -9.9700
  76   2.0000      -0.364196        -9.9103
  77   2.0000      -0.359410        -9.7800
  78   2.0000      -0.354746        -9.6531
  79   2.0000      -0.352234        -9.5848
  80   2.0000      -0.349409        -9.5079
  81   2.0000      -0.347192        -9.4476
  82   2.0000      -0.341034        -9.2800
  83   2.0000      -0.340751        -9.2723
  84   2.0000      -0.332628        -9.0513
  85   2.0000      -0.318141        -8.6571
  86   2.0000      -0.304636        -8.2896
  87   2.0000      -0.297803        -8.1036
  88   2.0000      -0.293713        -7.9923
  89   2.0000      -0.287805        -7.8316
  90   2.0000      -0.283335        -7.7099
  91   2.0000      -0.275039        -7.4842
  92   2.0000      -0.265103        -7.2138
  93   2.0000      -0.262973        -7.1559
  94   2.0000      -0.254879        -6.9356
  95   2.0000      -0.234904        -6.3921
  96   2.0000      -0.216576        -5.8933
  97   2.0000      -0.209100        -5.6899
  98   2.0000      -0.199734        -5.4350
  99   2.0000      -0.194674        -5.2974
 100   2.0000      -0.183244        -4.9863
 101   0.0000      -0.042935        -1.1683
 102   0.0000      -0.032335        -0.8799
 103   0.0000      -0.010017        -0.2726
 104   0.0000       0.009331         0.2539
 105   0.0000       0.018388         0.5004

MULLIKEN ATOMIC CHARGES
-----------------------
   0 C :   -0.322285
   1 C :    0.001400
   2 O :   -0.380086
   3 P :    0.587447
   4 S :   -0.280001
   5 O :   -0.350568
   6 C :   -0.009368
   7 C :   -0.288724
   8 S :   -0.106956
   9 C :   -0.337511
  10 S :   -0.136287
  11 P :    0.610109
  12 S :   -0.298945
  13 O :   -0.351499
  14 C :   -0.020801
  15 C :   -0.315017
  16 O :   -0.375834
  17 C :    0.003142
  18 C :   -0.313185
  19 H :    0.116639
  20 H :    0.134549
  21 H :    0.115637
  22 H :    0.114316
  23 H :    0.104275
  24 H :    0.106585
  25 H :    0.103104
  26 H :    0.123002
  27 H :    0.117653
  28 H :    0.109947
  29 H :    0.180201
  30 H :    0.206980
  31 H :    0.136714
  32 H :    0.107527
  33 H :    0.110101
  34 H :    0.122314
  35 H :    0.119949
  36 H :    0.101286
  37 H :    0.111121
  38 H :    0.117260
  39 H :    0.115508
  40 H :    0.110302
Sum of atomic charges:    0.0000000

LOEWDIN ATOMIC CHARGES
----------------------
   0 C :   -0.371680
   1 C :   -0.116398
   2 O :   -0.248196
   3 P :    0.561186
   4 S :   -0.286116
   5 O :   -0.232670
   6 C :   -0.116888
   7 C :   -0.359320
   8 S :    0.076149
   9 C :   -0.480199
  10 S :    0.063517
  11 P :    0.576506
  12 S :   -0.297368
  13 O :   -0.226241
  14 C :   -0.118667
  15 C :   -0.367229
  16 O :   -0.248183
  17 C :   -0.118361
  18 C :   -0.370942
  19 H :    0.122502
  20 H :    0.124020
  21 H :    0.132395
  22 H :    0.114197
  23 H :    0.118064
  24 H :    0.118007
  25 H :    0.103213
  26 H :    0.126900
  27 H :    0.127713
  28 H :    0.129625
  29 H :    0.134098
  30 H :    0.125339
  31 H :    0.112804
  32 H :    0.122896
  33 H :    0.129675
  34 H :    0.128486
  35 H :    0.113887
  36 H :    0.117013
  37 H :    0.111161
  38 H :    0.117871
  39 H :    0.122070
  40 H :    0.129165

  Mayer bond orders larger than 0.100000
B(  0-C ,  1-C ) :   1.1664 B(  0-C , 19-H ) :   0.9433 B(  0-C , 20-H ) :   0.9346
B(  0-C , 21-H ) :   0.9369 B(  1-C ,  2-O ) :   0.9042 B(  1-C , 22-H ) :   0.9179
B(  1-C , 23-H ) :   0.9342 B(  2-O ,  3-P ) :   1.0824 B(  3-P ,  4-S ) :   1.6664
B(  3-P ,  5-O ) :   1.1079 B(  3-P ,  8-S ) :   0.9429 B(  4-S ,  8-S ) :   0.1083
B(  5-O ,  6-C ) :   0.8878 B(  6-C ,  7-C ) :   1.1651 B(  6-C , 24-H ) :   0.9347
B(  6-C , 25-H ) :   0.9097 B(  7-C , 26-H ) :   0.9416 B(  7-C , 27-H ) :   0.9477
B(  7-C , 28-H ) :   0.9399 B(  8-S ,  9-C ) :   0.9971 B(  9-C , 10-S ) :   0.9984
B(  9-C , 29-H ) :   0.9081 B(  9-C , 30-H ) :   0.8447 B( 10-S , 11-P ) :   0.9317
B( 10-S , 12-S ) :   0.1143 B( 11-P , 12-S ) :   1.6156 B( 11-P , 13-O ) :   1.1546
B( 11-P , 16-O ) :   1.0801 B( 12-S , 30-H ) :   0.1049 B( 13-O , 14-C ) :   0.8961
B( 14-C , 15-C ) :   1.1644 B( 14-C , 31-H ) :   0.9063 B( 14-C , 32-H ) :   0.9335
B( 15-C , 33-H ) :   0.9365 B( 15-C , 34-H ) :   0.9418 B( 15-C , 35-H ) :   0.9376
B( 16-O , 17-C ) :   0.9178 B( 17-C , 18-C ) :   1.1644 B( 17-C , 36-H ) :   0.9344
B( 17-C , 37-H ) :   0.9160 B( 18-C , 38-H ) :   0.9368 B( 18-C , 39-H ) :   0.9429
B( 18-C , 40-H ) :   0.9377

Dispersion correction           -0.068092788
FINAL SINGLE POINT ENERGY     -2929.515677688745

DIPOLE MOMENT
-------------

Method             : SCF
Type of density    : Electron Density
Multiplicity       :   1
Irrep              :   0
Energy             : -2929.6339577911585366 Eh
Relativity type    :
Basis              : AO
                                X                 Y                 Z
Electronic contribution:     -3.191978410       5.330753200     -11.378530881
Nuclear contribution   :      3.900640516      -6.435594832      12.805433402
                        -----------------------------------------
Total Dipole Moment    :      0.708662106      -1.104841632       1.426902521
                        -----------------------------------------
Magnitude (a.u.)       :      1.938795456
Magnitude (Debye)      :      4.928026411

Rotational constants in cm-1:             0.012714             0.005384             0.004910
Rotational constants in MHz :           381.161842           161.408271           147.202746

                             ****ORCA TERMINATED NORMALLY****
TOTAL RUN TIME: 0 days 0 hours 0 minutes 23 seconds 359 msec
