                         Program Version 6.0.1  -  RELEASE   -
|  1> ! pbe def2-sv(p) def2/J RI DEFGRID1 loosescf d4 GCP(DFT/SV(P)) printgap
|  2> %output
|  3>     printlevel normal
|  4> end
|  5> * xyz 0 1
|  6> C 2.1003980552 -3.9287096648 0.3622778172
|  7> C 2.8233035143 -2.5980508324 0.2786452662
|  8> O 2.2874425334 -1.8546676076 -0.8329820923
|  9> C 2.1337541916 -0.557019701 -0.733659995
| 10> O 2.4102809869 0.1137274762 0.2422956744
| 11> C 1.5843847753 0.050394495 -2.0115260069
| 12> C 0.3750491662 0.941886805 -1.7132935532
| 13> H 0.2111358798 1.6339590576 -2.5424054306
| 14> C 0.57602073 1.7356483708 -0.4358215897
| 15> O -0.0988297898 1.5436161093 0.5607625634
| 16> O 1.4898696732 2.6512630088 -0.5676274189
| 17> C 1.8364268055 3.4472987119 0.5865454242
| 18> C 0.8337058084 4.5676028617 0.8061382483
| 19> S -1.172293974 -0.0086769137 -1.5749708834
| 20> P -1.5354242084 -0.3931697268 0.4935947171
| 21> S -0.2149817705 -1.1806629488 1.7103522475
| 22> O -2.4593921214 0.7425347918 1.1055626806
| 23> C -3.7217946754 1.1094542147 0.5186825031
| 24> O -2.7033436358 -1.4803664052 0.2093631262
| 25> C -2.4146105046 -2.8159864901 -0.1997088631
| 26> H 2.5688994375 -4.5417050807 1.1244561069
| 27> H 1.060977193 -3.7642207604 0.633909335
| 28> H 2.1468492209 -4.4380497483 -0.5952510022
| 29> H 3.8908844193 -2.7334305096 0.0854390486
| 30> H 2.6855528026 -2.0100354308 1.1909501667
| 31> H 1.3113345508 -0.738569976 -2.7106608884
| 32> H 2.3760812226 0.6689980738 -2.4395724158
| 33> H 1.8881088458 2.7830708185 1.4537691435
| 34> H 2.8267137975 3.8342980011 0.347906548
| 35> H 0.7499726866 5.1767287359 -0.0896321331
| 36> H -0.1424669993 4.1557586153 1.0529700153
| 37> H 1.1697474725 5.1870292979 1.6309888884
| 38> H -3.6051769156 1.2871630297 -0.5507213777
| 39> H -4.015923468 2.0214274178 1.0321941366
| 40> H -4.449266038 0.317067791 0.6851544036
| 41> H -3.3387385591 -3.3721243135 -0.0641589047
| 42> H -1.6242711054 -3.2339869083 0.4269808626
| 43> H -2.107887253 -2.8288841313 -1.2455529648
| 44> *
| 45>
| 46>                          ****END OF INPUT****

CARTESIAN COORDINATES (ANGSTROEM)
---------------------------------
  C      2.100398   -3.928710    0.362278
  C      2.823304   -2.598051    0.278645
  O      2.287443   -1.854668   -0.832982
  C      2.133754   -0.557020   -0.733660
  O      2.410281    0.113727    0.242296
  C      1.584385    0.050394   -2.011526
  C      0.375049    0.941887   -1.713294
  H      0.211136    1.633959   -2.542405
  C      0.576021    1.735648   -0.435822
  O     -0.098830    1.543616    0.560763
  O      1.489870    2.651263   -0.567627
  C      1.836427    3.447299    0.586545
  C      0.833706    4.567603    0.806138
  S     -1.172294   -0.008677   -1.574971
  P     -1.535424   -0.393170    0.493595
  S     -0.214982   -1.180663    1.710352
  O     -2.459392    0.742535    1.105563
  C     -3.721795    1.109454    0.518683
  O     -2.703344   -1.480366    0.209363
  C     -2.414611   -2.815986   -0.199709
  H      2.568899   -4.541705    1.124456
  H      1.060977   -3.764221    0.633909
  H      2.146849   -4.438050   -0.595251
  H      3.890884   -2.733431    0.085439
  H      2.685553   -2.010035    1.190950
  H      1.311335   -0.738570   -2.710661
  H      2.376081    0.668998   -2.439572
  H      1.888109    2.783071    1.453769
  H      2.826714    3.834298    0.347907
  H      0.749973    5.176729   -0.089632
  H     -0.142467    4.155759    1.052970
  H      1.169747    5.187029    1.630989
  H     -3.605177    1.287163   -0.550721
  H     -4.015923    2.021427    1.032194
  H     -4.449266    0.317068    0.685154
  H     -3.338739   -3.372124   -0.064159
  H     -1.624271   -3.233987    0.426981
  H     -2.107887   -2.828884   -1.245553

 Total Charge           Charge          ....    0
 Multiplicity           Mult            ....    1
 Number of Electrons    NEL             ....  174
 Basis Dimension        Dim             ....  316

ORBITAL ENERGIES
----------------

  NO   OCC          E(Eh)            E(eV)
   0   2.0000     -88.034048     -2395.5282
   1   2.0000     -87.961349     -2393.5500
   2   2.0000     -76.416105     -2079.3879
   3   2.0000     -18.814176      -511.9598
   4   2.0000     -18.802664      -511.6465
   5   2.0000     -18.773602      -510.8557
   6   2.0000     -18.771930      -510.8102
   7   2.0000     -18.753672      -510.3134
   8   2.0000     -18.736393      -509.8432
   9   2.0000     -10.025548      -272.8090
  10   2.0000     -10.010753      -272.4064
  11   2.0000      -9.954021      -270.8627
  12   2.0000      -9.950606      -270.7698
  13   2.0000      -9.939380      -270.4643
  14   2.0000      -9.936496      -270.3858
  15   2.0000      -9.929364      -270.1917
  16   2.0000      -9.916318      -269.8367
  17   2.0000      -9.887987      -269.0658
  18   2.0000      -9.877936      -268.7923
  19   2.0000      -7.678882      -208.9530
  20   2.0000      -7.606604      -206.9862
  21   2.0000      -6.410912      -174.4498
  22   2.0000      -5.706971      -155.2946
  23   2.0000      -5.702951      -155.1852
  24   2.0000      -5.696095      -154.9986
  25   2.0000      -5.635923      -153.3613
  26   2.0000      -5.627336      -153.1276
  27   2.0000      -5.626134      -153.0949
  28   2.0000      -4.634152      -126.1017
  29   2.0000      -4.633024      -126.0710
  30   2.0000      -4.631036      -126.0169
  31   2.0000      -1.025886       -27.9158
  32   2.0000      -1.008822       -27.4515
  33   2.0000      -0.968430       -26.3523
  34   2.0000      -0.932216       -25.3669
  35   2.0000      -0.920822       -25.0568
  36   2.0000      -0.914666       -24.8893
  37   2.0000      -0.766148       -20.8480
  38   2.0000      -0.710059       -19.3217
  39   2.0000      -0.705336       -19.1932
  40   2.0000      -0.683492       -18.5988
  41   2.0000      -0.654425       -17.8078
  42   2.0000      -0.624161       -16.9843
  43   2.0000      -0.620802       -16.8929
  44   2.0000      -0.604375       -16.4459
  45   2.0000      -0.589313       -16.0360
  46   2.0000      -0.562048       -15.2941
  47   2.0000      -0.511239       -13.9115
  48   2.0000      -0.503291       -13.6953
  49   2.0000      -0.497006       -13.5242
  50   2.0000      -0.485683       -13.2161
  51   2.0000      -0.463006       -12.5990
  52   2.0000      -0.456602       -12.4248
  53   2.0000      -0.448403       -12.2017
  54   2.0000      -0.432550       -11.7703
  55   2.0000      -0.427073       -11.6212
  56   2.0000      -0.421458       -11.4685
  57   2.0000      -0.417005       -11.3473
  58   2.0000      -0.412137       -11.2148
  59   2.0000      -0.403305       -10.9745
  60   2.0000      -0.400932       -10.9099
  61   2.0000      -0.397738       -10.8230
  62   2.0000      -0.384048       -10.4505
  63   2.0000      -0.383182       -10.4269
  64   2.0000      -0.374886       -10.2012
  65   2.0000      -0.358110        -9.7447
  66   2.0000      -0.357325        -9.7233
  67   2.0000      -0.348864        -9.4931
  68   2.0000      -0.344763        -9.3815
  69   2.0000      -0.338595        -9.2136
  70   2.0000      -0.335777        -9.1370
  71   2.0000      -0.330310        -8.9882
  72   2.0000      -0.312361        -8.4998
  73   2.0000      -0.307821        -8.3762
  74   2.0000      -0.301152        -8.1948
  75   2.0000      -0.291057        -7.9201
  76   2.0000      -0.283743        -7.7211
  77   2.0000      -0.280753        -7.6397
  78   2.0000      -0.274434        -7.4677
  79   2.0000      -0.256929        -6.9914
  80   2.0000      -0.253381        -6.8948
  81   2.0000      -0.243588        -6.6284
  82   2.0000      -0.238417        -6.4877
  83   2.0000      -0.224377        -6.1056
  84   2.0000      -0.223481        -6.0812
  85   2.0000      -0.182236        -4.9589
  86   2.0000      -0.171702        -4.6723
  87   0.0000      -0.039397        -1.0720
  88   0.0000      -0.028895        -0.7863
  89   0.0000      -0.024149        -0.6571
  90   0.0000       0.004320         0.1175
  91   0.0000       0.031987         0.8704

MULLIKEN ATOMIC CHARGES
-----------------------
   0 C :   -0.301425
   1 C :   -0.025345
   2 O :   -0.219145
   3 C :    0.102931
   4 O :   -0.199085
   5 C :   -0.036052
   6 C :   -0.289131
   7 H :    0.144130
   8 C :    0.227519
   9 O :   -0.193809
  10 O :   -0.221341
  11 C :   -0.004621
  12 C :   -0.313435
  13 S :   -0.115147
  14 P :    0.637636
  15 S :   -0.325758
  16 O :   -0.367375
  17 C :   -0.096810
  18 O :   -0.409872
  19 C :   -0.110182
  20 H :    0.107137
  21 H :    0.136625
  22 H :    0.106152
  23 H :    0.099038
  24 H :    0.131637
  25 H :    0.114967
  26 H :    0.124606
  27 H :    0.130188
  28 H :    0.104199
  29 H :    0.110324
  30 H :    0.135755
  31 H :    0.116828
  32 H :    0.106852
  33 H :    0.122634
  34 H :    0.121533
  35 H :    0.115143
  36 H :    0.125974
  37 H :    0.106726
Sum of atomic charges:    0.0000000

LOEWDIN ATOMIC CHARGES
----------------------
   0 C :   -0.355590
   1 C :   -0.109777
   2 O :   -0.044327
   3 C :    0.027617
   4 O :   -0.155995
   5 C :   -0.246160
   6 C :   -0.260489
   7 H :    0.146560
   8 C :    0.025749
   9 O :   -0.142198
  10 O :   -0.036557
  11 C :   -0.102088
  12 C :   -0.358556
  13 S :    0.085650
  14 P :    0.585858
  15 S :   -0.315226
  16 O :   -0.242523
  17 C :   -0.209590
  18 O :   -0.275177
  19 C :   -0.223459
  20 H :    0.129351
  21 H :    0.125419
  22 H :    0.122110
  23 H :    0.113857
  24 H :    0.124004
  25 H :    0.135123
  26 H :    0.148571
  27 H :    0.131622
  28 H :    0.119807
  29 H :    0.123215
  30 H :    0.133162
  31 H :    0.133048
  32 H :    0.104285
  33 H :    0.121113
  34 H :    0.115007
  35 H :    0.117685
  36 H :    0.105424
  37 H :    0.103477

  Mayer bond orders larger than 0.100000
B(  0-C ,  1-C ) :   1.1692 B(  0-C , 20-H ) :   0.9420 B(  0-C , 21-H ) :   0.9350
B(  0-C , 22-H ) :   0.9478 B(  1-C ,  2-O ) :   0.8963 B(  1-C , 23-H ) :   0.9351
B(  1-C , 24-H ) :   0.9068 B(  2-O ,  3-C ) :   1.2664 B(  2-O ,  4-O ) :   0.1032
B(  3-C ,  4-O ) :   1.9763 B(  3-C ,  5-C ) :   0.9978 B(  4-O ,  8-C ) :   0.1100
B(  5-C ,  6-C ) :   1.0251 B(  5-C , 25-H ) :   0.9049 B(  5-C , 26-H ) :   0.8778
B(  6-C ,  7-H ) :   0.8785 B(  6-C ,  8-C ) :   0.9087 B(  6-C , 13-S ) :   1.0282
B(  8-C ,  9-O ) :   1.8909 B(  8-C , 10-O ) :   1.2709 B(  9-O , 14-P ) :   0.1662
B( 10-O , 11-C ) :   0.8976 B( 11-C , 12-C ) :   1.1721 B( 11-C , 27-H ) :   0.9171
B( 11-C , 28-H ) :   0.9386 B( 12-C , 29-H ) :   0.9471 B( 12-C , 30-H ) :   0.9430
B( 12-C , 31-H ) :   0.9437 B( 13-S , 14-P ) :   0.9335 B( 13-S , 15-S ) :   0.1101
B( 14-P , 15-S ) :   1.6113 B( 14-P , 16-O ) :   1.1021 B( 14-P , 18-O ) :   0.9983
B( 16-O , 17-C ) :   0.9309 B( 17-C , 32-H ) :   0.9388 B( 17-C , 33-H ) :   0.9586
B( 17-C , 34-H ) :   0.9483 B( 18-O , 19-C ) :   0.9473 B( 19-C , 35-H ) :   0.9573
B( 19-C , 36-H ) :   0.9255 B( 19-C , 37-H ) :   0.9475

Dispersion correction           -0.054009337
FINAL SINGLE POINT ENERGY     -1979.006467975515

DIPOLE MOMENT
-------------

Method             : SCF
Type of density    : Electron Density
Multiplicity       :   1
Irrep              :   0
Energy             : -1979.1357877164255115 Eh
Relativity type    :
Basis              : AO
                                X                 Y                 Z
Electronic contribution:     -4.547544375       0.706024073      -0.358932239
Nuclear contribution   :      4.805573501      -0.147541281      -0.972118908
                        -----------------------------------------
Total Dipole Moment    :      0.258029126       0.558482792      -1.331051146
                        -----------------------------------------
Magnitude (a.u.)       :      1.466348940
Magnitude (Debye)      :      3.727162803

Rotational constants in cm-1:             0.010837             0.010054             0.006670
Rotational constants in MHz :           324.889521           301.407528           199.947229

                             ****ORCA TERMINATED NORMALLY****
TOTAL RUN TIME: 0 days 0 hours 0 minutes 36 seconds 439 msec
