                         Program Version 6.0.1  -  RELEASE   -
|  1> ! pbe def2-sv(p) def2/J RI DEFGRID1 loosescf d4 GCP(DFT/SV(P)) printgap
|  2> %output
|  3>     printlevel normal
|  4> end
|  5> * xyz 0 1
|  6> C 2.9070626495 -3.2591855626 -0.0284925608
|  7> C 3.3542221186 -1.8120584107 -0.1574033602
|  8> O 2.3175254986 -1.0094890435 -0.7546047644
|  9> C 2.228235775 -0.9793277701 -2.0741503837
| 10> O 3.0004891564 -1.536931245 -2.8207198176
| 11> C 1.0529750236 -0.1552768082 -2.5574686655
| 12> C 0.2093804197 0.4093875596 -1.4228550571
| 13> H -0.5648969909 1.0715446179 -1.829273079
| 14> C 1.063915726 1.2491042498 -0.4910839503
| 15> O 1.9252325199 1.9925469376 -0.9055820699
| 16> O 0.7500254023 1.1075895259 0.7782284973
| 17> C 1.4937662839 1.8980280942 1.7304047582
| 18> C 1.3403177322 1.2886242474 3.1086117795
| 19> S -0.6501979985 -0.9230482656 -0.5259722497
| 20> P -1.9880642672 0.2909895563 0.5982605225
| 21> S -2.241457444 2.136678267 -0.0092269567
| 22> O -3.3294184255 -0.5874146364 0.5841201843
| 23> C -4.0898558709 -0.7589262102 -0.6157458293
| 24> O -1.6047524256 0.1753849836 2.1241690683
| 25> C -1.4577450198 -1.1084759652 2.7648803088
| 26> H 3.6637826776 -3.8215803357 0.508148932
| 27> H 1.9648517387 -3.3128069761 0.5101254584
| 28> H 2.773725699 -3.6956926133 -1.0153402185
| 29> H 4.2536141076 -1.734116912 -0.7746595887
| 30> H 3.5250825866 -1.3568213942 0.8186350834
| 31> H 0.4487770864 -0.7805565685 -3.2163581191
| 32> H 1.4571771553 0.6700178082 -3.1488854414
| 33> H 2.5372626117 1.9187936704 1.400830806
| 34> H 1.0960940923 2.9169903983 1.6938598205
| 35> H 1.9337519646 1.861473765 3.8135494626
| 36> H 0.2978714475 1.318943429 3.4104030951
| 37> H 1.6826311416 0.2579418396 3.1044501876
| 38> H -4.2831716696 0.2094381975 -1.0800685883
| 39> H -5.0228314943 -1.2239313581 -0.307853236
| 40> H -3.549109265 -1.4040298865 -1.308147511
| 41> H -0.7305635838 -1.7113075692 2.2214085574
| 42> H -2.4177314898 -1.6196714648 2.7943122711
| 43> H -1.1051274913 -0.8912779012 3.7696268384
| 44> *
| 45>
| 46>                          ****END OF INPUT****

CARTESIAN COORDINATES (ANGSTROEM)
---------------------------------
  C      2.907063   -3.259186   -0.028493
  C      3.354222   -1.812058   -0.157403
  O      2.317525   -1.009489   -0.754605
  C      2.228236   -0.979328   -2.074150
  O      3.000489   -1.536931   -2.820720
  C      1.052975   -0.155277   -2.557469
  C      0.209380    0.409388   -1.422855
  H     -0.564897    1.071545   -1.829273
  C      1.063916    1.249104   -0.491084
  O      1.925233    1.992547   -0.905582
  O      0.750025    1.107590    0.778228
  C      1.493766    1.898028    1.730405
  C      1.340318    1.288624    3.108612
  S     -0.650198   -0.923048   -0.525972
  P     -1.988064    0.290990    0.598261
  S     -2.241457    2.136678   -0.009227
  O     -3.329418   -0.587415    0.584120
  C     -4.089856   -0.758926   -0.615746
  O     -1.604752    0.175385    2.124169
  C     -1.457745   -1.108476    2.764880
  H      3.663783   -3.821580    0.508149
  H      1.964852   -3.312807    0.510125
  H      2.773726   -3.695693   -1.015340
  H      4.253614   -1.734117   -0.774660
  H      3.525083   -1.356821    0.818635
  H      0.448777   -0.780557   -3.216358
  H      1.457177    0.670018   -3.148885
  H      2.537263    1.918794    1.400831
  H      1.096094    2.916990    1.693860
  H      1.933752    1.861474    3.813549
  H      0.297871    1.318943    3.410403
  H      1.682631    0.257942    3.104450
  H     -4.283172    0.209438   -1.080069
  H     -5.022831   -1.223931   -0.307853
  H     -3.549109   -1.404030   -1.308148
  H     -0.730564   -1.711308    2.221409
  H     -2.417731   -1.619671    2.794312
  H     -1.105127   -0.891278    3.769627

 Total Charge           Charge          ....    0
 Multiplicity           Mult            ....    1
 Number of Electrons    NEL             ....  174
 Basis Dimension        Dim             ....  316

ORBITAL ENERGIES
----------------

  NO   OCC          E(Eh)            E(eV)
   0   2.0000     -88.043407     -2395.7829
   1   2.0000     -87.986821     -2394.2431
   2   2.0000     -76.429127     -2079.7423
   3   2.0000     -18.812120      -511.9038
   4   2.0000     -18.806643      -511.7548
   5   2.0000     -18.800556      -511.5891
   6   2.0000     -18.794913      -511.4356
   7   2.0000     -18.737318      -509.8683
   8   2.0000     -18.736906      -509.8571
   9   2.0000     -10.015469      -272.5348
  10   2.0000     -10.013819      -272.4899
  11   2.0000      -9.956397      -270.9273
  12   2.0000      -9.954420      -270.8736
  13   2.0000      -9.947678      -270.6901
  14   2.0000      -9.947392      -270.6823
  15   2.0000      -9.946926      -270.6696
  16   2.0000      -9.917433      -269.8671
  17   2.0000      -9.891742      -269.1680
  18   2.0000      -9.889564      -269.1087
  19   2.0000      -7.687850      -209.1970
  20   2.0000      -7.631997      -207.6772
  21   2.0000      -6.426274      -174.8678
  22   2.0000      -5.715530      -155.5275
  23   2.0000      -5.712561      -155.4467
  24   2.0000      -5.704932      -155.2391
  25   2.0000      -5.661155      -154.0479
  26   2.0000      -5.652452      -153.8110
  27   2.0000      -5.652050      -153.8001
  28   2.0000      -4.648988      -126.5054
  29   2.0000      -4.648144      -126.4824
  30   2.0000      -4.646583      -126.4400
  31   2.0000      -1.018903       -27.7258
  32   2.0000      -1.012534       -27.5524
  33   2.0000      -0.992622       -27.0106
  34   2.0000      -0.947306       -25.7775
  35   2.0000      -0.918440       -24.9920
  36   2.0000      -0.916743       -24.9458
  37   2.0000      -0.770454       -20.9651
  38   2.0000      -0.717532       -19.5250
  39   2.0000      -0.705090       -19.1865
  40   2.0000      -0.697323       -18.9751
  41   2.0000      -0.663570       -18.0567
  42   2.0000      -0.641397       -17.4533
  43   2.0000      -0.625011       -17.0074
  44   2.0000      -0.615892       -16.7593
  45   2.0000      -0.601148       -16.3581
  46   2.0000      -0.567141       -15.4327
  47   2.0000      -0.520387       -14.1604
  48   2.0000      -0.511135       -13.9087
  49   2.0000      -0.505041       -13.7429
  50   2.0000      -0.481925       -13.1138
  51   2.0000      -0.477657       -12.9977
  52   2.0000      -0.469962       -12.7883
  53   2.0000      -0.449395       -12.2287
  54   2.0000      -0.438225       -11.9247
  55   2.0000      -0.433538       -11.7972
  56   2.0000      -0.431307       -11.7365
  57   2.0000      -0.423730       -11.5303
  58   2.0000      -0.419551       -11.4166
  59   2.0000      -0.410149       -11.1607
  60   2.0000      -0.406923       -11.0729
  61   2.0000      -0.402674       -10.9573
  62   2.0000      -0.391737       -10.6597
  63   2.0000      -0.386359       -10.5134
  64   2.0000      -0.379289       -10.3210
  65   2.0000      -0.367198        -9.9920
  66   2.0000      -0.361944        -9.8490
  67   2.0000      -0.358461        -9.7542
  68   2.0000      -0.349564        -9.5121
  69   2.0000      -0.344314        -9.3692
  70   2.0000      -0.338004        -9.1976
  71   2.0000      -0.333284        -9.0691
  72   2.0000      -0.321991        -8.7618
  73   2.0000      -0.317054        -8.6275
  74   2.0000      -0.316260        -8.6059
  75   2.0000      -0.304774        -8.2933
  76   2.0000      -0.300595        -8.1796
  77   2.0000      -0.297957        -8.1078
  78   2.0000      -0.274739        -7.4760
  79   2.0000      -0.267698        -7.2844
  80   2.0000      -0.264190        -7.1890
  81   2.0000      -0.259177        -7.0526
  82   2.0000      -0.242734        -6.6051
  83   2.0000      -0.226230        -6.1560
  84   2.0000      -0.211299        -5.7497
  85   2.0000      -0.205562        -5.5936
  86   2.0000      -0.202072        -5.4987
  87   0.0000      -0.042957        -1.1689
  88   0.0000      -0.025890        -0.7045
  89   0.0000      -0.021522        -0.5856
  90   0.0000       0.001182         0.0322
  91   0.0000       0.011291         0.3072

MULLIKEN ATOMIC CHARGES
-----------------------
   0 C :   -0.310012
   1 C :   -0.009782
   2 O :   -0.237042
   3 C :    0.115790
   4 O :   -0.200715
   5 C :   -0.102154
   6 C :   -0.309874
   7 H :    0.156282
   8 C :    0.236660
   9 O :   -0.205803
  10 O :   -0.230169
  11 C :   -0.021983
  12 C :   -0.295203
  13 S :   -0.102722
  14 P :    0.621625
  15 S :   -0.316995
  16 O :   -0.390961
  17 C :   -0.099203
  18 O :   -0.360824
  19 C :   -0.113847
  20 H :    0.114254
  21 H :    0.115737
  22 H :    0.129208
  23 H :    0.115119
  24 H :    0.102954
  25 H :    0.132990
  26 H :    0.149002
  27 H :    0.109552
  28 H :    0.112962
  29 H :    0.110994
  30 H :    0.137120
  31 H :    0.106519
  32 H :    0.118500
  33 H :    0.125770
  34 H :    0.112403
  35 H :    0.122433
  36 H :    0.130336
  37 H :    0.131078
Sum of atomic charges:    0.0000000

LOEWDIN ATOMIC CHARGES
----------------------
   0 C :   -0.356438
   1 C :   -0.107614
   2 O :   -0.052062
   3 C :    0.036179
   4 O :   -0.162249
   5 C :   -0.244828
   6 C :   -0.277214
   7 H :    0.143550
   8 C :    0.014539
   9 O :   -0.164076
  10 O :   -0.057370
  11 C :   -0.102770
  12 C :   -0.355069
  13 S :    0.090008
  14 P :    0.577575
  15 S :   -0.309751
  16 O :   -0.262149
  17 C :   -0.217289
  18 O :   -0.234621
  19 C :   -0.211482
  20 H :    0.131141
  21 H :    0.123601
  22 H :    0.131652
  23 H :    0.123333
  24 H :    0.116956
  25 H :    0.148158
  26 H :    0.163035
  27 H :    0.117662
  28 H :    0.121970
  29 H :    0.130698
  30 H :    0.130425
  31 H :    0.120928
  32 H :    0.112151
  33 H :    0.122705
  34 H :    0.107290
  35 H :    0.109127
  36 H :    0.118423
  37 H :    0.123875

  Mayer bond orders larger than 0.100000
B(  0-C ,  1-C ) :   1.1737 B(  0-C , 20-H ) :   0.9438 B(  0-C , 21-H ) :   0.9472
B(  0-C , 22-H ) :   0.9450 B(  1-C ,  2-O ) :   0.9110 B(  1-C , 23-H ) :   0.9156
B(  1-C , 24-H ) :   0.9348 B(  2-O ,  3-C ) :   1.2138 B(  3-C ,  4-O ) :   2.0537
B(  3-C ,  5-C ) :   1.0144 B(  5-C ,  6-C ) :   1.0634 B(  5-C , 25-H ) :   0.8986
B(  5-C , 26-H ) :   0.8748 B(  6-C ,  7-H ) :   0.8370 B(  6-C ,  8-C ) :   0.8717
B(  6-C , 13-S ) :   1.0184 B(  8-C ,  9-O ) :   2.0590 B(  8-C , 10-O ) :   1.2492
B( 10-O , 11-C ) :   0.8968 B( 11-C , 12-C ) :   1.1625 B( 11-C , 27-H ) :   0.9229
B( 11-C , 28-H ) :   0.9317 B( 12-C , 29-H ) :   0.9409 B( 12-C , 30-H ) :   0.9351
B( 12-C , 31-H ) :   0.9500 B( 13-S , 14-P ) :   0.9568 B( 13-S , 15-S ) :   0.1150
B( 14-P , 15-S ) :   1.6345 B( 14-P , 16-O ) :   1.0652 B( 14-P , 18-O ) :   1.1197
B( 16-O , 17-C ) :   0.9333 B( 17-C , 32-H ) :   0.9363 B( 17-C , 33-H ) :   0.9585
B( 17-C , 34-H ) :   0.9449 B( 18-O , 19-C ) :   0.9161 B( 19-C , 35-H ) :   0.9368
B( 19-C , 36-H ) :   0.9471 B( 19-C , 37-H ) :   0.9552

Dispersion correction           -0.053899971
FINAL SINGLE POINT ENERGY     -1979.021474121335

DIPOLE MOMENT
-------------

Method             : SCF
Type of density    : Electron Density
Multiplicity       :   1
Irrep              :   0
Energy             : -1979.1507567294684122 Eh
Relativity type    :
Basis              : AO
                                X                 Y                 Z
Electronic contribution:     -9.675708810       9.506377625      -8.844800006
Nuclear contribution   :      9.374323933     -10.919373354      10.128313303
                        -----------------------------------------
Total Dipole Moment    :     -0.301384877      -1.412995729       1.283513297
                        -----------------------------------------
Magnitude (a.u.)       :      1.932562071
Magnitude (Debye)      :      4.912182407

Rotational constants in cm-1:             0.013633             0.007347             0.006891
Rotational constants in MHz :           408.704098           220.255396           206.589406

                             ****ORCA TERMINATED NORMALLY****
TOTAL RUN TIME: 0 days 0 hours 0 minutes 38 seconds 658 msec
