                         Program Version 6.0.0  -   RELEASE  -
|  1> ! wb97x-v def2-tzvp def2/J RIJCOSX DEFGRID2 scfconv7 GCP(DFT/TZ) printgap
|  2> %output
|  3>     printlevel normal
|  4> end
|  5> * xyz 0 1
|  6> C 4.384391345864931 1.3973321541789883 -0.0005518842047163485
|  7> C 3.1011853207720828 1.937606134756929 0.00040164248982699376
|  8> C 2.001542114629927 1.0989937961419778 0.0013188843261910123
|  9> C 2.1702395283035276 -0.2794607498128995 0.0012887787299389539
| 10> C 3.4350257670941384 -0.8411388930324561 0.00025324274410084603
| 11> C 4.529926671386216 0.01661166257708096 -0.0006408402053374826
| 12> Cl 6.142751481565915 -0.6774552577749074 -0.001938157144344214
| 13> O 1.0881213699170285 -1.1468115957920133 0.0024188689298363666
| 14> C -0.15455671536476726 -0.5670700216687586 0.0014435921773315607
| 15> C -0.3245989310402477 0.8158479350981889 0.0013661645110158657
| 16> C -1.6055674088831662 1.3591552147659443 0.0003767382013928175
| 17> C -2.7272133099127553 0.5220505775866174 -0.00038143462504407536
| 18> C -2.5567170238370407 -0.8638976867176472 -0.00020973542557336302
| 19> C -1.2654386163111633 -1.4046106903547728 0.0006333883100811855
| 20> Cl -1.010786100446605 -3.1174299651605404 0.0007857277757380169
| 21> Cl -3.9307172612467998 -1.9158488658321218 -0.0010621899862837
| 22> Cl -4.3149947245678275 1.2098048571043951 -0.0015154715436799997
| 23> Cl -1.7719812861163449 3.082853186011509 0.0002220851628213179
| 24> O 0.7395820898033721 1.678426772599103 0.0023764061503790735
| 25> H 5.249286980838696 2.049304138189819 -0.0012423286425334397
| 26> H 2.9504188197213264 3.011594722551379 0.0004706520788532371
| 27> H 3.5429952787824095 -1.9194532821244774 0.00020493499879310553
| 28> *
| 29>
| 30>                          ****END OF INPUT****

CARTESIAN COORDINATES (ANGSTROEM)
---------------------------------
  C      4.384391    1.397332   -0.000552
  C      3.101185    1.937606    0.000402
  C      2.001542    1.098994    0.001319
  C      2.170240   -0.279461    0.001289
  C      3.435026   -0.841139    0.000253
  C      4.529927    0.016612   -0.000641
  Cl     6.142751   -0.677455   -0.001938
  O      1.088121   -1.146812    0.002419
  C     -0.154557   -0.567070    0.001444
  C     -0.324599    0.815848    0.001366
  C     -1.605567    1.359155    0.000377
  C     -2.727213    0.522051   -0.000381
  C     -2.556717   -0.863898   -0.000210
  C     -1.265439   -1.404611    0.000633
  Cl    -1.010786   -3.117430    0.000786
  Cl    -3.930717   -1.915849   -0.001062
  Cl    -4.314995    1.209805   -0.001515
  Cl    -1.771981    3.082853    0.000222
  O      0.739582    1.678427    0.002376
  H      5.249287    2.049304   -0.001242
  H      2.950419    3.011595    0.000471
  H      3.542995   -1.919453    0.000205

 Total Charge           Charge          ....    0
 Multiplicity           Mult            ....    1
 Number of Electrons    NEL             ....  176
 Basis Dimension        Dim             ....  637

ORBITAL ENERGIES
----------------

  NO   OCC          E(Eh)            E(eV)
   0   2.0000    -107.168764     -2916.2103
   1   2.0000    -107.168660     -2916.2075
   2   2.0000    -107.167212     -2916.1681
   3   2.0000    -107.167075     -2916.1644
   4   2.0000    -107.156721     -2915.8826
   5   2.0000     -21.761500      -592.1605
   6   2.0000     -21.760245      -592.1264
   7   2.0000     -12.166502      -331.0673
   8   2.0000     -12.164419      -331.0107
   9   2.0000     -12.155462      -330.7669
  10   2.0000     -12.154169      -330.7318
  11   2.0000     -12.154125      -330.7306
  12   2.0000     -12.152355      -330.6824
  13   2.0000     -12.151501      -330.6591
  14   2.0000     -12.149523      -330.6053
  15   2.0000     -12.137439      -330.2765
  16   2.0000     -12.088999      -328.9584
  17   2.0000     -12.088576      -328.9469
  18   2.0000     -12.084841      -328.8452
  19   2.0000     -11.321617      -308.0769
  20   2.0000     -11.321505      -308.0738
  21   2.0000     -11.320174      -308.0376
  22   2.0000     -11.320029      -308.0336
  23   2.0000     -11.309782      -307.7548
  24   2.0000      -9.113503      -247.9910
  25   2.0000      -9.113296      -247.9854
  26   2.0000      -9.112151      -247.9542
  27   2.0000      -9.111283      -247.9306
  28   2.0000      -9.110600      -247.9120
  29   2.0000      -9.110545      -247.9105
  30   2.0000      -9.110316      -247.9043
  31   2.0000      -9.110202      -247.9012
  32   2.0000      -9.109057      -247.8700
  33   2.0000      -9.108980      -247.8679
  34   2.0000      -9.108798      -247.8630
  35   2.0000      -9.108279      -247.8489
  36   2.0000      -9.101317      -247.6594
  37   2.0000      -9.098672      -247.5875
  38   2.0000      -9.098631      -247.5863
  39   2.0000      -1.795518       -48.8585
  40   2.0000      -1.778350       -48.3914
  41   2.0000      -1.498927       -40.7879
  42   2.0000      -1.463029       -39.8110
  43   2.0000      -1.458143       -39.6781
  44   2.0000      -1.445473       -39.3333
  45   2.0000      -1.427912       -38.8554
  46   2.0000      -1.419281       -38.6206
  47   2.0000      -1.392355       -37.8879
  48   2.0000      -1.350103       -36.7382
  49   2.0000      -1.332000       -36.2456
  50   2.0000      -1.302249       -35.4360
  51   2.0000      -1.295799       -35.2605
  52   2.0000      -1.242870       -33.8202
  53   2.0000      -1.190810       -32.4036
  54   2.0000      -1.184239       -32.2248
  55   2.0000      -1.143948       -31.1284
  56   2.0000      -1.126528       -30.6544
  57   2.0000      -1.078321       -29.3426
  58   2.0000      -1.072261       -29.1777
  59   2.0000      -1.056631       -28.7524
  60   2.0000      -1.039280       -28.2802
  61   2.0000      -1.024272       -27.8719
  62   2.0000      -1.010991       -27.5105
  63   2.0000      -0.999449       -27.1964
  64   2.0000      -0.980084       -26.6694
  65   2.0000      -0.971664       -26.4403
  66   2.0000      -0.965421       -26.2704
  67   2.0000      -0.945756       -25.7353
  68   2.0000      -0.931039       -25.3349
  69   2.0000      -0.926876       -25.2216
  70   2.0000      -0.899690       -24.4818
  71   2.0000      -0.887870       -24.1602
  72   2.0000      -0.869999       -23.6739
  73   2.0000      -0.848003       -23.0753
  74   2.0000      -0.844582       -22.9822
  75   2.0000      -0.832455       -22.6523
  76   2.0000      -0.823270       -22.4023
  77   2.0000      -0.822778       -22.3889
  78   2.0000      -0.821931       -22.3659
  79   2.0000      -0.815954       -22.2032
  80   2.0000      -0.806519       -21.9465
  81   2.0000      -0.803634       -21.8680
  82   2.0000      -0.800787       -21.7905
  83   2.0000      -0.778660       -21.1884
  84   2.0000      -0.701024       -19.0758
  85   2.0000      -0.695511       -18.9258
  86   2.0000      -0.679366       -18.4865
  87   2.0000      -0.675142       -18.3715
  88   0.0000      -0.360318        -9.8048
  89   0.0000      -0.323514        -8.8033
  90   0.0000      -0.319814        -8.7026
  91   0.0000      -0.290065        -7.8931
  92   0.0000      -0.289369        -7.8741

MULLIKEN ATOMIC CHARGES
-----------------------
   0 C :   -0.152978
   1 C :   -0.242488
   2 C :    0.201538
   3 C :    0.245508
   4 C :   -0.343022
   5 C :    0.198849
   6 Cl:   -0.086990
   7 O :   -0.220382
   8 C :    0.215367
   9 C :    0.220191
  10 C :   -0.114600
  11 C :    0.041240
  12 C :    0.039922
  13 C :   -0.113152
  14 Cl:   -0.023832
  15 Cl:   -0.024374
  16 Cl:   -0.024253
  17 Cl:   -0.025209
  18 O :   -0.221794
  19 H :    0.140910
  20 H :    0.141182
  21 H :    0.148368
Sum of atomic charges:   -0.0000000

LOEWDIN ATOMIC CHARGES
----------------------
   0 C :   -0.137937
   1 C :   -0.092543
   2 C :   -0.191464
   3 C :   -0.187210
   4 C :   -0.101917
   5 C :   -0.408680
   6 Cl:    0.379518
   7 O :    0.329364
   8 C :   -0.210666
   9 C :   -0.211898
  10 C :   -0.411926
  11 C :   -0.449030
  12 C :   -0.449107
  13 C :   -0.411802
  14 Cl:    0.443243
  15 Cl:    0.436877
  16 Cl:    0.437136
  17 Cl:    0.442431
  18 O :    0.327664
  19 H :    0.151345
  20 H :    0.157197
  21 H :    0.159405

  Mayer bond orders larger than 0.100000
B(  0-C ,  1-C ) :   1.3831 B(  0-C ,  5-C ) :   1.3982 B(  0-C , 19-H ) :   0.9712
B(  1-C ,  2-C ) :   1.4170 B(  1-C , 20-H ) :   0.9685 B(  2-C ,  3-C ) :   1.3745
B(  2-C , 18-O ) :   1.0114 B(  3-C ,  4-C ) :   1.3824 B(  3-C ,  7-O ) :   1.0071
B(  4-C ,  5-C ) :   1.3781 B(  4-C , 21-H ) :   0.9687 B(  5-C ,  6-Cl) :   0.9725
B(  7-O ,  8-C ) :   1.1048 B(  8-C ,  9-C ) :   1.3978 B(  8-C , 13-C ) :   1.2969
B(  9-C , 10-C ) :   1.2949 B(  9-C , 18-O ) :   1.1026 B( 10-C , 11-C ) :   1.3076
B( 10-C , 17-Cl) :   1.2391 B( 11-C , 12-C ) :   1.3386 B( 11-C , 16-Cl) :   1.1894
B( 12-C , 13-C ) :   1.3098 B( 12-C , 15-Cl) :   1.1887 B( 13-C , 14-Cl) :   1.2386

FINAL SINGLE POINT ENERGY     -2910.279320191807

DIPOLE MOMENT
-------------

Method             : SCF
Type of density    : Electron Density
Multiplicity       :   1
Irrep              :   0
Energy             : -2910.2912804832071743 Eh
Relativity type    :
Basis              : AO
                                X                 Y                 Z
Electronic contribution:    -17.067037852      -4.450826952      -0.004416865
Nuclear contribution   :     17.599721947       4.855504166       0.004414981
                        -----------------------------------------
Total Dipole Moment    :      0.532684094       0.404677214      -0.000001883
                        -----------------------------------------
Magnitude (a.u.)       :      0.668966361
Magnitude (Debye)      :      1.700377359

Rotational constants in cm-1:             0.014979             0.004403             0.003403
Rotational constants in MHz :           449.045575           131.988970           102.006115

                             ****ORCA TERMINATED NORMALLY****
TOTAL RUN TIME: 0 days 0 hours 9 minutes 53 seconds 529 msec
