                         Program Version 6.0.0  -   RELEASE  -
|  1> ! wb97x-v def2-tzvp def2/J RIJCOSX DEFGRID2 scfconv7 GCP(DFT/TZ) printgap
|  2> %output
|  3>     printlevel normal
|  4> end
|  5> %cpcm
|  6>     smd true
|  7>     smdsolvent "water"
|  8> end
|  9> * xyz 0 1
| 10> C 4.384391345864931 1.3973321541789883 -0.0005518842047163485
| 11> C 3.1011853207720828 1.937606134756929 0.00040164248982699376
| 12> C 2.001542114629927 1.0989937961419778 0.0013188843261910123
| 13> C 2.1702395283035276 -0.2794607498128995 0.0012887787299389539
| 14> C 3.4350257670941384 -0.8411388930324561 0.00025324274410084603
| 15> C 4.529926671386216 0.01661166257708096 -0.0006408402053374826
| 16> Cl 6.142751481565915 -0.6774552577749074 -0.001938157144344214
| 17> O 1.0881213699170285 -1.1468115957920133 0.0024188689298363666
| 18> C -0.15455671536476726 -0.5670700216687586 0.0014435921773315607
| 19> C -0.3245989310402477 0.8158479350981889 0.0013661645110158657
| 20> C -1.6055674088831662 1.3591552147659443 0.0003767382013928175
| 21> C -2.7272133099127553 0.5220505775866174 -0.00038143462504407536
| 22> C -2.5567170238370407 -0.8638976867176472 -0.00020973542557336302
| 23> C -1.2654386163111633 -1.4046106903547728 0.0006333883100811855
| 24> Cl -1.010786100446605 -3.1174299651605404 0.0007857277757380169
| 25> Cl -3.9307172612467998 -1.9158488658321218 -0.0010621899862837
| 26> Cl -4.3149947245678275 1.2098048571043951 -0.0015154715436799997
| 27> Cl -1.7719812861163449 3.082853186011509 0.0002220851628213179
| 28> O 0.7395820898033721 1.678426772599103 0.0023764061503790735
| 29> H 5.249286980838696 2.049304138189819 -0.0012423286425334397
| 30> H 2.9504188197213264 3.011594722551379 0.0004706520788532371
| 31> H 3.5429952787824095 -1.9194532821244774 0.00020493499879310553
| 32> *
| 33>
| 34>                          ****END OF INPUT****

CARTESIAN COORDINATES (ANGSTROEM)
---------------------------------
  C      4.384391    1.397332   -0.000552
  C      3.101185    1.937606    0.000402
  C      2.001542    1.098994    0.001319
  C      2.170240   -0.279461    0.001289
  C      3.435026   -0.841139    0.000253
  C      4.529927    0.016612   -0.000641
  Cl     6.142751   -0.677455   -0.001938
  O      1.088121   -1.146812    0.002419
  C     -0.154557   -0.567070    0.001444
  C     -0.324599    0.815848    0.001366
  C     -1.605567    1.359155    0.000377
  C     -2.727213    0.522051   -0.000381
  C     -2.556717   -0.863898   -0.000210
  C     -1.265439   -1.404611    0.000633
  Cl    -1.010786   -3.117430    0.000786
  Cl    -3.930717   -1.915849   -0.001062
  Cl    -4.314995    1.209805   -0.001515
  Cl    -1.771981    3.082853    0.000222
  O      0.739582    1.678427    0.002376
  H      5.249287    2.049304   -0.001242
  H      2.950419    3.011595    0.000471
  H      3.542995   -1.919453    0.000205

 Total Charge           Charge          ....    0
 Multiplicity           Mult            ....    1
 Number of Electrons    NEL             ....  176
 Basis Dimension        Dim             ....  637

ORBITAL ENERGIES
----------------

  NO   OCC          E(Eh)            E(eV)
   0   2.0000    -107.167595     -2916.1785
   1   2.0000    -107.167583     -2916.1782
   2   2.0000    -107.167130     -2916.1659
   3   2.0000    -107.167074     -2916.1643
   4   2.0000    -107.151378     -2915.7372
   5   2.0000     -21.752357      -591.9117
   6   2.0000     -21.751452      -591.8871
   7   2.0000     -12.159184      -330.8682
   8   2.0000     -12.157110      -330.8118
   9   2.0000     -12.150776      -330.6394
  10   2.0000     -12.149182      -330.5960
  11   2.0000     -12.146806      -330.5314
  12   2.0000     -12.146188      -330.5146
  13   2.0000     -12.141440      -330.3854
  14   2.0000     -12.136919      -330.2624
  15   2.0000     -12.125370      -329.9481
  16   2.0000     -12.074849      -328.5733
  17   2.0000     -12.072196      -328.5012
  18   2.0000     -12.069391      -328.4248
  19   2.0000     -11.320501      -308.0465
  20   2.0000     -11.320452      -308.0452
  21   2.0000     -11.320142      -308.0367
  22   2.0000     -11.320069      -308.0347
  23   2.0000     -11.304535      -307.6120
  24   2.0000      -9.112534      -247.9647
  25   2.0000      -9.112292      -247.9581
  26   2.0000      -9.112054      -247.9516
  27   2.0000      -9.111137      -247.9266
  28   2.0000      -9.109854      -247.8917
  29   2.0000      -9.109524      -247.8827
  30   2.0000      -9.109361      -247.8783
  31   2.0000      -9.109176      -247.8733
  32   2.0000      -9.108961      -247.8674
  33   2.0000      -9.108863      -247.8648
  34   2.0000      -9.108737      -247.8613
  35   2.0000      -9.108255      -247.8482
  36   2.0000      -9.096051      -247.5161
  37   2.0000      -9.093476      -247.4461
  38   2.0000      -9.093437      -247.4450
  39   2.0000      -1.785911       -48.5971
  40   2.0000      -1.768978       -48.1363
  41   2.0000      -1.494916       -40.6787
  42   2.0000      -1.460796       -39.7503
  43   2.0000      -1.450286       -39.4643
  44   2.0000      -1.441372       -39.2217
  45   2.0000      -1.427377       -38.8409
  46   2.0000      -1.412292       -38.4304
  47   2.0000      -1.385429       -37.6994
  48   2.0000      -1.339549       -36.4510
  49   2.0000      -1.324222       -36.0339
  50   2.0000      -1.292979       -35.1837
  51   2.0000      -1.287095       -35.0236
  52   2.0000      -1.234114       -33.5819
  53   2.0000      -1.182202       -32.1694
  54   2.0000      -1.173970       -31.9453
  55   2.0000      -1.133891       -30.8547
  56   2.0000      -1.118590       -30.4384
  57   2.0000      -1.070809       -29.1382
  58   2.0000      -1.062277       -28.9060
  59   2.0000      -1.048220       -28.5235
  60   2.0000      -1.029510       -28.0144
  61   2.0000      -1.014715       -27.6118
  62   2.0000      -1.001783       -27.2599
  63   2.0000      -0.994261       -27.0552
  64   2.0000      -0.971053       -26.4237
  65   2.0000      -0.969046       -26.3691
  66   2.0000      -0.955232       -25.9932
  67   2.0000      -0.943533       -25.6748
  68   2.0000      -0.923326       -25.1250
  69   2.0000      -0.913785       -24.8654
  70   2.0000      -0.886164       -24.1137
  71   2.0000      -0.883809       -24.0497
  72   2.0000      -0.853459       -23.2238
  73   2.0000      -0.846319       -23.0295
  74   2.0000      -0.836911       -22.7735
  75   2.0000      -0.831015       -22.6131
  76   2.0000      -0.822840       -22.3906
  77   2.0000      -0.822830       -22.3903
  78   2.0000      -0.822112       -22.3708
  79   2.0000      -0.815402       -22.1882
  80   2.0000      -0.806700       -21.9514
  81   2.0000      -0.798263       -21.7218
  82   2.0000      -0.792959       -21.5775
  83   2.0000      -0.772818       -21.0294
  84   2.0000      -0.693394       -18.8682
  85   2.0000      -0.689018       -18.7491
  86   2.0000      -0.667004       -18.1501
  87   2.0000      -0.664019       -18.0689
  88   0.0000      -0.356354        -9.6969
  89   0.0000      -0.317051        -8.6274
  90   0.0000      -0.312331        -8.4990
  91   0.0000      -0.284440        -7.7400
  92   0.0000      -0.279750        -7.6124

MULLIKEN ATOMIC CHARGES
-----------------------
   0 C :   -0.183444
   1 C :   -0.286438
   2 C :    0.233275
   3 C :    0.257733
   4 C :   -0.362716
   5 C :    0.208418
   6 Cl:   -0.109430
   7 O :   -0.242000
   8 C :    0.245486
   9 C :    0.249772
  10 C :   -0.110200
  11 C :    0.050634
  12 C :    0.048855
  13 C :   -0.109393
  14 Cl:   -0.041366
  15 Cl:   -0.042638
  16 Cl:   -0.042468
  17 Cl:   -0.041853
  18 O :   -0.244859
  19 H :    0.175670
  20 H :    0.172593
  21 H :    0.174370
Sum of atomic charges:   -0.0000000

LOEWDIN ATOMIC CHARGES
----------------------
   0 C :   -0.136883
   1 C :   -0.088686
   2 C :   -0.186450
   3 C :   -0.183026
   4 C :   -0.100904
   5 C :   -0.416505
   6 Cl:    0.361675
   7 O :    0.323867
   8 C :   -0.196657
   9 C :   -0.198288
  10 C :   -0.408018
  11 C :   -0.447006
  12 C :   -0.447129
  13 C :   -0.407796
  14 Cl:    0.431782
  15 Cl:    0.424758
  16 Cl:    0.425102
  17 Cl:    0.431445
  18 O :    0.321895
  19 H :    0.160983
  20 H :    0.167711
  21 H :    0.168130

  Mayer bond orders larger than 0.100000
B(  0-C ,  1-C ) :   1.3843 B(  0-C ,  5-C ) :   1.3665 B(  0-C , 19-H ) :   0.9742
B(  1-C ,  2-C ) :   1.3642 B(  1-C , 20-H ) :   0.9841 B(  2-C ,  3-C ) :   1.3731
B(  2-C , 18-O ) :   0.9964 B(  3-C ,  4-C ) :   1.3723 B(  3-C ,  7-O ) :   0.9963
B(  4-C ,  5-C ) :   1.3545 B(  4-C , 21-H ) :   0.9717 B(  5-C ,  6-Cl) :   0.9607
B(  7-O ,  8-C ) :   1.0938 B(  8-C ,  9-C ) :   1.4097 B(  8-C , 13-C ) :   1.2937
B(  9-C , 10-C ) :   1.2921 B(  9-C , 18-O ) :   1.0921 B( 10-C , 11-C ) :   1.3080
B( 10-C , 17-Cl) :   1.2101 B( 11-C , 12-C ) :   1.3450 B( 11-C , 16-Cl) :   1.1624
B( 12-C , 13-C ) :   1.3099 B( 12-C , 15-Cl) :   1.1618 B( 13-C , 14-Cl) :   1.2077

FINAL SINGLE POINT ENERGY     -2910.280715767842

DIPOLE MOMENT
-------------

Method             : SCF
Type of density    : Electron Density
Multiplicity       :   1
Irrep              :   0
Energy             : -2910.2926760592422397 Eh
Relativity type    :
Basis              : AO
                                X                 Y                 Z
Electronic contribution:    -16.852286285      -4.275112228      -0.004385407
Nuclear contribution   :     17.599721947       4.855504166       0.004414981
                        -----------------------------------------
Total Dipole Moment    :      0.747435661       0.580391938       0.000029574
                        -----------------------------------------
Magnitude (a.u.)       :      0.946316475
Magnitude (Debye)      :      2.405345324

Rotational constants in cm-1:             0.014979             0.004403             0.003403
Rotational constants in MHz :           449.045575           131.988970           102.006115

                             ****ORCA TERMINATED NORMALLY****
TOTAL RUN TIME: 0 days 0 hours 10 minutes 20 seconds 248 msec
