                         Program Version 6.0.0  -   RELEASE  -
|  1> ! pbe def2-sv(p) def2/J RI DEFGRID1 loosescf d4 GCP(DFT/SV(P)) printgap
|  2> %output
|  3>     printlevel normal
|  4> end
|  5> * xyz 0 1
|  6> C -1.1457948801 1.2842645787 -1.0089813273
|  7> C -1.0079716988 0.1387742694 -0.0091495377
|  8> C -1.8058056351 -1.0831972329 -0.4789949009
|  9> C -1.5000480953 0.5783335248 1.3770040574
| 10> C 0.4404036152 -0.2969997822 0.1630761485
| 11> O 0.7790498423 -1.2530772519 0.8325600864
| 12> O 1.3009772418 0.4747144334 -0.4830361684
| 13> C 2.6947438172 0.1707106131 -0.3834536417
| 14> H -0.7701883671 0.9896615673 -1.9852030286
| 15> H -2.1940549986 1.5540484103 -1.1044747676
| 16> H -0.5886250153 2.1557293215 -0.6765615944
| 17> H -1.6416873675 -1.9177031274 0.1986865754
| 18> H -1.4930167997 -1.3820232271 -1.4767858264
| 19> H -2.8655590999 -0.8465406725 -0.5000079353
| 20> H -1.3531334125 -0.2235423616 2.096771306
| 21> H -0.9526253328 1.4545982878 1.7164718337
| 22> H -2.5574127811 0.8224341676 1.3303673255
| 23> H 2.8337776583 -0.9029162396 -0.2505300436
| 24> H 3.1182774627 0.7001577597 0.4701047813
| 25> H 3.1463180976 0.5150322012 -1.3094994684
| 26> *
| 27>
| 28>                          ****END OF INPUT****

CARTESIAN COORDINATES (ANGSTROEM)
---------------------------------
  C     -1.145795    1.284265   -1.008981
  C     -1.007972    0.138774   -0.009150
  C     -1.805806   -1.083197   -0.478995
  C     -1.500048    0.578334    1.377004
  C      0.440404   -0.297000    0.163076
  O      0.779050   -1.253077    0.832560
  O      1.300977    0.474714   -0.483036
  C      2.694744    0.170711   -0.383454
  H     -0.770188    0.989662   -1.985203
  H     -2.194055    1.554048   -1.104475
  H     -0.588625    2.155729   -0.676562
  H     -1.641687   -1.917703    0.198687
  H     -1.493017   -1.382023   -1.476786
  H     -2.865559   -0.846541   -0.500008
  H     -1.353133   -0.223542    2.096771
  H     -0.952625    1.454598    1.716472
  H     -2.557413    0.822434    1.330367
  H      2.833778   -0.902916   -0.250530
  H      3.118277    0.700158    0.470105
  H      3.146318    0.515032   -1.309499

 Total Charge           Charge          ....    0
 Multiplicity           Mult            ....    1
 Number of Electrons    NEL             ....   64
 Basis Dimension        Dim             ....  136

ORBITAL ENERGIES
----------------

  NO   OCC          E(Eh)            E(eV)
   0   2.0000     -18.802989      -511.6553
   1   2.0000     -18.731235      -509.7028
   2   2.0000     -10.002868      -272.1919
   3   2.0000      -9.942728      -270.5554
   4   2.0000      -9.915862      -269.8243
   5   2.0000      -9.880088      -268.8509
   6   2.0000      -9.877527      -268.7812
   7   2.0000      -9.875848      -268.7355
   8   2.0000      -1.008176       -27.4339
   9   2.0000      -0.908756       -24.7285
  10   2.0000      -0.746445       -20.3118
  11   2.0000      -0.666246       -18.1295
  12   2.0000      -0.617766       -16.8103
  13   2.0000      -0.613945       -16.7063
  14   2.0000      -0.545290       -14.8381
  15   2.0000      -0.495933       -13.4950
  16   2.0000      -0.441886       -12.0243
  17   2.0000      -0.438053       -11.9200
  18   2.0000      -0.411797       -11.2056
  19   2.0000      -0.394072       -10.7232
  20   2.0000      -0.390690       -10.6312
  21   2.0000      -0.382776       -10.4159
  22   2.0000      -0.362468        -9.8633
  23   2.0000      -0.343826        -9.3560
  24   2.0000      -0.330301        -8.9880
  25   2.0000      -0.324056        -8.8180
  26   2.0000      -0.321550        -8.7498
  27   2.0000      -0.295150        -8.0314
  28   2.0000      -0.292313        -7.9542
  29   2.0000      -0.289987        -7.8909
  30   2.0000      -0.256832        -6.9888
  31   2.0000      -0.216317        -5.8863
  32   0.0000      -0.018890        -0.5140
  33   0.0000       0.033173         0.9027
  34   0.0000       0.059792         1.6270
  35   0.0000       0.074532         2.0281
  36   0.0000       0.089864         2.4453

MULLIKEN ATOMIC CHARGES
-----------------------
   0 C :   -0.169937
   1 C :   -0.312202
   2 C :   -0.214703
   3 C :   -0.217593
   4 C :    0.186422
   5 O :   -0.208246
   6 O :   -0.229266
   7 C :   -0.122265
   8 H :    0.095016
   9 H :    0.091162
  10 H :    0.097233
  11 H :    0.118229
  12 H :    0.098013
  13 H :    0.097654
  14 H :    0.117066
  15 H :    0.099519
  16 H :    0.100916
  17 H :    0.130148
  18 H :    0.120658
  19 H :    0.122175
Sum of atomic charges:   -0.0000000

LOEWDIN ATOMIC CHARGES
----------------------
   0 C :   -0.318554
   1 C :   -0.126790
   2 C :   -0.309866
   3 C :   -0.308020
   4 C :    0.053110
   5 O :   -0.171276
   6 O :   -0.060635
   7 C :   -0.205895
   8 H :    0.118576
   9 H :    0.117293
  10 H :    0.118954
  11 H :    0.126524
  12 H :    0.118893
  13 H :    0.118527
  14 H :    0.126155
  15 H :    0.119038
  16 H :    0.119642
  17 H :    0.123503
  18 H :    0.120042
  19 H :    0.120780

  Mayer bond orders larger than 0.100000
B(  0-C ,  1-C ) :   1.0914 B(  0-C ,  8-H ) :   0.9453 B(  0-C ,  9-H ) :   0.9419
B(  0-C , 10-H ) :   0.9408 B(  1-C ,  2-C ) :   1.0712 B(  1-C ,  3-C ) :   1.0674
B(  1-C ,  4-C ) :   0.8952 B(  2-C , 11-H ) :   0.9400 B(  2-C , 12-H ) :   0.9503
B(  2-C , 13-H ) :   0.9484 B(  3-C , 14-H ) :   0.9429 B(  3-C , 15-H ) :   0.9485
B(  3-C , 16-H ) :   0.9483 B(  4-C ,  5-O ) :   2.0600 B(  4-C ,  6-O ) :   1.2491
B(  6-O ,  7-C ) :   0.9350 B(  7-C , 17-H ) :   0.9370 B(  7-C , 18-H ) :   0.9591
B(  7-C , 19-H ) :   0.9605

Dispersion correction           -0.016954683
FINAL SINGLE POINT ENERGY      -385.452940668370

DIPOLE MOMENT
-------------

Method             : SCF
Type of density    : Electron Density
Multiplicity       :   1
Irrep              :   0
Energy             :  -385.5267574950878497 Eh
Relativity type    :
Basis              : AO
                                X                 Y                 Z
Electronic contribution:      5.138668934      -2.188690285       1.006951226
Nuclear contribution   :     -4.958261803       2.726906939      -1.393305563
                        -----------------------------------------
Total Dipole Moment    :      0.180407131       0.538216654      -0.386354337
                        -----------------------------------------
Magnitude (a.u.)       :      0.686653896
Magnitude (Debye)      :      1.745335500

Rotational constants in cm-1:             0.105443             0.050340             0.044219
Rotational constants in MHz :          3161.102825          1509.150745          1325.661912

                             ****ORCA TERMINATED NORMALLY****
TOTAL RUN TIME: 0 days 0 hours 0 minutes 42 seconds 598 msec
