                         Program Version 6.0.0  -   RELEASE  -
|  1> ! pbe def2-sv(p) def2/J RI DEFGRID1 loosescf d4 GCP(DFT/SV(P)) printgap
|  2> %output
|  3>     printlevel normal
|  4> end
|  5> * xyz 0 1
|  6> C 3.0022008536 -1.873793967 -0.1966122453
|  7> C 1.711276515 -1.1503169091 -0.124075899
|  8> C 1.5436814494 0.1757309837 0.084831303
|  9> C 0.2388680273 0.814880538 0.1439568197
| 10> O 0.1550370284 2.0184485568 0.3407568692
| 11> N -0.863451196 -0.0225334523 -0.0346624432
| 12> C -0.7079071255 -1.3830848312 -0.2443801671
| 13> O -1.6253280463 -2.1715846234 -0.3994626581
| 14> N 0.5702040421 -1.8741321351 -0.2797456439
| 15> C -2.2888497527 0.4700311141 -0.0120388705
| 16> C -2.4292287951 1.975783601 0.2148322276
| 17> C -2.9257810427 0.1563451671 -1.3710273278
| 18> C -3.020829172 -0.2322816553 1.1375058827
| 19> Cl 2.8788138645 1.2562329479 0.3068990875
| 20> H 3.0986740068 -2.3618596326 -1.1636510958
| 21> H 3.0414256876 -2.6382257336 0.5759495364
| 22> H 3.8244964554 -1.1806251224 -0.0592401156
| 23> H 0.6316538346 -2.8758038047 -0.4371259929
| 24> H -3.4908214649 2.2096033231 0.2059247525
| 25> H -2.0178847886 2.2823657582 1.1715571884
| 26> H -1.9441025634 2.5510006573 -0.5677649427
| 27> H -3.9366834961 0.5509092211 -1.3876055136
| 28> H -2.9707009589 -0.9119885274 -1.5534037169
| 29> H -2.3545113148 0.6306592138 -2.1661327723
| 30> H -3.0683292164 -1.3049549811 0.9831464576
| 31> H -2.513888587 -0.0290439266 2.0783790957
| 32> H -4.0339422831 0.1519487073 1.1995387173
| 33> *
| 34>
| 35>                          ****END OF INPUT****

CARTESIAN COORDINATES (ANGSTROEM)
---------------------------------
  C      3.002201   -1.873794   -0.196612
  C      1.711277   -1.150317   -0.124076
  C      1.543681    0.175731    0.084831
  C      0.238868    0.814881    0.143957
  O      0.155037    2.018449    0.340757
  N     -0.863451   -0.022533   -0.034662
  C     -0.707907   -1.383085   -0.244380
  O     -1.625328   -2.171585   -0.399463
  N      0.570204   -1.874132   -0.279746
  C     -2.288850    0.470031   -0.012039
  C     -2.429229    1.975784    0.214832
  C     -2.925781    0.156345   -1.371027
  C     -3.020829   -0.232282    1.137506
  Cl     2.878814    1.256233    0.306899
  H      3.098674   -2.361860   -1.163651
  H      3.041426   -2.638226    0.575950
  H      3.824496   -1.180625   -0.059240
  H      0.631654   -2.875804   -0.437126
  H     -3.490821    2.209603    0.205925
  H     -2.017885    2.282366    1.171557
  H     -1.944103    2.551001   -0.567765
  H     -3.936683    0.550909   -1.387606
  H     -2.970701   -0.911989   -1.553404
  H     -2.354511    0.630659   -2.166133
  H     -3.068329   -1.304955    0.983146
  H     -2.513889   -0.029044    2.078379
  H     -4.033942    0.151949    1.199539

 Total Charge           Charge          ....    0
 Multiplicity           Mult            ....    1
 Number of Electrons    NEL             ....  114
 Basis Dimension        Dim             ....  226

ORBITAL ENERGIES
----------------

  NO   OCC          E(Eh)            E(eV)
   0   2.0000    -100.645137     -2738.6934
   1   2.0000     -18.731581      -509.7122
   2   2.0000     -18.725162      -509.5376
   3   2.0000     -14.062486      -382.6597
   4   2.0000     -14.060332      -382.6011
   5   2.0000     -10.030711      -272.9495
   6   2.0000     -10.000970      -272.1402
   7   2.0000      -9.974764      -271.4271
   8   2.0000      -9.953605      -270.8514
   9   2.0000      -9.950089      -270.7557
  10   2.0000      -9.917662      -269.8733
  11   2.0000      -9.870120      -268.5796
  12   2.0000      -9.870064      -268.5781
  13   2.0000      -9.867572      -268.5103
  14   2.0000      -9.180221      -249.8065
  15   2.0000      -7.012011      -190.8065
  16   2.0000      -7.000002      -190.4797
  17   2.0000      -6.999517      -190.4666
  18   2.0000      -0.985609       -26.8198
  19   2.0000      -0.943109       -25.6633
  20   2.0000      -0.894375       -24.3372
  21   2.0000      -0.859589       -23.3906
  22   2.0000      -0.799208       -21.7476
  23   2.0000      -0.735958       -20.0264
  24   2.0000      -0.717602       -19.5270
  25   2.0000      -0.663676       -18.0595
  26   2.0000      -0.618006       -16.8168
  27   2.0000      -0.616944       -16.7879
  28   2.0000      -0.600757       -16.3474
  29   2.0000      -0.590041       -16.0558
  30   2.0000      -0.537714       -14.6320
  31   2.0000      -0.524583       -14.2746
  32   2.0000      -0.488666       -13.2973
  33   2.0000      -0.450548       -12.2600
  34   2.0000      -0.430934       -11.7263
  35   2.0000      -0.413796       -11.2600
  36   2.0000      -0.413711       -11.2576
  37   2.0000      -0.396967       -10.8020
  38   2.0000      -0.393193       -10.6993
  39   2.0000      -0.389568       -10.6007
  40   2.0000      -0.383850       -10.4451
  41   2.0000      -0.375538       -10.2189
  42   2.0000      -0.365054        -9.9336
  43   2.0000      -0.361407        -9.8344
  44   2.0000      -0.348895        -9.4939
  45   2.0000      -0.340482        -9.2650
  46   2.0000      -0.330257        -8.9868
  47   2.0000      -0.324856        -8.8398
  48   2.0000      -0.312942        -8.5156
  49   2.0000      -0.300348        -8.1729
  50   2.0000      -0.290717        -7.9108
  51   2.0000      -0.285494        -7.7687
  52   2.0000      -0.269686        -7.3385
  53   2.0000      -0.236360        -6.4317
  54   2.0000      -0.232106        -6.3159
  55   2.0000      -0.206700        -5.6246
  56   2.0000      -0.203437        -5.5358
  57   0.0000      -0.069921        -1.9026
  58   0.0000      -0.025010        -0.6806
  59   0.0000       0.001412         0.0384
  60   0.0000       0.022718         0.6182
  61   0.0000       0.044964         1.2235

MULLIKEN ATOMIC CHARGES
-----------------------
   0 C :   -0.199048
   1 C :    0.027239
   2 C :   -0.152405
   3 C :    0.197844
   4 O :   -0.179417
   5 N :   -0.234899
   6 C :    0.171902
   7 O :   -0.208736
   8 N :   -0.197059
   9 C :   -0.181860
  10 C :   -0.161444
  11 C :   -0.219450
  12 C :   -0.218276
  13 Cl:   -0.042469
  14 H :    0.129746
  15 H :    0.129863
  16 H :    0.124262
  17 H :    0.246002
  18 H :    0.089692
  19 H :    0.108886
  20 H :    0.108273
  21 H :    0.097481
  22 H :    0.135872
  23 H :    0.097526
  24 H :    0.135467
  25 H :    0.097547
  26 H :    0.097461
Sum of atomic charges:    0.0000000

LOEWDIN ATOMIC CHARGES
----------------------
   0 C :   -0.333850
   1 C :   -0.017084
   2 C :   -0.218019
   3 C :    0.019771
   4 O :   -0.161891
   5 N :   -0.005335
   6 C :    0.048564
   7 O :   -0.194753
   8 N :   -0.085724
   9 C :   -0.016423
  10 C :   -0.322773
  11 C :   -0.333024
  12 C :   -0.332775
  13 Cl:    0.161893
  14 H :    0.143484
  15 H :    0.143564
  16 H :    0.138963
  17 H :    0.254354
  18 H :    0.116642
  19 H :    0.124068
  20 H :    0.123890
  21 H :    0.123706
  22 H :    0.129686
  23 H :    0.119854
  24 H :    0.129603
  25 H :    0.119971
  26 H :    0.123638

  Mayer bond orders larger than 0.100000
B(  0-C ,  1-C ) :   1.1637 B(  0-C , 14-H ) :   0.9187 B(  0-C , 15-H ) :   0.9187
B(  0-C , 16-H ) :   0.9087 B(  1-C ,  2-C ) :   1.6177 B(  1-C ,  8-N ) :   1.1653
B(  2-C ,  3-C ) :   1.0227 B(  2-C , 13-Cl) :   1.0570 B(  3-C ,  4-O ) :   2.0995
B(  3-C ,  5-N ) :   1.0277 B(  5-N ,  6-C ) :   1.0792 B(  5-N ,  9-C ) :   0.8532
B(  6-C ,  7-O ) :   1.9941 B(  6-C ,  8-N ) :   1.1084 B(  8-N , 17-H ) :   0.8375
B(  9-C , 10-C ) :   1.1332 B(  9-C , 11-C ) :   1.0823 B(  9-C , 12-C ) :   1.0821
B( 10-C , 18-H ) :   0.9219 B( 10-C , 19-H ) :   0.9314 B( 10-C , 20-H ) :   0.9316
B( 11-C , 21-H ) :   0.9442 B( 11-C , 22-H ) :   0.9207 B( 11-C , 23-H ) :   0.9437
B( 12-C , 24-H ) :   0.9211 B( 12-C , 25-H ) :   0.9436 B( 12-C , 26-H ) :   0.9441

Dispersion correction           -0.034303150
FINAL SINGLE POINT ENERGY     -1069.338025521478

DIPOLE MOMENT
-------------

Method             : SCF
Type of density    : Electron Density
Multiplicity       :   1
Irrep              :   0
Energy             : -1069.4268714978595654 Eh
Relativity type    :
Basis              : AO
                                X                 Y                 Z
Electronic contribution:     19.309060664       3.115915531       1.266745449
Nuclear contribution   :    -18.649115242      -4.443912153      -1.465672101
                        -----------------------------------------
Total Dipole Moment    :      0.659945422      -1.327996622      -0.198926652
                        -----------------------------------------
Magnitude (a.u.)       :      1.496220171
Magnitude (Debye)      :      3.803089439

Rotational constants in cm-1:             0.034016             0.016018             0.011772
Rotational constants in MHz :          1019.776456           480.222441           352.918824

                             ****ORCA TERMINATED NORMALLY****
TOTAL RUN TIME: 0 days 0 hours 0 minutes 14 seconds 593 msec
