                         Program Version 6.0.0  -   RELEASE  -
|  1> ! r2scan-3c def2/J RI DEFGRID2 scfconv6 printgap
|  2> %output
|  3>     printlevel normal
|  4> end
|  5> * xyz 0 1
|  6> C -3.0762353709 0.3690198872 0.000829022
|  7> C -1.6177608955 0.0227158241 -0.0005378736
|  8> C -1.1835424241 -1.2932112245 -0.0006364405
|  9> C 0.170800907 -1.5859656468 -0.0001449389
| 10> C 1.1268711244 -0.5860192782 0.0002598481
| 11> C 0.688917666 0.7440639515 -0.0001669328
| 12> C -0.665682684 1.035719675 -0.0004531539
| 13> O 1.6374862881 1.7253242737 -7.60743e-05
| 14> C 2.5950328818 -0.8799819768 0.0005528787
| 15> H -3.3235132536 0.9716156286 -0.8716107267
| 16> H -3.6861884303 -0.5298762299 -0.0121789924
| 17> H -3.3268144993 0.9476423172 0.8885673929
| 18> H -1.9041629691 -2.0975077138 -0.0007196184
| 19> H 0.4929408454 -2.6172026691 -6.94915e-05
| 20> H -0.9905581025 2.0674710864 -0.0003884188
| 21> H 1.2167135114 2.5975239203 -0.0001525057
| 22> H 3.0634332053 -0.4440808655 -0.8810948326
| 23> H 3.06575437 -0.4290835071 0.8731694896
| 24> H 2.7750374631 -1.9511110307 0.0092316543
| 25> *
| 26>
| 27>                          ****END OF INPUT****

CARTESIAN COORDINATES (ANGSTROEM)
---------------------------------
  C     -3.076235    0.369020    0.000829
  C     -1.617761    0.022716   -0.000538
  C     -1.183542   -1.293211   -0.000636
  C      0.170801   -1.585966   -0.000145
  C      1.126871   -0.586019    0.000260
  C      0.688918    0.744064   -0.000167
  C     -0.665683    1.035720   -0.000453
  O      1.637486    1.725324   -0.000076
  C      2.595033   -0.879982    0.000553
  H     -3.323513    0.971616   -0.871611
  H     -3.686188   -0.529876   -0.012179
  H     -3.326814    0.947642    0.888567
  H     -1.904163   -2.097508   -0.000720
  H      0.492941   -2.617203   -0.000069
  H     -0.990558    2.067471   -0.000388
  H      1.216714    2.597524   -0.000153
  H      3.063433   -0.444081   -0.881095
  H      3.065754   -0.429084    0.873169
  H      2.775037   -1.951111    0.009232

 Total Charge           Charge          ....    0
 Multiplicity           Mult            ....    1
 Number of Electrons    NEL             ....   66
 Basis Dimension        Dim             ....  226

ORBITAL ENERGIES
----------------

  NO   OCC          E(Eh)            E(eV)
   0   2.0000     -18.984165      -516.5854
   1   2.0000     -10.090002      -274.5629
   2   2.0000     -10.039005      -273.1752
   3   2.0000     -10.033204      -273.0174
   4   2.0000     -10.026671      -272.8396
   5   2.0000     -10.026654      -272.8391
   6   2.0000     -10.025953      -272.8201
   7   2.0000     -10.019931      -272.6562
   8   2.0000     -10.018997      -272.6308
   9   2.0000      -1.026854       -27.9421
  10   2.0000      -0.823043       -22.3961
  11   2.0000      -0.754071       -20.5193
  12   2.0000      -0.704145       -19.1608
  13   2.0000      -0.686379       -18.6773
  14   2.0000      -0.622433       -16.9373
  15   2.0000      -0.591427       -16.0935
  16   2.0000      -0.541760       -14.7420
  17   2.0000      -0.503369       -13.6974
  18   2.0000      -0.451691       -12.2911
  19   2.0000      -0.441414       -12.0115
  20   2.0000      -0.401514       -10.9258
  21   2.0000      -0.396178       -10.7805
  22   2.0000      -0.385627       -10.4935
  23   2.0000      -0.373497       -10.1634
  24   2.0000      -0.367469        -9.9993
  25   2.0000      -0.358773        -9.7627
  26   2.0000      -0.352708        -9.5977
  27   2.0000      -0.335392        -9.1265
  28   2.0000      -0.314024        -8.5450
  29   2.0000      -0.299875        -8.1600
  30   2.0000      -0.298474        -8.1219
  31   2.0000      -0.220213        -5.9923
  32   2.0000      -0.196993        -5.3604
  33   0.0000      -0.025212        -0.6861
  34   0.0000      -0.008618        -0.2345
  35   0.0000       0.055945         1.5223
  36   0.0000       0.080385         2.1874
  37   0.0000       0.097689         2.6582

MULLIKEN ATOMIC CHARGES
-----------------------
   0 C :   -0.547548
   1 C :    0.239586
   2 C :   -0.268852
   3 C :   -0.205804
   4 C :    0.040091
   5 C :    0.435833
   6 C :   -0.431290
   7 O :   -0.408640
   8 C :   -0.529543
   9 H :    0.159370
  10 H :    0.151748
  11 H :    0.160285
  12 H :    0.143656
  13 H :    0.145904
  14 H :    0.130910
  15 H :    0.309271
  16 H :    0.164621
  17 H :    0.164359
  18 H :    0.146041
Sum of atomic charges:   -0.0000000

LOEWDIN ATOMIC CHARGES
----------------------
   0 C :   -0.389939
   1 C :   -0.094259
   2 C :   -0.189014
   3 C :   -0.151201
   4 C :   -0.084519
   5 C :    0.191340
   6 C :   -0.169528
   7 O :   -0.503961
   8 C :   -0.375338
   9 H :    0.162994
  10 H :    0.159450
  11 H :    0.163186
  12 H :    0.166735
  13 H :    0.168349
  14 H :    0.168889
  15 H :    0.283684
  16 H :    0.168254
  17 H :    0.168349
  18 H :    0.156531

  Mayer bond orders larger than 0.100000
B(  0-C ,  1-C ) :   0.7706 B(  0-C ,  9-H ) :   0.9785 B(  0-C , 10-H ) :   0.9952
B(  0-C , 11-H ) :   0.9777 B(  1-C ,  2-C ) :   1.4289 B(  1-C ,  6-C ) :   1.3811
B(  2-C ,  3-C ) :   1.4398 B(  2-C , 12-H ) :   0.9363 B(  3-C ,  4-C ) :   1.4239
B(  3-C , 13-H ) :   0.9313 B(  4-C ,  5-C ) :   1.4939 B(  4-C ,  8-C ) :   0.8092
B(  5-C ,  6-C ) :   1.3014 B(  5-C ,  7-O ) :   0.9326 B(  6-C , 14-H ) :   0.9508
B(  7-O , 15-H ) :   0.8834 B(  8-C , 16-H ) :   0.9735 B(  8-C , 17-H ) :   0.9738
B(  8-C , 18-H ) :   0.9950

Dispersion correction           -0.006140307
FINAL SINGLE POINT ENERGY      -386.005981650747

DIPOLE MOMENT
-------------

Method             : SCF
Type of density    : Electron Density
Multiplicity       :   1
Irrep              :   0
Energy             :  -386.0070583000499482 Eh
Relativity type    :
Basis              : AO
                                X                 Y                 Z
Electronic contribution:      2.120064544       1.785197640      -0.003688711
Nuclear contribution   :     -2.431255634      -1.367244376       0.004458880
                        -----------------------------------------
Total Dipole Moment    :     -0.311191090       0.417953265       0.000770169
                        -----------------------------------------
Magnitude (a.u.)       :      0.521081010
Magnitude (Debye)      :      1.324482670

Rotational constants in cm-1:             0.102510             0.043842             0.031061
Rotational constants in MHz :          3073.182712          1314.352762           931.179370

                             ****ORCA TERMINATED NORMALLY****
TOTAL RUN TIME: 0 days 0 hours 0 minutes 28 seconds 934 msec
