                         Program Version 6.0.0  -   RELEASE  -
|  1> ! r2scan-3c def2/J RI DEFGRID2 scfconv6 printgap
|  2> %output
|  3>     printlevel normal
|  4> end
|  5> %cpcm
|  6>     smd true
|  7>     smdsolvent "water"
|  8> end
|  9> * xyz 0 1
| 10> C -3.0762353709 0.3690198872 0.000829022
| 11> C -1.6177608955 0.0227158241 -0.0005378736
| 12> C -1.1835424241 -1.2932112245 -0.0006364405
| 13> C 0.170800907 -1.5859656468 -0.0001449389
| 14> C 1.1268711244 -0.5860192782 0.0002598481
| 15> C 0.688917666 0.7440639515 -0.0001669328
| 16> C -0.665682684 1.035719675 -0.0004531539
| 17> O 1.6374862881 1.7253242737 -7.60743e-05
| 18> C 2.5950328818 -0.8799819768 0.0005528787
| 19> H -3.3235132536 0.9716156286 -0.8716107267
| 20> H -3.6861884303 -0.5298762299 -0.0121789924
| 21> H -3.3268144993 0.9476423172 0.8885673929
| 22> H -1.9041629691 -2.0975077138 -0.0007196184
| 23> H 0.4929408454 -2.6172026691 -6.94915e-05
| 24> H -0.9905581025 2.0674710864 -0.0003884188
| 25> H 1.2167135114 2.5975239203 -0.0001525057
| 26> H 3.0634332053 -0.4440808655 -0.8810948326
| 27> H 3.06575437 -0.4290835071 0.8731694896
| 28> H 2.7750374631 -1.9511110307 0.0092316543
| 29> *
| 30>
| 31>                          ****END OF INPUT****

CARTESIAN COORDINATES (ANGSTROEM)
---------------------------------
  C     -3.076235    0.369020    0.000829
  C     -1.617761    0.022716   -0.000538
  C     -1.183542   -1.293211   -0.000636
  C      0.170801   -1.585966   -0.000145
  C      1.126871   -0.586019    0.000260
  C      0.688918    0.744064   -0.000167
  C     -0.665683    1.035720   -0.000453
  O      1.637486    1.725324   -0.000076
  C      2.595033   -0.879982    0.000553
  H     -3.323513    0.971616   -0.871611
  H     -3.686188   -0.529876   -0.012179
  H     -3.326814    0.947642    0.888567
  H     -1.904163   -2.097508   -0.000720
  H      0.492941   -2.617203   -0.000069
  H     -0.990558    2.067471   -0.000388
  H      1.216714    2.597524   -0.000153
  H      3.063433   -0.444081   -0.881095
  H      3.065754   -0.429084    0.873169
  H      2.775037   -1.951111    0.009232

 Total Charge           Charge          ....    0
 Multiplicity           Mult            ....    1
 Number of Electrons    NEL             ....   66
 Basis Dimension        Dim             ....  226

ORBITAL ENERGIES
----------------

  NO   OCC          E(Eh)            E(eV)
   0   2.0000     -18.981598      -516.5155
   1   2.0000     -10.090992      -274.5899
   2   2.0000     -10.038993      -273.1749
   3   2.0000     -10.035394      -273.0770
   4   2.0000     -10.027526      -272.8628
   5   2.0000     -10.023785      -272.7611
   6   2.0000     -10.019430      -272.6425
   7   2.0000     -10.018396      -272.6144
   8   2.0000     -10.017220      -272.5824
   9   2.0000      -1.024277       -27.8720
  10   2.0000      -0.824712       -22.4416
  11   2.0000      -0.753498       -20.5037
  12   2.0000      -0.704304       -19.1651
  13   2.0000      -0.683511       -18.5993
  14   2.0000      -0.619877       -16.8677
  15   2.0000      -0.589187       -16.0326
  16   2.0000      -0.540044       -14.6953
  17   2.0000      -0.499831       -13.6011
  18   2.0000      -0.450859       -12.2685
  19   2.0000      -0.438464       -11.9312
  20   2.0000      -0.402652       -10.9567
  21   2.0000      -0.392517       -10.6809
  22   2.0000      -0.380779       -10.3615
  23   2.0000      -0.369710       -10.0603
  24   2.0000      -0.364260        -9.9120
  25   2.0000      -0.357574        -9.7301
  26   2.0000      -0.352819        -9.6007
  27   2.0000      -0.332119        -9.0374
  28   2.0000      -0.311466        -8.4754
  29   2.0000      -0.301609        -8.2072
  30   2.0000      -0.298042        -8.1101
  31   2.0000      -0.222883        -6.0650
  32   2.0000      -0.200688        -5.4610
  33   0.0000      -0.027250        -0.7415
  34   0.0000      -0.011936        -0.3248
  35   0.0000       0.076647         2.0857
  36   0.0000       0.089754         2.4423
  37   0.0000       0.106245         2.8911

MULLIKEN ATOMIC CHARGES
-----------------------
   0 C :   -0.562425
   1 C :    0.208000
   2 C :   -0.303817
   3 C :   -0.246115
   4 C :    0.024173
   5 C :    0.351843
   6 C :   -0.397662
   7 O :   -0.450345
   8 C :   -0.567045
   9 H :    0.175725
  10 H :    0.170260
  11 H :    0.176430
  12 H :    0.173918
  13 H :    0.176671
  14 H :    0.177171
  15 H :    0.367958
  16 H :    0.177601
  17 H :    0.176980
  18 H :    0.170680
Sum of atomic charges:   -0.0000000

LOEWDIN ATOMIC CHARGES
----------------------
   0 C :   -0.394708
   1 C :   -0.104491
   2 C :   -0.206275
   3 C :   -0.166792
   4 C :   -0.098227
   5 C :    0.179701
   6 C :   -0.165315
   7 O :   -0.518871
   8 C :   -0.383437
   9 H :    0.169533
  10 H :    0.164602
  11 H :    0.169686
  12 H :    0.176545
  13 H :    0.179067
  14 H :    0.187215
  15 H :    0.305204
  16 H :    0.170680
  17 H :    0.170658
  18 H :    0.165223

  Mayer bond orders larger than 0.100000
B(  0-C ,  1-C ) :   0.7964 B(  0-C ,  9-H ) :   0.9701 B(  0-C , 10-H ) :   0.9909
B(  0-C , 11-H ) :   0.9694 B(  1-C ,  2-C ) :   1.3791 B(  1-C ,  6-C ) :   1.3312
B(  2-C ,  3-C ) :   1.4005 B(  2-C , 12-H ) :   0.9554 B(  3-C ,  4-C ) :   1.3949
B(  3-C , 13-H ) :   0.9508 B(  4-C ,  5-C ) :   1.4287 B(  4-C ,  8-C ) :   0.8110
B(  5-C ,  6-C ) :   1.3356 B(  5-C ,  7-O ) :   0.9505 B(  6-C , 14-H ) :   0.9643
B(  7-O , 15-H ) :   0.8527 B(  8-C , 16-H ) :   0.9720 B(  8-C , 17-H ) :   0.9723
B(  8-C , 18-H ) :   0.9845

Dispersion correction           -0.006140307
FINAL SINGLE POINT ENERGY      -386.013988348329

DIPOLE MOMENT
-------------

Method             : SCF
Type of density    : Electron Density
Multiplicity       :   1
Irrep              :   0
Energy             :  -386.0150649976318391 Eh
Relativity type    :
Basis              : AO
                                X                 Y                 Z
Electronic contribution:      1.939081624       1.999447260      -0.003361652
Nuclear contribution   :     -2.431255634      -1.367244376       0.004458880
                        -----------------------------------------
Total Dipole Moment    :     -0.492174010       0.632202884       0.001097228
                        -----------------------------------------
Magnitude (a.u.)       :      0.801197196
Magnitude (Debye)      :      2.036481430

Rotational constants in cm-1:             0.102510             0.043842             0.031061
Rotational constants in MHz :          3073.182712          1314.352762           931.179370

                             ****ORCA TERMINATED NORMALLY****
TOTAL RUN TIME: 0 days 0 hours 0 minutes 34 seconds 879 msec
