                         Program Version 6.0.0  -   RELEASE  -
|  1> ! pbe def2-sv(p) def2/J RI DEFGRID1 loosescf d4 GCP(DFT/SV(P)) printgap
|  2> %output
|  3>     printlevel normal
|  4> end
|  5> * xyz 0 1
|  6> C 3.4668346129 -2.2067425045 1.6906994073
|  7> C 2.0753533796 -2.1290011276 1.0966601297
|  8> O 1.6796104681 -0.7613894486 0.8735396968
|  9> P 2.3167869678 0.1085821368 -0.310013176
| 10> S 2.9533570097 -0.9006447837 -1.8549523464
| 11> O 3.4619190623 0.9913548671 0.3335462565
| 12> C 3.2555454719 1.7764446709 1.5359326866
| 13> C 4.6181893397 2.1260311816 2.0967543246
| 14> S 0.7363950161 1.4829576331 -0.638211492
| 15> C -0.1897142088 0.4188635772 -1.7753694661
| 16> S -0.9759511892 -0.984927285 -0.9550607667
| 17> P -2.6026256185 0.1351986002 -0.1377607956
| 18> S -3.4506382207 1.4031789394 -1.3590402418
| 19> O -2.0252019179 0.8584582881 1.1355530716
| 20> C -1.3897173268 0.1662318406 2.2402432221
| 21> C -0.644717488 1.203144071 3.0542850107
| 22> O -3.5397048778 -0.9767421763 0.504348189
| 23> C -4.5793246173 -1.6449288058 -0.2349598823
| 24> C -4.0321411273 -2.4811680187 -1.3729707257
| 25> H 4.1867264265 -1.7826582727 0.9906030011
| 26> H 3.5134989018 -1.6551121493 2.6260689632
| 27> H 3.723890965 -3.2453627484 1.8729572603
| 28> H 1.3182727217 -2.5216134979 1.776787452
| 29> H 2.0294614557 -2.6646668151 0.1435609139
| 30> H 2.6937363332 2.6717532223 1.2575439954
| 31> H 2.6694236694 1.1852617541 2.2438442544
| 32> H 4.4910673293 2.7352428728 2.9857895691
| 33> H 5.1630202069 1.2219888563 2.3535509753
| 34> H 5.1918356253 2.6803270512 1.3596693224
| 35> H 0.4946892844 0.0125932691 -2.5206195598
| 36> H -0.9586432666 1.0403437949 -2.2366201682
| 37> H -2.1703157876 -0.3269024602 2.8222069807
| 38> H -0.7093768643 -0.587310881 1.8329364487
| 39> H 0.1025040439 1.691837809 2.433850314
| 40> H -1.3365187606 1.9560565344 3.4202591917
| 41> H -0.1598564961 0.7178937607 3.8951120435
| 42> H -5.0744714679 -2.2610503421 0.516946658
| 43> H -5.2725678581 -0.8878349453 -0.6131922639
| 44> H -3.2587334462 -3.1548334229 -1.0123558029
| 45> H -4.8385398364 -3.0593517672 -1.8125099721
| 46> H -3.6056249579 -1.8346220061 -2.1386251285
| 47> *
| 48>
| 49>                          ****END OF INPUT****

CARTESIAN COORDINATES (ANGSTROEM)
---------------------------------
  C      3.466835   -2.206743    1.690699
  C      2.075353   -2.129001    1.096660
  O      1.679610   -0.761389    0.873540
  P      2.316787    0.108582   -0.310013
  S      2.953357   -0.900645   -1.854952
  O      3.461919    0.991355    0.333546
  C      3.255545    1.776445    1.535933
  C      4.618189    2.126031    2.096754
  S      0.736395    1.482958   -0.638211
  C     -0.189714    0.418864   -1.775369
  S     -0.975951   -0.984927   -0.955061
  P     -2.602626    0.135199   -0.137761
  S     -3.450638    1.403179   -1.359040
  O     -2.025202    0.858458    1.135553
  C     -1.389717    0.166232    2.240243
  C     -0.644717    1.203144    3.054285
  O     -3.539705   -0.976742    0.504348
  C     -4.579325   -1.644929   -0.234960
  C     -4.032141   -2.481168   -1.372971
  H      4.186726   -1.782658    0.990603
  H      3.513499   -1.655112    2.626069
  H      3.723891   -3.245363    1.872957
  H      1.318273   -2.521613    1.776787
  H      2.029461   -2.664667    0.143561
  H      2.693736    2.671753    1.257544
  H      2.669424    1.185262    2.243844
  H      4.491067    2.735243    2.985790
  H      5.163020    1.221989    2.353551
  H      5.191836    2.680327    1.359669
  H      0.494689    0.012593   -2.520620
  H     -0.958643    1.040344   -2.236620
  H     -2.170316   -0.326902    2.822207
  H     -0.709377   -0.587311    1.832936
  H      0.102504    1.691838    2.433850
  H     -1.336519    1.956057    3.420259
  H     -0.159856    0.717894    3.895112
  H     -5.074471   -2.261050    0.516947
  H     -5.272568   -0.887835   -0.613192
  H     -3.258733   -3.154833   -1.012356
  H     -4.838540   -3.059352   -1.812510
  H     -3.605625   -1.834622   -2.138625

 Total Charge           Charge          ....    0
 Multiplicity           Mult            ....    1
 Number of Electrons    NEL             ....  202
 Basis Dimension        Dim             ....  334

ORBITAL ENERGIES
----------------

  NO   OCC          E(Eh)            E(eV)
   0   2.0000     -88.042229     -2395.7508
   1   2.0000     -88.040830     -2395.7128
   2   2.0000     -87.991179     -2394.3617
   3   2.0000     -87.985408     -2394.2047
   4   2.0000     -76.429137     -2079.7426
   5   2.0000     -76.425805     -2079.6519
   6   2.0000     -18.800550      -511.5890
   7   2.0000     -18.797029      -511.4932
   8   2.0000     -18.796030      -511.4660
   9   2.0000     -18.790131      -511.3055
  10   2.0000      -9.965823      -271.1838
  11   2.0000      -9.956255      -270.9235
  12   2.0000      -9.955911      -270.9141
  13   2.0000      -9.952791      -270.8292
  14   2.0000      -9.951772      -270.8015
  15   2.0000      -9.897409      -269.3222
  16   2.0000      -9.891745      -269.1681
  17   2.0000      -9.888260      -269.0732
  18   2.0000      -9.885675      -269.0029
  19   2.0000      -7.687484      -209.1871
  20   2.0000      -7.685634      -209.1367
  21   2.0000      -7.636410      -207.7973
  22   2.0000      -7.630725      -207.6426
  23   2.0000      -6.427187      -174.8927
  24   2.0000      -6.423385      -174.7892
  25   2.0000      -5.715208      -155.5187
  26   2.0000      -5.713316      -155.4672
  27   2.0000      -5.712213      -155.4372
  28   2.0000      -5.710278      -155.3846
  29   2.0000      -5.704355      -155.2234
  30   2.0000      -5.702698      -155.1783
  31   2.0000      -5.665425      -154.1640
  32   2.0000      -5.659669      -154.0074
  33   2.0000      -5.657094      -153.9374
  34   2.0000      -5.656353      -153.9172
  35   2.0000      -5.651358      -153.7813
  36   2.0000      -5.650810      -153.7664
  37   2.0000      -4.650150      -126.5370
  38   2.0000      -4.648548      -126.4934
  39   2.0000      -4.647635      -126.4686
  40   2.0000      -4.646342      -126.4334
  41   2.0000      -4.645007      -126.3971
  42   2.0000      -4.643631      -126.3596
  43   2.0000      -0.991890       -26.9907
  44   2.0000      -0.988838       -26.9076
  45   2.0000      -0.951138       -25.8818
  46   2.0000      -0.945533       -25.7293
  47   2.0000      -0.764894       -20.8138
  48   2.0000      -0.726663       -19.7735
  49   2.0000      -0.714975       -19.4555
  50   2.0000      -0.697948       -18.9921
  51   2.0000      -0.690744       -18.7961
  52   2.0000      -0.677060       -18.4237
  53   2.0000      -0.653147       -17.7730
  54   2.0000      -0.639601       -17.4044
  55   2.0000      -0.599004       -16.2997
  56   2.0000      -0.591591       -16.0980
  57   2.0000      -0.580556       -15.7977
  58   2.0000      -0.571909       -15.5624
  59   2.0000      -0.561567       -15.2810
  60   2.0000      -0.513002       -13.9595
  61   2.0000      -0.504317       -13.7232
  62   2.0000      -0.486635       -13.2420
  63   2.0000      -0.475474       -12.9383
  64   2.0000      -0.462805       -12.5936
  65   2.0000      -0.449825       -12.2404
  66   2.0000      -0.447784       -12.1848
  67   2.0000      -0.439354       -11.9554
  68   2.0000      -0.431132       -11.7317
  69   2.0000      -0.419506       -11.4153
  70   2.0000      -0.409428       -11.1411
  71   2.0000      -0.401185       -10.9168
  72   2.0000      -0.393946       -10.7198
  73   2.0000      -0.391740       -10.6598
  74   2.0000      -0.378322       -10.2947
  75   2.0000      -0.373933       -10.1752
  76   2.0000      -0.364874        -9.9287
  77   2.0000      -0.363824        -9.9002
  78   2.0000      -0.362878        -9.8744
  79   2.0000      -0.357325        -9.7233
  80   2.0000      -0.354127        -9.6363
  81   2.0000      -0.347493        -9.4558
  82   2.0000      -0.346787        -9.4366
  83   2.0000      -0.340559        -9.2671
  84   2.0000      -0.338263        -9.2046
  85   2.0000      -0.324095        -8.8191
  86   2.0000      -0.318963        -8.6794
  87   2.0000      -0.315500        -8.5852
  88   2.0000      -0.301624        -8.2076
  89   2.0000      -0.296150        -8.0587
  90   2.0000      -0.286712        -7.8018
  91   2.0000      -0.276928        -7.5356
  92   2.0000      -0.275212        -7.4889
  93   2.0000      -0.266637        -7.2556
  94   2.0000      -0.260404        -7.0860
  95   2.0000      -0.233862        -6.3637
  96   2.0000      -0.220125        -5.9899
  97   2.0000      -0.213895        -5.8204
  98   2.0000      -0.206224        -5.6117
  99   2.0000      -0.204183        -5.5561
 100   2.0000      -0.198771        -5.4088
 101   0.0000      -0.044360        -1.2071
 102   0.0000      -0.024403        -0.6640
 103   0.0000      -0.005220        -0.1420
 104   0.0000       0.001313         0.0357
 105   0.0000       0.012808         0.3485

MULLIKEN ATOMIC CHARGES
-----------------------
   0 C :   -0.315491
   1 C :   -0.008409
   2 O :   -0.381515
   3 P :    0.613445
   4 S :   -0.306758
   5 O :   -0.369554
   6 C :   -0.054276
   7 C :   -0.271286
   8 S :   -0.084135
   9 C :   -0.368060
  10 S :   -0.094350
  11 P :    0.603271
  12 S :   -0.313007
  13 O :   -0.354548
  14 C :   -0.027258
  15 C :   -0.288881
  16 O :   -0.386568
  17 C :    0.001267
  18 C :   -0.322833
  19 H :    0.132443
  20 H :    0.110866
  21 H :    0.116001
  22 H :    0.103048
  23 H :    0.116112
  24 H :    0.121964
  25 H :    0.118707
  26 H :    0.113589
  27 H :    0.119670
  28 H :    0.126484
  29 H :    0.195689
  30 H :    0.193157
  31 H :    0.104327
  32 H :    0.125177
  33 H :    0.124625
  34 H :    0.118900
  35 H :    0.103455
  36 H :    0.104803
  37 H :    0.113948
  38 H :    0.117828
  39 H :    0.115245
  40 H :    0.132908
Sum of atomic charges:   -0.0000000

LOEWDIN ATOMIC CHARGES
----------------------
   0 C :   -0.365839
   1 C :   -0.122370
   2 O :   -0.251752
   3 P :    0.570516
   4 S :   -0.301686
   5 O :   -0.243671
   6 C :   -0.120683
   7 C :   -0.348132
   8 S :    0.083679
   9 C :   -0.487339
  10 S :    0.078691
  11 P :    0.572000
  12 S :   -0.312682
  13 O :   -0.234249
  14 C :   -0.118687
  15 C :   -0.352682
  16 O :   -0.249562
  17 C :   -0.114811
  18 C :   -0.371905
  19 H :    0.126100
  20 H :    0.121099
  21 H :    0.132692
  22 H :    0.114523
  23 H :    0.111105
  24 H :    0.114657
  25 H :    0.109931
  26 H :    0.132001
  27 H :    0.128435
  28 H :    0.132773
  29 H :    0.130331
  30 H :    0.128956
  31 H :    0.112760
  32 H :    0.107012
  33 H :    0.121556
  34 H :    0.128876
  35 H :    0.126370
  36 H :    0.118610
  37 H :    0.114461
  38 H :    0.123028
  39 H :    0.132314
  40 H :    0.123572

  Mayer bond orders larger than 0.100000
B(  0-C ,  1-C ) :   1.1621 B(  0-C , 19-H ) :   0.9340 B(  0-C , 20-H ) :   0.9460
B(  0-C , 21-H ) :   0.9394 B(  1-C ,  2-O ) :   0.9041 B(  1-C , 22-H ) :   0.9305
B(  1-C , 23-H ) :   0.9127 B(  2-O ,  3-P ) :   1.0628 B(  3-P ,  4-S ) :   1.6387
B(  3-P ,  5-O ) :   1.1218 B(  3-P ,  8-S ) :   0.9713 B(  4-S ,  8-S ) :   0.1041
B(  5-O ,  6-C ) :   0.8984 B(  6-C ,  7-C ) :   1.1646 B(  6-C , 24-H ) :   0.9248
B(  6-C , 25-H ) :   0.9106 B(  7-C , 26-H ) :   0.9401 B(  7-C , 27-H ) :   0.9501
B(  7-C , 28-H ) :   0.9480 B(  8-S ,  9-C ) :   1.0046 B(  9-C , 10-S ) :   1.0068
B(  9-C , 29-H ) :   0.8732 B(  9-C , 30-H ) :   0.8668 B( 10-S , 11-P ) :   0.9467
B( 10-S , 12-S ) :   0.1071 B( 11-P , 12-S ) :   1.6373 B( 11-P , 13-O ) :   1.1462
B( 11-P , 16-O ) :   1.0898 B( 13-O , 14-C ) :   0.8874 B( 14-C , 15-C ) :   1.1688
B( 14-C , 31-H ) :   0.9288 B( 14-C , 32-H ) :   0.9012 B( 15-C , 33-H ) :   0.9379
B( 15-C , 34-H ) :   0.9475 B( 15-C , 35-H ) :   0.9409 B( 16-O , 17-C ) :   0.9057
B( 17-C , 18-C ) :   1.1656 B( 17-C , 36-H ) :   0.9345 B( 17-C , 37-H ) :   0.9205
B( 18-C , 38-H ) :   0.9433 B( 18-C , 39-H ) :   0.9366 B( 18-C , 40-H ) :   0.9336

Dispersion correction           -0.065126094
FINAL SINGLE POINT ENERGY     -2929.522043764213

DIPOLE MOMENT
-------------

Method             : SCF
Type of density    : Electron Density
Multiplicity       :   1
Irrep              :   0
Energy             : -2929.6426957272883556 Eh
Relativity type    :
Basis              : AO
                                X                 Y                 Z
Electronic contribution:     -7.691928288       6.935673357     -19.383556083
Nuclear contribution   :      7.957347577      -7.814318187      21.406726519
                        -----------------------------------------
Total Dipole Moment    :      0.265419289      -0.878644830       2.023170436
                        -----------------------------------------
Magnitude (a.u.)       :      2.221639653
Magnitude (Debye)      :      5.646959228

Rotational constants in cm-1:             0.012730             0.004777             0.004546
Rotational constants in MHz :           381.640250           143.219829           136.275090

                             ****ORCA TERMINATED NORMALLY****
TOTAL RUN TIME: 0 days 0 hours 0 minutes 21 seconds 763 msec
