                         Program Version 6.0.0  -   RELEASE  -
|  1> ! pbe def2-sv(p) def2/J RI DEFGRID1 loosescf d4 GCP(DFT/SV(P)) printgap
|  2> %output
|  3>     printlevel normal
|  4> end
|  5> * xyz 0 1
|  6> C -0.19020011 2.6027661095 2.4403455686
|  7> C 0.7032682933 1.3819282853 2.5067718163
|  8> O 1.0301082688 1.0002385987 1.1547383886
|  9> P 1.6393108276 -0.418431393 0.8227849536
| 10> S 0.8917119241 -1.9812331003 1.754076247
| 11> O 3.1677046665 -0.1523378171 1.2022951134
| 12> C 4.1209429508 -1.2098133746 1.394724764
| 13> C 4.4225326563 -1.9555075111 0.1105634899
| 14> S 1.6153308896 -0.4127491418 -1.2796431549
| 15> C 0.3629246907 -1.6942045132 -1.5802004806
| 16> S -1.1863129198 -1.1006675728 -2.3369857745
| 17> P -1.84526826 0.32267849 -0.9071173262
| 18> S -3.6925512739 0.9006916807 -1.1958696033
| 19> O -0.7641050369 1.4770676631 -0.9124155499
| 20> C -0.6277128759 2.3408509664 -2.0591791015
| 21> C 0.3424984238 3.4426720972 -1.6870186875
| 22> O -1.475376509 -0.2961658123 0.5075277944
| 23> C -2.4606419465 -1.0566988633 1.2425491449
| 24> C -3.1407898179 -0.1856218416 2.2783666585
| 25> H -0.494036657 2.8827194714 3.4440075729
| 26> H 0.3440155942 3.4286033313 1.9799999007
| 27> H -1.0717238855 2.3820891095 1.8429586087
| 28> H 0.1987930514 0.5388885026 2.9922409165
| 29> H 1.6349925347 1.5930884486 3.0388919331
| 30> H 5.0039224061 -0.6983014749 1.780241132
| 31> H 3.7275800336 -1.8945786452 2.1530753434
| 32> H 4.6990171741 -1.2579902308 -0.6759575085
| 33> H 5.2401147371 -2.6480311607 0.2832817699
| 34> H 3.5464178664 -2.5181526268 -0.2088090658
| 35> H 0.1462744008 -2.1994542513 -0.6356776372
| 36> H 0.7675848474 -2.3890250267 -2.3119885432
| 37> H -0.2508727699 1.7475299053 -2.8989501006
| 38> H -1.6158309646 2.7369585058 -2.3166095598
| 39> H -0.0607053014 4.0356525726 -0.871329146
| 40> H 1.2870070356 3.0061854397 -1.3728149888
| 41> H 0.5071437367 4.0795160941 -2.5497584722
| 42> H -3.1940006334 -1.4686536287 0.5423871682
| 43> H -1.899510249 -1.870360865 1.7085750933
| 44> H -3.6801846237 0.6223596843 1.7879309826
| 45> H -3.8433852862 -0.7905446063 2.842448954
| 46> H -2.4054376599 0.2377213537 2.9568728777
| 47> *
| 48>
| 49>                          ****END OF INPUT****

CARTESIAN COORDINATES (ANGSTROEM)
---------------------------------
  C     -0.190200    2.602766    2.440346
  C      0.703268    1.381928    2.506772
  O      1.030108    1.000239    1.154738
  P      1.639311   -0.418431    0.822785
  S      0.891712   -1.981233    1.754076
  O      3.167705   -0.152338    1.202295
  C      4.120943   -1.209813    1.394725
  C      4.422533   -1.955508    0.110563
  S      1.615331   -0.412749   -1.279643
  C      0.362925   -1.694205   -1.580200
  S     -1.186313   -1.100668   -2.336986
  P     -1.845268    0.322678   -0.907117
  S     -3.692551    0.900692   -1.195870
  O     -0.764105    1.477068   -0.912416
  C     -0.627713    2.340851   -2.059179
  C      0.342498    3.442672   -1.687019
  O     -1.475377   -0.296166    0.507528
  C     -2.460642   -1.056699    1.242549
  C     -3.140790   -0.185622    2.278367
  H     -0.494037    2.882719    3.444008
  H      0.344016    3.428603    1.980000
  H     -1.071724    2.382089    1.842959
  H      0.198793    0.538889    2.992241
  H      1.634993    1.593088    3.038892
  H      5.003922   -0.698301    1.780241
  H      3.727580   -1.894579    2.153075
  H      4.699017   -1.257990   -0.675958
  H      5.240115   -2.648031    0.283282
  H      3.546418   -2.518153   -0.208809
  H      0.146274   -2.199454   -0.635678
  H      0.767585   -2.389025   -2.311989
  H     -0.250873    1.747530   -2.898950
  H     -1.615831    2.736959   -2.316610
  H     -0.060705    4.035653   -0.871329
  H      1.287007    3.006185   -1.372815
  H      0.507144    4.079516   -2.549758
  H     -3.194001   -1.468654    0.542387
  H     -1.899510   -1.870361    1.708575
  H     -3.680185    0.622360    1.787931
  H     -3.843385   -0.790545    2.842449
  H     -2.405438    0.237721    2.956873

 Total Charge           Charge          ....    0
 Multiplicity           Mult            ....    1
 Number of Electrons    NEL             ....  202
 Basis Dimension        Dim             ....  334

ORBITAL ENERGIES
----------------

  NO   OCC          E(Eh)            E(eV)
   0   2.0000     -88.051118     -2395.9927
   1   2.0000     -88.042057     -2395.7462
   2   2.0000     -87.994412     -2394.4497
   3   2.0000     -87.984462     -2394.1789
   4   2.0000     -76.430373     -2079.7762
   5   2.0000     -76.424057     -2079.6043
   6   2.0000     -18.794972      -511.4372
   7   2.0000     -18.792644      -511.3738
   8   2.0000     -18.789737      -511.2947
   9   2.0000     -18.787298      -511.2284
  10   2.0000      -9.959143      -271.0021
  11   2.0000      -9.953568      -270.8503
  12   2.0000      -9.952439      -270.8196
  13   2.0000      -9.948847      -270.7219
  14   2.0000      -9.946845      -270.6674
  15   2.0000      -9.886521      -269.0259
  16   2.0000      -9.884202      -268.9628
  17   2.0000      -9.883765      -268.9509
  18   2.0000      -9.879286      -268.8290
  19   2.0000      -7.696010      -209.4191
  20   2.0000      -7.687237      -209.1803
  21   2.0000      -7.639169      -207.8723
  22   2.0000      -7.629705      -207.6148
  23   2.0000      -6.427982      -174.9143
  24   2.0000      -6.421796      -174.7460
  25   2.0000      -5.723890      -155.7550
  26   2.0000      -5.720627      -155.6662
  27   2.0000      -5.715390      -155.5237
  28   2.0000      -5.712801      -155.4532
  29   2.0000      -5.711269      -155.4115
  30   2.0000      -5.704448      -155.2259
  31   2.0000      -5.667908      -154.2316
  32   2.0000      -5.660105      -154.0193
  33   2.0000      -5.659153      -153.9934
  34   2.0000      -5.658641      -153.9794
  35   2.0000      -5.650341      -153.7536
  36   2.0000      -5.649824      -153.7395
  37   2.0000      -4.650264      -126.5401
  38   2.0000      -4.649565      -126.5211
  39   2.0000      -4.648863      -126.5020
  40   2.0000      -4.644246      -126.3764
  41   2.0000      -4.643930      -126.3677
  42   2.0000      -4.641953      -126.3140
  43   2.0000      -0.990019       -26.9398
  44   2.0000      -0.986074       -26.8324
  45   2.0000      -0.945162       -25.7192
  46   2.0000      -0.944469       -25.7003
  47   2.0000      -0.764364       -20.7994
  48   2.0000      -0.722850       -19.6697
  49   2.0000      -0.710472       -19.3329
  50   2.0000      -0.688235       -18.7278
  51   2.0000      -0.682217       -18.5641
  52   2.0000      -0.678267       -18.4566
  53   2.0000      -0.653159       -17.7734
  54   2.0000      -0.640104       -17.4181
  55   2.0000      -0.600616       -16.3436
  56   2.0000      -0.590586       -16.0707
  57   2.0000      -0.572773       -15.5859
  58   2.0000      -0.564024       -15.3479
  59   2.0000      -0.555912       -15.1271
  60   2.0000      -0.506855       -13.7922
  61   2.0000      -0.502539       -13.6748
  62   2.0000      -0.477631       -12.9970
  63   2.0000      -0.473854       -12.8942
  64   2.0000      -0.452691       -12.3184
  65   2.0000      -0.444894       -12.1062
  66   2.0000      -0.440872       -11.9967
  67   2.0000      -0.434312       -11.8182
  68   2.0000      -0.431590       -11.7442
  69   2.0000      -0.426890       -11.6163
  70   2.0000      -0.412014       -11.2115
  71   2.0000      -0.397253       -10.8098
  72   2.0000      -0.390484       -10.6256
  73   2.0000      -0.387604       -10.5472
  74   2.0000      -0.376039       -10.2325
  75   2.0000      -0.374470       -10.1898
  76   2.0000      -0.363875        -9.9015
  77   2.0000      -0.356104        -9.6901
  78   2.0000      -0.353947        -9.6314
  79   2.0000      -0.352384        -9.5888
  80   2.0000      -0.350796        -9.5457
  81   2.0000      -0.342433        -9.3181
  82   2.0000      -0.338178        -9.2023
  83   2.0000      -0.335179        -9.1207
  84   2.0000      -0.330387        -8.9903
  85   2.0000      -0.319108        -8.6834
  86   2.0000      -0.316552        -8.6138
  87   2.0000      -0.304078        -8.2744
  88   2.0000      -0.299389        -8.1468
  89   2.0000      -0.294913        -8.0250
  90   2.0000      -0.283919        -7.7258
  91   2.0000      -0.272341        -7.4108
  92   2.0000      -0.268517        -7.3067
  93   2.0000      -0.264351        -7.1933
  94   2.0000      -0.255619        -6.9558
  95   2.0000      -0.236559        -6.4371
  96   2.0000      -0.224704        -6.1145
  97   2.0000      -0.214471        -5.8361
  98   2.0000      -0.209545        -5.7020
  99   2.0000      -0.202564        -5.5121
 100   2.0000      -0.198968        -5.4142
 101   0.0000      -0.044275        -1.2048
 102   0.0000      -0.029188        -0.7943
 103   0.0000      -0.017653        -0.4804
 104   0.0000      -0.000788        -0.0214
 105   0.0000       0.012022         0.3271

MULLIKEN ATOMIC CHARGES
-----------------------
   0 C :   -0.291341
   1 C :   -0.018998
   2 O :   -0.352341
   3 P :    0.635437
   4 S :   -0.335922
   5 O :   -0.380614
   6 C :   -0.002017
   7 C :   -0.310721
   8 S :   -0.082330
   9 C :   -0.353005
  10 S :   -0.097907
  11 P :    0.600063
  12 S :   -0.323374
  13 O :   -0.350520
  14 C :   -0.010088
  15 C :   -0.279896
  16 O :   -0.368432
  17 C :   -0.014910
  18 C :   -0.299380
  19 H :    0.107248
  20 H :    0.116568
  21 H :    0.137332
  22 H :    0.110539
  23 H :    0.100545
  24 H :    0.104258
  25 H :    0.110152
  26 H :    0.118044
  27 H :    0.112919
  28 H :    0.117807
  29 H :    0.199960
  30 H :    0.181963
  31 H :    0.096975
  32 H :    0.105160
  33 H :    0.119192
  34 H :    0.118257
  35 H :    0.108409
  36 H :    0.104820
  37 H :    0.115187
  38 H :    0.123542
  39 H :    0.109336
  40 H :    0.118086
Sum of atomic charges:    0.0000000

LOEWDIN ATOMIC CHARGES
----------------------
   0 C :   -0.353359
   1 C :   -0.114921
   2 O :   -0.227451
   3 P :    0.580053
   4 S :   -0.302097
   5 O :   -0.251093
   6 C :   -0.120382
   7 C :   -0.369073
   8 S :    0.106436
   9 C :   -0.482726
  10 S :    0.067189
  11 P :    0.559517
  12 S :   -0.321321
  13 O :   -0.228717
  14 C :   -0.122857
  15 C :   -0.349951
  16 O :   -0.237137
  17 C :   -0.124184
  18 C :   -0.360881
  19 H :    0.128722
  20 H :    0.125596
  21 H :    0.129317
  22 H :    0.106150
  23 H :    0.111123
  24 H :    0.118288
  25 H :    0.109221
  26 H :    0.124134
  27 H :    0.130609
  28 H :    0.118380
  29 H :    0.123322
  30 H :    0.138760
  31 H :    0.102938
  32 H :    0.109158
  33 H :    0.126257
  34 H :    0.125895
  35 H :    0.129123
  36 H :    0.108802
  37 H :    0.110606
  38 H :    0.123553
  39 H :    0.130571
  40 H :    0.122435

  Mayer bond orders larger than 0.100000
B(  0-C ,  1-C ) :   1.1646 B(  0-C , 19-H ) :   0.9394 B(  0-C , 20-H ) :   0.9459
B(  0-C , 21-H ) :   0.9390 B(  1-C ,  2-O ) :   0.8977 B(  1-C , 22-H ) :   0.9100
B(  1-C , 23-H ) :   0.9283 B(  2-O ,  3-P ) :   1.1507 B(  3-P ,  4-S ) :   1.5705
B(  3-P ,  5-O ) :   1.0965 B(  3-P ,  8-S ) :   0.9736 B(  4-S ,  8-S ) :   0.1161
B(  4-S , 29-H ) :   0.1066 B(  5-O ,  6-C ) :   0.9158 B(  6-C ,  7-C ) :   1.1655
B(  6-C , 24-H ) :   0.9339 B(  6-C , 25-H ) :   0.9152 B(  7-C , 26-H ) :   0.9440
B(  7-C , 27-H ) :   0.9380 B(  7-C , 28-H ) :   0.9387 B(  8-S ,  9-C ) :   1.0069
B(  9-C , 10-S ) :   0.9761 B(  9-C , 29-H ) :   0.8552 B(  9-C , 30-H ) :   0.9103
B( 10-S , 11-P ) :   0.9689 B( 11-P , 12-S ) :   1.6518 B( 11-P , 13-O ) :   1.1096
B( 11-P , 16-O ) :   1.0934 B( 13-O , 14-C ) :   0.9037 B( 14-C , 15-C ) :   1.1645
B( 14-C , 31-H ) :   0.9183 B( 14-C , 32-H ) :   0.9154 B( 15-C , 33-H ) :   0.9483
B( 15-C , 34-H ) :   0.9483 B( 15-C , 35-H ) :   0.9413 B( 16-O , 17-C ) :   0.8935
B( 17-C , 18-C ) :   1.1727 B( 17-C , 36-H ) :   0.9112 B( 17-C , 37-H ) :   0.9122
B( 18-C , 38-H ) :   0.9341 B( 18-C , 39-H ) :   0.9388 B( 18-C , 40-H ) :   0.9418

Dispersion correction           -0.069269418
FINAL SINGLE POINT ENERGY     -2929.523315176547

DIPOLE MOMENT
-------------

Method             : SCF
Type of density    : Electron Density
Multiplicity       :   1
Irrep              :   0
Energy             : -2929.6423405292316602 Eh
Relativity type    :
Basis              : AO
                                X                 Y                 Z
Electronic contribution:     -6.902701790      -9.015379875     -12.371505904
Nuclear contribution   :      8.337930692       9.156066596      12.868451233
                        -----------------------------------------
Total Dipole Moment    :      1.435228902       0.140686720       0.496945329
                        -----------------------------------------
Magnitude (a.u.)       :      1.525329280
Magnitude (Debye)      :      3.877078915

Rotational constants in cm-1:             0.011098             0.006190             0.005894
Rotational constants in MHz :           332.710267           185.581312           176.705762

                             ****ORCA TERMINATED NORMALLY****
TOTAL RUN TIME: 0 days 0 hours 0 minutes 23 seconds 116 msec
