                         Program Version 6.0.0  -   RELEASE  -
|  1> ! r2scan-3c def2/J RI DEFGRID2 scfconv6 printgap
|  2> %output
|  3>     printlevel normal
|  4> end
|  5> * xyz 0 1
|  6> C 0.947783268 1.6239457869 -1.772926596
|  7> C 2.0525816113 1.7656497503 -1.0572786793
|  8> C 2.4285552345 0.5171764082 -0.329364483
|  9> H 2.620203673 0.6621199208 0.7332848564
| 10> C 1.2825568522 -0.4612314817 -0.6200866581
| 11> H 1.6589889161 -1.4081413551 -1.0039018301
| 12> C 0.3429407086 0.2622697324 -1.6209015153
| 13> H 0.2345375618 -0.2547542917 -2.5743006719
| 14> C -1.0239156957 0.2630664781 -0.8755085515
| 15> C -0.8782345952 1.1951397661 0.3107998998
| 16> C -0.0528578735 0.5983559916 1.1811947299
| 17> C 0.347799167 -0.7365699667 0.5841640806
| 18> C -0.9672667512 -1.0974846615 -0.1459087192
| 19> Cl -2.3302979324 -1.3580252285 0.9608895726
| 20> Cl -0.8531134431 -2.4887273376 -1.2135464393
| 21> Cl 0.9470239019 -1.9203638331 1.7346519373
| 22> Cl 0.5344424023 1.1773367096 2.6592671255
| 23> Cl -1.5856194687 2.7259504862 0.3903138372
| 24> Cl -2.4302020376 0.5421924428 -1.8838733998
| 25> Cl 3.9818136489 -0.1238850654 -0.997857867
| 26> H 0.4882137991 2.3700446888 -2.3935674335
| 27> H 2.6735761506 2.6400952182 -1.0065239698
| 28> *
| 29>
| 30>                          ****END OF INPUT****

CARTESIAN COORDINATES (ANGSTROEM)
---------------------------------
  C      0.947783    1.623946   -1.772927
  C      2.052582    1.765650   -1.057279
  C      2.428555    0.517176   -0.329364
  H      2.620204    0.662120    0.733285
  C      1.282557   -0.461231   -0.620087
  H      1.658989   -1.408141   -1.003902
  C      0.342941    0.262270   -1.620902
  H      0.234538   -0.254754   -2.574301
  C     -1.023916    0.263066   -0.875509
  C     -0.878235    1.195140    0.310800
  C     -0.052858    0.598356    1.181195
  C      0.347799   -0.736570    0.584164
  C     -0.967267   -1.097485   -0.145909
  Cl    -2.330298   -1.358025    0.960890
  Cl    -0.853113   -2.488727   -1.213546
  Cl     0.947024   -1.920364    1.734652
  Cl     0.534442    1.177337    2.659267
  Cl    -1.585619    2.725950    0.390314
  Cl    -2.430202    0.542192   -1.883873
  Cl     3.981814   -0.123885   -0.997858
  H      0.488214    2.370045   -2.393567
  H      2.673576    2.640095   -1.006524

 Total Charge           Charge          ....    0
 Multiplicity           Mult            ....    1
 Number of Electrons    NEL             ....  184
 Basis Dimension        Dim             ....  404

ORBITAL ENERGIES
----------------

  NO   OCC          E(Eh)            E(eV)
   0   2.0000    -101.258638     -2755.3876
   1   2.0000    -101.257934     -2755.3685
   2   2.0000    -101.246140     -2755.0475
   3   2.0000    -101.240041     -2754.8816
   4   2.0000    -101.238483     -2754.8392
   5   2.0000    -101.235988     -2754.7713
   6   2.0000    -101.214385     -2754.1834
   7   2.0000     -10.201008      -277.5835
   8   2.0000     -10.163676      -276.5677
   9   2.0000     -10.163033      -276.5502
  10   2.0000     -10.136469      -275.8273
  11   2.0000     -10.135523      -275.8016
  12   2.0000     -10.123517      -275.4749
  13   2.0000     -10.091685      -274.6087
  14   2.0000     -10.091118      -274.5933
  15   2.0000     -10.067373      -273.9471
  16   2.0000     -10.065826      -273.9051
  17   2.0000      -9.413972      -256.1672
  18   2.0000      -9.413301      -256.1490
  19   2.0000      -9.402247      -255.8482
  20   2.0000      -9.395823      -255.6734
  21   2.0000      -9.394203      -255.6293
  22   2.0000      -9.391860      -255.5655
  23   2.0000      -9.370352      -254.9802
  24   2.0000      -7.160557      -194.8487
  25   2.0000      -7.159867      -194.8299
  26   2.0000      -7.150323      -194.5702
  27   2.0000      -7.149654      -194.5520
  28   2.0000      -7.149401      -194.5451
  29   2.0000      -7.148982      -194.5337
  30   2.0000      -7.148741      -194.5271
  31   2.0000      -7.142493      -194.3571
  32   2.0000      -7.140906      -194.3139
  33   2.0000      -7.138832      -194.2575
  34   2.0000      -7.138026      -194.2356
  35   2.0000      -7.137973      -194.2341
  36   2.0000      -7.131752      -194.0648
  37   2.0000      -7.131516      -194.0584
  38   2.0000      -7.130140      -194.0210
  39   2.0000      -7.129870      -194.0136
  40   2.0000      -7.127590      -193.9516
  41   2.0000      -7.127445      -193.9476
  42   2.0000      -7.116605      -193.6527
  43   2.0000      -7.106460      -193.3766
  44   2.0000      -7.106318      -193.3727
  45   2.0000      -0.973657       -26.4946
  46   2.0000      -0.893289       -24.3076
  47   2.0000      -0.880070       -23.9479
  48   2.0000      -0.876506       -23.8509
  49   2.0000      -0.843866       -22.9628
  50   2.0000      -0.840728       -22.8774
  51   2.0000      -0.814209       -22.1558
  52   2.0000      -0.811754       -22.0889
  53   2.0000      -0.787037       -21.4164
  54   2.0000      -0.730029       -19.8651
  55   2.0000      -0.714304       -19.4372
  56   2.0000      -0.670432       -18.2434
  57   2.0000      -0.653820       -17.7913
  58   2.0000      -0.582057       -15.8386
  59   2.0000      -0.568184       -15.4611
  60   2.0000      -0.552058       -15.0223
  61   2.0000      -0.529625       -14.4118
  62   2.0000      -0.525305       -14.2943
  63   2.0000      -0.507095       -13.7987
  64   2.0000      -0.496799       -13.5186
  65   2.0000      -0.459780       -12.5113
  66   2.0000      -0.456505       -12.4221
  67   2.0000      -0.450357       -12.2548
  68   2.0000      -0.431636       -11.7454
  69   2.0000      -0.420535       -11.4433
  70   2.0000      -0.416815       -11.3421
  71   2.0000      -0.409343       -11.1388
  72   2.0000      -0.391013       -10.6400
  73   2.0000      -0.384030       -10.4500
  74   2.0000      -0.372672       -10.1409
  75   2.0000      -0.367009        -9.9868
  76   2.0000      -0.362714        -9.8700
  77   2.0000      -0.345738        -9.4080
  78   2.0000      -0.333426        -9.0730
  79   2.0000      -0.325920        -8.8687
  80   2.0000      -0.316045        -8.6000
  81   2.0000      -0.314550        -8.5593
  82   2.0000      -0.310154        -8.4397
  83   2.0000      -0.303463        -8.2576
  84   2.0000      -0.302347        -8.2273
  85   2.0000      -0.296668        -8.0727
  86   2.0000      -0.292804        -7.9676
  87   2.0000      -0.292069        -7.9476
  88   2.0000      -0.282037        -7.6746
  89   2.0000      -0.278931        -7.5901
  90   2.0000      -0.263729        -7.1764
  91   2.0000      -0.242860        -6.6086
  92   0.0000      -0.077614        -2.1120
  93   0.0000      -0.068711        -1.8697
  94   0.0000      -0.058755        -1.5988
  95   0.0000      -0.031835        -0.8663
  96   0.0000      -0.014607        -0.3975

MULLIKEN ATOMIC CHARGES
-----------------------
   0 C :   -0.225211
   1 C :   -0.205269
   2 C :    0.108339
   3 H :    0.197304
   4 C :   -0.335540
   5 H :    0.239295
   6 C :   -0.127964
   7 H :    0.219096
   8 C :    0.290336
   9 C :   -0.076153
  10 C :   -0.232175
  11 C :    0.311069
  12 C :    0.035624
  13 Cl:   -0.070806
  14 Cl:   -0.061818
  15 Cl:   -0.077903
  16 Cl:   -0.028030
  17 Cl:   -0.028952
  18 Cl:   -0.084033
  19 Cl:   -0.187728
  20 H :    0.170561
  21 H :    0.169959
Sum of atomic charges:   -0.0000000

LOEWDIN ATOMIC CHARGES
----------------------
   0 C :   -0.138528
   1 C :   -0.165910
   2 C :   -0.217953
   3 H :    0.182179
   4 C :   -0.197955
   5 H :    0.198437
   6 C :   -0.175797
   7 H :    0.192674
   8 C :   -0.227957
   9 C :   -0.228187
  10 C :   -0.241150
  11 C :   -0.226820
  12 C :   -0.290729
  13 Cl:    0.166686
  14 Cl:    0.179424
  15 Cl:    0.168837
  16 Cl:    0.218762
  17 Cl:    0.229137
  18 Cl:    0.166502
  19 Cl:    0.052807
  20 H :    0.178995
  21 H :    0.176546

  Mayer bond orders larger than 0.100000
B(  0-C ,  1-C ) :   1.8555 B(  0-C ,  6-C ) :   0.9176 B(  0-C , 20-H ) :   0.9285
B(  1-C ,  2-C ) :   0.9787 B(  1-C , 21-H ) :   0.9298 B(  2-C ,  3-H ) :   0.9565
B(  2-C ,  4-C ) :   0.9601 B(  2-C , 19-Cl) :   0.8643 B(  4-C ,  5-H ) :   0.9209
B(  4-C ,  6-C ) :   0.9979 B(  4-C , 11-C ) :   0.9230 B(  6-C ,  7-H ) :   0.9010
B(  6-C ,  8-C ) :   0.9677 B(  8-C ,  9-C ) :   0.8718 B(  8-C , 12-C ) :   0.8806
B(  8-C , 18-Cl) :   1.0192 B(  9-C , 10-C ) :   1.4388 B(  9-C , 17-Cl) :   1.1635
B( 10-C , 11-C ) :   0.8204 B( 10-C , 16-Cl) :   1.1925 B( 11-C , 12-C ) :   0.8409
B( 11-C , 15-Cl) :   1.0549 B( 12-C , 13-Cl) :   1.0681 B( 12-C , 14-Cl) :   1.0445

Dispersion correction           -0.017055920
FINAL SINGLE POINT ENERGY     -3605.180622680376

DIPOLE MOMENT
-------------

Method             : SCF
Type of density    : Electron Density
Multiplicity       :   1
Irrep              :   0
Energy             : -3605.1792348732415121 Eh
Relativity type    :
Basis              : AO
                                X                 Y                 Z
Electronic contribution:     -9.442753789      -4.992060493       7.759058973
Nuclear contribution   :      9.531010563       5.701686132      -8.073362012
                        -----------------------------------------
Total Dipole Moment    :      0.088256774       0.709625639      -0.314303039
                        -----------------------------------------
Magnitude (a.u.)       :      0.781117280
Magnitude (Debye)      :      1.985442341

Rotational constants in cm-1:             0.010422             0.008143             0.007664
Rotational constants in MHz :           312.448819           244.135795           229.771393

                             ****ORCA TERMINATED NORMALLY****
TOTAL RUN TIME: 0 days 0 hours 1 minutes 2 seconds 685 msec
