                         Program Version 6.0.0  -   RELEASE  -
|  1> ! r2scan-3c def2/J RI DEFGRID2 scfconv6 printgap
|  2> %output
|  3>     printlevel normal
|  4> end
|  5> %cpcm
|  6>     smd true
|  7>     smdsolvent "water"
|  8> end
|  9> * xyz 0 1
| 10> C 0.947783268 1.6239457869 -1.772926596
| 11> C 2.0525816113 1.7656497503 -1.0572786793
| 12> C 2.4285552345 0.5171764082 -0.329364483
| 13> H 2.620203673 0.6621199208 0.7332848564
| 14> C 1.2825568522 -0.4612314817 -0.6200866581
| 15> H 1.6589889161 -1.4081413551 -1.0039018301
| 16> C 0.3429407086 0.2622697324 -1.6209015153
| 17> H 0.2345375618 -0.2547542917 -2.5743006719
| 18> C -1.0239156957 0.2630664781 -0.8755085515
| 19> C -0.8782345952 1.1951397661 0.3107998998
| 20> C -0.0528578735 0.5983559916 1.1811947299
| 21> C 0.347799167 -0.7365699667 0.5841640806
| 22> C -0.9672667512 -1.0974846615 -0.1459087192
| 23> Cl -2.3302979324 -1.3580252285 0.9608895726
| 24> Cl -0.8531134431 -2.4887273376 -1.2135464393
| 25> Cl 0.9470239019 -1.9203638331 1.7346519373
| 26> Cl 0.5344424023 1.1773367096 2.6592671255
| 27> Cl -1.5856194687 2.7259504862 0.3903138372
| 28> Cl -2.4302020376 0.5421924428 -1.8838733998
| 29> Cl 3.9818136489 -0.1238850654 -0.997857867
| 30> H 0.4882137991 2.3700446888 -2.3935674335
| 31> H 2.6735761506 2.6400952182 -1.0065239698
| 32> *
| 33>
| 34>                          ****END OF INPUT****

CARTESIAN COORDINATES (ANGSTROEM)
---------------------------------
  C      0.947783    1.623946   -1.772927
  C      2.052582    1.765650   -1.057279
  C      2.428555    0.517176   -0.329364
  H      2.620204    0.662120    0.733285
  C      1.282557   -0.461231   -0.620087
  H      1.658989   -1.408141   -1.003902
  C      0.342941    0.262270   -1.620902
  H      0.234538   -0.254754   -2.574301
  C     -1.023916    0.263066   -0.875509
  C     -0.878235    1.195140    0.310800
  C     -0.052858    0.598356    1.181195
  C      0.347799   -0.736570    0.584164
  C     -0.967267   -1.097485   -0.145909
  Cl    -2.330298   -1.358025    0.960890
  Cl    -0.853113   -2.488727   -1.213546
  Cl     0.947024   -1.920364    1.734652
  Cl     0.534442    1.177337    2.659267
  Cl    -1.585619    2.725950    0.390314
  Cl    -2.430202    0.542192   -1.883873
  Cl     3.981814   -0.123885   -0.997858
  H      0.488214    2.370045   -2.393567
  H      2.673576    2.640095   -1.006524

 Total Charge           Charge          ....    0
 Multiplicity           Mult            ....    1
 Number of Electrons    NEL             ....  184
 Basis Dimension        Dim             ....  404

ORBITAL ENERGIES
----------------

  NO   OCC          E(Eh)            E(eV)
   0   2.0000    -101.255390     -2755.2992
   1   2.0000    -101.255170     -2755.2932
   2   2.0000    -101.244684     -2755.0079
   3   2.0000    -101.238246     -2754.8327
   4   2.0000    -101.237837     -2754.8216
   5   2.0000    -101.237756     -2754.8194
   6   2.0000    -101.210786     -2754.0855
   7   2.0000     -10.199135      -277.5326
   8   2.0000     -10.160321      -276.4764
   9   2.0000     -10.158371      -276.4233
  10   2.0000     -10.132843      -275.7287
  11   2.0000     -10.131923      -275.7036
  12   2.0000     -10.112779      -275.1827
  13   2.0000     -10.081245      -274.3246
  14   2.0000     -10.078944      -274.2620
  15   2.0000     -10.051676      -273.5200
  16   2.0000     -10.049767      -273.4681
  17   2.0000      -9.410726      -256.0789
  18   2.0000      -9.410529      -256.0735
  19   2.0000      -9.400807      -255.8090
  20   2.0000      -9.394058      -255.6253
  21   2.0000      -9.393838      -255.6193
  22   2.0000      -9.393596      -255.6127
  23   2.0000      -9.366994      -254.8889
  24   2.0000      -7.157296      -194.7599
  25   2.0000      -7.157070      -194.7538
  26   2.0000      -7.147534      -194.4943
  27   2.0000      -7.147051      -194.4811
  28   2.0000      -7.146878      -194.4764
  29   2.0000      -7.146195      -194.4579
  30   2.0000      -7.146000      -194.4526
  31   2.0000      -7.140666      -194.3074
  32   2.0000      -7.140650      -194.3070
  33   2.0000      -7.140189      -194.2944
  34   2.0000      -7.136618      -194.1972
  35   2.0000      -7.136504      -194.1941
  36   2.0000      -7.130039      -194.0182
  37   2.0000      -7.129776      -194.0111
  38   2.0000      -7.129640      -194.0074
  39   2.0000      -7.129564      -194.0053
  40   2.0000      -7.129472      -194.0028
  41   2.0000      -7.129315      -193.9985
  42   2.0000      -7.113000      -193.5546
  43   2.0000      -7.103177      -193.2873
  44   2.0000      -7.103089      -193.2849
  45   2.0000      -0.969875       -26.3916
  46   2.0000      -0.891006       -24.2455
  47   2.0000      -0.876691       -23.8560
  48   2.0000      -0.868803       -23.6413
  49   2.0000      -0.840987       -22.8844
  50   2.0000      -0.838190       -22.8083
  51   2.0000      -0.811604       -22.0849
  52   2.0000      -0.810560       -22.0565
  53   2.0000      -0.780344       -21.2342
  54   2.0000      -0.721591       -19.6355
  55   2.0000      -0.707190       -19.2436
  56   2.0000      -0.665123       -18.0989
  57   2.0000      -0.646620       -17.5954
  58   2.0000      -0.573329       -15.6011
  59   2.0000      -0.563688       -15.3387
  60   2.0000      -0.540469       -14.7069
  61   2.0000      -0.524584       -14.2747
  62   2.0000      -0.516869       -14.0647
  63   2.0000      -0.500195       -13.6110
  64   2.0000      -0.488775       -13.3002
  65   2.0000      -0.453862       -12.3502
  66   2.0000      -0.451687       -12.2910
  67   2.0000      -0.446232       -12.1426
  68   2.0000      -0.428291       -11.6544
  69   2.0000      -0.417404       -11.3581
  70   2.0000      -0.411436       -11.1957
  71   2.0000      -0.398587       -10.8461
  72   2.0000      -0.383172       -10.4267
  73   2.0000      -0.377582       -10.2745
  74   2.0000      -0.364499        -9.9185
  75   2.0000      -0.357923        -9.7396
  76   2.0000      -0.349569        -9.5123
  77   2.0000      -0.341865        -9.3026
  78   2.0000      -0.332746        -9.0545
  79   2.0000      -0.323606        -8.8058
  80   2.0000      -0.314142        -8.5482
  81   2.0000      -0.313128        -8.5207
  82   2.0000      -0.308423        -8.3926
  83   2.0000      -0.302858        -8.2412
  84   2.0000      -0.300209        -8.1691
  85   2.0000      -0.295698        -8.0464
  86   2.0000      -0.292531        -7.9602
  87   2.0000      -0.290823        -7.9137
  88   2.0000      -0.278495        -7.5782
  89   2.0000      -0.275876        -7.5070
  90   2.0000      -0.252946        -6.8830
  91   2.0000      -0.239198        -6.5089
  92   0.0000      -0.072455        -1.9716
  93   0.0000      -0.066181        -1.8009
  94   0.0000      -0.048099        -1.3088
  95   0.0000      -0.030534        -0.8309
  96   0.0000      -0.012386        -0.3370

MULLIKEN ATOMIC CHARGES
-----------------------
   0 C :   -0.255846
   1 C :   -0.244522
   2 C :    0.119982
   3 H :    0.221552
   4 C :   -0.335325
   5 H :    0.259892
   6 C :   -0.113127
   7 H :    0.254339
   8 C :    0.306583
   9 C :   -0.102331
  10 C :   -0.235465
  11 C :    0.323647
  12 C :    0.021753
  13 Cl:   -0.087979
  14 Cl:   -0.064490
  15 Cl:   -0.097503
  16 Cl:   -0.028571
  17 Cl:   -0.030219
  18 Cl:   -0.099042
  19 Cl:   -0.224570
  20 H :    0.205802
  21 H :    0.205439
Sum of atomic charges:   -0.0000000

LOEWDIN ATOMIC CHARGES
----------------------
   0 C :   -0.134494
   1 C :   -0.169102
   2 C :   -0.214431
   3 H :    0.190261
   4 C :   -0.196251
   5 H :    0.204670
   6 C :   -0.170546
   7 H :    0.203895
   8 C :   -0.227358
   9 C :   -0.229275
  10 C :   -0.241913
  11 C :   -0.226236
  12 C :   -0.292325
  13 Cl:    0.153810
  14 Cl:    0.177814
  15 Cl:    0.158422
  16 Cl:    0.217951
  17 Cl:    0.227014
  18 Cl:    0.159066
  19 Cl:    0.030484
  20 H :    0.190835
  21 H :    0.187710

  Mayer bond orders larger than 0.100000
B(  0-C ,  1-C ) :   1.8415 B(  0-C ,  6-C ) :   0.9048 B(  0-C , 20-H ) :   0.9281
B(  1-C ,  2-C ) :   0.9542 B(  1-C , 21-H ) :   0.9302 B(  2-C ,  3-H ) :   0.9477
B(  2-C ,  4-C ) :   0.9597 B(  2-C , 19-Cl) :   0.8288 B(  4-C ,  5-H ) :   0.9129
B(  4-C ,  6-C ) :   0.9728 B(  4-C , 11-C ) :   0.9193 B(  6-C ,  7-H ) :   0.8930
B(  6-C ,  8-C ) :   0.9590 B(  8-C ,  9-C ) :   0.8602 B(  8-C , 12-C ) :   0.8812
B(  8-C , 18-Cl) :   0.9914 B(  9-C , 10-C ) :   1.4463 B(  9-C , 17-Cl) :   1.1692
B( 10-C , 11-C ) :   0.8151 B( 10-C , 16-Cl) :   1.1928 B( 11-C , 12-C ) :   0.8447
B( 11-C , 15-Cl) :   1.0159 B( 12-C , 13-Cl) :   1.0540 B( 12-C , 14-Cl) :   1.0563

Dispersion correction           -0.017055920
FINAL SINGLE POINT ENERGY     -3605.184501412529

DIPOLE MOMENT
-------------

Method             : SCF
Type of density    : Electron Density
Multiplicity       :   1
Irrep              :   0
Energy             : -3605.1831136053942828 Eh
Relativity type    :
Basis              : AO
                                X                 Y                 Z
Electronic contribution:     -9.271143099      -4.702525198       7.500353793
Nuclear contribution   :      9.531010563       5.701686132      -8.073362012
                        -----------------------------------------
Total Dipole Moment    :      0.259867464       0.999160933      -0.573008218
                        -----------------------------------------
Magnitude (a.u.)       :      1.180759115
Magnitude (Debye)      :      3.001251157

Rotational constants in cm-1:             0.010422             0.008143             0.007664
Rotational constants in MHz :           312.448819           244.135795           229.771393

                             ****ORCA TERMINATED NORMALLY****
TOTAL RUN TIME: 0 days 0 hours 1 minutes 24 seconds 898 msec
