                         Program Version 6.0.0  -   RELEASE  -
|  1> ! pbe def2-sv(p) def2/J RI DEFGRID1 loosescf d4 GCP(DFT/SV(P)) printgap
|  2> %output
|  3>     printlevel normal
|  4> end
|  5> * xyz 0 1
|  6> C 3.0194762047 0.4843010248 -2.6171662669
|  7> C 2.3065368978 -0.8305914575 -2.3833900505
|  8> O 1.4312902995 -0.7793512282 -1.2323182145
|  9> P 1.9369303047 -0.5050596661 0.2435589702
| 10> S 2.3715723402 1.3215055654 0.825436521
| 11> O 3.1495555528 -1.5333955027 0.3206682382
| 12> C 4.036846835 -1.5851568703 1.4558244414
| 13> C 5.3243069841 -0.8413862237 1.1582006848
| 14> S 0.4298203559 -1.4550016175 1.3851823744
| 15> C -0.3371268007 -0.0189407881 2.2036673869
| 16> S -2.1203157034 0.1066863539 1.914749684
| 17> P -2.123548655 0.3846553341 -0.1703631871
| 18> S -0.7577474019 1.5479900334 -0.9745975974
| 19> O -3.6198424446 0.816615465 -0.4862320285
| 20> C -4.042929491 2.1903984417 -0.5100252876
| 21> C -4.0101319612 2.8225932123 0.8664095799
| 22> O -2.1180665755 -1.1308312013 -0.6301946937
| 23> C -1.7936950416 -1.5429577269 -1.9719538722
| 24> C -2.8298248234 -1.0813718687 -2.9749001298
| 25> H 3.7065545681 0.6905301887 -1.7976219719
| 26> H 3.5773418455 0.4351591571 -3.5468313036
| 27> H 2.2967176743 1.2966620367 -2.6706234778
| 28> H 3.0170719744 -1.6464193668 -2.2355699475
| 29> H 1.630907228 -1.0682721235 -3.2072283088
| 30> H 3.5344969676 -1.1579613018 2.3277994729
| 31> H 4.2171995749 -2.6486289032 1.6217170542
| 32> H 6.0029144356 -0.9529058604 1.9974942178
| 33> H 5.7908959994 -1.2414164955 0.2623954063
| 34> H 5.1178073166 0.2163346367 1.0090159641
| 35> H 0.1699113233 0.886246296 1.8543822717
| 36> H -0.2248277812 -0.1373728957 3.2783814241
| 37> H -3.3941534316 2.7398291716 -1.2000844977
| 38> H -5.0571588064 2.1442008232 -0.9088350106
| 39> H -2.9801841439 2.9162456524 1.2088453191
| 40> H -4.4556959456 3.811078672 0.8188066647
| 41> H -4.5596094957 2.2099431599 1.5766410908
| 42> H -0.8050419741 -1.1455337625 -2.2215690576
| 43> H -1.7473716195 -2.630839869 -1.9030979248
| 44> H -3.8213110096 -1.3947684822 -2.6588115421
| 45> H -2.811828893 0.0051457739 -3.0527332881
| 46> H -2.6060366722 -1.5096774362 -3.9470029042
| 47> *
| 48>
| 49>                          ****END OF INPUT****

CARTESIAN COORDINATES (ANGSTROEM)
---------------------------------
  C      3.019476    0.484301   -2.617166
  C      2.306537   -0.830591   -2.383390
  O      1.431290   -0.779351   -1.232318
  P      1.936930   -0.505060    0.243559
  S      2.371572    1.321506    0.825437
  O      3.149556   -1.533396    0.320668
  C      4.036847   -1.585157    1.455824
  C      5.324307   -0.841386    1.158201
  S      0.429820   -1.455002    1.385182
  C     -0.337127   -0.018941    2.203667
  S     -2.120316    0.106686    1.914750
  P     -2.123549    0.384655   -0.170363
  S     -0.757747    1.547990   -0.974598
  O     -3.619842    0.816615   -0.486232
  C     -4.042929    2.190398   -0.510025
  C     -4.010132    2.822593    0.866410
  O     -2.118067   -1.130831   -0.630195
  C     -1.793695   -1.542958   -1.971954
  C     -2.829825   -1.081372   -2.974900
  H      3.706555    0.690530   -1.797622
  H      3.577342    0.435159   -3.546831
  H      2.296718    1.296662   -2.670623
  H      3.017072   -1.646419   -2.235570
  H      1.630907   -1.068272   -3.207228
  H      3.534497   -1.157961    2.327799
  H      4.217200   -2.648629    1.621717
  H      6.002914   -0.952906    1.997494
  H      5.790896   -1.241416    0.262395
  H      5.117807    0.216335    1.009016
  H      0.169911    0.886246    1.854382
  H     -0.224828   -0.137373    3.278381
  H     -3.394153    2.739829   -1.200084
  H     -5.057159    2.144201   -0.908835
  H     -2.980184    2.916246    1.208845
  H     -4.455696    3.811079    0.818807
  H     -4.559609    2.209943    1.576641
  H     -0.805042   -1.145534   -2.221569
  H     -1.747372   -2.630840   -1.903098
  H     -3.821311   -1.394768   -2.658812
  H     -2.811829    0.005146   -3.052733
  H     -2.606037   -1.509677   -3.947003

 Total Charge           Charge          ....    0
 Multiplicity           Mult            ....    1
 Number of Electrons    NEL             ....  202
 Basis Dimension        Dim             ....  334

ORBITAL ENERGIES
----------------

  NO   OCC          E(Eh)            E(eV)
   0   2.0000     -88.039061     -2395.6646
   1   2.0000     -88.038793     -2395.6574
   2   2.0000     -87.983523     -2394.1534
   3   2.0000     -87.980109     -2394.0605
   4   2.0000     -76.425433     -2079.6418
   5   2.0000     -76.420506     -2079.5077
   6   2.0000     -18.792711      -511.3757
   7   2.0000     -18.789123      -511.2780
   8   2.0000     -18.788419      -511.2589
   9   2.0000     -18.781652      -511.0747
  10   2.0000      -9.953913      -270.8597
  11   2.0000      -9.953874      -270.8587
  12   2.0000      -9.950495      -270.7667
  13   2.0000      -9.949047      -270.7273
  14   2.0000      -9.943925      -270.5880
  15   2.0000      -9.882575      -268.9186
  16   2.0000      -9.880869      -268.8721
  17   2.0000      -9.880354      -268.8581
  18   2.0000      -9.879473      -268.8341
  19   2.0000      -7.684394      -209.1030
  20   2.0000      -7.684086      -209.0946
  21   2.0000      -7.628528      -207.5828
  22   2.0000      -7.624853      -207.4828
  23   2.0000      -6.422564      -174.7668
  24   2.0000      -6.417964      -174.6417
  25   2.0000      -5.712382      -155.4418
  26   2.0000      -5.711942      -155.4298
  27   2.0000      -5.708805      -155.3445
  28   2.0000      -5.708603      -155.3390
  29   2.0000      -5.701252      -155.1389
  30   2.0000      -5.701073      -155.1341
  31   2.0000      -5.657398      -153.9456
  32   2.0000      -5.653611      -153.8426
  33   2.0000      -5.649276      -153.7246
  34   2.0000      -5.648578      -153.7056
  35   2.0000      -5.645590      -153.6243
  36   2.0000      -5.645083      -153.6105
  37   2.0000      -4.645426      -126.4085
  38   2.0000      -4.644084      -126.3719
  39   2.0000      -4.643046      -126.3437
  40   2.0000      -4.640374      -126.2710
  41   2.0000      -4.639727      -126.2534
  42   2.0000      -4.638583      -126.2223
  43   2.0000      -0.986971       -26.8568
  44   2.0000      -0.981094       -26.6969
  45   2.0000      -0.941889       -25.6301
  46   2.0000      -0.939828       -25.5740
  47   2.0000      -0.758945       -20.6519
  48   2.0000      -0.718909       -19.5625
  49   2.0000      -0.704455       -19.1692
  50   2.0000      -0.687135       -18.6979
  51   2.0000      -0.683023       -18.5860
  52   2.0000      -0.671676       -18.2772
  53   2.0000      -0.649939       -17.6857
  54   2.0000      -0.631729       -17.1902
  55   2.0000      -0.597887       -16.2693
  56   2.0000      -0.589117       -16.0307
  57   2.0000      -0.574198       -15.6247
  58   2.0000      -0.568205       -15.4617
  59   2.0000      -0.558215       -15.1898
  60   2.0000      -0.501860       -13.6563
  61   2.0000      -0.486622       -13.2417
  62   2.0000      -0.472011       -12.8441
  63   2.0000      -0.467070       -12.7096
  64   2.0000      -0.450517       -12.2592
  65   2.0000      -0.443553       -12.0697
  66   2.0000      -0.434960       -11.8359
  67   2.0000      -0.434494       -11.8232
  68   2.0000      -0.424678       -11.5561
  69   2.0000      -0.410796       -11.1783
  70   2.0000      -0.408329       -11.1112
  71   2.0000      -0.405109       -11.0236
  72   2.0000      -0.388122       -10.5613
  73   2.0000      -0.387026       -10.5315
  74   2.0000      -0.379558       -10.3283
  75   2.0000      -0.371522       -10.1096
  76   2.0000      -0.366650        -9.9771
  77   2.0000      -0.352307        -9.5868
  78   2.0000      -0.351055        -9.5527
  79   2.0000      -0.345860        -9.4113
  80   2.0000      -0.344999        -9.3879
  81   2.0000      -0.339316        -9.2332
  82   2.0000      -0.337059        -9.1718
  83   2.0000      -0.333817        -9.0836
  84   2.0000      -0.330940        -9.0053
  85   2.0000      -0.313511        -8.5311
  86   2.0000      -0.309901        -8.4328
  87   2.0000      -0.297831        -8.1044
  88   2.0000      -0.291707        -7.9377
  89   2.0000      -0.289093        -7.8666
  90   2.0000      -0.278124        -7.5681
  91   2.0000      -0.272590        -7.4176
  92   2.0000      -0.269033        -7.3208
  93   2.0000      -0.259279        -7.0554
  94   2.0000      -0.258482        -7.0336
  95   2.0000      -0.231255        -6.2928
  96   2.0000      -0.221550        -6.0287
  97   2.0000      -0.211777        -5.7628
  98   2.0000      -0.198261        -5.3950
  99   2.0000      -0.192594        -5.2408
 100   2.0000      -0.184569        -5.0224
 101   0.0000      -0.035693        -0.9713
 102   0.0000      -0.031531        -0.8580
 103   0.0000      -0.005412        -0.1473
 104   0.0000       0.013652         0.3715
 105   0.0000       0.016869         0.4590

MULLIKEN ATOMIC CHARGES
-----------------------
   0 C :   -0.319367
   1 C :   -0.001200
   2 O :   -0.362064
   3 P :    0.626532
   4 S :   -0.309241
   5 O :   -0.386758
   6 C :    0.000127
   7 C :   -0.293241
   8 S :   -0.088268
   9 C :   -0.358206
  10 S :   -0.085539
  11 P :    0.604577
  12 S :   -0.319183
  13 O :   -0.373125
  14 C :   -0.002579
  15 C :   -0.317372
  16 O :   -0.358538
  17 C :   -0.024683
  18 C :   -0.305542
  19 H :    0.128733
  20 H :    0.108072
  21 H :    0.133247
  22 H :    0.109386
  23 H :    0.104670
  24 H :    0.097345
  25 H :    0.105812
  26 H :    0.108450
  27 H :    0.109683
  28 H :    0.128654
  29 H :    0.207297
  30 H :    0.179242
  31 H :    0.108691
  32 H :    0.103766
  33 H :    0.129630
  34 H :    0.112491
  35 H :    0.118087
  36 H :    0.136349
  37 H :    0.101916
  38 H :    0.115986
  39 H :    0.119580
  40 H :    0.106581
Sum of atomic charges:   -0.0000000

LOEWDIN ATOMIC CHARGES
----------------------
   0 C :   -0.367568
   1 C :   -0.109660
   2 O :   -0.236031
   3 P :    0.571875
   4 S :   -0.296409
   5 O :   -0.251845
   6 C :   -0.116142
   7 C :   -0.362181
   8 S :    0.080587
   9 C :   -0.482134
  10 S :    0.091190
  11 P :    0.563261
  12 S :   -0.312745
  13 O :   -0.244941
  14 C :   -0.119870
  15 C :   -0.370045
  16 O :   -0.237693
  17 C :   -0.118796
  18 C :   -0.365424
  19 H :    0.121582
  20 H :    0.128300
  21 H :    0.133170
  22 H :    0.111821
  23 H :    0.115820
  24 H :    0.107301
  25 H :    0.117813
  26 H :    0.129277
  27 H :    0.123222
  28 H :    0.124718
  29 H :    0.123927
  30 H :    0.135712
  31 H :    0.109479
  32 H :    0.117988
  33 H :    0.122465
  34 H :    0.130804
  35 H :    0.123998
  36 H :    0.114010
  37 H :    0.118311
  38 H :    0.125882
  39 H :    0.121466
  40 H :    0.127504

  Mayer bond orders larger than 0.100000
B(  0-C ,  1-C ) :   1.1688 B(  0-C , 19-H ) :   0.9344 B(  0-C , 20-H ) :   0.9356
B(  0-C , 21-H ) :   0.9430 B(  1-C ,  2-O ) :   0.9044 B(  1-C , 22-H ) :   0.9292
B(  1-C , 23-H ) :   0.9281 B(  2-O ,  3-P ) :   1.1214 B(  3-P ,  4-S ) :   1.6021
B(  3-P ,  5-O ) :   1.0773 B(  3-P ,  8-S ) :   0.9712 B(  4-S ,  8-S ) :   0.1286
B(  4-S , 29-H ) :   0.1032 B(  5-O ,  6-C ) :   0.9023 B(  6-C ,  7-C ) :   1.1672
B(  6-C , 24-H ) :   0.9115 B(  6-C , 25-H ) :   0.9355 B(  7-C , 26-H ) :   0.9401
B(  7-C , 27-H ) :   0.9476 B(  7-C , 28-H ) :   0.9329 B(  8-S ,  9-C ) :   0.9983
B(  9-C , 10-S ) :   0.9997 B(  9-C , 29-H ) :   0.8455 B(  9-C , 30-H ) :   0.9124
B( 10-S , 11-P ) :   0.9578 B( 10-S , 12-S ) :   0.1118 B( 11-P , 12-S ) :   1.6173
B( 11-P , 13-O ) :   1.0987 B( 11-P , 16-O ) :   1.1309 B( 13-O , 14-C ) :   0.9098
B( 14-C , 15-C ) :   1.1670 B( 14-C , 31-H ) :   0.9142 B( 14-C , 32-H ) :   0.9338
B( 15-C , 33-H ) :   0.9351 B( 15-C , 34-H ) :   0.9379 B( 15-C , 35-H ) :   0.9443
B( 16-O , 17-C ) :   0.9075 B( 17-C , 18-C ) :   1.1593 B( 17-C , 36-H ) :   0.9065
B( 17-C , 37-H ) :   0.9356 B( 18-C , 38-H ) :   0.9449 B( 18-C , 39-H ) :   0.9373
B( 18-C , 40-H ) :   0.9395

Dispersion correction           -0.067367869
FINAL SINGLE POINT ENERGY     -2929.519558772233

DIPOLE MOMENT
-------------

Method             : SCF
Type of density    : Electron Density
Multiplicity       :   1
Irrep              :   0
Energy             : -2929.6375699314930898 Eh
Relativity type    :
Basis              : AO
                                X                 Y                 Z
Electronic contribution:     -6.143813395      -2.429838041      12.291870683
Nuclear contribution   :      6.342447140       1.729843523     -12.753013829
                        -----------------------------------------
Total Dipole Moment    :      0.198633746      -0.699994518      -0.461143145
                        -----------------------------------------
Magnitude (a.u.)       :      0.861452663
Magnitude (Debye)      :      2.189638657

Rotational constants in cm-1:             0.013203             0.005238             0.004775
Rotational constants in MHz :           395.814288           157.024833           143.163800

                             ****ORCA TERMINATED NORMALLY****
TOTAL RUN TIME: 0 days 0 hours 0 minutes 21 seconds 146 msec
