                         Program Version 6.0.1  -  RELEASE   -
|  1> ! r2scan-3c def2/J RI DEFGRID2 scfconv6 printgap
|  2> %output
|  3>     printlevel normal
|  4> end
|  5> * xyz 0 1
|  6> C 4.0126797515 -0.2471447825 -2.4036426099
|  7> C 3.6894264091 -1.7211738059 -2.2205279085
|  8> O 2.4850552518 -1.8713188312 -1.4467980335
|  9> C 2.5851863187 -2.1312508551 -0.1548274958
| 10> O 3.6194808851 -2.3603736629 0.4285261235
| 11> C 1.2155726193 -2.1919001782 0.5018209338
| 12> C 0.4048276318 -0.9509216403 0.1500601937
| 13> H 0.2604870683 -0.8911852263 -0.9370165566
| 14> C 1.1391976767 0.3144053235 0.553993635
| 15> O 2.3410058514 0.4230705579 0.4730308884
| 16> O 0.3182923622 1.2631665567 0.9497010346
| 17> C 0.8648449991 2.5428755494 1.3289127186
| 18> C 1.2122772812 2.5579549458 2.8076693679
| 19> S -1.2508326111 -1.0259738537 0.9081305202
| 20> P -2.1413281862 0.5882377482 -0.1612011899
| 21> S -1.2931863579 1.096623091 -1.8516298664
| 22> O -3.6533592401 0.0798852884 -0.3148648868
| 23> C -3.9855191196 -1.0148196631 -1.175152266
| 24> O -2.3625137673 1.8039421891 0.8209995374
| 25> C -3.0304018988 1.6502133055 2.0892988052
| 26> H 4.1429867603 0.2233532593 -1.4312151871
| 27> H 4.9270110007 -0.1441730151 -2.9781946065
| 28> H 3.1997925255 0.2532461572 -2.9239335322
| 29> H 4.5013774901 -2.2390469311 -1.7023977782
| 30> H 3.4759588788 -2.2037524666 -3.175304532
| 31> H 1.3549389296 -2.2766195868 1.5796388414
| 32> H 0.6962941518 -3.0789129968 0.13635831
| 33> H 1.7476710606 2.7343224408 0.7130942835
| 34> H 0.0740702532 3.2548571652 1.0891655163
| 35> H 1.5582146978 3.5493269701 3.0803745816
| 36> H 0.3388728331 2.3062771049 3.4029578251
| 37> H 2.0028449599 1.8394323124 3.0130446756
| 38> H -3.5383160828 -0.8682473757 -2.1596206592
| 39> H -5.0700537475 -1.0121809536 -1.2475960189
| 40> H -3.6316756049 -1.9490625296 -0.7394672612
| 41> H -2.547884322 0.8649484271 2.6713182844
| 42> H -4.0780260217 1.4038950832 1.9287465967
| 43> H -2.9315687775 2.6138684887 2.5822295762
| 44> *
| 45>
| 46>                          ****END OF INPUT****

CARTESIAN COORDINATES (ANGSTROEM)
---------------------------------
  C      4.012680   -0.247145   -2.403643
  C      3.689426   -1.721174   -2.220528
  O      2.485055   -1.871319   -1.446798
  C      2.585186   -2.131251   -0.154827
  O      3.619481   -2.360374    0.428526
  C      1.215573   -2.191900    0.501821
  C      0.404828   -0.950922    0.150060
  H      0.260487   -0.891185   -0.937017
  C      1.139198    0.314405    0.553994
  O      2.341006    0.423071    0.473031
  O      0.318292    1.263167    0.949701
  C      0.864845    2.542876    1.328913
  C      1.212277    2.557955    2.807669
  S     -1.250833   -1.025974    0.908131
  P     -2.141328    0.588238   -0.161201
  S     -1.293186    1.096623   -1.851630
  O     -3.653359    0.079885   -0.314865
  C     -3.985519   -1.014820   -1.175152
  O     -2.362514    1.803942    0.821000
  C     -3.030402    1.650213    2.089299
  H      4.142987    0.223353   -1.431215
  H      4.927011   -0.144173   -2.978195
  H      3.199793    0.253246   -2.923934
  H      4.501377   -2.239047   -1.702398
  H      3.475959   -2.203752   -3.175305
  H      1.354939   -2.276620    1.579639
  H      0.696294   -3.078913    0.136358
  H      1.747671    2.734322    0.713094
  H      0.074070    3.254857    1.089166
  H      1.558215    3.549327    3.080375
  H      0.338873    2.306277    3.402958
  H      2.002845    1.839432    3.013045
  H     -3.538316   -0.868247   -2.159621
  H     -5.070054   -1.012181   -1.247596
  H     -3.631676   -1.949063   -0.739467
  H     -2.547884    0.864948    2.671318
  H     -4.078026    1.403895    1.928747
  H     -2.931569    2.613868    2.582230

 Total Charge           Charge          ....    0
 Multiplicity           Mult            ....    1
 Number of Electrons    NEL             ....  174
 Basis Dimension        Dim             ....  510

ORBITAL ENERGIES
----------------

  NO   OCC          E(Eh)            E(eV)
   0   2.0000     -88.580441     -2410.3963
   1   2.0000     -88.522959     -2408.8322
   2   2.0000     -76.919163     -2093.0768
   3   2.0000     -19.009009      -517.2614
   4   2.0000     -19.000427      -517.0279
   5   2.0000     -18.995915      -516.9051
   6   2.0000     -18.992947      -516.8244
   7   2.0000     -18.944696      -515.5114
   8   2.0000     -18.922744      -514.9140
   9   2.0000     -10.168445      -276.6975
  10   2.0000     -10.154283      -276.3121
  11   2.0000     -10.104582      -274.9596
  12   2.0000     -10.097600      -274.7697
  13   2.0000     -10.097297      -274.7614
  14   2.0000     -10.095399      -274.7098
  15   2.0000     -10.084177      -274.4044
  16   2.0000     -10.061240      -273.7802
  17   2.0000     -10.035523      -273.0805
  18   2.0000     -10.017632      -272.5936
  19   2.0000      -7.874679      -214.2809
  20   2.0000      -7.817626      -212.7284
  21   2.0000      -6.597393      -179.5242
  22   2.0000      -5.821466      -158.4102
  23   2.0000      -5.818623      -158.3328
  24   2.0000      -5.811827      -158.1479
  25   2.0000      -5.765516      -156.8877
  26   2.0000      -5.757865      -156.6795
  27   2.0000      -5.757446      -156.6681
  28   2.0000      -4.743140      -129.0674
  29   2.0000      -4.742452      -129.0487
  30   2.0000      -4.740836      -129.0047
  31   2.0000      -1.088795       -29.6276
  32   2.0000      -1.068776       -29.0829
  33   2.0000      -1.056688       -28.7539
  34   2.0000      -1.014233       -27.5987
  35   2.0000      -0.994639       -27.0655
  36   2.0000      -0.973131       -26.4802
  37   2.0000      -0.814882       -22.1741
  38   2.0000      -0.754462       -20.5300
  39   2.0000      -0.745276       -20.2800
  40   2.0000      -0.731371       -19.9016
  41   2.0000      -0.699159       -19.0251
  42   2.0000      -0.681357       -18.5407
  43   2.0000      -0.662896       -18.0383
  44   2.0000      -0.653677       -17.7875
  45   2.0000      -0.621916       -16.9232
  46   2.0000      -0.603679       -16.4269
  47   2.0000      -0.546892       -14.8817
  48   2.0000      -0.530799       -14.4438
  49   2.0000      -0.522566       -14.2198
  50   2.0000      -0.503335       -13.6964
  51   2.0000      -0.498835       -13.5740
  52   2.0000      -0.487052       -13.2534
  53   2.0000      -0.466263       -12.6877
  54   2.0000      -0.459191       -12.4952
  55   2.0000      -0.455997       -12.4083
  56   2.0000      -0.449543       -12.2327
  57   2.0000      -0.442166       -12.0320
  58   2.0000      -0.436423       -11.8757
  59   2.0000      -0.427101       -11.6220
  60   2.0000      -0.424499       -11.5512
  61   2.0000      -0.421098       -11.4587
  62   2.0000      -0.417431       -11.3589
  63   2.0000      -0.398656       -10.8480
  64   2.0000      -0.388341       -10.5673
  65   2.0000      -0.386863       -10.5271
  66   2.0000      -0.375136       -10.2080
  67   2.0000      -0.368821       -10.0361
  68   2.0000      -0.361233        -9.8296
  69   2.0000      -0.357167        -9.7190
  70   2.0000      -0.348289        -9.4774
  71   2.0000      -0.344577        -9.3764
  72   2.0000      -0.334841        -9.1115
  73   2.0000      -0.332528        -9.0485
  74   2.0000      -0.327500        -8.9117
  75   2.0000      -0.320000        -8.7076
  76   2.0000      -0.314558        -8.5595
  77   2.0000      -0.300570        -8.1789
  78   2.0000      -0.292830        -7.9683
  79   2.0000      -0.288130        -7.8404
  80   2.0000      -0.281800        -7.6682
  81   2.0000      -0.266455        -7.2506
  82   2.0000      -0.264262        -7.1909
  83   2.0000      -0.233539        -6.3549
  84   2.0000      -0.231054        -6.2873
  85   2.0000      -0.222464        -6.0536
  86   2.0000      -0.218484        -5.9453
  87   0.0000      -0.048234        -1.3125
  88   0.0000      -0.031768        -0.8644
  89   0.0000      -0.009524        -0.2592
  90   0.0000       0.003064         0.0834
  91   0.0000       0.014384         0.3914

MULLIKEN ATOMIC CHARGES
-----------------------
   0 C :   -0.466674
   1 C :   -0.151970
   2 O :   -0.139688
   3 C :    0.352720
   4 O :   -0.393543
   5 C :   -0.456958
   6 C :    0.026197
   7 H :    0.256562
   8 C :    0.268334
   9 O :   -0.389033
  10 O :   -0.114721
  11 C :   -0.163010
  12 C :   -0.465580
  13 S :   -0.220347
  14 P :    0.779991
  15 S :   -0.448827
  16 O :   -0.352188
  17 C :   -0.294052
  18 O :   -0.315842
  19 C :   -0.292008
  20 H :    0.183989
  21 H :    0.142268
  22 H :    0.152023
  23 H :    0.179183
  24 H :    0.143968
  25 H :    0.191363
  26 H :    0.185062
  27 H :    0.172998
  28 H :    0.170874
  29 H :    0.152980
  30 H :    0.150003
  31 H :    0.172836
  32 H :    0.174922
  33 H :    0.152492
  34 H :    0.158580
  35 H :    0.169572
  36 H :    0.170332
  37 H :    0.157188
Sum of atomic charges:    0.0000000

LOEWDIN ATOMIC CHARGES
----------------------
   0 C :   -0.389052
   1 C :    0.032455
   2 O :   -0.596635
   3 C :    0.359028
   4 O :   -0.414647
   5 C :   -0.201469
   6 C :   -0.205029
   7 H :    0.222264
   8 C :    0.365611
   9 O :   -0.409026
  10 O :   -0.625228
  11 C :    0.036129
  12 C :   -0.384950
  13 S :    0.192797
  14 P :    0.401149
  15 S :   -0.086967
  16 O :   -0.685096
  17 C :   -0.059529
  18 O :   -0.649820
  19 C :   -0.051694
  20 H :    0.173777
  21 H :    0.156274
  22 H :    0.158612
  23 H :    0.192661
  24 H :    0.176028
  25 H :    0.189718
  26 H :    0.188798
  27 H :    0.192180
  28 H :    0.186929
  29 H :    0.160982
  30 H :    0.156200
  31 H :    0.165684
  32 H :    0.176837
  33 H :    0.177405
  34 H :    0.169089
  35 H :    0.173399
  36 H :    0.175377
  37 H :    0.179759

  Mayer bond orders larger than 0.100000
B(  0-C ,  1-C ) :   0.9394 B(  0-C , 20-H ) :   0.9669 B(  0-C , 21-H ) :   0.9667
B(  0-C , 22-H ) :   0.9698 B(  1-C ,  2-O ) :   0.7931 B(  1-C , 23-H ) :   0.9724
B(  1-C , 24-H ) :   0.9595 B(  2-O ,  3-C ) :   1.0776 B(  2-O ,  6-C ) :   0.1146
B(  3-C ,  4-O ) :   1.9012 B(  3-C ,  5-C ) :   0.9102 B(  5-C ,  6-C ) :   0.8555
B(  5-C , 25-H ) :   1.0108 B(  5-C , 26-H ) :   0.9428 B(  6-C ,  7-H ) :   0.8888
B(  6-C ,  8-C ) :   0.9432 B(  6-C , 13-S ) :   0.8406 B(  8-C ,  9-O ) :   1.7846
B(  8-C , 10-O ) :   1.1836 B( 10-O , 11-C ) :   0.7596 B( 11-C , 12-C ) :   0.9202
B( 11-C , 27-H ) :   0.9586 B( 11-C , 28-H ) :   0.9609 B( 12-C , 29-H ) :   0.9673
B( 12-C , 30-H ) :   0.9787 B( 12-C , 31-H ) :   0.9702 B( 13-S , 14-P ) :   0.9937
B( 14-P , 15-S ) :   1.8056 B( 14-P , 16-O ) :   1.0316 B( 14-P , 18-O ) :   1.1464
B( 16-O , 17-C ) :   0.8302 B( 17-C , 32-H ) :   0.9591 B( 17-C , 33-H ) :   0.9673
B( 17-C , 34-H ) :   0.9560 B( 18-O , 19-C ) :   0.7916 B( 19-C , 35-H ) :   0.9570
B( 19-C , 36-H ) :   0.9597 B( 19-C , 37-H ) :   0.9655

Dispersion correction           -0.017598945
FINAL SINGLE POINT ENERGY     -1981.452702729968

DIPOLE MOMENT
-------------

Method             : SCF
Type of density    : Electron Density
Multiplicity       :   1
Irrep              :   0
Energy             : -1981.4726826543837888 Eh
Relativity type    :
Basis              : AO
                                X                 Y                 Z
Electronic contribution:     -9.503910122      -3.377957220      -2.302566140
Nuclear contribution   :      8.109795020       3.572077219       2.907577772
                        -----------------------------------------
Total Dipole Moment    :     -1.394115102       0.194120000       0.605011633
                        -----------------------------------------
Magnitude (a.u.)       :      1.532083081
Magnitude (Debye)      :      3.894245712

Rotational constants in cm-1:             0.014343             0.006674             0.005832
Rotational constants in MHz :           429.980268           200.086298           174.834407

                             ****ORCA TERMINATED NORMALLY****
TOTAL RUN TIME: 0 days 0 hours 1 minutes 22 seconds 64 msec
