                         Program Version 6.0.1  -  RELEASE   -
|  1> ! r2scan-3c def2/J RI DEFGRID2 scfconv6 printgap
|  2> %output
|  3>     printlevel normal
|  4> end
|  5> %cpcm
|  6>     smd true
|  7>     smdsolvent "water"
|  8> end
|  9> * xyz 0 1
| 10> C 4.0126797515 -0.2471447825 -2.4036426099
| 11> C 3.6894264091 -1.7211738059 -2.2205279085
| 12> O 2.4850552518 -1.8713188312 -1.4467980335
| 13> C 2.5851863187 -2.1312508551 -0.1548274958
| 14> O 3.6194808851 -2.3603736629 0.4285261235
| 15> C 1.2155726193 -2.1919001782 0.5018209338
| 16> C 0.4048276318 -0.9509216403 0.1500601937
| 17> H 0.2604870683 -0.8911852263 -0.9370165566
| 18> C 1.1391976767 0.3144053235 0.553993635
| 19> O 2.3410058514 0.4230705579 0.4730308884
| 20> O 0.3182923622 1.2631665567 0.9497010346
| 21> C 0.8648449991 2.5428755494 1.3289127186
| 22> C 1.2122772812 2.5579549458 2.8076693679
| 23> S -1.2508326111 -1.0259738537 0.9081305202
| 24> P -2.1413281862 0.5882377482 -0.1612011899
| 25> S -1.2931863579 1.096623091 -1.8516298664
| 26> O -3.6533592401 0.0798852884 -0.3148648868
| 27> C -3.9855191196 -1.0148196631 -1.175152266
| 28> O -2.3625137673 1.8039421891 0.8209995374
| 29> C -3.0304018988 1.6502133055 2.0892988052
| 30> H 4.1429867603 0.2233532593 -1.4312151871
| 31> H 4.9270110007 -0.1441730151 -2.9781946065
| 32> H 3.1997925255 0.2532461572 -2.9239335322
| 33> H 4.5013774901 -2.2390469311 -1.7023977782
| 34> H 3.4759588788 -2.2037524666 -3.175304532
| 35> H 1.3549389296 -2.2766195868 1.5796388414
| 36> H 0.6962941518 -3.0789129968 0.13635831
| 37> H 1.7476710606 2.7343224408 0.7130942835
| 38> H 0.0740702532 3.2548571652 1.0891655163
| 39> H 1.5582146978 3.5493269701 3.0803745816
| 40> H 0.3388728331 2.3062771049 3.4029578251
| 41> H 2.0028449599 1.8394323124 3.0130446756
| 42> H -3.5383160828 -0.8682473757 -2.1596206592
| 43> H -5.0700537475 -1.0121809536 -1.2475960189
| 44> H -3.6316756049 -1.9490625296 -0.7394672612
| 45> H -2.547884322 0.8649484271 2.6713182844
| 46> H -4.0780260217 1.4038950832 1.9287465967
| 47> H -2.9315687775 2.6138684887 2.5822295762
| 48> *
| 49>
| 50>                          ****END OF INPUT****

CARTESIAN COORDINATES (ANGSTROEM)
---------------------------------
  C      4.012680   -0.247145   -2.403643
  C      3.689426   -1.721174   -2.220528
  O      2.485055   -1.871319   -1.446798
  C      2.585186   -2.131251   -0.154827
  O      3.619481   -2.360374    0.428526
  C      1.215573   -2.191900    0.501821
  C      0.404828   -0.950922    0.150060
  H      0.260487   -0.891185   -0.937017
  C      1.139198    0.314405    0.553994
  O      2.341006    0.423071    0.473031
  O      0.318292    1.263167    0.949701
  C      0.864845    2.542876    1.328913
  C      1.212277    2.557955    2.807669
  S     -1.250833   -1.025974    0.908131
  P     -2.141328    0.588238   -0.161201
  S     -1.293186    1.096623   -1.851630
  O     -3.653359    0.079885   -0.314865
  C     -3.985519   -1.014820   -1.175152
  O     -2.362514    1.803942    0.821000
  C     -3.030402    1.650213    2.089299
  H      4.142987    0.223353   -1.431215
  H      4.927011   -0.144173   -2.978195
  H      3.199793    0.253246   -2.923934
  H      4.501377   -2.239047   -1.702398
  H      3.475959   -2.203752   -3.175305
  H      1.354939   -2.276620    1.579639
  H      0.696294   -3.078913    0.136358
  H      1.747671    2.734322    0.713094
  H      0.074070    3.254857    1.089166
  H      1.558215    3.549327    3.080375
  H      0.338873    2.306277    3.402958
  H      2.002845    1.839432    3.013045
  H     -3.538316   -0.868247   -2.159621
  H     -5.070054   -1.012181   -1.247596
  H     -3.631676   -1.949063   -0.739467
  H     -2.547884    0.864948    2.671318
  H     -4.078026    1.403895    1.928747
  H     -2.931569    2.613868    2.582230

 Total Charge           Charge          ....    0
 Multiplicity           Mult            ....    1
 Number of Electrons    NEL             ....  174
 Basis Dimension        Dim             ....  510

ORBITAL ENERGIES
----------------

  NO   OCC          E(Eh)            E(eV)
   0   2.0000     -88.580737     -2410.4044
   1   2.0000     -88.530044     -2409.0250
   2   2.0000     -76.921567     -2093.1423
   3   2.0000     -19.011778      -517.3368
   4   2.0000     -19.005143      -517.1562
   5   2.0000     -18.998079      -516.9640
   6   2.0000     -18.994547      -516.8679
   7   2.0000     -18.955892      -515.8160
   8   2.0000     -18.946017      -515.5473
   9   2.0000     -10.176617      -276.9198
  10   2.0000     -10.171952      -276.7929
  11   2.0000     -10.098505      -274.7943
  12   2.0000     -10.088360      -274.5182
  13   2.0000     -10.085459      -274.4393
  14   2.0000     -10.084283      -274.4073
  15   2.0000     -10.081598      -274.3342
  16   2.0000     -10.058887      -273.7162
  17   2.0000     -10.020740      -272.6782
  18   2.0000     -10.018050      -272.6050
  19   2.0000      -7.874884      -214.2865
  20   2.0000      -7.825069      -212.9310
  21   2.0000      -6.599846      -179.5909
  22   2.0000      -5.821738      -158.4175
  23   2.0000      -5.818903      -158.3404
  24   2.0000      -5.811897      -158.1498
  25   2.0000      -5.772823      -157.0865
  26   2.0000      -5.765359      -156.8834
  27   2.0000      -5.764904      -156.8710
  28   2.0000      -4.745531      -129.1325
  29   2.0000      -4.744864      -129.1143
  30   2.0000      -4.743435      -129.0754
  31   2.0000      -1.093444       -29.7541
  32   2.0000      -1.083012       -29.4703
  33   2.0000      -1.054510       -28.6947
  34   2.0000      -1.011522       -27.5249
  35   2.0000      -1.003837       -27.3158
  36   2.0000      -0.994391       -27.0588
  37   2.0000      -0.815593       -22.1934
  38   2.0000      -0.753780       -20.5114
  39   2.0000      -0.739942       -20.1348
  40   2.0000      -0.730035       -19.8653
  41   2.0000      -0.696666       -18.9572
  42   2.0000      -0.670676       -18.2500
  43   2.0000      -0.660739       -17.9796
  44   2.0000      -0.651421       -17.7261
  45   2.0000      -0.623381       -16.9631
  46   2.0000      -0.602028       -16.3820
  47   2.0000      -0.542019       -14.7491
  48   2.0000      -0.528475       -14.3805
  49   2.0000      -0.525031       -14.2868
  50   2.0000      -0.503982       -13.7141
  51   2.0000      -0.493038       -13.4163
  52   2.0000      -0.489439       -13.3183
  53   2.0000      -0.469293       -12.7701
  54   2.0000      -0.461228       -12.5507
  55   2.0000      -0.457557       -12.4508
  56   2.0000      -0.450274       -12.2526
  57   2.0000      -0.448219       -12.1967
  58   2.0000      -0.438329       -11.9275
  59   2.0000      -0.427500       -11.6329
  60   2.0000      -0.418263       -11.3815
  61   2.0000      -0.415513       -11.3067
  62   2.0000      -0.411101       -11.1866
  63   2.0000      -0.400353       -10.8942
  64   2.0000      -0.386968       -10.5299
  65   2.0000      -0.382066       -10.3965
  66   2.0000      -0.375112       -10.2073
  67   2.0000      -0.367956       -10.0126
  68   2.0000      -0.359356        -9.7786
  69   2.0000      -0.355745        -9.6803
  70   2.0000      -0.348743        -9.4898
  71   2.0000      -0.343592        -9.3496
  72   2.0000      -0.338433        -9.2092
  73   2.0000      -0.333553        -9.0764
  74   2.0000      -0.321007        -8.7350
  75   2.0000      -0.316545        -8.6136
  76   2.0000      -0.309701        -8.4274
  77   2.0000      -0.304515        -8.2863
  78   2.0000      -0.291793        -7.9401
  79   2.0000      -0.287767        -7.8305
  80   2.0000      -0.282007        -7.6738
  81   2.0000      -0.278468        -7.5775
  82   2.0000      -0.272928        -7.4268
  83   2.0000      -0.255337        -6.9481
  84   2.0000      -0.237592        -6.4652
  85   2.0000      -0.230290        -6.2665
  86   2.0000      -0.225379        -6.1329
  87   0.0000      -0.051310        -1.3962
  88   0.0000      -0.037812        -1.0289
  89   0.0000      -0.021106        -0.5743
  90   0.0000       0.002591         0.0705
  91   0.0000       0.012483         0.3397

MULLIKEN ATOMIC CHARGES
-----------------------
   0 C :   -0.503922
   1 C :   -0.141805
   2 O :   -0.157020
   3 C :    0.374018
   4 O :   -0.480926
   5 C :   -0.473631
   6 C :    0.035200
   7 H :    0.265993
   8 C :    0.288415
   9 O :   -0.446621
  10 O :   -0.124066
  11 C :   -0.158987
  12 C :   -0.496993
  13 S :   -0.207483
  14 P :    0.800904
  15 S :   -0.508077
  16 O :   -0.377866
  17 C :   -0.304923
  18 O :   -0.349954
  19 C :   -0.296803
  20 H :    0.171520
  21 H :    0.170000
  22 H :    0.168975
  23 H :    0.180653
  24 H :    0.173622
  25 H :    0.213841
  26 H :    0.224509
  27 H :    0.179240
  28 H :    0.183943
  29 H :    0.175161
  30 H :    0.169915
  31 H :    0.171546
  32 H :    0.176653
  33 H :    0.179727
  34 H :    0.175178
  35 H :    0.180463
  36 H :    0.184720
  37 H :    0.184883
Sum of atomic charges:    0.0000000

LOEWDIN ATOMIC CHARGES
----------------------
   0 C :   -0.392432
   1 C :    0.038106
   2 O :   -0.595901
   3 C :    0.366151
   4 O :   -0.477855
   5 C :   -0.195500
   6 C :   -0.201527
   7 H :    0.224624
   8 C :    0.371416
   9 O :   -0.452592
  10 O :   -0.624534
  11 C :    0.040713
  12 C :   -0.386427
  13 S :    0.210854
  14 P :    0.404025
  15 S :   -0.131460
  16 O :   -0.694388
  17 C :   -0.055121
  18 O :   -0.667172
  19 C :   -0.042474
  20 H :    0.166439
  21 H :    0.167081
  22 H :    0.162404
  23 H :    0.193211
  24 H :    0.189044
  25 H :    0.198126
  26 H :    0.205565
  27 H :    0.193811
  28 H :    0.193425
  29 H :    0.169458
  30 H :    0.163398
  31 H :    0.163791
  32 H :    0.177431
  33 H :    0.188840
  34 H :    0.176169
  35 H :    0.179523
  36 H :    0.181951
  37 H :    0.191830

  Mayer bond orders larger than 0.100000
B(  0-C ,  1-C ) :   0.9240 B(  0-C , 20-H ) :   0.9689 B(  0-C , 21-H ) :   0.9601
B(  0-C , 22-H ) :   0.9692 B(  1-C ,  2-O ) :   0.7804 B(  1-C , 23-H ) :   0.9680
B(  1-C , 24-H ) :   0.9499 B(  2-O ,  3-C ) :   1.0946 B(  2-O ,  6-C ) :   0.1029
B(  3-C ,  4-O ) :   1.8309 B(  3-C ,  5-C ) :   0.9179 B(  5-C ,  6-C ) :   0.8365
B(  5-C , 25-H ) :   1.0081 B(  5-C , 26-H ) :   0.9240 B(  6-C ,  7-H ) :   0.8891
B(  6-C ,  8-C ) :   0.9402 B(  6-C , 13-S ) :   0.8368 B(  8-C ,  9-O ) :   1.7411
B(  8-C , 10-O ) :   1.2059 B( 10-O , 11-C ) :   0.7465 B( 11-C , 12-C ) :   0.9194
B( 11-C , 27-H ) :   0.9537 B( 11-C , 28-H ) :   0.9517 B( 12-C , 29-H ) :   0.9611
B( 12-C , 30-H ) :   0.9730 B( 12-C , 31-H ) :   0.9692 B( 13-S , 14-P ) :   1.0065
B( 14-P , 15-S ) :   1.7740 B( 14-P , 16-O ) :   1.0394 B( 14-P , 18-O ) :   1.1554
B( 16-O , 17-C ) :   0.8225 B( 17-C , 32-H ) :   0.9556 B( 17-C , 33-H ) :   0.9573
B( 17-C , 34-H ) :   0.9498 B( 18-O , 19-C ) :   0.7837 B( 19-C , 35-H ) :   0.9484
B( 19-C , 36-H ) :   0.9517 B( 19-C , 37-H ) :   0.9544

Dispersion correction           -0.017598945
FINAL SINGLE POINT ENERGY     -1981.467095212921

DIPOLE MOMENT
-------------

Method             : SCF
Type of density    : Electron Density
Multiplicity       :   1
Irrep              :   0
Energy             : -1981.4870751373371149 Eh
Relativity type    :
Basis              : AO
                                X                 Y                 Z
Electronic contribution:    -10.170712989      -3.598096073      -2.086782724
Nuclear contribution   :      8.109795020       3.572077219       2.907577772
                        -----------------------------------------
Total Dipole Moment    :     -2.060917969      -0.026018854       0.820795049
                        -----------------------------------------
Magnitude (a.u.)       :      2.218504985
Magnitude (Debye)      :      5.638991534

Rotational constants in cm-1:             0.014343             0.006674             0.005832
Rotational constants in MHz :           429.980268           200.086298           174.834407

                             ****ORCA TERMINATED NORMALLY****
TOTAL RUN TIME: 0 days 0 hours 1 minutes 54 seconds 13 msec
