                         Program Version 6.0.0  -   RELEASE  -
|  1> ! r2scan-3c def2/J RI DEFGRID2 scfconv6 printgap
|  2> %output
|  3>     printlevel normal
|  4> end
|  5> * xyz 0 1
|  6> C 5.7233687 -0.1970187787 -0.1343206957
|  7> C 4.3328337409 -0.6391776237 -0.5426969904
|  8> O 3.3914855178 0.3163855463 -0.0135723687
|  9> P 1.8956003091 0.381230041 -0.5514370077
| 10> S 1.7329926604 0.5311814461 -2.4934703556
| 11> O 1.3253364421 1.6091336057 0.248076244
| 12> C 1.4702678519 1.749551722 1.6840775418
| 13> C 2.6046531754 2.6966914126 2.0135006895
| 14> S 1.0869378349 -1.3964206172 0.2976020767
| 15> C -0.1319250018 -1.8630480207 -0.969548192
| 16> S -1.8106870571 -2.0047660275 -0.3195622975
| 17> P -2.1204677296 0.046704373 0.1492534638
| 18> S -1.5077110793 1.3494767823 -1.1781777885
| 19> O -1.4569234894 0.2546097567 1.566984035
| 20> C -1.8974384567 -0.5138534062 2.7243897521
| 21> C -0.6958220089 -0.8369129827 3.587247954
| 22> O -3.6667613137 0.1123278991 0.5122782765
| 23> C -4.6939490637 0.3396370585 -0.4692426578
| 24> C -4.8051017925 -0.7989508616 -1.4620632392
| 25> H 5.9373045983 0.7866015164 -0.5432459293
| 26> H 5.7976122656 -0.1542796293 0.9484028929
| 27> H 6.4481321302 -0.9080586733 -0.5166020826
| 28> H 4.087924437 -1.6218718699 -0.1306833991
| 29> H 4.2221819827 -0.6681035312 -1.6316868605
| 30> H 0.5060216654 2.14073868 2.0157580896
| 31> H 1.6370582902 0.7604816379 2.1196860955
| 32> H 2.6483587607 2.836741066 3.0890664828
| 33> H 3.5483433776 2.287049675 1.6633015002
| 34> H 2.4387338837 3.6564006672 1.5313906963
| 35> H 0.13063712 -2.8494456436 -1.3432760165
| 36> H -0.0971313568 -1.1170562637 -1.7687781901
| 37> H -2.6221529069 0.1060777854 3.2540909229
| 38> H -2.3889858534 -1.4252113847 2.3728415046
| 39> H -0.2125961455 0.0772292531 3.9193536454
| 40> H -1.0302249703 -1.3998363463 4.4527756096
| 41> H 0.0197792358 -1.4351050323 3.0284197109
| 42> H -5.6008213255 0.4446077696 0.1279992522
| 43> H -4.4749539008 1.2796449756 -0.9848521385
| 44> H -4.9004802677 -1.7487218958 -0.941830847
| 45> H -5.6759852773 -0.6414001858 -2.0902080362
| 46> H -3.9183073159 -0.8299954183 -2.0936261659
| 47> *
| 48>
| 49>                          ****END OF INPUT****

CARTESIAN COORDINATES (ANGSTROEM)
---------------------------------
  C      5.723369   -0.197019   -0.134321
  C      4.332834   -0.639178   -0.542697
  O      3.391486    0.316386   -0.013572
  P      1.895600    0.381230   -0.551437
  S      1.732993    0.531181   -2.493470
  O      1.325336    1.609134    0.248076
  C      1.470268    1.749552    1.684078
  C      2.604653    2.696691    2.013501
  S      1.086938   -1.396421    0.297602
  C     -0.131925   -1.863048   -0.969548
  S     -1.810687   -2.004766   -0.319562
  P     -2.120468    0.046704    0.149253
  S     -1.507711    1.349477   -1.178178
  O     -1.456923    0.254610    1.566984
  C     -1.897438   -0.513853    2.724390
  C     -0.695822   -0.836913    3.587248
  O     -3.666761    0.112328    0.512278
  C     -4.693949    0.339637   -0.469243
  C     -4.805102   -0.798951   -1.462063
  H      5.937305    0.786602   -0.543246
  H      5.797612   -0.154280    0.948403
  H      6.448132   -0.908059   -0.516602
  H      4.087924   -1.621872   -0.130683
  H      4.222182   -0.668104   -1.631687
  H      0.506022    2.140739    2.015758
  H      1.637058    0.760482    2.119686
  H      2.648359    2.836741    3.089066
  H      3.548343    2.287050    1.663302
  H      2.438734    3.656401    1.531391
  H      0.130637   -2.849446   -1.343276
  H     -0.097131   -1.117056   -1.768778
  H     -2.622153    0.106078    3.254091
  H     -2.388986   -1.425211    2.372842
  H     -0.212596    0.077229    3.919354
  H     -1.030225   -1.399836    4.452776
  H      0.019779   -1.435105    3.028420
  H     -5.600821    0.444608    0.127999
  H     -4.474954    1.279645   -0.984852
  H     -4.900480   -1.748722   -0.941831
  H     -5.675985   -0.641400   -2.090208
  H     -3.918307   -0.829995   -2.093626

 Total Charge           Charge          ....    0
 Multiplicity           Mult            ....    1
 Number of Electrons    NEL             ....  202
 Basis Dimension        Dim             ....  539

ORBITAL ENERGIES
----------------

  NO   OCC          E(Eh)            E(eV)
   0   2.0000     -88.574177     -2410.2259
   1   2.0000     -88.570347     -2410.1217
   2   2.0000     -88.512776     -2408.5551
   3   2.0000     -88.511042     -2408.5079
   4   2.0000     -76.909862     -2092.8237
   5   2.0000     -76.907533     -2092.7604
   6   2.0000     -18.991315      -516.7799
   7   2.0000     -18.989934      -516.7424
   8   2.0000     -18.988035      -516.6907
   9   2.0000     -18.983245      -516.5603
  10   2.0000     -10.103259      -274.9237
  11   2.0000     -10.103022      -274.9172
  12   2.0000     -10.098160      -274.7849
  13   2.0000     -10.096495      -274.7396
  14   2.0000     -10.094831      -274.6943
  15   2.0000     -10.035140      -273.0700
  16   2.0000     -10.031867      -272.9810
  17   2.0000     -10.027671      -272.8668
  18   2.0000     -10.026640      -272.8387
  19   2.0000      -7.868749      -214.1195
  20   2.0000      -7.865003      -214.0176
  21   2.0000      -7.807235      -212.4457
  22   2.0000      -7.805840      -212.4077
  23   2.0000      -6.588312      -179.2771
  24   2.0000      -6.585972      -179.2134
  25   2.0000      -5.815621      -158.2511
  26   2.0000      -5.812391      -158.1632
  27   2.0000      -5.811770      -158.1463
  28   2.0000      -5.808765      -158.0645
  29   2.0000      -5.806030      -157.9901
  30   2.0000      -5.802246      -157.8872
  31   2.0000      -5.755054      -156.6030
  32   2.0000      -5.753647      -156.5647
  33   2.0000      -5.747402      -156.3948
  34   2.0000      -5.747246      -156.3905
  35   2.0000      -5.746097      -156.3592
  36   2.0000      -5.745690      -156.3482
  37   2.0000      -4.734201      -128.8242
  38   2.0000      -4.733246      -128.7982
  39   2.0000      -4.731724      -128.7568
  40   2.0000      -4.731661      -128.7550
  41   2.0000      -4.730975      -128.7364
  42   2.0000      -4.729409      -128.6938
  43   2.0000      -1.050065       -28.5737
  44   2.0000      -1.046311       -28.4716
  45   2.0000      -1.008182       -27.4340
  46   2.0000      -1.004061       -27.3219
  47   2.0000      -0.797105       -21.6903
  48   2.0000      -0.756848       -20.5949
  49   2.0000      -0.750734       -20.4285
  50   2.0000      -0.733945       -19.9717
  51   2.0000      -0.732775       -19.9398
  52   2.0000      -0.708948       -19.2914
  53   2.0000      -0.681494       -18.5444
  54   2.0000      -0.661690       -18.0055
  55   2.0000      -0.623925       -16.9779
  56   2.0000      -0.615128       -16.7385
  57   2.0000      -0.607166       -16.5218
  58   2.0000      -0.599162       -16.3040
  59   2.0000      -0.593231       -16.1426
  60   2.0000      -0.533426       -14.5153
  61   2.0000      -0.525045       -14.2872
  62   2.0000      -0.495692       -13.4885
  63   2.0000      -0.492329       -13.3969
  64   2.0000      -0.467067       -12.7095
  65   2.0000      -0.462083       -12.5739
  66   2.0000      -0.458905       -12.4874
  67   2.0000      -0.455297       -12.3893
  68   2.0000      -0.448908       -12.2154
  69   2.0000      -0.438324       -11.9274
  70   2.0000      -0.426134       -11.5957
  71   2.0000      -0.409563       -11.1448
  72   2.0000      -0.401919       -10.9368
  73   2.0000      -0.399753       -10.8778
  74   2.0000      -0.392476       -10.6798
  75   2.0000      -0.381252       -10.3744
  76   2.0000      -0.379358       -10.3229
  77   2.0000      -0.375672       -10.2225
  78   2.0000      -0.370022       -10.0688
  79   2.0000      -0.367713       -10.0060
  80   2.0000      -0.362235        -9.8569
  81   2.0000      -0.360747        -9.8164
  82   2.0000      -0.354824        -9.6553
  83   2.0000      -0.350537        -9.5386
  84   2.0000      -0.347713        -9.4617
  85   2.0000      -0.328299        -8.9335
  86   2.0000      -0.325295        -8.8517
  87   2.0000      -0.319412        -8.6916
  88   2.0000      -0.311697        -8.4817
  89   2.0000      -0.307100        -8.3566
  90   2.0000      -0.302564        -8.2332
  91   2.0000      -0.286180        -7.7874
  92   2.0000      -0.281731        -7.6663
  93   2.0000      -0.275348        -7.4926
  94   2.0000      -0.268938        -7.3182
  95   2.0000      -0.245651        -6.6845
  96   2.0000      -0.231951        -6.3117
  97   2.0000      -0.224499        -6.1089
  98   2.0000      -0.211988        -5.7685
  99   2.0000      -0.201818        -5.4917
 100   2.0000      -0.194939        -5.3046
 101   0.0000      -0.039836        -1.0840
 102   0.0000      -0.030571        -0.8319
 103   0.0000      -0.007562        -0.2058
 104   0.0000       0.012954         0.3525
 105   0.0000       0.018996         0.5169

MULLIKEN ATOMIC CHARGES
-----------------------
   0 C :   -0.445302
   1 C :   -0.154361
   2 O :   -0.277809
   3 P :    0.667712
   4 S :   -0.435382
   5 O :   -0.259417
   6 C :   -0.104149
   7 C :   -0.490288
   8 S :   -0.205755
   9 C :   -0.226453
  10 S :   -0.153720
  11 P :    0.615522
  12 S :   -0.382216
  13 O :   -0.254293
  14 C :   -0.095675
  15 C :   -0.474629
  16 O :   -0.295547
  17 C :   -0.162860
  18 C :   -0.455327
  19 H :    0.160187
  20 H :    0.149505
  21 H :    0.146448
  22 H :    0.152192
  23 H :    0.171195
  24 H :    0.174882
  25 H :    0.151791
  26 H :    0.143069
  27 H :    0.167139
  28 H :    0.161399
  29 H :    0.194424
  30 H :    0.223590
  31 H :    0.156186
  32 H :    0.154383
  33 H :    0.153257
  34 H :    0.147268
  35 H :    0.175922
  36 H :    0.146551
  37 H :    0.175426
  38 H :    0.152367
  39 H :    0.148603
  40 H :    0.184166
Sum of atomic charges:    0.0000000

LOEWDIN ATOMIC CHARGES
----------------------
   0 C :   -0.387572
   1 C :    0.015115
   2 O :   -0.682850
   3 P :    0.372350
   4 S :   -0.101072
   5 O :   -0.648655
   6 C :    0.020025
   7 C :   -0.392537
   8 S :    0.125579
   9 C :   -0.418528
  10 S :    0.123614
  11 P :    0.372188
  12 S :   -0.047714
  13 O :   -0.663059
  14 C :    0.021438
  15 C :   -0.397795
  16 O :   -0.671159
  17 C :    0.021815
  18 C :   -0.409097
  19 H :    0.161826
  20 H :    0.157548
  21 H :    0.159862
  22 H :    0.171775
  23 H :    0.181499
  24 H :    0.187518
  25 H :    0.174584
  26 H :    0.157339
  27 H :    0.166432
  28 H :    0.163409
  29 H :    0.180375
  30 H :    0.202727
  31 H :    0.175845
  32 H :    0.177004
  33 H :    0.158327
  34 H :    0.159356
  35 H :    0.166176
  36 H :    0.178974
  37 H :    0.181048
  38 H :    0.158894
  39 H :    0.159630
  40 H :    0.167768

  Mayer bond orders larger than 0.100000
B(  0-C ,  1-C ) :   0.9533 B(  0-C , 19-H ) :   0.9718 B(  0-C , 20-H ) :   0.9724
B(  0-C , 21-H ) :   0.9642 B(  1-C ,  2-O ) :   0.7923 B(  1-C , 22-H ) :   0.9421
B(  1-C , 23-H ) :   0.9492 B(  2-O ,  3-P ) :   1.0475 B(  3-P ,  4-S ) :   1.8382
B(  3-P ,  5-O ) :   1.1718 B(  3-P ,  8-S ) :   0.9903 B(  5-O ,  6-C ) :   0.7185
B(  6-C ,  7-C ) :   0.9321 B(  6-C , 24-H ) :   0.9549 B(  6-C , 25-H ) :   0.9660
B(  7-C , 26-H ) :   0.9661 B(  7-C , 27-H ) :   0.9700 B(  7-C , 28-H ) :   0.9741
B(  8-S ,  9-C ) :   0.8989 B(  9-C , 10-S ) :   0.9152 B(  9-C , 29-H ) :   0.9155
B(  9-C , 30-H ) :   0.9060 B( 10-S , 11-P ) :   1.0040 B( 11-P , 12-S ) :   1.8980
B( 11-P , 13-O ) :   1.0832 B( 11-P , 16-O ) :   1.0468 B( 13-O , 14-C ) :   0.7604
B( 14-C , 15-C ) :   0.9435 B( 14-C , 31-H ) :   0.9493 B( 14-C , 32-H ) :   0.9583
B( 15-C , 33-H ) :   0.9719 B( 15-C , 34-H ) :   0.9627 B( 15-C , 35-H ) :   0.9674
B( 16-O , 17-C ) :   0.8240 B( 17-C , 18-C ) :   0.9156 B( 17-C , 36-H ) :   0.9612
B( 17-C , 37-H ) :   0.9686 B( 18-C , 38-H ) :   0.9678 B( 18-C , 39-H ) :   0.9569
B( 18-C , 40-H ) :   0.9624

Dispersion correction           -0.022073704
FINAL SINGLE POINT ENERGY     -2932.456572431897

DIPOLE MOMENT
-------------

Method             : SCF
Type of density    : Electron Density
Multiplicity       :   1
Irrep              :   0
Energy             : -2932.4811226484785038 Eh
Relativity type    :
Basis              : AO
                                X                 Y                 Z
Electronic contribution:     -6.463954202      -0.282711302     -14.133106828
Nuclear contribution   :      6.307861025      -0.701722650      15.960013531
                        -----------------------------------------
Total Dipole Moment    :     -0.156093177      -0.984433952       1.826906703
                        -----------------------------------------
Magnitude (a.u.)       :      2.081120705
Magnitude (Debye)      :      5.289788446

Rotational constants in cm-1:             0.012879             0.005254             0.004867
Rotational constants in MHz :           386.102734           157.507951           145.913746

                             ****ORCA TERMINATED NORMALLY****
TOTAL RUN TIME: 0 days 0 hours 1 minutes 21 seconds 704 msec
