                         Program Version 6.0.0  -   RELEASE  -
|  1> ! pbe def2-sv(p) def2/J RI DEFGRID1 loosescf d4 GCP(DFT/SV(P)) printgap
|  2> %output
|  3>     printlevel normal
|  4> end
|  5> * xyz 0 1
|  6> C 1.8797828548 -2.1059254224 -2.2374363475
|  7> C 2.2774324363 -0.6600271295 -2.4499571078
|  8> O 1.8080590853 0.2205321932 -1.3957261796
|  9> P 2.1393596879 0.0544401745 0.1371265115
| 10> S 2.0788330859 1.7337159578 1.143079347
| 11> O 3.5588409525 -0.6607806463 0.0686368657
| 12> C 4.310590882 -0.9912196443 1.2528600025
| 13> C 5.3139218943 0.0969771153 1.5807944149
| 14> S 0.8911471215 -1.4878369433 0.9291474826
| 15> C -0.214865164 -0.5241608542 2.0010875299
| 16> S -1.9637622835 -0.8363092147 1.6634252651
| 17> P -2.1624790942 0.1650403414 -0.1764456569
| 18> S -1.0421691503 1.75392456 -0.4967111351
| 19> O -3.7348532927 0.3482908667 -0.3178780023
| 20> C -4.6057502522 0.9178939895 0.6758283829
| 21> C -4.1216185781 2.2584590298 1.1880339151
| 22> O -1.8927990135 -1.0068306768 -1.2128820128
| 23> C -1.6344852706 -0.7429194453 -2.6059692823
| 24> C -2.8497717508 -0.1745702435 -3.3070940421
| 25> H 2.1577091653 -2.6791081259 -3.1164321358
| 26> H 2.3905708312 -2.5176488629 -1.3693846638
| 27> H 0.8079602164 -2.1905855392 -2.078233991
| 28> H 1.8142358537 -0.2404793375 -3.3448578188
| 29> H 3.3623740486 -0.5596026308 -2.5124132723
| 30> H 3.6198757655 -1.1513462116 2.0852123394
| 31> H 4.810672153 -1.9304273553 1.0082064423
| 32> H 5.9026724663 -0.20697592 2.4401443291
| 33> H 5.9731006579 0.2660875783 0.7339262786
| 34> H 4.7979721703 1.0259427314 1.8133266613
| 35> H 0.0151655442 0.5377147093 1.8670523419
| 36> H -0.0546607491 -0.8321888122 3.0312229042
| 37> H -5.5609359529 1.0117270872 0.1559959937
| 38> H -4.6981379723 0.2007785736 1.4960987448
| 39> H -3.9709520202 2.9504757777 0.3625381069
| 40> H -4.8554763664 2.6704389212 1.8731710949
| 41> H -3.1738897639 2.1412373382 1.712863578
| 42> H -0.7905563793 -0.0477723308 -2.6748055668
| 43> H -1.3569389419 -1.7170796751 -3.0113495989
| 44> H -2.6408281735 -0.0755135732 -4.3678067687
| 45> H -3.7054378889 -0.8286031526 -3.1627906215
| 46> H -3.0845791188 0.8067998416 -2.8966005866
| 47> *
| 48>
| 49>                          ****END OF INPUT****

CARTESIAN COORDINATES (ANGSTROEM)
---------------------------------
  C      1.879783   -2.105925   -2.237436
  C      2.277432   -0.660027   -2.449957
  O      1.808059    0.220532   -1.395726
  P      2.139360    0.054440    0.137127
  S      2.078833    1.733716    1.143079
  O      3.558841   -0.660781    0.068637
  C      4.310591   -0.991220    1.252860
  C      5.313922    0.096977    1.580794
  S      0.891147   -1.487837    0.929147
  C     -0.214865   -0.524161    2.001088
  S     -1.963762   -0.836309    1.663425
  P     -2.162479    0.165040   -0.176446
  S     -1.042169    1.753925   -0.496711
  O     -3.734853    0.348291   -0.317878
  C     -4.605750    0.917894    0.675828
  C     -4.121619    2.258459    1.188034
  O     -1.892799   -1.006831   -1.212882
  C     -1.634485   -0.742919   -2.605969
  C     -2.849772   -0.174570   -3.307094
  H      2.157709   -2.679108   -3.116432
  H      2.390571   -2.517649   -1.369385
  H      0.807960   -2.190586   -2.078234
  H      1.814236   -0.240479   -3.344858
  H      3.362374   -0.559603   -2.512413
  H      3.619876   -1.151346    2.085212
  H      4.810672   -1.930427    1.008206
  H      5.902672   -0.206976    2.440144
  H      5.973101    0.266088    0.733926
  H      4.797972    1.025943    1.813327
  H      0.015166    0.537715    1.867052
  H     -0.054661   -0.832189    3.031223
  H     -5.560936    1.011727    0.155996
  H     -4.698138    0.200779    1.496099
  H     -3.970952    2.950476    0.362538
  H     -4.855476    2.670439    1.873171
  H     -3.173890    2.141237    1.712864
  H     -0.790556   -0.047772   -2.674806
  H     -1.356939   -1.717080   -3.011350
  H     -2.640828   -0.075514   -4.367807
  H     -3.705438   -0.828603   -3.162791
  H     -3.084579    0.806800   -2.896601

 Total Charge           Charge          ....    0
 Multiplicity           Mult            ....    1
 Number of Electrons    NEL             ....  202
 Basis Dimension        Dim             ....  334

ORBITAL ENERGIES
----------------

  NO   OCC          E(Eh)            E(eV)
   0   2.0000     -88.043919     -2395.7968
   1   2.0000     -88.038743     -2395.6560
   2   2.0000     -87.979342     -2394.0396
   3   2.0000     -87.977899     -2394.0003
   4   2.0000     -76.424021     -2079.6033
   5   2.0000     -76.421271     -2079.5285
   6   2.0000     -18.793620      -511.4004
   7   2.0000     -18.789040      -511.2758
   8   2.0000     -18.788144      -511.2514
   9   2.0000     -18.781835      -511.0797
  10   2.0000      -9.956650      -270.9342
  11   2.0000      -9.955907      -270.9140
  12   2.0000      -9.954514      -270.8761
  13   2.0000      -9.951908      -270.8052
  14   2.0000      -9.947459      -270.6841
  15   2.0000      -9.889131      -269.0969
  16   2.0000      -9.880506      -268.8622
  17   2.0000      -9.879805      -268.8431
  18   2.0000      -9.879663      -268.8393
  19   2.0000      -7.689370      -209.2384
  20   2.0000      -7.683339      -209.0743
  21   2.0000      -7.624508      -207.4734
  22   2.0000      -7.622456      -207.4176
  23   2.0000      -6.421151      -174.7284
  24   2.0000      -6.418613      -174.6593
  25   2.0000      -5.717248      -155.5742
  26   2.0000      -5.713634      -155.4759
  27   2.0000      -5.711164      -155.4087
  28   2.0000      -5.707798      -155.3171
  29   2.0000      -5.706526      -155.2825
  30   2.0000      -5.700502      -155.1186
  31   2.0000      -5.653554      -153.8410
  32   2.0000      -5.651426      -153.7831
  33   2.0000      -5.644918      -153.6060
  34   2.0000      -5.644687      -153.5997
  35   2.0000      -5.643204      -153.5594
  36   2.0000      -5.642534      -153.5412
  37   2.0000      -4.644177      -126.3745
  38   2.0000      -4.642722      -126.3349
  39   2.0000      -4.641451      -126.3003
  40   2.0000      -4.641133      -126.2917
  41   2.0000      -4.640543      -126.2756
  42   2.0000      -4.638978      -126.2330
  43   2.0000      -0.987455       -26.8700
  44   2.0000      -0.981621       -26.7113
  45   2.0000      -0.941741       -25.6261
  46   2.0000      -0.940148       -25.5827
  47   2.0000      -0.760218       -20.6866
  48   2.0000      -0.718025       -19.5385
  49   2.0000      -0.707591       -19.2545
  50   2.0000      -0.691012       -18.8034
  51   2.0000      -0.685451       -18.6521
  52   2.0000      -0.674083       -18.3427
  53   2.0000      -0.649000       -17.6602
  54   2.0000      -0.631113       -17.1734
  55   2.0000      -0.594591       -16.1796
  56   2.0000      -0.589368       -16.0375
  57   2.0000      -0.576278       -15.6813
  58   2.0000      -0.572216       -15.5708
  59   2.0000      -0.560746       -15.2587
  60   2.0000      -0.501642       -13.6504
  61   2.0000      -0.489415       -13.3177
  62   2.0000      -0.473968       -12.8973
  63   2.0000      -0.465990       -12.6802
  64   2.0000      -0.452030       -12.3004
  65   2.0000      -0.450302       -12.2533
  66   2.0000      -0.439727       -11.9656
  67   2.0000      -0.432844       -11.7783
  68   2.0000      -0.425341       -11.5741
  69   2.0000      -0.420325       -11.4376
  70   2.0000      -0.410843       -11.1796
  71   2.0000      -0.399000       -10.8573
  72   2.0000      -0.391521       -10.6538
  73   2.0000      -0.389158       -10.5895
  74   2.0000      -0.385764       -10.4972
  75   2.0000      -0.368728       -10.0336
  76   2.0000      -0.360728        -9.8159
  77   2.0000      -0.354962        -9.6590
  78   2.0000      -0.350613        -9.5407
  79   2.0000      -0.345865        -9.4115
  80   2.0000      -0.344532        -9.3752
  81   2.0000      -0.342355        -9.3159
  82   2.0000      -0.338770        -9.2184
  83   2.0000      -0.335225        -9.1219
  84   2.0000      -0.331917        -9.0319
  85   2.0000      -0.314565        -8.5598
  86   2.0000      -0.312074        -8.4920
  87   2.0000      -0.297422        -8.0933
  88   2.0000      -0.294383        -8.0106
  89   2.0000      -0.291175        -7.9233
  90   2.0000      -0.284651        -7.7457
  91   2.0000      -0.275346        -7.4925
  92   2.0000      -0.266810        -7.2603
  93   2.0000      -0.258483        -7.0337
  94   2.0000      -0.255816        -6.9611
  95   2.0000      -0.232814        -6.3352
  96   2.0000      -0.222394        -6.0516
  97   2.0000      -0.211296        -5.7497
  98   2.0000      -0.195851        -5.3294
  99   2.0000      -0.189559        -5.1582
 100   2.0000      -0.179757        -4.8914
 101   0.0000      -0.036996        -1.0067
 102   0.0000      -0.032660        -0.8887
 103   0.0000      -0.010706        -0.2913
 104   0.0000       0.013618         0.3706
 105   0.0000       0.016564         0.4507

MULLIKEN ATOMIC CHARGES
-----------------------
   0 C :   -0.357101
   1 C :    0.010720
   2 O :   -0.359306
   3 P :    0.612805
   4 S :   -0.289567
   5 O :   -0.386247
   6 C :   -0.003520
   7 C :   -0.287411
   8 S :   -0.113943
   9 C :   -0.346684
  10 S :   -0.100535
  11 P :    0.599527
  12 S :   -0.298963
  13 O :   -0.377211
  14 C :   -0.009761
  15 C :   -0.310790
  16 O :   -0.363958
  17 C :   -0.051850
  18 C :   -0.281625
  19 H :    0.114476
  20 H :    0.125330
  21 H :    0.154351
  22 H :    0.110619
  23 H :    0.111395
  24 H :    0.096364
  25 H :    0.102589
  26 H :    0.106209
  27 H :    0.110691
  28 H :    0.129956
  29 H :    0.209627
  30 H :    0.178539
  31 H :    0.107862
  32 H :    0.112612
  33 H :    0.126558
  34 H :    0.110176
  35 H :    0.127028
  36 H :    0.129799
  37 H :    0.107541
  38 H :    0.106154
  39 H :    0.113677
  40 H :    0.123869
Sum of atomic charges:    0.0000000

LOEWDIN ATOMIC CHARGES
----------------------
   0 C :   -0.374786
   1 C :   -0.107056
   2 O :   -0.233168
   3 P :    0.573263
   4 S :   -0.289310
   5 O :   -0.248711
   6 C :   -0.116869
   7 C :   -0.363042
   8 S :    0.063366
   9 C :   -0.481734
  10 S :    0.083424
  11 P :    0.561622
  12 S :   -0.295184
  13 O :   -0.246137
  14 C :   -0.114480
  15 C :   -0.370084
  16 O :   -0.244295
  17 C :   -0.124626
  18 C :   -0.363872
  19 H :    0.132419
  20 H :    0.119655
  21 H :    0.129713
  22 H :    0.119811
  23 H :    0.115766
  24 H :    0.105049
  25 H :    0.116141
  26 H :    0.128294
  27 H :    0.124716
  28 H :    0.125291
  29 H :    0.125191
  30 H :    0.135258
  31 H :    0.120852
  32 H :    0.108869
  33 H :    0.129811
  34 H :    0.129355
  35 H :    0.121432
  36 H :    0.111882
  37 H :    0.114608
  38 H :    0.128117
  39 H :    0.125538
  40 H :    0.123912

  Mayer bond orders larger than 0.100000
B(  0-C ,  1-C ) :   1.1718 B(  0-C , 19-H ) :   0.9348 B(  0-C , 20-H ) :   0.9340
B(  0-C , 21-H ) :   0.9281 B(  1-C ,  2-O ) :   0.8977 B(  1-C , 22-H ) :   0.9285
B(  1-C , 23-H ) :   0.9290 B(  2-O ,  3-P ) :   1.1305 B(  3-P ,  4-S ) :   1.6409
B(  3-P ,  5-O ) :   1.0644 B(  3-P ,  8-S ) :   0.9460 B(  4-S ,  8-S ) :   0.1229
B(  4-S , 29-H ) :   0.1004 B(  5-O ,  6-C ) :   0.9039 B(  6-C ,  7-C ) :   1.1680
B(  6-C , 24-H ) :   0.9109 B(  6-C , 25-H ) :   0.9363 B(  7-C , 26-H ) :   0.9396
B(  7-C , 27-H ) :   0.9474 B(  7-C , 28-H ) :   0.9298 B(  8-S ,  9-C ) :   0.9972
B(  9-C , 10-S ) :   1.0056 B(  9-C , 29-H ) :   0.8404 B(  9-C , 30-H ) :   0.9109
B( 10-S , 11-P ) :   0.9460 B( 10-S , 12-S ) :   0.1137 B( 11-P , 12-S ) :   1.6366
B( 11-P , 13-O ) :   1.0928 B( 11-P , 16-O ) :   1.1217 B( 13-O , 14-C ) :   0.9163
B( 14-C , 15-C ) :   1.1637 B( 14-C , 31-H ) :   0.9342 B( 14-C , 32-H ) :   0.9281
B( 15-C , 33-H ) :   0.9423 B( 15-C , 34-H ) :   0.9347 B( 15-C , 35-H ) :   0.9328
B( 16-O , 17-C ) :   0.9067 B( 17-C , 18-C ) :   1.1651 B( 17-C , 36-H ) :   0.9056
B( 17-C , 37-H ) :   0.9248 B( 18-C , 38-H ) :   0.9385 B( 18-C , 39-H ) :   0.9449
B( 18-C , 40-H ) :   0.9323

Dispersion correction           -0.067292688
FINAL SINGLE POINT ENERGY     -2929.512977264123

DIPOLE MOMENT
-------------

Method             : SCF
Type of density    : Electron Density
Multiplicity       :   1
Irrep              :   0
Energy             : -2929.6319112595692786 Eh
Relativity type    :
Basis              : AO
                                X                 Y                 Z
Electronic contribution:     -1.728581443       2.162924604       9.063956236
Nuclear contribution   :      1.668939293      -3.404067524      -9.440373498
                        -----------------------------------------
Total Dipole Moment    :     -0.059642150      -1.241142920      -0.376417262
                        -----------------------------------------
Magnitude (a.u.)       :      1.298338511
Magnitude (Debye)      :      3.300114231

Rotational constants in cm-1:             0.013145             0.005299             0.004697
Rotational constants in MHz :           394.085663           158.850652           140.826832

                             ****ORCA TERMINATED NORMALLY****
TOTAL RUN TIME: 0 days 0 hours 0 minutes 21 seconds 420 msec
