                         Program Version 6.0.0  -   RELEASE  -
|  1> ! r2scan-3c def2/J RI DEFGRID2 scfconv6 printgap
|  2> %output
|  3>     printlevel normal
|  4> end
|  5> * xyz 0 1
|  6> C -2.5603590926 0.6023237791 -0.0036295454
|  7> C -1.2167807897 -0.0620783726 -0.0003066934
|  8> C -1.1358256172 -1.4470503063 -8.77744e-05
|  9> C 0.0923415542 -2.0826809439 0.0023981274
| 10> C 1.2491467975 -1.3327577129 0.0016650973
| 11> C 1.18471437 0.0577155856 -8.97427e-05
| 12> C -0.0506269354 0.7115836833 0.002227124
| 13> C -0.1737179146 2.2098857048 0.0052000921
| 14> O 2.3871320883 0.7061133091 -0.0047888749
| 15> H -2.6854094223 1.2228527031 0.8824285503
| 16> H -2.6708982676 1.2430593056 -0.87694782
| 17> H -3.3516312181 -0.1418565855 -0.0179693072
| 18> H -2.0429733925 -2.0330020778 -0.0016585682
| 19> H 0.1494718471 -3.1604942384 0.003459646
| 20> H 2.2235896831 -1.7958682134 0.0012769945
| 21> H 0.7857509549 2.7181048736 0.0496846202
| 22> H -0.6887982195 2.5440794909 -0.8946740259
| 23> H -0.7605129203 2.5328885069 0.8638249541
| 24> H 2.2642828517 1.6664336358 -0.021313363
| 25> *
| 26>
| 27>                          ****END OF INPUT****

CARTESIAN COORDINATES (ANGSTROEM)
---------------------------------
  C     -2.560359    0.602324   -0.003630
  C     -1.216781   -0.062078   -0.000307
  C     -1.135826   -1.447050   -0.000088
  C      0.092342   -2.082681    0.002398
  C      1.249147   -1.332758    0.001665
  C      1.184714    0.057716   -0.000090
  C     -0.050627    0.711584    0.002227
  C     -0.173718    2.209886    0.005200
  O      2.387132    0.706113   -0.004789
  H     -2.685409    1.222853    0.882429
  H     -2.670898    1.243059   -0.876948
  H     -3.351631   -0.141857   -0.017969
  H     -2.042973   -2.033002   -0.001659
  H      0.149472   -3.160494    0.003460
  H      2.223590   -1.795868    0.001277
  H      0.785751    2.718105    0.049685
  H     -0.688798    2.544079   -0.894674
  H     -0.760513    2.532889    0.863825
  H      2.264283    1.666434   -0.021313

 Total Charge           Charge          ....    0
 Multiplicity           Mult            ....    1
 Number of Electrons    NEL             ....   66
 Basis Dimension        Dim             ....  226

ORBITAL ENERGIES
----------------

  NO   OCC          E(Eh)            E(eV)
   0   2.0000     -18.980236      -516.4785
   1   2.0000     -10.090315      -274.5714
   2   2.0000     -10.042371      -273.2668
   3   2.0000     -10.039883      -273.1991
   4   2.0000     -10.039443      -273.1871
   5   2.0000     -10.028633      -272.8930
   6   2.0000     -10.027008      -272.8488
   7   2.0000     -10.021102      -272.6880
   8   2.0000     -10.018837      -272.6264
   9   2.0000      -1.022983       -27.8368
  10   2.0000      -0.824923       -22.4473
  11   2.0000      -0.751077       -20.4378
  12   2.0000      -0.725029       -19.7290
  13   2.0000      -0.672372       -18.2962
  14   2.0000      -0.645541       -17.5661
  15   2.0000      -0.573945       -15.6178
  16   2.0000      -0.548262       -14.9190
  17   2.0000      -0.507823       -13.8186
  18   2.0000      -0.461067       -12.5463
  19   2.0000      -0.435214       -11.8428
  20   2.0000      -0.417651       -11.3649
  21   2.0000      -0.390572       -10.6280
  22   2.0000      -0.378357       -10.2956
  23   2.0000      -0.376056       -10.2330
  24   2.0000      -0.374717       -10.1966
  25   2.0000      -0.370749       -10.0886
  26   2.0000      -0.364233        -9.9113
  27   2.0000      -0.339237        -9.2311
  28   2.0000      -0.317453        -8.6383
  29   2.0000      -0.299932        -8.1616
  30   2.0000      -0.299290        -8.1441
  31   2.0000      -0.219224        -5.9654
  32   2.0000      -0.197975        -5.3872
  33   0.0000      -0.024490        -0.6664
  34   0.0000      -0.007879        -0.2144
  35   0.0000       0.043634         1.1873
  36   0.0000       0.088029         2.3954
  37   0.0000       0.096675         2.6307

MULLIKEN ATOMIC CHARGES
-----------------------
   0 C :   -0.553444
   1 C :    0.252195
   2 C :   -0.282924
   3 C :   -0.117444
   4 C :   -0.317676
   5 C :    0.425909
   6 C :   -0.109949
   7 C :   -0.548071
   8 O :   -0.405889
   9 H :    0.161592
  10 H :    0.158136
  11 H :    0.152644
  12 H :    0.144764
  13 H :    0.145306
  14 H :    0.156188
  15 H :    0.108284
  16 H :    0.173570
  17 H :    0.166783
  18 H :    0.290029
Sum of atomic charges:   -0.0000000

LOEWDIN ATOMIC CHARGES
----------------------
   0 C :   -0.386348
   1 C :   -0.086272
   2 C :   -0.189735
   3 C :   -0.156273
   4 C :   -0.145228
   5 C :    0.192007
   6 C :   -0.101386
   7 C :   -0.375254
   8 O :   -0.509872
   9 H :    0.162116
  10 H :    0.162221
  11 H :    0.160906
  12 H :    0.165975
  13 H :    0.167379
  14 H :    0.179532
  15 H :    0.146871
  16 H :    0.168205
  17 H :    0.168240
  18 H :    0.276915

  Mayer bond orders larger than 0.100000
B(  0-C ,  1-C ) :   0.7829 B(  0-C ,  9-H ) :   0.9824 B(  0-C , 10-H ) :   0.9776
B(  0-C , 11-H ) :   0.9862 B(  1-C ,  2-C ) :   1.4082 B(  1-C ,  6-C ) :   1.4083
B(  2-C ,  3-C ) :   1.4281 B(  2-C , 12-H ) :   0.9217 B(  3-C ,  4-C ) :   1.3979
B(  3-C , 13-H ) :   0.9476 B(  4-C ,  5-C ) :   1.3830 B(  4-C , 14-H ) :   0.9460
B(  5-C ,  6-C ) :   1.4004 B(  5-C ,  8-O ) :   0.9440 B(  6-C ,  7-C ) :   0.8190
B(  7-C , 15-H ) :   0.9802 B(  7-C , 16-H ) :   0.9820 B(  7-C , 17-H ) :   0.9773
B(  8-O , 18-H ) :   0.8728

Dispersion correction           -0.006359766
FINAL SINGLE POINT ENERGY      -386.002621214864

DIPOLE MOMENT
-------------

Method             : SCF
Type of density    : Electron Density
Multiplicity       :   1
Irrep              :   0
Energy             :  -386.0039605821567079 Eh
Relativity type    :
Basis              : AO
                                X                 Y                 Z
Electronic contribution:      5.886581170      -3.820514343       0.001497501
Nuclear contribution   :     -6.322712180       4.510107044      -0.011224221
                        -----------------------------------------
Total Dipole Moment    :     -0.436131010       0.689592701      -0.009726720
                        -----------------------------------------
Magnitude (a.u.)       :      0.815992010
Magnitude (Debye)      :      2.074086859

Rotational constants in cm-1:             0.075721             0.059296             0.033670
Rotational constants in MHz :          2270.054319          1777.645184          1009.387852

                             ****ORCA TERMINATED NORMALLY****
TOTAL RUN TIME: 0 days 0 hours 0 minutes 22 seconds 498 msec
