                         Program Version 6.0.0  -   RELEASE  -
|  1> ! r2scan-3c def2/J RI DEFGRID2 scfconv6 printgap
|  2> %output
|  3>     printlevel normal
|  4> end
|  5> %cpcm
|  6>     smd true
|  7>     smdsolvent "water"
|  8> end
|  9> * xyz 0 1
| 10> C -2.5603590926 0.6023237791 -0.0036295454
| 11> C -1.2167807897 -0.0620783726 -0.0003066934
| 12> C -1.1358256172 -1.4470503063 -8.77744e-05
| 13> C 0.0923415542 -2.0826809439 0.0023981274
| 14> C 1.2491467975 -1.3327577129 0.0016650973
| 15> C 1.18471437 0.0577155856 -8.97427e-05
| 16> C -0.0506269354 0.7115836833 0.002227124
| 17> C -0.1737179146 2.2098857048 0.0052000921
| 18> O 2.3871320883 0.7061133091 -0.0047888749
| 19> H -2.6854094223 1.2228527031 0.8824285503
| 20> H -2.6708982676 1.2430593056 -0.87694782
| 21> H -3.3516312181 -0.1418565855 -0.0179693072
| 22> H -2.0429733925 -2.0330020778 -0.0016585682
| 23> H 0.1494718471 -3.1604942384 0.003459646
| 24> H 2.2235896831 -1.7958682134 0.0012769945
| 25> H 0.7857509549 2.7181048736 0.0496846202
| 26> H -0.6887982195 2.5440794909 -0.8946740259
| 27> H -0.7605129203 2.5328885069 0.8638249541
| 28> H 2.2642828517 1.6664336358 -0.021313363
| 29> *
| 30>
| 31>                          ****END OF INPUT****

CARTESIAN COORDINATES (ANGSTROEM)
---------------------------------
  C     -2.560359    0.602324   -0.003630
  C     -1.216781   -0.062078   -0.000307
  C     -1.135826   -1.447050   -0.000088
  C      0.092342   -2.082681    0.002398
  C      1.249147   -1.332758    0.001665
  C      1.184714    0.057716   -0.000090
  C     -0.050627    0.711584    0.002227
  C     -0.173718    2.209886    0.005200
  O      2.387132    0.706113   -0.004789
  H     -2.685409    1.222853    0.882429
  H     -2.670898    1.243059   -0.876948
  H     -3.351631   -0.141857   -0.017969
  H     -2.042973   -2.033002   -0.001659
  H      0.149472   -3.160494    0.003460
  H      2.223590   -1.795868    0.001277
  H      0.785751    2.718105    0.049685
  H     -0.688798    2.544079   -0.894674
  H     -0.760513    2.532889    0.863825
  H      2.264283    1.666434   -0.021313

 Total Charge           Charge          ....    0
 Multiplicity           Mult            ....    1
 Number of Electrons    NEL             ....   66
 Basis Dimension        Dim             ....  226

ORBITAL ENERGIES
----------------

  NO   OCC          E(Eh)            E(eV)
   0   2.0000     -18.980032      -516.4729
   1   2.0000     -10.091988      -274.6170
   2   2.0000     -10.039979      -273.2017
   3   2.0000     -10.039078      -273.1772
   4   2.0000     -10.028057      -272.8773
   5   2.0000     -10.024082      -272.7691
   6   2.0000     -10.022830      -272.7351
   7   2.0000     -10.019057      -272.6324
   8   2.0000     -10.017191      -272.5816
   9   2.0000      -1.023038       -27.8383
  10   2.0000      -0.825695       -22.4683
  11   2.0000      -0.747904       -20.3515
  12   2.0000      -0.721276       -19.6269
  13   2.0000      -0.666483       -18.1359
  14   2.0000      -0.639807       -17.4100
  15   2.0000      -0.571474       -15.5506
  16   2.0000      -0.546473       -14.8703
  17   2.0000      -0.503630       -13.7045
  18   2.0000      -0.458740       -12.4829
  19   2.0000      -0.433177       -11.7873
  20   2.0000      -0.409110       -11.1324
  21   2.0000      -0.386018       -10.5041
  22   2.0000      -0.371929       -10.1207
  23   2.0000      -0.370468       -10.0810
  24   2.0000      -0.368755       -10.0343
  25   2.0000      -0.359294        -9.7769
  26   2.0000      -0.358623        -9.7586
  27   2.0000      -0.335137        -9.1196
  28   2.0000      -0.313719        -8.5367
  29   2.0000      -0.303746        -8.2653
  30   2.0000      -0.296812        -8.0767
  31   2.0000      -0.221174        -6.0184
  32   2.0000      -0.202201        -5.5022
  33   0.0000      -0.026844        -0.7305
  34   0.0000      -0.011677        -0.3178
  35   0.0000       0.065182         1.7737
  36   0.0000       0.094932         2.5832
  37   0.0000       0.109572         2.9816

MULLIKEN ATOMIC CHARGES
-----------------------
   0 C :   -0.579629
   1 C :    0.208323
   2 C :   -0.317926
   3 C :   -0.164791
   4 C :   -0.355289
   5 C :    0.397457
   6 C :   -0.093054
   7 C :   -0.576084
   8 O :   -0.459339
   9 H :    0.183884
  10 H :    0.180446
  11 H :    0.169883
  12 H :    0.175101
  13 H :    0.176441
  14 H :    0.180415
  15 H :    0.147447
  16 H :    0.190424
  17 H :    0.184271
  18 H :    0.352022
Sum of atomic charges:    0.0000000

LOEWDIN ATOMIC CHARGES
----------------------
   0 C :   -0.391690
   1 C :   -0.091749
   2 C :   -0.205287
   3 C :   -0.173775
   4 C :   -0.167712
   5 C :    0.177370
   6 C :   -0.097022
   7 C :   -0.377760
   8 O :   -0.528742
   9 H :    0.170966
  10 H :    0.170890
  11 H :    0.165391
  12 H :    0.176309
  13 H :    0.177240
  14 H :    0.185889
  15 H :    0.161931
  16 H :    0.175467
  17 H :    0.175177
  18 H :    0.297106

  Mayer bond orders larger than 0.100000
B(  0-C ,  1-C ) :   0.8076 B(  0-C ,  9-H ) :   0.9732 B(  0-C , 10-H ) :   0.9696
B(  0-C , 11-H ) :   0.9810 B(  1-C ,  2-C ) :   1.3757 B(  1-C ,  6-C ) :   1.3608
B(  2-C ,  3-C ) :   1.3869 B(  2-C , 12-H ) :   0.9454 B(  3-C ,  4-C ) :   1.3681
B(  3-C , 13-H ) :   0.9606 B(  4-C ,  5-C ) :   1.3252 B(  4-C , 14-H ) :   0.9631
B(  5-C ,  6-C ) :   1.3781 B(  5-C ,  8-O ) :   0.9394 B(  6-C ,  7-C ) :   0.8497
B(  7-C , 15-H ) :   0.9741 B(  7-C , 16-H ) :   0.9732 B(  7-C , 17-H ) :   0.9696
B(  8-O , 18-H ) :   0.8483

Dispersion correction           -0.006359766
FINAL SINGLE POINT ENERGY      -386.011456017206

DIPOLE MOMENT
-------------

Method             : SCF
Type of density    : Electron Density
Multiplicity       :   1
Irrep              :   0
Energy             :  -386.0127953844990998 Eh
Relativity type    :
Basis              : AO
                                X                 Y                 Z
Electronic contribution:      5.683322028      -3.426310583      -0.002562618
Nuclear contribution   :     -6.322712180       4.510107044      -0.011224221
                        -----------------------------------------
Total Dipole Moment    :     -0.639390152       1.083796461      -0.013786838
                        -----------------------------------------
Magnitude (a.u.)       :      1.258421476
Magnitude (Debye)      :      3.198653192

Rotational constants in cm-1:             0.075721             0.059296             0.033670
Rotational constants in MHz :          2270.054319          1777.645184          1009.387852

                             ****ORCA TERMINATED NORMALLY****
TOTAL RUN TIME: 0 days 0 hours 0 minutes 30 seconds 115 msec
