                         Program Version 6.0.0  -   RELEASE  -
|  1> ! r2scan-3c def2/J RI DEFGRID2 scfconv6 printgap
|  2> %output
|  3>     printlevel normal
|  4> end
|  5> * xyz 0 1
|  6> C 1.4904897177 0.2689643313 -3.6044022512
|  7> C 2.3654851695 0.1846891296 -2.3717016608
|  8> O 1.623066344 -0.494165991 -1.3295635508
|  9> P 2.1219890077 -0.4043211708 0.1726448744
| 10> S 2.5584569962 1.3735058695 0.8853118882
| 11> O 3.383046167 -1.3771059389 0.0995563174
| 12> C 4.3985296969 -1.4036419957 1.1167563535
| 13> C 3.8698278493 -1.9198542309 2.4393316815
| 14> S 0.6284192304 -1.5281218367 1.1436189881
| 15> C -0.1146240818 -0.22789701 2.1924972365
| 16> S -1.9173235231 -0.1583603958 2.0560227668
| 17> P -2.0688552093 0.3064851517 0.0053027438
| 18> S -0.7480482767 1.5842667246 -0.6968569942
| 19> O -3.5966881097 0.7126329657 -0.1430455063
| 20> C -4.1357506954 1.9432336602 0.3799340074
| 21> C -4.1264136279 3.0327961585 -0.6751728278
| 22> O -2.0783559672 -1.1352482031 -0.6387768554
| 23> C -1.6929277495 -1.3978290444 -2.003009013
| 24> C -2.6332694333 -0.7319216325 -2.9844998797
| 25> H 0.5947146218 0.8435062751 -3.3817836305
| 26> H 2.0432521727 0.7662241879 -4.394755766
| 27> H 1.2072661314 -0.7270441703 -3.9325925177
| 28> H 2.6328815676 1.183088589 -2.008135422
| 29> H 3.2775512852 -0.3870603174 -2.56035224
| 30> H 5.1650906295 -2.0601997656 0.7032190969
| 31> H 4.7954425451 -0.3899989109 1.2321045755
| 32> H 3.1573987309 -1.2078371344 2.8544800198
| 33> H 3.372451807 -2.8765204559 2.3010770817
| 34> H 4.6948593369 -2.0373235549 3.1344502637
| 35> H 0.3234405869 0.7348255807 1.9131258592
| 36> H 0.0899727047 -0.463138962 3.2338935866
| 37> H -5.1539141666 1.6883793828 0.679674293
| 38> H -3.5623065932 2.2438815943 1.2615018657
| 39> H -3.1047228993 3.2654072366 -0.9678745931
| 40> H -4.6780550865 2.7081033786 -1.5529609116
| 41> H -4.5894559105 3.9266651789 -0.2699502448
| 42> H -0.6650165765 -1.0512477609 -2.1442848136
| 43> H -1.7275282423 -2.4858070011 -2.0748746042
| 44> H -2.5714900286 0.3504906246 -2.8730839623
| 45> H -2.3523221085 -1.0012383335 -3.9978435631
| 46> H -3.6564047573 -1.0448915542 -2.7936987083
| 47> *
| 48>
| 49>                          ****END OF INPUT****

CARTESIAN COORDINATES (ANGSTROEM)
---------------------------------
  C      1.490490    0.268964   -3.604402
  C      2.365485    0.184689   -2.371702
  O      1.623066   -0.494166   -1.329564
  P      2.121989   -0.404321    0.172645
  S      2.558457    1.373506    0.885312
  O      3.383046   -1.377106    0.099556
  C      4.398530   -1.403642    1.116756
  C      3.869828   -1.919854    2.439332
  S      0.628419   -1.528122    1.143619
  C     -0.114624   -0.227897    2.192497
  S     -1.917324   -0.158360    2.056023
  P     -2.068855    0.306485    0.005303
  S     -0.748048    1.584267   -0.696857
  O     -3.596688    0.712633   -0.143046
  C     -4.135751    1.943234    0.379934
  C     -4.126414    3.032796   -0.675173
  O     -2.078356   -1.135248   -0.638777
  C     -1.692928   -1.397829   -2.003009
  C     -2.633269   -0.731922   -2.984500
  H      0.594715    0.843506   -3.381784
  H      2.043252    0.766224   -4.394756
  H      1.207266   -0.727044   -3.932593
  H      2.632882    1.183089   -2.008135
  H      3.277551   -0.387060   -2.560352
  H      5.165091   -2.060200    0.703219
  H      4.795443   -0.389999    1.232105
  H      3.157399   -1.207837    2.854480
  H      3.372452   -2.876520    2.301077
  H      4.694859   -2.037324    3.134450
  H      0.323441    0.734826    1.913126
  H      0.089973   -0.463139    3.233894
  H     -5.153914    1.688379    0.679674
  H     -3.562307    2.243882    1.261502
  H     -3.104723    3.265407   -0.967875
  H     -4.678055    2.708103   -1.552961
  H     -4.589456    3.926665   -0.269950
  H     -0.665017   -1.051248   -2.144285
  H     -1.727528   -2.485807   -2.074875
  H     -2.571490    0.350491   -2.873084
  H     -2.352322   -1.001238   -3.997844
  H     -3.656405   -1.044892   -2.793699

 Total Charge           Charge          ....    0
 Multiplicity           Mult            ....    1
 Number of Electrons    NEL             ....  202
 Basis Dimension        Dim             ....  539

ORBITAL ENERGIES
----------------

  NO   OCC          E(Eh)            E(eV)
   0   2.0000     -88.575188     -2410.2534
   1   2.0000     -88.574722     -2410.2407
   2   2.0000     -88.516805     -2408.6647
   3   2.0000     -88.514363     -2408.5983
   4   2.0000     -76.911209     -2092.8604
   5   2.0000     -76.910134     -2092.8311
   6   2.0000     -18.989512      -516.7309
   7   2.0000     -18.986787      -516.6568
   8   2.0000     -18.984772      -516.6019
   9   2.0000     -18.984097      -516.5835
  10   2.0000     -10.104950      -274.9697
  11   2.0000     -10.099459      -274.8202
  12   2.0000     -10.094663      -274.6897
  13   2.0000     -10.094098      -274.6744
  14   2.0000     -10.091519      -274.6042
  15   2.0000     -10.028822      -272.8981
  16   2.0000     -10.026595      -272.8375
  17   2.0000     -10.024923      -272.7920
  18   2.0000     -10.024298      -272.7750
  19   2.0000      -7.869654      -214.1442
  20   2.0000      -7.869045      -214.1276
  21   2.0000      -7.811570      -212.5636
  22   2.0000      -7.809164      -212.4982
  23   2.0000      -6.589438      -179.3077
  24   2.0000      -6.588704      -179.2877
  25   2.0000      -5.816624      -158.2784
  26   2.0000      -5.815908      -158.2589
  27   2.0000      -5.813324      -158.1886
  28   2.0000      -5.813005      -158.1799
  29   2.0000      -5.806823      -158.0117
  30   2.0000      -5.806049      -157.9906
  31   2.0000      -5.759192      -156.7156
  32   2.0000      -5.756857      -156.6521
  33   2.0000      -5.752087      -156.5222
  34   2.0000      -5.751353      -156.5023
  35   2.0000      -5.749430      -156.4499
  36   2.0000      -5.749150      -156.4423
  37   2.0000      -4.734825      -128.8411
  38   2.0000      -4.734489      -128.8320
  39   2.0000      -4.734104      -128.8215
  40   2.0000      -4.733512      -128.8054
  41   2.0000      -4.733206      -128.7971
  42   2.0000      -4.732621      -128.7812
  43   2.0000      -1.046709       -28.4824
  44   2.0000      -1.045561       -28.4512
  45   2.0000      -1.007155       -27.4061
  46   2.0000      -1.004162       -27.3246
  47   2.0000      -0.798803       -21.7365
  48   2.0000      -0.756303       -20.5801
  49   2.0000      -0.746431       -20.3114
  50   2.0000      -0.728799       -19.8316
  51   2.0000      -0.727909       -19.8074
  52   2.0000      -0.709759       -19.3135
  53   2.0000      -0.684329       -18.6215
  54   2.0000      -0.663494       -18.0546
  55   2.0000      -0.628479       -17.1018
  56   2.0000      -0.621564       -16.9136
  57   2.0000      -0.603091       -16.4109
  58   2.0000      -0.600480       -16.3399
  59   2.0000      -0.588130       -16.0038
  60   2.0000      -0.527902       -14.3649
  61   2.0000      -0.518419       -14.1069
  62   2.0000      -0.490476       -13.3465
  63   2.0000      -0.487859       -13.2753
  64   2.0000      -0.461827       -12.5670
  65   2.0000      -0.460339       -12.5264
  66   2.0000      -0.456153       -12.4126
  67   2.0000      -0.454219       -12.3599
  68   2.0000      -0.442787       -12.0488
  69   2.0000      -0.438433       -11.9304
  70   2.0000      -0.420142       -11.4326
  71   2.0000      -0.412754       -11.2316
  72   2.0000      -0.407756       -11.0956
  73   2.0000      -0.405085       -11.0229
  74   2.0000      -0.400658       -10.9025
  75   2.0000      -0.387406       -10.5418
  76   2.0000      -0.379224       -10.3192
  77   2.0000      -0.368673       -10.0321
  78   2.0000      -0.365865        -9.9557
  79   2.0000      -0.363961        -9.9039
  80   2.0000      -0.358795        -9.7633
  81   2.0000      -0.352857        -9.6017
  82   2.0000      -0.350582        -9.5398
  83   2.0000      -0.348425        -9.4811
  84   2.0000      -0.345913        -9.4128
  85   2.0000      -0.328565        -8.9407
  86   2.0000      -0.323811        -8.8113
  87   2.0000      -0.309492        -8.4217
  88   2.0000      -0.307783        -8.3752
  89   2.0000      -0.304969        -8.2986
  90   2.0000      -0.297594        -8.0980
  91   2.0000      -0.285540        -7.7700
  92   2.0000      -0.282967        -7.6999
  93   2.0000      -0.278073        -7.5667
  94   2.0000      -0.273524        -7.4430
  95   2.0000      -0.244342        -6.6489
  96   2.0000      -0.232659        -6.3310
  97   2.0000      -0.225718        -6.1421
  98   2.0000      -0.214960        -5.8494
  99   2.0000      -0.207706        -5.6520
 100   2.0000      -0.199569        -5.4305
 101   0.0000      -0.042660        -1.1608
 102   0.0000      -0.034395        -0.9359
 103   0.0000      -0.007453        -0.2028
 104   0.0000       0.015230         0.4144
 105   0.0000       0.020487         0.5575

MULLIKEN ATOMIC CHARGES
-----------------------
   0 C :   -0.489298
   1 C :   -0.132861
   2 O :   -0.292888
   3 P :    0.709169
   4 S :   -0.477374
   5 O :   -0.306448
   6 C :   -0.156682
   7 C :   -0.440803
   8 S :   -0.119243
   9 C :   -0.229062
  10 S :   -0.127451
  11 P :    0.696929
  12 S :   -0.446326
  13 O :   -0.298016
  14 C :   -0.133977
  15 C :   -0.458991
  16 O :   -0.286929
  17 C :   -0.149359
  18 C :   -0.457539
  19 H :    0.182451
  20 H :    0.146279
  21 H :    0.153460
  22 H :    0.170855
  23 H :    0.152303
  24 H :    0.145906
  25 H :    0.173174
  26 H :    0.166936
  27 H :    0.157250
  28 H :    0.146960
  29 H :    0.220852
  30 H :    0.186679
  31 H :    0.150422
  32 H :    0.152023
  33 H :    0.183841
  34 H :    0.151215
  35 H :    0.144815
  36 H :    0.186972
  37 H :    0.150537
  38 H :    0.171911
  39 H :    0.144932
  40 H :    0.157378
Sum of atomic charges:    0.0000000

LOEWDIN ATOMIC CHARGES
----------------------
   0 C :   -0.396445
   1 C :    0.019041
   2 O :   -0.690555
   3 P :    0.373926
   4 S :   -0.130494
   5 O :   -0.669751
   6 C :    0.017631
   7 C :   -0.406975
   8 S :    0.185142
   9 C :   -0.413717
  10 S :    0.157195
  11 P :    0.373240
  12 S :   -0.087598
  13 O :   -0.660762
  14 C :    0.022279
  15 C :   -0.402514
  16 O :   -0.664617
  17 C :    0.021451
  18 C :   -0.404068
  19 H :    0.167226
  20 H :    0.159916
  21 H :    0.156700
  22 H :    0.182978
  23 H :    0.172783
  24 H :    0.178496
  25 H :    0.179614
  26 H :    0.162268
  27 H :    0.161136
  28 H :    0.158209
  29 H :    0.200774
  30 H :    0.178237
  31 H :    0.178807
  32 H :    0.175653
  33 H :    0.169510
  34 H :    0.157745
  35 H :    0.157781
  36 H :    0.192385
  37 H :    0.181133
  38 H :    0.166317
  39 H :    0.158873
  40 H :    0.161050

  Mayer bond orders larger than 0.100000
B(  0-C ,  1-C ) :   0.9413 B(  0-C , 19-H ) :   0.9665 B(  0-C , 20-H ) :   0.9598
B(  0-C , 21-H ) :   0.9736 B(  1-C ,  2-O ) :   0.7904 B(  1-C , 22-H ) :   0.9534
B(  1-C , 23-H ) :   0.9447 B(  2-O ,  3-P ) :   1.1789 B(  3-P ,  4-S ) :   1.7185
B(  3-P ,  5-O ) :   1.0421 B(  3-P ,  8-S ) :   1.1268 B(  5-O ,  6-C ) :   0.8264
B(  6-C ,  7-C ) :   0.9202 B(  6-C , 24-H ) :   0.9584 B(  6-C , 25-H ) :   0.9679
B(  7-C , 26-H ) :   0.9667 B(  7-C , 27-H ) :   0.9667 B(  7-C , 28-H ) :   0.9603
B(  8-S ,  9-C ) :   0.8867 B(  9-C , 10-S ) :   0.9273 B(  9-C , 29-H ) :   0.9017
B(  9-C , 30-H ) :   0.9137 B( 10-S , 11-P ) :   1.0972 B( 11-P , 12-S ) :   1.7429
B( 11-P , 13-O ) :   1.0573 B( 11-P , 16-O ) :   1.1784 B( 13-O , 14-C ) :   0.7818
B( 14-C , 15-C ) :   0.9551 B( 14-C , 31-H ) :   0.9648 B( 14-C , 32-H ) :   0.9626
B( 15-C , 33-H ) :   0.9567 B( 15-C , 34-H ) :   0.9743 B( 15-C , 35-H ) :   0.9648
B( 16-O , 17-C ) :   0.8007 B( 17-C , 18-C ) :   0.9080 B( 17-C , 36-H ) :   0.9578
B( 17-C , 37-H ) :   0.9610 B( 18-C , 38-H ) :   0.9607 B( 18-C , 39-H ) :   0.9620
B( 18-C , 40-H ) :   0.9699

Dispersion correction           -0.022229580
FINAL SINGLE POINT ENERGY     -2932.459964849753

DIPOLE MOMENT
-------------

Method             : SCF
Type of density    : Electron Density
Multiplicity       :   1
Irrep              :   0
Energy             : -2932.4844040274924737 Eh
Relativity type    :
Basis              : AO
                                X                 Y                 Z
Electronic contribution:      0.657306733      -2.444916757      14.508621327
Nuclear contribution   :     -0.735666683       1.872595329     -14.958622591
                        -----------------------------------------
Total Dipole Moment    :     -0.078359949      -0.572321428      -0.450001264
                        -----------------------------------------
Magnitude (a.u.)       :      0.732252167
Magnitude (Debye)      :      1.861237094

Rotational constants in cm-1:             0.012306             0.005518             0.004850
Rotational constants in MHz :           368.922258           165.417502           145.399487

                             ****ORCA TERMINATED NORMALLY****
TOTAL RUN TIME: 0 days 0 hours 1 minutes 21 seconds 704 msec
