                         Program Version 6.0.0  -   RELEASE  -
|  1> ! r2scan-3c def2/J RI DEFGRID2 scfconv6 printgap
|  2> %output
|  3>     printlevel normal
|  4> end
|  5> %cpcm
|  6>     smd true
|  7>     smdsolvent "water"
|  8> end
|  9> * xyz 0 1
| 10> C 1.4904897177 0.2689643313 -3.6044022512
| 11> C 2.3654851695 0.1846891296 -2.3717016608
| 12> O 1.623066344 -0.494165991 -1.3295635508
| 13> P 2.1219890077 -0.4043211708 0.1726448744
| 14> S 2.5584569962 1.3735058695 0.8853118882
| 15> O 3.383046167 -1.3771059389 0.0995563174
| 16> C 4.3985296969 -1.4036419957 1.1167563535
| 17> C 3.8698278493 -1.9198542309 2.4393316815
| 18> S 0.6284192304 -1.5281218367 1.1436189881
| 19> C -0.1146240818 -0.22789701 2.1924972365
| 20> S -1.9173235231 -0.1583603958 2.0560227668
| 21> P -2.0688552093 0.3064851517 0.0053027438
| 22> S -0.7480482767 1.5842667246 -0.6968569942
| 23> O -3.5966881097 0.7126329657 -0.1430455063
| 24> C -4.1357506954 1.9432336602 0.3799340074
| 25> C -4.1264136279 3.0327961585 -0.6751728278
| 26> O -2.0783559672 -1.1352482031 -0.6387768554
| 27> C -1.6929277495 -1.3978290444 -2.003009013
| 28> C -2.6332694333 -0.7319216325 -2.9844998797
| 29> H 0.5947146218 0.8435062751 -3.3817836305
| 30> H 2.0432521727 0.7662241879 -4.394755766
| 31> H 1.2072661314 -0.7270441703 -3.9325925177
| 32> H 2.6328815676 1.183088589 -2.008135422
| 33> H 3.2775512852 -0.3870603174 -2.56035224
| 34> H 5.1650906295 -2.0601997656 0.7032190969
| 35> H 4.7954425451 -0.3899989109 1.2321045755
| 36> H 3.1573987309 -1.2078371344 2.8544800198
| 37> H 3.372451807 -2.8765204559 2.3010770817
| 38> H 4.6948593369 -2.0373235549 3.1344502637
| 39> H 0.3234405869 0.7348255807 1.9131258592
| 40> H 0.0899727047 -0.463138962 3.2338935866
| 41> H -5.1539141666 1.6883793828 0.679674293
| 42> H -3.5623065932 2.2438815943 1.2615018657
| 43> H -3.1047228993 3.2654072366 -0.9678745931
| 44> H -4.6780550865 2.7081033786 -1.5529609116
| 45> H -4.5894559105 3.9266651789 -0.2699502448
| 46> H -0.6650165765 -1.0512477609 -2.1442848136
| 47> H -1.7275282423 -2.4858070011 -2.0748746042
| 48> H -2.5714900286 0.3504906246 -2.8730839623
| 49> H -2.3523221085 -1.0012383335 -3.9978435631
| 50> H -3.6564047573 -1.0448915542 -2.7936987083
| 51> *
| 52>
| 53>                          ****END OF INPUT****

CARTESIAN COORDINATES (ANGSTROEM)
---------------------------------
  C      1.490490    0.268964   -3.604402
  C      2.365485    0.184689   -2.371702
  O      1.623066   -0.494166   -1.329564
  P      2.121989   -0.404321    0.172645
  S      2.558457    1.373506    0.885312
  O      3.383046   -1.377106    0.099556
  C      4.398530   -1.403642    1.116756
  C      3.869828   -1.919854    2.439332
  S      0.628419   -1.528122    1.143619
  C     -0.114624   -0.227897    2.192497
  S     -1.917324   -0.158360    2.056023
  P     -2.068855    0.306485    0.005303
  S     -0.748048    1.584267   -0.696857
  O     -3.596688    0.712633   -0.143046
  C     -4.135751    1.943234    0.379934
  C     -4.126414    3.032796   -0.675173
  O     -2.078356   -1.135248   -0.638777
  C     -1.692928   -1.397829   -2.003009
  C     -2.633269   -0.731922   -2.984500
  H      0.594715    0.843506   -3.381784
  H      2.043252    0.766224   -4.394756
  H      1.207266   -0.727044   -3.932593
  H      2.632882    1.183089   -2.008135
  H      3.277551   -0.387060   -2.560352
  H      5.165091   -2.060200    0.703219
  H      4.795443   -0.389999    1.232105
  H      3.157399   -1.207837    2.854480
  H      3.372452   -2.876520    2.301077
  H      4.694859   -2.037324    3.134450
  H      0.323441    0.734826    1.913126
  H      0.089973   -0.463139    3.233894
  H     -5.153914    1.688379    0.679674
  H     -3.562307    2.243882    1.261502
  H     -3.104723    3.265407   -0.967875
  H     -4.678055    2.708103   -1.552961
  H     -4.589456    3.926665   -0.269950
  H     -0.665017   -1.051248   -2.144285
  H     -1.727528   -2.485807   -2.074875
  H     -2.571490    0.350491   -2.873084
  H     -2.352322   -1.001238   -3.997844
  H     -3.656405   -1.044892   -2.793699

 Total Charge           Charge          ....    0
 Multiplicity           Mult            ....    1
 Number of Electrons    NEL             ....  202
 Basis Dimension        Dim             ....  539

ORBITAL ENERGIES
----------------

  NO   OCC          E(Eh)            E(eV)
   0   2.0000     -88.580509     -2410.3982
   1   2.0000     -88.579364     -2410.3670
   2   2.0000     -88.525473     -2408.9006
   3   2.0000     -88.521741     -2408.7990
   4   2.0000     -76.917379     -2093.0283
   5   2.0000     -76.916310     -2092.9992
   6   2.0000     -18.993406      -516.8369
   7   2.0000     -18.990727      -516.7640
   8   2.0000     -18.990478      -516.7572
   9   2.0000     -18.987721      -516.6822
  10   2.0000     -10.105101      -274.9738
  11   2.0000     -10.091277      -274.5976
  12   2.0000     -10.087485      -274.4944
  13   2.0000     -10.087160      -274.4856
  14   2.0000     -10.087088      -274.4836
  15   2.0000     -10.017835      -272.5992
  16   2.0000     -10.017767      -272.5973
  17   2.0000     -10.017353      -272.5860
  18   2.0000     -10.016278      -272.5568
  19   2.0000      -7.874959      -214.2885
  20   2.0000      -7.873717      -214.2547
  21   2.0000      -7.820562      -212.8083
  22   2.0000      -7.816759      -212.7048
  23   2.0000      -6.595694      -179.4780
  24   2.0000      -6.594908      -179.4566
  25   2.0000      -5.821884      -158.4215
  26   2.0000      -5.820587      -158.3862
  27   2.0000      -5.818601      -158.3322
  28   2.0000      -5.817693      -158.3075
  29   2.0000      -5.812214      -158.1584
  30   2.0000      -5.810708      -158.1174
  31   2.0000      -5.768110      -156.9583
  32   2.0000      -5.764420      -156.8578
  33   2.0000      -5.761070      -156.7667
  34   2.0000      -5.760366      -156.7475
  35   2.0000      -5.757034      -156.6569
  36   2.0000      -5.756725      -156.6485
  37   2.0000      -4.741044      -129.0104
  38   2.0000      -4.740749      -129.0023
  39   2.0000      -4.740263      -128.9891
  40   2.0000      -4.739704      -128.9739
  41   2.0000      -4.739503      -128.9684
  42   2.0000      -4.738918      -128.9525
  43   2.0000      -1.051569       -28.6147
  44   2.0000      -1.048803       -28.5394
  45   2.0000      -1.011478       -27.5237
  46   2.0000      -1.006660       -27.3926
  47   2.0000      -0.801766       -21.8172
  48   2.0000      -0.755228       -20.5508
  49   2.0000      -0.742483       -20.2040
  50   2.0000      -0.722325       -19.6555
  51   2.0000      -0.721534       -19.6339
  52   2.0000      -0.709832       -19.3155
  53   2.0000      -0.688639       -18.7388
  54   2.0000      -0.670409       -18.2428
  55   2.0000      -0.629059       -17.1176
  56   2.0000      -0.619739       -16.8639
  57   2.0000      -0.598899       -16.2969
  58   2.0000      -0.595683       -16.2094
  59   2.0000      -0.586456       -15.9583
  60   2.0000      -0.525737       -14.3060
  61   2.0000      -0.516638       -14.0584
  62   2.0000      -0.490031       -13.3344
  63   2.0000      -0.486105       -13.2276
  64   2.0000      -0.463741       -12.6190
  65   2.0000      -0.460534       -12.5318
  66   2.0000      -0.454957       -12.3800
  67   2.0000      -0.451753       -12.2928
  68   2.0000      -0.438758       -11.9392
  69   2.0000      -0.435544       -11.8518
  70   2.0000      -0.418340       -11.3836
  71   2.0000      -0.411313       -11.1924
  72   2.0000      -0.408063       -11.1039
  73   2.0000      -0.403269       -10.9735
  74   2.0000      -0.398329       -10.8391
  75   2.0000      -0.386164       -10.5081
  76   2.0000      -0.378652       -10.3037
  77   2.0000      -0.362370        -9.8606
  78   2.0000      -0.360795        -9.8177
  79   2.0000      -0.356230        -9.6935
  80   2.0000      -0.351983        -9.5779
  81   2.0000      -0.349569        -9.5123
  82   2.0000      -0.347746        -9.4626
  83   2.0000      -0.343788        -9.3549
  84   2.0000      -0.341874        -9.3029
  85   2.0000      -0.328844        -8.9483
  86   2.0000      -0.322537        -8.7767
  87   2.0000      -0.308318        -8.3898
  88   2.0000      -0.305532        -8.3140
  89   2.0000      -0.303812        -8.2671
  90   2.0000      -0.298237        -8.1154
  91   2.0000      -0.287173        -7.8144
  92   2.0000      -0.282213        -7.6794
  93   2.0000      -0.281164        -7.6509
  94   2.0000      -0.276410        -7.5215
  95   2.0000      -0.249586        -6.7916
  96   2.0000      -0.239171        -6.5082
  97   2.0000      -0.234321        -6.3762
  98   2.0000      -0.222463        -6.0535
  99   2.0000      -0.215216        -5.8563
 100   2.0000      -0.208008        -5.6602
 101   0.0000      -0.047610        -1.2955
 102   0.0000      -0.041005        -1.1158
 103   0.0000      -0.011608        -0.3159
 104   0.0000       0.009297         0.2530
 105   0.0000       0.016491         0.4487

MULLIKEN ATOMIC CHARGES
-----------------------
   0 C :   -0.509454
   1 C :   -0.136377
   2 O :   -0.314281
   3 P :    0.751694
   4 S :   -0.533086
   5 O :   -0.334147
   6 C :   -0.157030
   7 C :   -0.474891
   8 S :   -0.132639
   9 C :   -0.226402
  10 S :   -0.142075
  11 P :    0.712574
  12 S :   -0.482838
  13 O :   -0.325805
  14 C :   -0.127102
  15 C :   -0.497035
  16 O :   -0.316847
  17 C :   -0.140108
  18 C :   -0.496972
  19 H :    0.173720
  20 H :    0.168710
  21 H :    0.170371
  22 H :    0.171671
  23 H :    0.172622
  24 H :    0.172503
  25 H :    0.176288
  26 H :    0.169436
  27 H :    0.166795
  28 H :    0.171419
  29 H :    0.216206
  30 H :    0.229953
  31 H :    0.176330
  32 H :    0.162909
  33 H :    0.173116
  34 H :    0.167191
  35 H :    0.169405
  36 H :    0.187077
  37 H :    0.175840
  38 H :    0.169278
  39 H :    0.171841
  40 H :    0.170142
Sum of atomic charges:   -0.0000000

LOEWDIN ATOMIC CHARGES
----------------------
   0 C :   -0.396937
   1 C :    0.022724
   2 O :   -0.699877
   3 P :    0.380107
   4 S :   -0.165121
   5 O :   -0.681306
   6 C :    0.022290
   7 C :   -0.409631
   8 S :    0.180194
   9 C :   -0.406576
  10 S :    0.152029
  11 P :    0.374216
  12 S :   -0.108765
  13 O :   -0.675767
  14 C :    0.027511
  15 C :   -0.406791
  16 O :   -0.683689
  17 C :    0.024937
  18 C :   -0.405792
  19 H :    0.163690
  20 H :    0.168008
  21 H :    0.162944
  22 H :    0.182711
  23 H :    0.180887
  24 H :    0.189577
  25 H :    0.180583
  26 H :    0.160811
  27 H :    0.163372
  28 H :    0.167139
  29 H :    0.198814
  30 H :    0.195062
  31 H :    0.189941
  32 H :    0.179886
  33 H :    0.163178
  34 H :    0.162205
  35 H :    0.166947
  36 H :    0.192935
  37 H :    0.191044
  38 H :    0.163451
  39 H :    0.169120
  40 H :    0.163943

  Mayer bond orders larger than 0.100000
B(  0-C ,  1-C ) :   0.9423 B(  0-C , 19-H ) :   0.9678 B(  0-C , 20-H ) :   0.9555
B(  0-C , 21-H ) :   0.9682 B(  1-C ,  2-O ) :   0.7782 B(  1-C , 22-H ) :   0.9519
B(  1-C , 23-H ) :   0.9359 B(  2-O ,  3-P ) :   1.1880 B(  3-P ,  4-S ) :   1.6671
B(  3-P ,  5-O ) :   1.0514 B(  3-P ,  8-S ) :   1.1391 B(  5-O ,  6-C ) :   0.8144
B(  6-C ,  7-C ) :   0.9095 B(  6-C , 24-H ) :   0.9489 B(  6-C , 25-H ) :   0.9657
B(  7-C , 26-H ) :   0.9655 B(  7-C , 27-H ) :   0.9650 B(  7-C , 28-H ) :   0.9551
B(  8-S ,  9-C ) :   0.8811 B(  9-C , 10-S ) :   0.9197 B(  9-C , 29-H ) :   0.9059
B(  9-C , 30-H ) :   0.8985 B( 10-S , 11-P ) :   1.1110 B( 11-P , 12-S ) :   1.7240
B( 11-P , 13-O ) :   1.0585 B( 11-P , 16-O ) :   1.1753 B( 13-O , 14-C ) :   0.7701
B( 14-C , 15-C ) :   0.9445 B( 14-C , 31-H ) :   0.9548 B( 14-C , 32-H ) :   0.9556
B( 15-C , 33-H ) :   0.9611 B( 15-C , 34-H ) :   0.9714 B( 15-C , 35-H ) :   0.9597
B( 16-O , 17-C ) :   0.7893 B( 17-C , 18-C ) :   0.9029 B( 17-C , 36-H ) :   0.9525
B( 17-C , 37-H ) :   0.9507 B( 18-C , 38-H ) :   0.9600 B( 18-C , 39-H ) :   0.9555
B( 18-C , 40-H ) :   0.9694

Dispersion correction           -0.022229580
FINAL SINGLE POINT ENERGY     -2932.467200738237

DIPOLE MOMENT
-------------

Method             : SCF
Type of density    : Electron Density
Multiplicity       :   1
Irrep              :   0
Energy             : -2932.4916399159765206 Eh
Relativity type    :
Basis              : AO
                                X                 Y                 Z
Electronic contribution:      0.716458917      -2.681475719      14.474678784
Nuclear contribution   :     -0.735666683       1.872595329     -14.958622591
                        -----------------------------------------
Total Dipole Moment    :     -0.019207765      -0.808880389      -0.483943807
                        -----------------------------------------
Magnitude (a.u.)       :      0.942792676
Magnitude (Debye)      :      2.396388539

Rotational constants in cm-1:             0.012306             0.005518             0.004850
Rotational constants in MHz :           368.922258           165.417502           145.399487

                             ****ORCA TERMINATED NORMALLY****
TOTAL RUN TIME: 0 days 0 hours 1 minutes 57 seconds 356 msec
