                         Program Version 6.0.0  -   RELEASE  -
|  1> ! pbe def2-sv(p) def2/J RI DEFGRID1 loosescf d4 GCP(DFT/SV(P)) printgap
|  2> %output
|  3>     printlevel normal
|  4> end
|  5> * xyz 0 1
|  6> C 2.4483507175 0.063062161 -2.9296730821
|  7> C 3.4480095746 0.3249208149 -1.8214538421
|  8> O 3.2127016845 -0.5169921481 -0.6824240961
|  9> P 1.9559367476 -0.3356572274 0.2748897422
| 10> S 1.5662870777 1.5469509023 0.6895131069
| 11> O 2.3299780181 -1.2322110693 1.5245605573
| 12> C 2.9908618013 -0.692236988 2.6874994065
| 13> C 4.4323900826 -0.3346857966 2.3941025645
| 14> S 0.5439816603 -1.6492399462 -0.5939295824
| 15> C -0.5511697575 -1.9154201067 0.8305147408
| 16> S -1.2366840056 -0.3857162979 1.5307580402
| 17> P -2.1429616227 0.4105108699 -0.2101247571
| 18> S -1.1371924512 1.2517211366 -1.6742769655
| 19> O -3.2462454614 1.3768856704 0.4074022679
| 20> C -3.0024540803 2.7686488194 0.6647151469
| 21> C -2.0214244693 2.968406017 1.8023566811
| 22> O -3.0138341012 -0.842972472 -0.6190524585
| 23> C -3.3386858867 -1.2040802231 -1.9801729864
| 24> C -2.7413483752 -2.5593289157 -2.3035612974
| 25> H 2.7269297515 0.6311616531 -3.8112959378
| 26> H 2.4229380463 -0.9962055237 -3.1730820003
| 27> H 1.4507897125 0.3754837114 -2.6178228008
| 28> H 3.3994789798 1.3707541753 -1.4993513395
| 29> H 4.4650352845 0.0759212855 -2.1275214901
| 30> H 2.4338704868 0.187733585 3.0251961832
| 31> H 2.9130528306 -1.4899448661 3.4272410583
| 32> H 4.9222361134 -0.0285264113 3.3130612962
| 33> H 4.953061253 -1.1896450988 1.9709745116
| 34> H 4.4704088156 0.4881794903 1.6813611949
| 35> H 0.0030328602 -2.395101071 1.6338785784
| 36> H -1.3612794049 -2.5489168002 0.475775867
| 37> H -2.6260288313 3.2320107045 -0.2535325448
| 38> H -3.9882762467 3.1682552139 0.9062866992
| 39> H -2.3477789753 2.421711588 2.68374269
| 40> H -1.0326383888 2.6088787595 1.5135824292
| 41> H -1.9486158537 4.0253098952 2.0374858691
| 42> H -4.4285547639 -1.2220217234 -2.0297903553
| 43> H -2.9514540606 -0.4338279567 -2.654972651
| 44> H -1.6551536244 -2.5154854175 -2.241724966
| 45> H -3.1092494605 -3.308070756 -1.6075958245
| 46> H -3.0272829731 -2.8389993496 -3.3122038187
| 47> *
| 48>
| 49>                          ****END OF INPUT****

CARTESIAN COORDINATES (ANGSTROEM)
---------------------------------
  C      2.448351    0.063062   -2.929673
  C      3.448010    0.324921   -1.821454
  O      3.212702   -0.516992   -0.682424
  P      1.955937   -0.335657    0.274890
  S      1.566287    1.546951    0.689513
  O      2.329978   -1.232211    1.524561
  C      2.990862   -0.692237    2.687499
  C      4.432390   -0.334686    2.394103
  S      0.543982   -1.649240   -0.593930
  C     -0.551170   -1.915420    0.830515
  S     -1.236684   -0.385716    1.530758
  P     -2.142962    0.410511   -0.210125
  S     -1.137192    1.251721   -1.674277
  O     -3.246245    1.376886    0.407402
  C     -3.002454    2.768649    0.664715
  C     -2.021424    2.968406    1.802357
  O     -3.013834   -0.842972   -0.619052
  C     -3.338686   -1.204080   -1.980173
  C     -2.741348   -2.559329   -2.303561
  H      2.726930    0.631162   -3.811296
  H      2.422938   -0.996206   -3.173082
  H      1.450790    0.375484   -2.617823
  H      3.399479    1.370754   -1.499351
  H      4.465035    0.075921   -2.127521
  H      2.433870    0.187734    3.025196
  H      2.913053   -1.489945    3.427241
  H      4.922236   -0.028526    3.313061
  H      4.953061   -1.189645    1.970975
  H      4.470409    0.488179    1.681361
  H      0.003033   -2.395101    1.633879
  H     -1.361279   -2.548917    0.475776
  H     -2.626029    3.232011   -0.253533
  H     -3.988276    3.168255    0.906287
  H     -2.347779    2.421712    2.683743
  H     -1.032638    2.608879    1.513582
  H     -1.948616    4.025310    2.037486
  H     -4.428555   -1.222022   -2.029790
  H     -2.951454   -0.433828   -2.654973
  H     -1.655154   -2.515485   -2.241725
  H     -3.109249   -3.308071   -1.607596
  H     -3.027283   -2.838999   -3.312204

 Total Charge           Charge          ....    0
 Multiplicity           Mult            ....    1
 Number of Electrons    NEL             ....  202
 Basis Dimension        Dim             ....  334

ORBITAL ENERGIES
----------------

  NO   OCC          E(Eh)            E(eV)
   0   2.0000     -88.040461     -2395.7027
   1   2.0000     -88.038041     -2395.6369
   2   2.0000     -87.980867     -2394.0811
   3   2.0000     -87.979480     -2394.0434
   4   2.0000     -76.423617     -2079.5924
   5   2.0000     -76.422079     -2079.5505
   6   2.0000     -18.791112      -511.3322
   7   2.0000     -18.789492      -511.2881
   8   2.0000     -18.789411      -511.2859
   9   2.0000     -18.784254      -511.1455
  10   2.0000      -9.958336      -270.9801
  11   2.0000      -9.950334      -270.7624
  12   2.0000      -9.949743      -270.7463
  13   2.0000      -9.947373      -270.6818
  14   2.0000      -9.944395      -270.6007
  15   2.0000      -9.886825      -269.0342
  16   2.0000      -9.882164      -268.9074
  17   2.0000      -9.877550      -268.7818
  18   2.0000      -9.875741      -268.7326
  19   2.0000      -7.685213      -209.1253
  20   2.0000      -7.683133      -209.0687
  21   2.0000      -7.625410      -207.4979
  22   2.0000      -7.624102      -207.4624
  23   2.0000      -6.421025      -174.7250
  24   2.0000      -6.419407      -174.6809
  25   2.0000      -5.713314      -155.4672
  26   2.0000      -5.711259      -155.4113
  27   2.0000      -5.709815      -155.3720
  28   2.0000      -5.707699      -155.3144
  29   2.0000      -5.701869      -155.1557
  30   2.0000      -5.699760      -155.0984
  31   2.0000      -5.654275      -153.8607
  32   2.0000      -5.652945      -153.8245
  33   2.0000      -5.645959      -153.6344
  34   2.0000      -5.645742      -153.6284
  35   2.0000      -5.644717      -153.6006
  36   2.0000      -5.644365      -153.5910
  37   2.0000      -4.643659      -126.3604
  38   2.0000      -4.642844      -126.3382
  39   2.0000      -4.642032      -126.3161
  40   2.0000      -4.641374      -126.2982
  41   2.0000      -4.641266      -126.2953
  42   2.0000      -4.639729      -126.2534
  43   2.0000      -0.985100       -26.8059
  44   2.0000      -0.981726       -26.7141
  45   2.0000      -0.945518       -25.7288
  46   2.0000      -0.941643       -25.6234
  47   2.0000      -0.762404       -20.7461
  48   2.0000      -0.718214       -19.5436
  49   2.0000      -0.705907       -19.2087
  50   2.0000      -0.683783       -18.6067
  51   2.0000      -0.681231       -18.5372
  52   2.0000      -0.667526       -18.1643
  53   2.0000      -0.650332       -17.6964
  54   2.0000      -0.634354       -17.2616
  55   2.0000      -0.598355       -16.2821
  56   2.0000      -0.589822       -16.0499
  57   2.0000      -0.570244       -15.5171
  58   2.0000      -0.568857       -15.4794
  59   2.0000      -0.559928       -15.2364
  60   2.0000      -0.496501       -13.5105
  61   2.0000      -0.491434       -13.3726
  62   2.0000      -0.472028       -12.8445
  63   2.0000      -0.466889       -12.7047
  64   2.0000      -0.458068       -12.4647
  65   2.0000      -0.437885       -11.9155
  66   2.0000      -0.436304       -11.8724
  67   2.0000      -0.433945       -11.8083
  68   2.0000      -0.423559       -11.5256
  69   2.0000      -0.412730       -11.2309
  70   2.0000      -0.409632       -11.1466
  71   2.0000      -0.392352       -10.6764
  72   2.0000      -0.390386       -10.6229
  73   2.0000      -0.387060       -10.5325
  74   2.0000      -0.384248       -10.4559
  75   2.0000      -0.371861       -10.1188
  76   2.0000      -0.366960        -9.9855
  77   2.0000      -0.356084        -9.6895
  78   2.0000      -0.352672        -9.5967
  79   2.0000      -0.349068        -9.4986
  80   2.0000      -0.345299        -9.3961
  81   2.0000      -0.343549        -9.3485
  82   2.0000      -0.339416        -9.2360
  83   2.0000      -0.335582        -9.1316
  84   2.0000      -0.328888        -8.9495
  85   2.0000      -0.318620        -8.6701
  86   2.0000      -0.302984        -8.2446
  87   2.0000      -0.293917        -7.9979
  88   2.0000      -0.290047        -7.8926
  89   2.0000      -0.282582        -7.6895
  90   2.0000      -0.278297        -7.5728
  91   2.0000      -0.273944        -7.4544
  92   2.0000      -0.266549        -7.2532
  93   2.0000      -0.259283        -7.0554
  94   2.0000      -0.256351        -6.9757
  95   2.0000      -0.248370        -6.7585
  96   2.0000      -0.219589        -5.9753
  97   2.0000      -0.209789        -5.7086
  98   2.0000      -0.189025        -5.1436
  99   2.0000      -0.186269        -5.0687
 100   2.0000      -0.182997        -4.9796
 101   0.0000      -0.050761        -1.3813
 102   0.0000      -0.029315        -0.7977
 103   0.0000      -0.006552        -0.1783
 104   0.0000      -0.006294        -0.1713
 105   0.0000       0.025055         0.6818

MULLIKEN ATOMIC CHARGES
-----------------------
   0 C :   -0.345849
   1 C :   -0.001812
   2 O :   -0.370980
   3 P :    0.625710
   4 S :   -0.302098
   5 O :   -0.376138
   6 C :   -0.005541
   7 C :   -0.303298
   8 S :   -0.103934
   9 C :   -0.341576
  10 S :   -0.093395
  11 P :    0.611953
  12 S :   -0.307822
  13 O :   -0.367097
  14 C :    0.002411
  15 C :   -0.347679
  16 O :   -0.375181
  17 C :   -0.002480
  18 C :   -0.311042
  19 H :    0.112707
  20 H :    0.115764
  21 H :    0.158144
  22 H :    0.110276
  23 H :    0.102822
  24 H :    0.112592
  25 H :    0.101065
  26 H :    0.111159
  27 H :    0.116410
  28 H :    0.122834
  29 H :    0.187906
  30 H :    0.190405
  31 H :    0.109780
  32 H :    0.102116
  33 H :    0.116789
  34 H :    0.156477
  35 H :    0.111908
  36 H :    0.105793
  37 H :    0.110581
  38 H :    0.130496
  39 H :    0.116534
  40 H :    0.113290
Sum of atomic charges:   -0.0000000

LOEWDIN ATOMIC CHARGES
----------------------
   0 C :   -0.375051
   1 C :   -0.120513
   2 O :   -0.243015
   3 P :    0.571329
   4 S :   -0.300751
   5 O :   -0.243360
   6 C :   -0.119590
   7 C :   -0.363811
   8 S :    0.090991
   9 C :   -0.472775
  10 S :    0.087287
  11 P :    0.568914
  12 S :   -0.301346
  13 O :   -0.245408
  14 C :   -0.119967
  15 C :   -0.375194
  16 O :   -0.244361
  17 C :   -0.117280
  18 C :   -0.360078
  19 H :    0.131905
  20 H :    0.123071
  21 H :    0.122932
  22 H :    0.109689
  23 H :    0.117335
  24 H :    0.110880
  25 H :    0.116332
  26 H :    0.129995
  27 H :    0.126465
  28 H :    0.123427
  29 H :    0.134455
  30 H :    0.132486
  31 H :    0.109391
  32 H :    0.117131
  33 H :    0.123176
  34 H :    0.122980
  35 H :    0.131344
  36 H :    0.117541
  37 H :    0.107357
  38 H :    0.120750
  39 H :    0.123241
  40 H :    0.132099

  Mayer bond orders larger than 0.100000
B(  0-C ,  1-C ) :   1.1649 B(  0-C , 19-H ) :   0.9378 B(  0-C , 20-H ) :   0.9438
B(  0-C , 21-H ) :   0.9206 B(  1-C ,  2-O ) :   0.9078 B(  1-C , 22-H ) :   0.9121
B(  1-C , 23-H ) :   0.9329 B(  2-O ,  3-P ) :   1.1073 B(  3-P ,  4-S ) :   1.6207
B(  3-P ,  5-O ) :   1.1084 B(  3-P ,  8-S ) :   0.9463 B(  4-S ,  8-S ) :   0.1146
B(  5-O ,  6-C ) :   0.9039 B(  6-C ,  7-C ) :   1.1663 B(  6-C , 24-H ) :   0.9130
B(  6-C , 25-H ) :   0.9338 B(  7-C , 26-H ) :   0.9393 B(  7-C , 27-H ) :   0.9462
B(  7-C , 28-H ) :   0.9362 B(  8-S ,  9-C ) :   1.0044 B(  9-C , 10-S ) :   1.0023
B(  9-C , 29-H ) :   0.9034 B(  9-C , 30-H ) :   0.8984 B( 10-S , 11-P ) :   0.9539
B( 10-S , 12-S ) :   0.1132 B( 11-P , 12-S ) :   1.6172 B( 11-P , 13-O ) :   1.1183
B( 11-P , 16-O ) :   1.1141 B( 13-O , 14-C ) :   0.9113 B( 14-C , 15-C ) :   1.1621
B( 14-C , 31-H ) :   0.9131 B( 14-C , 32-H ) :   0.9333 B( 15-C , 33-H ) :   0.9437
B( 15-C , 34-H ) :   0.9222 B( 15-C , 35-H ) :   0.9378 B( 16-O , 17-C ) :   0.8993
B( 17-C , 18-C ) :   1.1682 B( 17-C , 36-H ) :   0.9328 B( 17-C , 37-H ) :   0.8984
B( 18-C , 38-H ) :   0.9364 B( 18-C , 39-H ) :   0.9455 B( 18-C , 40-H ) :   0.9391

Dispersion correction           -0.068720797
FINAL SINGLE POINT ENERGY     -2929.515424599098

DIPOLE MOMENT
-------------

Method             : SCF
Type of density    : Electron Density
Multiplicity       :   1
Irrep              :   0
Energy             : -2929.6312778878127574 Eh
Relativity type    :
Basis              : AO
                                X                 Y                 Z
Electronic contribution:     -5.436371477      -0.232026509       2.704307604
Nuclear contribution   :      5.497171417      -0.464755150      -2.542968014
                        -----------------------------------------
Total Dipole Moment    :      0.060799940      -0.696781659       0.161339590
                        -----------------------------------------
Magnitude (a.u.)       :      0.717796473
Magnitude (Debye)      :      1.824493639

Rotational constants in cm-1:             0.011186             0.005959             0.005354
Rotational constants in MHz :           335.351723           178.659986           160.522005

                             ****ORCA TERMINATED NORMALLY****
TOTAL RUN TIME: 0 days 0 hours 0 minutes 21 seconds 668 msec
