                         Program Version 6.0.0  -   RELEASE  -
|  1> ! pbe def2-sv(p) def2/J RI DEFGRID1 loosescf d4 GCP(DFT/SV(P)) printgap
|  2> %output
|  3>     printlevel normal
|  4> end
|  5> * xyz 0 1
|  6> C 2.0060052435 2.7670316672 -0.1768466529
|  7> C 2.8142230241 2.4080571655 1.0524869003
|  8> O 3.0909385161 0.9979466241 1.1270516535
|  9> P 1.9423167426 -0.0913307096 1.2816073281
| 10> S 0.4614501502 0.3667399485 2.4719483017
| 11> O 2.7301525346 -1.3394725383 1.8430728547
| 12> C 3.9865466584 -1.8252009423 1.2997141686
| 13> C 3.7669166871 -3.0770009474 0.4730982414
| 14> S 1.4548057956 -0.5925070647 -0.7302557418
| 15> C 0.1281995509 -1.7702193875 -0.3196271721
| 16> S -1.2400407557 -1.7473767283 -1.5132997925
| 17> P -2.1966226317 0.0563410757 -1.0098707011
| 18> S -3.8971584884 0.4266865763 -1.9090098087
| 19> O -1.1292010156 1.239806467 -1.1541903666
| 20> C -1.0144090072 1.9861686095 -2.3789140437
| 21> C -0.4059622608 1.1534972555 -3.4890321766
| 22> O -2.2619241312 -0.1309809671 0.5618003131
| 23> C -2.9634155383 0.8192237276 1.393934721
| 24> C -3.3399136868 0.1209282764 2.6830178216
| 25> H 1.9090431584 3.8464187247 -0.2394596114
| 26> H 2.4941126374 2.3935371863 -1.0739001018
| 27> H 1.0125079431 2.3255235411 -0.1040730645
| 28> H 2.2830063986 2.7036222714 1.9625553985
| 29> H 3.8042201284 2.8661993388 1.0351835647
| 30> H 4.45183921 -1.032652879 0.7119473366
| 31> H 4.5958739003 -2.0360199169 2.1800084291
| 32> H 3.225559854 -2.8481138367 -0.4414079251
| 33> H 4.7328607272 -3.4975767292 0.2115076467
| 34> H 3.2057496042 -3.8089381402 1.0480704619
| 35> H -0.2543400092 -1.5333359609 0.6738067905
| 36> H 0.5195749818 -2.7837654691 -0.3647455401
| 37> H -2.0133015182 2.3337088588 -2.661996775
| 38> H -0.3838832573 2.8366587665 -2.1176021789
| 39> H -1.0781413739 0.3350224349 -3.746910622
| 40> H -0.2583696023 1.7767518522 -4.3648136991
| 41> H 0.5480968051 0.7375514085 -3.1736900401
| 42> H -2.2904723755 1.6587952267 1.5830063123
| 43> H -3.8462779148 1.1708063343 0.8490657777
| 44> H -2.439166384 -0.2042749625 3.1976785977
| 45> H -3.8829623067 0.8142111302 3.3165242423
| 46> H -3.9640581494 -0.743269852 2.4733622724
| 47> *
| 48>
| 49>                          ****END OF INPUT****

CARTESIAN COORDINATES (ANGSTROEM)
---------------------------------
  C      2.006005    2.767032   -0.176847
  C      2.814223    2.408057    1.052487
  O      3.090939    0.997947    1.127052
  P      1.942317   -0.091331    1.281607
  S      0.461450    0.366740    2.471948
  O      2.730153   -1.339473    1.843073
  C      3.986547   -1.825201    1.299714
  C      3.766917   -3.077001    0.473098
  S      1.454806   -0.592507   -0.730256
  C      0.128200   -1.770219   -0.319627
  S     -1.240041   -1.747377   -1.513300
  P     -2.196623    0.056341   -1.009871
  S     -3.897158    0.426687   -1.909010
  O     -1.129201    1.239806   -1.154190
  C     -1.014409    1.986169   -2.378914
  C     -0.405962    1.153497   -3.489032
  O     -2.261924   -0.130981    0.561800
  C     -2.963416    0.819224    1.393935
  C     -3.339914    0.120928    2.683018
  H      1.909043    3.846419   -0.239460
  H      2.494113    2.393537   -1.073900
  H      1.012508    2.325524   -0.104073
  H      2.283006    2.703622    1.962555
  H      3.804220    2.866199    1.035184
  H      4.451839   -1.032653    0.711947
  H      4.595874   -2.036020    2.180008
  H      3.225560   -2.848114   -0.441408
  H      4.732861   -3.497577    0.211508
  H      3.205750   -3.808938    1.048070
  H     -0.254340   -1.533336    0.673807
  H      0.519575   -2.783765   -0.364746
  H     -2.013302    2.333709   -2.661997
  H     -0.383883    2.836659   -2.117602
  H     -1.078141    0.335022   -3.746911
  H     -0.258370    1.776752   -4.364814
  H      0.548097    0.737551   -3.173690
  H     -2.290472    1.658795    1.583006
  H     -3.846278    1.170806    0.849066
  H     -2.439166   -0.204275    3.197679
  H     -3.882962    0.814211    3.316524
  H     -3.964058   -0.743270    2.473362

 Total Charge           Charge          ....    0
 Multiplicity           Mult            ....    1
 Number of Electrons    NEL             ....  202
 Basis Dimension        Dim             ....  334

ORBITAL ENERGIES
----------------

  NO   OCC          E(Eh)            E(eV)
   0   2.0000     -88.046881     -2395.8774
   1   2.0000     -88.046664     -2395.8715
   2   2.0000     -87.991247     -2394.3636
   3   2.0000     -87.983939     -2394.1647
   4   2.0000     -76.432646     -2079.8380
   5   2.0000     -76.422334     -2079.5574
   6   2.0000     -18.802901      -511.6530
   7   2.0000     -18.795304      -511.4462
   8   2.0000     -18.787160      -511.2246
   9   2.0000     -18.785043      -511.1670
  10   2.0000      -9.962049      -271.0811
  11   2.0000      -9.961061      -271.0543
  12   2.0000      -9.959102      -271.0009
  13   2.0000      -9.947132      -270.6752
  14   2.0000      -9.942906      -270.5602
  15   2.0000      -9.893250      -269.2090
  16   2.0000      -9.890412      -269.1318
  17   2.0000      -9.879975      -268.8478
  18   2.0000      -9.876865      -268.7631
  19   2.0000      -7.692052      -209.3114
  20   2.0000      -7.691473      -209.2956
  21   2.0000      -7.636314      -207.7947
  22   2.0000      -7.629090      -207.5981
  23   2.0000      -6.430039      -174.9703
  24   2.0000      -6.420372      -174.7072
  25   2.0000      -5.720369      -155.6592
  26   2.0000      -5.719330      -155.6309
  27   2.0000      -5.716280      -155.5479
  28   2.0000      -5.716217      -155.5462
  29   2.0000      -5.708829      -155.3451
  30   2.0000      -5.708279      -155.3302
  31   2.0000      -5.665262      -154.1596
  32   2.0000      -5.658043      -153.9632
  33   2.0000      -5.657052      -153.9362
  34   2.0000      -5.656265      -153.9148
  35   2.0000      -5.649875      -153.7409
  36   2.0000      -5.649064      -153.7188
  37   2.0000      -4.653096      -126.6172
  38   2.0000      -4.651652      -126.5779
  39   2.0000      -4.650233      -126.5393
  40   2.0000      -4.642785      -126.3366
  41   2.0000      -4.642319      -126.3239
  42   2.0000      -4.640758      -126.2814
  43   2.0000      -0.994583       -27.0640
  44   2.0000      -0.981034       -26.6953
  45   2.0000      -0.951199       -25.8834
  46   2.0000      -0.939550       -25.5665
  47   2.0000      -0.764987       -20.8163
  48   2.0000      -0.725766       -19.7491
  49   2.0000      -0.710072       -19.3220
  50   2.0000      -0.696599       -18.9554
  51   2.0000      -0.682868       -18.5818
  52   2.0000      -0.677511       -18.4360
  53   2.0000      -0.653973       -17.7955
  54   2.0000      -0.638984       -17.3876
  55   2.0000      -0.601040       -16.3551
  56   2.0000      -0.589095       -16.0301
  57   2.0000      -0.583359       -15.8740
  58   2.0000      -0.566078       -15.4038
  59   2.0000      -0.558463       -15.1966
  60   2.0000      -0.508658       -13.8413
  61   2.0000      -0.498438       -13.5632
  62   2.0000      -0.478907       -13.0317
  63   2.0000      -0.468281       -12.7426
  64   2.0000      -0.456291       -12.4163
  65   2.0000      -0.451565       -12.2877
  66   2.0000      -0.444428       -12.0935
  67   2.0000      -0.439220       -11.9518
  68   2.0000      -0.434737       -11.8298
  69   2.0000      -0.422405       -11.4942
  70   2.0000      -0.410641       -11.1741
  71   2.0000      -0.403276       -10.9737
  72   2.0000      -0.393544       -10.7089
  73   2.0000      -0.384980       -10.4758
  74   2.0000      -0.382647       -10.4123
  75   2.0000      -0.375344       -10.2136
  76   2.0000      -0.364116        -9.9081
  77   2.0000      -0.363425        -9.8893
  78   2.0000      -0.355629        -9.6772
  79   2.0000      -0.352853        -9.6016
  80   2.0000      -0.348176        -9.4744
  81   2.0000      -0.346151        -9.4192
  82   2.0000      -0.343429        -9.3452
  83   2.0000      -0.332024        -9.0348
  84   2.0000      -0.327137        -8.9019
  85   2.0000      -0.320867        -8.7312
  86   2.0000      -0.316057        -8.6003
  87   2.0000      -0.307935        -8.3793
  88   2.0000      -0.299378        -8.1465
  89   2.0000      -0.293281        -7.9806
  90   2.0000      -0.287596        -7.8259
  91   2.0000      -0.275472        -7.4960
  92   2.0000      -0.268218        -7.2986
  93   2.0000      -0.265999        -7.2382
  94   2.0000      -0.265053        -7.2125
  95   2.0000      -0.230151        -6.2627
  96   2.0000      -0.222794        -6.0625
  97   2.0000      -0.212729        -5.7887
  98   2.0000      -0.207210        -5.6385
  99   2.0000      -0.201544        -5.4843
 100   2.0000      -0.198581        -5.4037
 101   0.0000      -0.044156        -1.2015
 102   0.0000      -0.031392        -0.8542
 103   0.0000      -0.023107        -0.6288
 104   0.0000       0.001892         0.0515
 105   0.0000       0.012928         0.3518

MULLIKEN ATOMIC CHARGES
-----------------------
   0 C :   -0.375005
   1 C :    0.014284
   2 O :   -0.382648
   3 P :    0.597311
   4 S :   -0.302058
   5 O :   -0.362984
   6 C :   -0.010979
   7 C :   -0.301984
   8 S :   -0.101252
   9 C :   -0.360627
  10 S :   -0.073052
  11 P :    0.622528
  12 S :   -0.323362
  13 O :   -0.374836
  14 C :   -0.009936
  15 C :   -0.322419
  16 O :   -0.374772
  17 C :   -0.002578
  18 C :   -0.286592
  19 H :    0.116967
  20 H :    0.118797
  21 H :    0.166758
  22 H :    0.113636
  23 H :    0.105961
  24 H :    0.109944
  25 H :    0.113380
  26 H :    0.124817
  27 H :    0.112501
  28 H :    0.120941
  29 H :    0.210039
  30 H :    0.182585
  31 H :    0.113250
  32 H :    0.105905
  33 H :    0.123367
  34 H :    0.109751
  35 H :    0.125260
  36 H :    0.104581
  37 H :    0.102488
  38 H :    0.127187
  39 H :    0.106909
  40 H :    0.115940
Sum of atomic charges:   -0.0000000

LOEWDIN ATOMIC CHARGES
----------------------
   0 C :   -0.379726
   1 C :   -0.113543
   2 O :   -0.246594
   3 P :    0.572739
   4 S :   -0.295762
   5 O :   -0.243826
   6 C :   -0.111361
   7 C :   -0.363185
   8 S :    0.076322
   9 C :   -0.477805
  10 S :    0.100665
  11 P :    0.568935
  12 S :   -0.320183
  13 O :   -0.246026
  14 C :   -0.123488
  15 C :   -0.370898
  16 O :   -0.239920
  17 C :   -0.118663
  18 C :   -0.352408
  19 H :    0.132469
  20 H :    0.123070
  21 H :    0.128057
  22 H :    0.114482
  23 H :    0.119344
  24 H :    0.111991
  25 H :    0.123434
  26 H :    0.119496
  27 H :    0.131583
  28 H :    0.128548
  29 H :    0.129535
  30 H :    0.133526
  31 H :    0.108696
  32 H :    0.114431
  33 H :    0.120464
  34 H :    0.129411
  35 H :    0.117681
  36 H :    0.110585
  37 H :    0.106265
  38 H :    0.125271
  39 H :    0.129095
  40 H :    0.127294

  Mayer bond orders larger than 0.100000
B(  0-C ,  1-C ) :   1.1631 B(  0-C , 19-H ) :   0.9354 B(  0-C , 20-H ) :   0.9426
B(  0-C , 21-H ) :   0.9150 B(  1-C ,  2-O ) :   0.9019 B(  1-C , 22-H ) :   0.9196
B(  1-C , 23-H ) :   0.9327 B(  2-O ,  3-P ) :   1.0915 B(  3-P ,  4-S ) :   1.6326
B(  3-P ,  5-O ) :   1.1278 B(  3-P ,  8-S ) :   0.9517 B(  4-S ,  8-S ) :   0.1106
B(  5-O ,  6-C ) :   0.8920 B(  6-C ,  7-C ) :   1.1652 B(  6-C , 24-H ) :   0.9182
B(  6-C , 25-H ) :   0.9351 B(  7-C , 26-H ) :   0.9325 B(  7-C , 27-H ) :   0.9385
B(  7-C , 28-H ) :   0.9458 B(  8-S ,  9-C ) :   0.9789 B(  9-C , 10-S ) :   1.0030
B(  9-C , 29-H ) :   0.8572 B(  9-C , 30-H ) :   0.9067 B( 10-S , 11-P ) :   0.9696
B( 11-P , 12-S ) :   1.6537 B( 11-P , 13-O ) :   1.0728 B( 11-P , 16-O ) :   1.1204
B( 13-O , 14-C ) :   0.9069 B( 14-C , 15-C ) :   1.1639 B( 14-C , 31-H ) :   0.9117
B( 14-C , 32-H ) :   0.9263 B( 15-C , 33-H ) :   0.9351 B( 15-C , 34-H ) :   0.9385
B( 15-C , 35-H ) :   0.9394 B( 16-O , 17-C ) :   0.8892 B( 17-C , 18-C ) :   1.1679
B( 17-C , 36-H ) :   0.9232 B( 17-C , 37-H ) :   0.9098 B( 18-C , 38-H ) :   0.9459
B( 18-C , 39-H ) :   0.9410 B( 18-C , 40-H ) :   0.9497

Dispersion correction           -0.066006251
FINAL SINGLE POINT ENERGY     -2929.518573646036

DIPOLE MOMENT
-------------

Method             : SCF
Type of density    : Electron Density
Multiplicity       :   1
Irrep              :   0
Energy             : -2929.6393951146483232 Eh
Relativity type    :
Basis              : AO
                                X                 Y                 Z
Electronic contribution:     -9.938625260      -6.524218518      -0.702279811
Nuclear contribution   :     11.963015891       6.946235122       0.736191612
                        -----------------------------------------
Total Dipole Moment    :      2.024390632       0.422016604       0.033911801
                        -----------------------------------------
Magnitude (a.u.)       :      2.068188931
Magnitude (Debye)      :      5.256918489

Rotational constants in cm-1:             0.011221             0.005337             0.005153
Rotational constants in MHz :           336.390778           159.984584           154.496649

                             ****ORCA TERMINATED NORMALLY****
TOTAL RUN TIME: 0 days 0 hours 0 minutes 21 seconds 435 msec
