                         Program Version 6.0.1  -  RELEASE   -
|  1> ! pbe def2-sv(p) def2/J RI DEFGRID1 loosescf d4 GCP(DFT/SV(P)) printgap
|  2> %output
|  3>     printlevel normal
|  4> end
|  5> * xyz 0 1
|  6> C 5.3161838682 -0.9174088528 -1.9105094656
|  7> C 4.5328580656 -1.4855548628 -0.7432832456
|  8> O 3.1294273094 -1.3784589362 -1.0484649127
|  9> C 2.2817054622 -1.9994840203 -0.2473845061
| 10> O 2.6140579078 -2.7075337618 0.6761047091
| 11> C 0.8401248798 -1.7825524044 -0.6714440281
| 12> C 0.5831432358 -0.3101943379 -0.9705037503
| 13> H 1.201363084 0.0034005006 -1.8190394056
| 14> C 0.9758399376 0.5667150467 0.205022648
| 15> O 1.8981285967 0.2862823119 0.9368623824
| 16> O 0.2615332519 1.6702955222 0.2673062767
| 17> C 0.5615605559 2.6505620314 1.2825332314
| 18> C 0.6217459593 4.0219200428 0.6362017188
| 19> S -1.1243950153 -0.00261143 -1.5172244463
| 20> P -2.1352716424 0.192726384 0.3425029429
| 21> S -1.3176669716 -0.6177181777 1.9336227082
| 22> O -2.5007128395 1.7119558017 0.5598633093
| 23> C -3.1593812801 2.4977281574 -0.4556095775
| 24> O -3.5788028776 -0.3946973665 -0.0242012741
| 25> C -3.7777640697 -1.7910968878 -0.2686466786
| 26> H 6.3773897311 -0.9960975194 -1.6994864179
| 27> H 5.0882667464 -1.4710703491 -2.8163778351
| 28> H 5.0576849883 0.1264466798 -2.0599399999
| 29> H 4.7154772091 -0.9309345269 0.1828636452
| 30> H 4.7678174028 -2.5396323539 -0.5648179815
| 31> H 0.2020700869 -2.1376212703 0.1403762693
| 32> H 0.6496306956 -2.3743404423 -1.5680444796
| 33> H -0.2429451196 2.5882047256 2.0210844177
| 34> H 1.5073649834 2.3726372959 1.7559740503
| 35> H 1.4231820348 4.0599991961 -0.0964429834
| 36> H -0.3204303371 4.2416867996 0.1432674746
| 37> H 0.8060878379 4.7652732609 1.4045708033
| 38> H -4.1376908609 2.0755874636 -0.6753717618
| 39> H -2.5494182081 2.5209766792 -1.358420874
| 40> H -3.256424105 3.4911454892 -0.0255348656
| 41> H -3.3205766514 -2.3813737803 0.5271038463
| 42> H -3.3468441281 -2.0635482503 -1.2318283729
| 43> H -4.8550089289 -1.9363551272 -0.2755877717
| 44> *
| 45>
| 46>                          ****END OF INPUT****

CARTESIAN COORDINATES (ANGSTROEM)
---------------------------------
  C      5.316184   -0.917409   -1.910509
  C      4.532858   -1.485555   -0.743283
  O      3.129427   -1.378459   -1.048465
  C      2.281705   -1.999484   -0.247385
  O      2.614058   -2.707534    0.676105
  C      0.840125   -1.782552   -0.671444
  C      0.583143   -0.310194   -0.970504
  H      1.201363    0.003401   -1.819039
  C      0.975840    0.566715    0.205023
  O      1.898129    0.286282    0.936862
  O      0.261533    1.670296    0.267306
  C      0.561561    2.650562    1.282533
  C      0.621746    4.021920    0.636202
  S     -1.124395   -0.002611   -1.517224
  P     -2.135272    0.192726    0.342503
  S     -1.317667   -0.617718    1.933623
  O     -2.500713    1.711956    0.559863
  C     -3.159381    2.497728   -0.455610
  O     -3.578803   -0.394697   -0.024201
  C     -3.777764   -1.791097   -0.268647
  H      6.377390   -0.996098   -1.699486
  H      5.088267   -1.471070   -2.816378
  H      5.057685    0.126447   -2.059940
  H      4.715477   -0.930935    0.182864
  H      4.767817   -2.539632   -0.564818
  H      0.202070   -2.137621    0.140376
  H      0.649631   -2.374340   -1.568044
  H     -0.242945    2.588205    2.021084
  H      1.507365    2.372637    1.755974
  H      1.423182    4.059999   -0.096443
  H     -0.320430    4.241687    0.143267
  H      0.806088    4.765273    1.404571
  H     -4.137691    2.075587   -0.675372
  H     -2.549418    2.520977   -1.358421
  H     -3.256424    3.491145   -0.025535
  H     -3.320577   -2.381374    0.527104
  H     -3.346844   -2.063548   -1.231828
  H     -4.855009   -1.936355   -0.275588

 Total Charge           Charge          ....    0
 Multiplicity           Mult            ....    1
 Number of Electrons    NEL             ....  174
 Basis Dimension        Dim             ....  316

ORBITAL ENERGIES
----------------

  NO   OCC          E(Eh)            E(eV)
   0   2.0000     -88.045136     -2395.8300
   1   2.0000     -87.988382     -2394.2856
   2   2.0000     -76.431401     -2079.8041
   3   2.0000     -18.812292      -511.9085
   4   2.0000     -18.800494      -511.5874
   5   2.0000     -18.797361      -511.5022
   6   2.0000     -18.790137      -511.3056
   7   2.0000     -18.741201      -509.9740
   8   2.0000     -18.718848      -509.3658
   9   2.0000     -10.021475      -272.6982
  10   2.0000      -9.996330      -272.0140
  11   2.0000      -9.956092      -270.9190
  12   2.0000      -9.951818      -270.8027
  13   2.0000      -9.948576      -270.7145
  14   2.0000      -9.946505      -270.6582
  15   2.0000      -9.938496      -270.4402
  16   2.0000      -9.900336      -269.4018
  17   2.0000      -9.892611      -269.1916
  18   2.0000      -9.884792      -268.9789
  19   2.0000      -7.690002      -209.2556
  20   2.0000      -7.633198      -207.7099
  21   2.0000      -6.428274      -174.9222
  22   2.0000      -5.717870      -155.5912
  23   2.0000      -5.714410      -155.4970
  24   2.0000      -5.707083      -155.2976
  25   2.0000      -5.662419      -154.0823
  26   2.0000      -5.653537      -153.8406
  27   2.0000      -5.653353      -153.8356
  28   2.0000      -4.651037      -126.5612
  29   2.0000      -4.650181      -126.5379
  30   2.0000      -4.648579      -126.4943
  31   2.0000      -1.018894       -27.7255
  32   2.0000      -0.996603       -27.1189
  33   2.0000      -0.993047       -27.0222
  34   2.0000      -0.948584       -25.8123
  35   2.0000      -0.923267       -25.1234
  36   2.0000      -0.897457       -24.4210
  37   2.0000      -0.768448       -20.9105
  38   2.0000      -0.711792       -19.3689
  39   2.0000      -0.706840       -19.2341
  40   2.0000      -0.694286       -18.8925
  41   2.0000      -0.659030       -17.9331
  42   2.0000      -0.642170       -17.4743
  43   2.0000      -0.627230       -17.0678
  44   2.0000      -0.616535       -16.7768
  45   2.0000      -0.583150       -15.8683
  46   2.0000      -0.563264       -15.3272
  47   2.0000      -0.520385       -14.1604
  48   2.0000      -0.508892       -13.8477
  49   2.0000      -0.501668       -13.6511
  50   2.0000      -0.487225       -13.2581
  51   2.0000      -0.481130       -13.0922
  52   2.0000      -0.452316       -12.3081
  53   2.0000      -0.441225       -12.0064
  54   2.0000      -0.438546       -11.9335
  55   2.0000      -0.436103       -11.8670
  56   2.0000      -0.431779       -11.7493
  57   2.0000      -0.421560       -11.4712
  58   2.0000      -0.413851       -11.2614
  59   2.0000      -0.407235       -11.0814
  60   2.0000      -0.402864       -10.9625
  61   2.0000      -0.399443       -10.8694
  62   2.0000      -0.386251       -10.5104
  63   2.0000      -0.382679       -10.4132
  64   2.0000      -0.367512       -10.0005
  65   2.0000      -0.361128        -9.8268
  66   2.0000      -0.358682        -9.7602
  67   2.0000      -0.351754        -9.5717
  68   2.0000      -0.346916        -9.4401
  69   2.0000      -0.339783        -9.2460
  70   2.0000      -0.336561        -9.1583
  71   2.0000      -0.329399        -8.9634
  72   2.0000      -0.320330        -8.7166
  73   2.0000      -0.310987        -8.4624
  74   2.0000      -0.309280        -8.4159
  75   2.0000      -0.301787        -8.2120
  76   2.0000      -0.300802        -8.1852
  77   2.0000      -0.292515        -7.9597
  78   2.0000      -0.277384        -7.5480
  79   2.0000      -0.267513        -7.2794
  80   2.0000      -0.263248        -7.1633
  81   2.0000      -0.245974        -6.6933
  82   2.0000      -0.241322        -6.5667
  83   2.0000      -0.221338        -6.0229
  84   2.0000      -0.207229        -5.6390
  85   2.0000      -0.205241        -5.5849
  86   2.0000      -0.199785        -5.4364
  87   0.0000      -0.042637        -1.1602
  88   0.0000      -0.032254        -0.8777
  89   0.0000      -0.003778        -0.1028
  90   0.0000       0.002747         0.0747
  91   0.0000       0.012494         0.3400

MULLIKEN ATOMIC CHARGES
-----------------------
   0 C :   -0.275069
   1 C :   -0.023611
   2 O :   -0.256782
   3 C :    0.109937
   4 O :   -0.194069
   5 C :   -0.028658
   6 C :   -0.304988
   7 H :    0.159186
   8 C :    0.176166
   9 O :   -0.169974
  10 O :   -0.234125
  11 C :   -0.019997
  12 C :   -0.291005
  13 S :   -0.099901
  14 P :    0.604007
  15 S :   -0.285937
  16 O :   -0.364443
  17 C :   -0.112411
  18 O :   -0.387686
  19 C :   -0.102588
  20 H :    0.110301
  21 H :    0.110713
  22 H :    0.110397
  23 H :    0.110820
  24 H :    0.105952
  25 H :    0.116136
  26 H :    0.108899
  27 H :    0.115897
  28 H :    0.120929
  29 H :    0.111243
  30 H :    0.113266
  31 H :    0.115364
  32 H :    0.128586
  33 H :    0.124255
  34 H :    0.132917
  35 H :    0.122597
  36 H :    0.116572
  37 H :    0.127106
Sum of atomic charges:   -0.0000000

LOEWDIN ATOMIC CHARGES
----------------------
   0 C :   -0.351607
   1 C :   -0.106149
   2 O :   -0.075407
   3 C :    0.026120
   4 O :   -0.157318
   5 C :   -0.249720
   6 C :   -0.269281
   7 H :    0.153598
   8 C :    0.008327
   9 O :   -0.133858
  10 O :   -0.060526
  11 C :   -0.110757
  12 C :   -0.350248
  13 S :    0.093446
  14 P :    0.571705
  15 S :   -0.279867
  16 O :   -0.236401
  17 C :   -0.211835
  18 O :   -0.259912
  19 C :   -0.215992
  20 H :    0.130004
  21 H :    0.124330
  22 H :    0.123946
  23 H :    0.120306
  24 H :    0.116408
  25 H :    0.135377
  26 H :    0.140218
  27 H :    0.120668
  28 H :    0.122867
  29 H :    0.125102
  30 H :    0.123259
  31 H :    0.132216
  32 H :    0.117810
  33 H :    0.111240
  34 H :    0.125271
  35 H :    0.113835
  36 H :    0.109202
  37 H :    0.123623

  Mayer bond orders larger than 0.100000
B(  0-C ,  1-C ) :   1.1496 B(  0-C , 20-H ) :   0.9450 B(  0-C , 21-H ) :   0.9513
B(  0-C , 22-H ) :   0.9496 B(  1-C ,  2-O ) :   0.9125 B(  1-C , 23-H ) :   0.9317
B(  1-C , 24-H ) :   0.9280 B(  2-O ,  3-C ) :   1.1807 B(  3-C ,  4-O ) :   2.0825
B(  3-C ,  5-C ) :   1.0241 B(  5-C ,  6-C ) :   1.0375 B(  5-C , 25-H ) :   0.8844
B(  5-C , 26-H ) :   0.8832 B(  6-C ,  7-H ) :   0.8524 B(  6-C ,  8-C ) :   0.9078
B(  6-C , 13-S ) :   0.9967 B(  8-C ,  9-O ) :   2.0467 B(  8-C , 10-O ) :   1.2342
B( 10-O , 11-C ) :   0.8878 B( 11-C , 12-C ) :   1.1659 B( 11-C , 27-H ) :   0.9242
B( 11-C , 28-H ) :   0.9118 B( 12-C , 29-H ) :   0.9507 B( 12-C , 30-H ) :   0.9484
B( 12-C , 31-H ) :   0.9444 B( 13-S , 14-P ) :   0.9581 B( 13-S , 15-S ) :   0.1153
B( 14-P , 15-S ) :   1.6310 B( 14-P , 16-O ) :   1.1184 B( 14-P , 18-O ) :   1.0713
B( 16-O , 17-C ) :   0.9158 B( 17-C , 32-H ) :   0.9462 B( 17-C , 33-H ) :   0.9371
B( 17-C , 34-H ) :   0.9568 B( 18-O , 19-C ) :   0.9298 B( 19-C , 35-H ) :   0.9363
B( 19-C , 36-H ) :   0.9465 B( 19-C , 37-H ) :   0.9583

Dispersion correction           -0.052871493
FINAL SINGLE POINT ENERGY     -1979.019471093282

DIPOLE MOMENT
-------------

Method             : SCF
Type of density    : Electron Density
Multiplicity       :   1
Irrep              :   0
Energy             : -1979.1494080480215416 Eh
Relativity type    :
Basis              : AO
                                X                 Y                 Z
Electronic contribution:    -11.858344764      -7.306265360       6.121667883
Nuclear contribution   :     11.168697576       8.666033110      -7.817885641
                        -----------------------------------------
Total Dipole Moment    :     -0.689647189       1.359767750      -1.696217758
                        -----------------------------------------
Magnitude (a.u.)       :      2.280731519
Magnitude (Debye)      :      5.797158814

Rotational constants in cm-1:             0.015055             0.006601             0.005595
Rotational constants in MHz :           451.340114           197.899510           167.720761

                             ****ORCA TERMINATED NORMALLY****
TOTAL RUN TIME: 0 days 0 hours 0 minutes 28 seconds 195 msec
