                         Program Version 6.0.1  -  RELEASE   -
|  1> ! pbe def2-sv(p) def2/J RI DEFGRID1 loosescf d4 GCP(DFT/SV(P)) printgap
|  2> %output
|  3>     printlevel normal
|  4> end
|  5> * xyz 0 1
|  6> C 4.8759639505 -3.3760722127 -1.1533106522
|  7> C 5.0136579746 -2.0552424789 -0.4132420499
|  8> O 3.8881960835 -1.8363641624 0.4606848284
|  9> C 2.8194952616 -1.2399571991 -0.0219796544
| 10> O 2.7075364997 -0.834423661 -1.1610435815
| 11> C 1.7400016482 -1.0921741753 1.0302944034
| 12> C 0.4747866227 -0.5916130765 0.360906445
| 13> H 0.0375831464 -1.3386775277 -0.3087722086
| 14> C 0.6707124697 0.6910024443 -0.4190827226
| 15> O -0.0212669352 0.9716540015 -1.3766602504
| 16> O 1.5712918714 1.4783126178 0.1185311213
| 17> C 1.7264488648 2.8053864279 -0.4225450616
| 18> C 0.8246324362 3.7784758454 0.3204651659
| 19> S -0.8027643088 -0.1386959651 1.5948408522
| 20> P -2.3737174874 0.1823528931 0.2369659596
| 21> S -2.5549252371 -1.0617209641 -1.2714215163
| 22> O -3.6543070734 0.1865982881 1.1946205593
| 23> C -4.2210813695 -1.0325767012 1.6901703049
| 24> O -2.2886018767 1.7430026091 -0.0589699951
| 25> C -2.8766031216 2.3072728546 -1.2425987714
| 26> H 4.0102066549 -3.3477232558 -1.81148461
| 27> H 5.7653894118 -3.547400511 -1.7505469834
| 28> H 4.7563927687 -4.19131872 -0.4453375041
| 29> H 5.0764873136 -1.2210536311 -1.1176640672
| 30> H 5.876969772 -2.0603513129 0.2521076032
| 31> H 2.0853751168 -0.3753848106 1.7775328196
| 32> H 1.5713607037 -2.0476618199 1.5253834237
| 33> H 2.7803425922 3.0423508443 -0.2763505379
| 34> H 1.4874131118 2.7761070894 -1.4890852621
| 35> H 1.0765879402 3.7896776479 1.3771963691
| 36> H 0.9510678066 4.7737888073 -0.0919826301
| 37> H -0.2156167959 3.4770778042 0.2126306531
| 38> H -5.2201218384 -0.7746080218 2.031897087
| 39> H -3.6177391798 -1.4109997896 2.5142887509
| 40> H -4.2692722015 -1.7734801648 0.8900367485
| 41> H -3.9424243965 2.0867937634 -1.2783630785
| 42> H -2.3784018729 1.9014879243 -2.124089423
| 43> H -2.7067640614 3.3781967191 -1.1668852148
| 44> *
| 45>
| 46>                          ****END OF INPUT****

CARTESIAN COORDINATES (ANGSTROEM)
---------------------------------
  C      4.875964   -3.376072   -1.153311
  C      5.013658   -2.055242   -0.413242
  O      3.888196   -1.836364    0.460685
  C      2.819495   -1.239957   -0.021980
  O      2.707536   -0.834424   -1.161044
  C      1.740002   -1.092174    1.030294
  C      0.474787   -0.591613    0.360906
  H      0.037583   -1.338678   -0.308772
  C      0.670712    0.691002   -0.419083
  O     -0.021267    0.971654   -1.376660
  O      1.571292    1.478313    0.118531
  C      1.726449    2.805386   -0.422545
  C      0.824632    3.778476    0.320465
  S     -0.802764   -0.138696    1.594841
  P     -2.373717    0.182353    0.236966
  S     -2.554925   -1.061721   -1.271422
  O     -3.654307    0.186598    1.194621
  C     -4.221081   -1.032577    1.690170
  O     -2.288602    1.743003   -0.058970
  C     -2.876603    2.307273   -1.242599
  H      4.010207   -3.347723   -1.811485
  H      5.765389   -3.547401   -1.750547
  H      4.756393   -4.191319   -0.445338
  H      5.076487   -1.221054   -1.117664
  H      5.876970   -2.060351    0.252108
  H      2.085375   -0.375385    1.777533
  H      1.571361   -2.047662    1.525383
  H      2.780343    3.042351   -0.276351
  H      1.487413    2.776107   -1.489085
  H      1.076588    3.789678    1.377196
  H      0.951068    4.773789   -0.091983
  H     -0.215617    3.477078    0.212631
  H     -5.220122   -0.774608    2.031897
  H     -3.617739   -1.411000    2.514289
  H     -4.269272   -1.773480    0.890037
  H     -3.942424    2.086794   -1.278363
  H     -2.378402    1.901488   -2.124089
  H     -2.706764    3.378197   -1.166885

 Total Charge           Charge          ....    0
 Multiplicity           Mult            ....    1
 Number of Electrons    NEL             ....  174
 Basis Dimension        Dim             ....  316

ORBITAL ENERGIES
----------------

  NO   OCC          E(Eh)            E(eV)
   0   2.0000     -88.042619     -2395.7615
   1   2.0000     -87.974885     -2393.9183
   2   2.0000     -76.419261     -2079.4738
   3   2.0000     -18.811672      -511.8916
   4   2.0000     -18.800174      -511.5787
   5   2.0000     -18.786075      -511.1951
   6   2.0000     -18.785660      -511.1838
   7   2.0000     -18.748752      -510.1795
   8   2.0000     -18.725502      -509.5468
   9   2.0000     -10.020481      -272.6712
  10   2.0000     -10.006813      -272.2992
  11   2.0000      -9.955193      -270.8946
  12   2.0000      -9.944083      -270.5923
  13   2.0000      -9.939910      -270.4787
  14   2.0000      -9.939288      -270.4618
  15   2.0000      -9.935944      -270.3708
  16   2.0000      -9.916803      -269.8499
  17   2.0000      -9.892516      -269.1890
  18   2.0000      -9.882296      -268.9110
  19   2.0000      -7.687506      -209.1877
  20   2.0000      -7.620150      -207.3548
  21   2.0000      -6.416625      -174.6052
  22   2.0000      -5.715105      -155.5159
  23   2.0000      -5.712273      -155.4388
  24   2.0000      -5.704525      -155.2280
  25   2.0000      -5.649128      -153.7206
  26   2.0000      -5.640878      -153.4961
  27   2.0000      -5.640111      -153.4752
  28   2.0000      -4.638936      -126.2319
  29   2.0000      -4.638429      -126.2181
  30   2.0000      -4.637294      -126.1872
  31   2.0000      -1.020285       -27.7634
  32   2.0000      -1.007868       -27.4255
  33   2.0000      -0.978309       -26.6211
  34   2.0000      -0.936189       -25.4750
  35   2.0000      -0.925617       -25.1873
  36   2.0000      -0.907598       -24.6970
  37   2.0000      -0.766522       -20.8581
  38   2.0000      -0.719103       -19.5678
  39   2.0000      -0.702529       -19.1168
  40   2.0000      -0.689325       -18.7575
  41   2.0000      -0.657818       -17.9001
  42   2.0000      -0.624380       -16.9902
  43   2.0000      -0.623038       -16.9537
  44   2.0000      -0.612932       -16.6787
  45   2.0000      -0.597885       -16.2693
  46   2.0000      -0.562678       -15.3112
  47   2.0000      -0.509192       -13.8558
  48   2.0000      -0.506113       -13.7720
  49   2.0000      -0.494744       -13.4627
  50   2.0000      -0.476079       -12.9548
  51   2.0000      -0.467376       -12.7179
  52   2.0000      -0.462615       -12.5884
  53   2.0000      -0.441519       -12.0144
  54   2.0000      -0.432128       -11.7588
  55   2.0000      -0.430010       -11.7012
  56   2.0000      -0.427341       -11.6285
  57   2.0000      -0.420619       -11.4456
  58   2.0000      -0.411103       -11.1867
  59   2.0000      -0.407673       -11.0933
  60   2.0000      -0.399071       -10.8593
  61   2.0000      -0.397092       -10.8054
  62   2.0000      -0.390711       -10.6318
  63   2.0000      -0.381433       -10.3793
  64   2.0000      -0.372762       -10.1434
  65   2.0000      -0.368561       -10.0290
  66   2.0000      -0.362563        -9.8658
  67   2.0000      -0.353402        -9.6166
  68   2.0000      -0.349132        -9.5004
  69   2.0000      -0.338013        -9.1978
  70   2.0000      -0.336246        -9.1497
  71   2.0000      -0.330198        -8.9851
  72   2.0000      -0.323203        -8.7948
  73   2.0000      -0.305842        -8.3224
  74   2.0000      -0.300859        -8.1868
  75   2.0000      -0.298968        -8.1353
  76   2.0000      -0.290795        -7.9129
  77   2.0000      -0.284747        -7.7483
  78   2.0000      -0.270460        -7.3596
  79   2.0000      -0.267363        -7.2753
  80   2.0000      -0.258135        -7.0242
  81   2.0000      -0.248536        -6.7630
  82   2.0000      -0.234985        -6.3943
  83   2.0000      -0.231817        -6.3081
  84   2.0000      -0.217656        -5.9227
  85   2.0000      -0.195648        -5.3239
  86   2.0000      -0.184726        -5.0267
  87   0.0000      -0.046115        -1.2549
  88   0.0000      -0.030391        -0.8270
  89   0.0000      -0.009864        -0.2684
  90   0.0000       0.019401         0.5279
  91   0.0000       0.025663         0.6983

MULLIKEN ATOMIC CHARGES
-----------------------
   0 C :   -0.305866
   1 C :   -0.013915
   2 O :   -0.227574
   3 C :    0.122239
   4 O :   -0.198938
   5 C :   -0.040878
   6 C :   -0.338611
   7 H :    0.154411
   8 C :    0.213120
   9 O :   -0.192489
  10 O :   -0.237309
  11 C :   -0.012900
  12 C :   -0.313973
  13 S :   -0.092021
  14 P :    0.616298
  15 S :   -0.320480
  16 O :   -0.378132
  17 C :   -0.100729
  18 O :   -0.369332
  19 C :   -0.098029
  20 H :    0.130954
  21 H :    0.116303
  22 H :    0.116286
  23 H :    0.112566
  24 H :    0.105894
  25 H :    0.124907
  26 H :    0.122383
  27 H :    0.099569
  28 H :    0.113942
  29 H :    0.111679
  30 H :    0.108373
  31 H :    0.139779
  32 H :    0.123785
  33 H :    0.112010
  34 H :    0.116863
  35 H :    0.116951
  36 H :    0.143074
  37 H :    0.119791
Sum of atomic charges:    0.0000000

LOEWDIN ATOMIC CHARGES
----------------------
   0 C :   -0.355314
   1 C :   -0.109310
   2 O :   -0.056047
   3 C :    0.042575
   4 O :   -0.152477
   5 C :   -0.255505
   6 C :   -0.260436
   7 H :    0.139152
   8 C :    0.002750
   9 O :   -0.162337
  10 O :   -0.053568
  11 C :   -0.107254
  12 C :   -0.358466
  13 S :    0.110997
  14 P :    0.576343
  15 S :   -0.311745
  16 O :   -0.259943
  17 C :   -0.217441
  18 O :   -0.245433
  19 C :   -0.208327
  20 H :    0.132437
  21 H :    0.132445
  22 H :    0.125921
  23 H :    0.121601
  24 H :    0.119385
  25 H :    0.147917
  26 H :    0.144791
  27 H :    0.116190
  28 H :    0.122374
  29 H :    0.124618
  30 H :    0.128072
  31 H :    0.131905
  32 H :    0.121626
  33 H :    0.109902
  34 H :    0.109117
  35 H :    0.112237
  36 H :    0.122882
  37 H :    0.118363

  Mayer bond orders larger than 0.100000
B(  0-C ,  1-C ) :   1.1750 B(  0-C , 20-H ) :   0.9463 B(  0-C , 21-H ) :   0.9437
B(  0-C , 22-H ) :   0.9487 B(  1-C ,  2-O ) :   0.9090 B(  1-C , 23-H ) :   0.9141
B(  1-C , 24-H ) :   0.9366 B(  2-O ,  3-C ) :   1.2506 B(  3-C ,  4-O ) :   2.0096
B(  3-C ,  5-C ) :   1.0151 B(  5-C ,  6-C ) :   1.0341 B(  5-C , 25-H ) :   0.8690
B(  5-C , 26-H ) :   0.8907 B(  6-C ,  7-H ) :   0.8636 B(  6-C ,  8-C ) :   0.9024
B(  6-C , 13-S ) :   1.0247 B(  8-C ,  9-O ) :   1.9979 B(  8-C , 10-O ) :   1.2325
B( 10-O , 11-C ) :   0.9107 B( 11-C , 12-C ) :   1.1745 B( 11-C , 27-H ) :   0.9377
B( 11-C , 28-H ) :   0.9117 B( 12-C , 29-H ) :   0.9481 B( 12-C , 30-H ) :   0.9437
B( 12-C , 31-H ) :   0.9344 B( 13-S , 14-P ) :   0.9638 B( 13-S , 15-S ) :   0.1169
B( 14-P , 15-S ) :   1.6327 B( 14-P , 16-O ) :   1.0951 B( 14-P , 18-O ) :   1.1123
B( 16-O , 17-C ) :   0.9327 B( 17-C , 32-H ) :   0.9594 B( 17-C , 33-H ) :   0.9514
B( 17-C , 34-H ) :   0.9290 B( 18-O , 19-C ) :   0.9117 B( 19-C , 35-H ) :   0.9502
B( 19-C , 36-H ) :   0.9404 B( 19-C , 37-H ) :   0.9551

Dispersion correction           -0.051054153
FINAL SINGLE POINT ENERGY     -1979.020030474734

DIPOLE MOMENT
-------------

Method             : SCF
Type of density    : Electron Density
Multiplicity       :   1
Irrep              :   0
Energy             : -1979.1518434767690451 Eh
Relativity type    :
Basis              : AO
                                X                 Y                 Z
Electronic contribution:    -13.496798734      -2.669260829       2.351834334
Nuclear contribution   :     14.564101917       2.839999908      -1.433658345
                        -----------------------------------------
Total Dipole Moment    :      1.067303184       0.170739079       0.918175989
                        -----------------------------------------
Magnitude (a.u.)       :      1.418215451
Magnitude (Debye)      :      3.604817197

Rotational constants in cm-1:             0.015294             0.005804             0.005006
Rotational constants in MHz :           458.510094           173.986357           150.063171

                             ****ORCA TERMINATED NORMALLY****
TOTAL RUN TIME: 0 days 0 hours 0 minutes 31 seconds 53 msec
