                         Program Version 6.0.0  -   RELEASE  -
|  1> ! r2scan-3c def2/J RI DEFGRID2 scfconv6 printgap
|  2> %output
|  3>     printlevel normal
|  4> end
|  5> %cpcm
|  6>     smd true
|  7>     smdsolvent "water"
|  8> end
|  9> * xyz 0 1
| 10> C -1.9187029864 9.48e-07 -2.6385e-06
| 11> I 0.2352248338 2.836e-07 3.05e-08
| 12> H -2.2506771791 -1.0016998984 -0.2393174587
| 13> H -2.2507518346 0.293560143 0.9871425548
| 14> H -2.2507769064 0.7080927444 -0.7477974987
| 15> *
| 16>
| 17>                          ****END OF INPUT****

CARTESIAN COORDINATES (ANGSTROEM)
---------------------------------
  C     -1.918703    0.000001   -0.000003
  I      0.235225    0.000000    0.000000
  H     -2.250677   -1.001700   -0.239317
  H     -2.250752    0.293560    0.987143
  H     -2.250777    0.708093   -0.747797

 Total Charge           Charge          ....    0
 Multiplicity           Mult            ....    1
 Number of Electrons    NEL             ....   34
 Basis Dimension        Dim             ....   70

ORBITAL ENERGIES
----------------

  NO   OCC          E(Eh)            E(eV)
   0   2.0000     -10.063121      -273.8314
   1   2.0000      -6.805148      -185.1775
   2   2.0000      -4.823172      -131.2452
   3   2.0000      -4.807680      -130.8236
   4   2.0000      -4.807679      -130.8236
   5   2.0000      -1.858600       -50.5751
   6   2.0000      -1.854470       -50.4627
   7   2.0000      -1.854469       -50.4627
   8   2.0000      -1.841967       -50.1225
   9   2.0000      -1.841965       -50.1224
  10   2.0000      -0.708329       -19.2746
  11   2.0000      -0.602063       -16.3830
  12   2.0000      -0.390435       -10.6243
  13   2.0000      -0.390426       -10.6240
  14   2.0000      -0.327703        -8.9173
  15   2.0000      -0.232998        -6.3402
  16   2.0000      -0.232997        -6.3402
  17   0.0000      -0.044816        -1.2195
  18   0.0000       0.120902         3.2899
  19   0.0000       0.153420         4.1748
  20   0.0000       0.153425         4.1749
  21   0.0000       0.178747         4.8640

MULLIKEN ATOMIC CHARGES
-----------------------
   0 C :   -0.404987
   1 I :   -0.176303
   2 H :    0.193739
   3 H :    0.193731
   4 H :    0.193821
Sum of atomic charges:    0.0000000

LOEWDIN ATOMIC CHARGES
----------------------
   0 C :   -0.524352
   1 I :    0.019127
   2 H :    0.168400
   3 H :    0.168393
   4 H :    0.168432

  Mayer bond orders larger than 0.100000
B(  0-C ,  1-I ) :   0.9307 B(  0-C ,  2-H ) :   0.9458 B(  0-C ,  3-H ) :   0.9458
B(  0-C ,  4-H ) :   0.9458

Dispersion correction           -0.000692059
FINAL SINGLE POINT ENERGY      -337.631138284864

DIPOLE MOMENT
-------------

Method             : SCF
Type of density    : Electron Density
Multiplicity       :   1
Irrep              :   0
Energy             :  -337.6329199932994811 Eh
Relativity type    :
Basis              : AO
                                X                 Y                 Z
Electronic contribution:     22.473718466       0.000258165      -0.000260821
Nuclear contribution   :    -23.401211336      -0.000064686       0.000023677
                        -----------------------------------------
Total Dipole Moment    :     -0.927492870       0.000193479      -0.000237143
                        -----------------------------------------
Magnitude (a.u.)       :      0.927492920
Magnitude (Debye)      :      2.357499650

Rotational constants in cm-1:             5.255933             0.247319             0.247318
Rotational constants in MHz :        157568.917856          7414.422559          7414.416944

                             ****ORCA TERMINATED NORMALLY****
TOTAL RUN TIME: 0 days 0 hours 0 minutes 7 seconds 812 msec
