                         Program Version 6.0.0  -   RELEASE  -
|  1> ! pbe def2-sv(p) def2/J RI DEFGRID1 loosescf d4 GCP(DFT/SV(P)) printgap
|  2> %output
|  3>     printlevel normal
|  4> end
|  5> * xyz 0 1
|  6> C 3.757220358 -2.0053895066 1.744386138
|  7> C 2.3582979283 -2.0691545715 1.1664626047
|  8> O 1.861227906 -0.7510291661 0.8625775502
|  9> P 2.4035447853 0.0829548406 -0.3915692055
| 10> S 3.0395821318 -0.9905153875 -1.8935552896
| 11> O 3.5153028878 1.0716580358 0.147036209
| 12> C 3.3035940547 1.9299664832 1.2979281336
| 13> C 4.6640170831 2.3260988972 1.8329687653
| 14> S 0.7288925633 1.3315831242 -0.7391697014
| 15> C -0.2239582663 0.091452395 -1.6542976261
| 16> S -1.0573310305 -1.096100174 -0.5844074599
| 17> P -2.6971999166 0.1717006277 -0.0529851588
| 18> S -3.2503241763 1.4556088532 -1.4212855413
| 19> O -2.3092236231 0.9476807189 1.2604340742
| 20> C -1.9153195719 0.306491269 2.5011718502
| 21> C -0.5333157473 0.7845580254 2.8975956658
| 22> O -3.7698995377 -0.860347239 0.5045117211
| 23> C -4.2174585189 -2.0505936244 -0.171440394
| 24> C -4.7339677376 -1.7735732689 -1.5674397375
| 25> H 4.0924992825 -3.0080243437 1.9899864768
| 26> H 4.4370740852 -1.5764582904 1.0080223426
| 27> H 3.7715242176 -1.3914799417 2.6412844886
| 28> H 1.6363302493 -2.4691509229 1.8791808554
| 29> H 2.3442949831 -2.6660982069 0.2495722764
| 30> H 2.7332529118 2.7997956195 0.9630521037
| 31> H 2.7221265851 1.3831067295 2.0442365736
| 32> H 5.2336705381 2.8327504024 1.0593368453
| 33> H 4.5327274832 2.9937005177 2.678355582
| 34> H 5.2152690337 1.4455711308 2.1509217904
| 35> H 0.4502807137 -0.4695855862 -2.3028622363
| 36> H -0.9748232063 0.6349185147 -2.2311360786
| 37> H -2.6662543728 0.6041974215 3.2349062477
| 38> H -1.9415789473 -0.7778775898 2.3705719949
| 39> H -0.2884130176 0.3908274057 3.8789188417
| 40> H 0.2054380521 0.4398751947 2.1784431377
| 41> H -0.5118636284 1.8704528382 2.9269581454
| 42> H -3.3853038918 -2.7594794472 -0.2010729225
| 43> H -5.0078313519 -2.4305027322 0.4783275141
| 44> H -5.5124656212 -1.0147447932 -1.5408520716
| 45> H -3.9264983386 -1.4129580932 -2.203300767
| 46> H -5.1364158804 -2.6878919476 -1.9914488267
| 47> *
| 48>
| 49>                          ****END OF INPUT****

CARTESIAN COORDINATES (ANGSTROEM)
---------------------------------
  C      3.757220   -2.005390    1.744386
  C      2.358298   -2.069155    1.166463
  O      1.861228   -0.751029    0.862578
  P      2.403545    0.082955   -0.391569
  S      3.039582   -0.990515   -1.893555
  O      3.515303    1.071658    0.147036
  C      3.303594    1.929966    1.297928
  C      4.664017    2.326099    1.832969
  S      0.728893    1.331583   -0.739170
  C     -0.223958    0.091452   -1.654298
  S     -1.057331   -1.096100   -0.584407
  P     -2.697200    0.171701   -0.052985
  S     -3.250324    1.455609   -1.421286
  O     -2.309224    0.947681    1.260434
  C     -1.915320    0.306491    2.501172
  C     -0.533316    0.784558    2.897596
  O     -3.769900   -0.860347    0.504512
  C     -4.217459   -2.050594   -0.171440
  C     -4.733968   -1.773573   -1.567440
  H      4.092499   -3.008024    1.989986
  H      4.437074   -1.576458    1.008022
  H      3.771524   -1.391480    2.641284
  H      1.636330   -2.469151    1.879181
  H      2.344295   -2.666098    0.249572
  H      2.733253    2.799796    0.963052
  H      2.722127    1.383107    2.044237
  H      5.233671    2.832750    1.059337
  H      4.532727    2.993701    2.678356
  H      5.215269    1.445571    2.150922
  H      0.450281   -0.469586   -2.302862
  H     -0.974823    0.634919   -2.231136
  H     -2.666254    0.604197    3.234906
  H     -1.941579   -0.777878    2.370572
  H     -0.288413    0.390827    3.878919
  H      0.205438    0.439875    2.178443
  H     -0.511864    1.870453    2.926958
  H     -3.385304   -2.759479   -0.201073
  H     -5.007831   -2.430503    0.478328
  H     -5.512466   -1.014745   -1.540852
  H     -3.926498   -1.412958   -2.203301
  H     -5.136416   -2.687892   -1.991449

 Total Charge           Charge          ....    0
 Multiplicity           Mult            ....    1
 Number of Electrons    NEL             ....  202
 Basis Dimension        Dim             ....  334

ORBITAL ENERGIES
----------------

  NO   OCC          E(Eh)            E(eV)
   0   2.0000     -88.043861     -2395.7953
   1   2.0000     -88.041912     -2395.7422
   2   2.0000     -87.990193     -2394.3349
   3   2.0000     -87.983562     -2394.1545
   4   2.0000     -76.428562     -2079.7269
   5   2.0000     -76.426638     -2079.6745
   6   2.0000     -18.800286      -511.5818
   7   2.0000     -18.797337      -511.5015
   8   2.0000     -18.796106      -511.4680
   9   2.0000     -18.789026      -511.2754
  10   2.0000      -9.964915      -271.1591
  11   2.0000      -9.960191      -271.0306
  12   2.0000      -9.956193      -270.9218
  13   2.0000      -9.955908      -270.9140
  14   2.0000      -9.951013      -270.7808
  15   2.0000      -9.896817      -269.3061
  16   2.0000      -9.891932      -269.1732
  17   2.0000      -9.883901      -268.9546
  18   2.0000      -9.883832      -268.9527
  19   2.0000      -7.688664      -209.2192
  20   2.0000      -7.687136      -209.1776
  21   2.0000      -7.635428      -207.7706
  22   2.0000      -7.628903      -207.5930
  23   2.0000      -6.426665      -174.8784
  24   2.0000      -6.423921      -174.8038
  25   2.0000      -5.716232      -155.5466
  26   2.0000      -5.714871      -155.5096
  27   2.0000      -5.713202      -155.4641
  28   2.0000      -5.711888      -155.4284
  29   2.0000      -5.705987      -155.2678
  30   2.0000      -5.703985      -155.2133
  31   2.0000      -5.664440      -154.1372
  32   2.0000      -5.658017      -153.9625
  33   2.0000      -5.656140      -153.9114
  34   2.0000      -5.655342      -153.8897
  35   2.0000      -5.649416      -153.7284
  36   2.0000      -5.648911      -153.7147
  37   2.0000      -4.649672      -126.5240
  38   2.0000      -4.648021      -126.4791
  39   2.0000      -4.647055      -126.4528
  40   2.0000      -4.646762      -126.4448
  41   2.0000      -4.645882      -126.4209
  42   2.0000      -4.643992      -126.3695
  43   2.0000      -0.991641       -26.9839
  44   2.0000      -0.989110       -26.9151
  45   2.0000      -0.951291       -25.8859
  46   2.0000      -0.944584       -25.7034
  47   2.0000      -0.765114       -20.8198
  48   2.0000      -0.726697       -19.7744
  49   2.0000      -0.714934       -19.4544
  50   2.0000      -0.698041       -18.9947
  51   2.0000      -0.690735       -18.7959
  52   2.0000      -0.677731       -18.4420
  53   2.0000      -0.652345       -17.7512
  54   2.0000      -0.640066       -17.4171
  55   2.0000      -0.597139       -16.2490
  56   2.0000      -0.589881       -16.0515
  57   2.0000      -0.580084       -15.7849
  58   2.0000      -0.575086       -15.6489
  59   2.0000      -0.563588       -15.3360
  60   2.0000      -0.513456       -13.9719
  61   2.0000      -0.504153       -13.7187
  62   2.0000      -0.486870       -13.2484
  63   2.0000      -0.473852       -12.8942
  64   2.0000      -0.462105       -12.5745
  65   2.0000      -0.449755       -12.2385
  66   2.0000      -0.447259       -12.1705
  67   2.0000      -0.439389       -11.9564
  68   2.0000      -0.433718       -11.8021
  69   2.0000      -0.417036       -11.3481
  70   2.0000      -0.410356       -11.1664
  71   2.0000      -0.402428       -10.9506
  72   2.0000      -0.401359       -10.9215
  73   2.0000      -0.388342       -10.5673
  74   2.0000      -0.384379       -10.4595
  75   2.0000      -0.372339       -10.1319
  76   2.0000      -0.363823        -9.9001
  77   2.0000      -0.361326        -9.8322
  78   2.0000      -0.355574        -9.6757
  79   2.0000      -0.355215        -9.6659
  80   2.0000      -0.349274        -9.5042
  81   2.0000      -0.347585        -9.4583
  82   2.0000      -0.346603        -9.4315
  83   2.0000      -0.342378        -9.3166
  84   2.0000      -0.340026        -9.2526
  85   2.0000      -0.324716        -8.8360
  86   2.0000      -0.318510        -8.6671
  87   2.0000      -0.313386        -8.5277
  88   2.0000      -0.297842        -8.1047
  89   2.0000      -0.295648        -8.0450
  90   2.0000      -0.286454        -7.7948
  91   2.0000      -0.279530        -7.6064
  92   2.0000      -0.275378        -7.4934
  93   2.0000      -0.274011        -7.4562
  94   2.0000      -0.257675        -7.0117
  95   2.0000      -0.234508        -6.3813
  96   2.0000      -0.221267        -6.0210
  97   2.0000      -0.212957        -5.7949
  98   2.0000      -0.203458        -5.5364
  99   2.0000      -0.201377        -5.4797
 100   2.0000      -0.198703        -5.4070
 101   0.0000      -0.043652        -1.1878
 102   0.0000      -0.027010        -0.7350
 103   0.0000      -0.008293        -0.2257
 104   0.0000       0.002517         0.0685
 105   0.0000       0.012863         0.3500

MULLIKEN ATOMIC CHARGES
-----------------------
   0 C :   -0.319787
   1 C :   -0.002374
   2 O :   -0.379105
   3 P :    0.611957
   4 S :   -0.306496
   5 O :   -0.370425
   6 C :   -0.045181
   7 C :   -0.276994
   8 S :   -0.077153
   9 C :   -0.365452
  10 S :   -0.111196
  11 P :    0.594295
  12 S :   -0.305756
  13 O :   -0.349398
  14 C :    0.003898
  15 C :   -0.331488
  16 O :   -0.381108
  17 C :   -0.009296
  18 C :   -0.308274
  19 H :    0.116100
  20 H :    0.132768
  21 H :    0.112496
  22 H :    0.102230
  23 H :    0.114150
  24 H :    0.120413
  25 H :    0.119657
  26 H :    0.126803
  27 H :    0.113735
  28 H :    0.119416
  29 H :    0.189301
  30 H :    0.198679
  31 H :    0.108861
  32 H :    0.093974
  33 H :    0.100495
  34 H :    0.159784
  35 H :    0.115802
  36 H :    0.111323
  37 H :    0.108555
  38 H :    0.127565
  39 H :    0.125678
  40 H :    0.111551
Sum of atomic charges:   -0.0000000

LOEWDIN ATOMIC CHARGES
----------------------
   0 C :   -0.365815
   1 C :   -0.121697
   2 O :   -0.248255
   3 P :    0.570742
   4 S :   -0.303801
   5 O :   -0.243239
   6 C :   -0.118863
   7 C :   -0.348645
   8 S :    0.088788
   9 C :   -0.489197
  10 S :    0.061337
  11 P :    0.567536
  12 S :   -0.300102
  13 O :   -0.234097
  14 C :   -0.108545
  15 C :   -0.368747
  16 O :   -0.246737
  17 C :   -0.114987
  18 C :   -0.368511
  19 H :    0.132680
  20 H :    0.126328
  21 H :    0.121685
  22 H :    0.116400
  23 H :    0.110707
  24 H :    0.116189
  25 H :    0.111410
  26 H :    0.132703
  27 H :    0.131993
  28 H :    0.127931
  29 H :    0.127485
  30 H :    0.128067
  31 H :    0.119288
  32 H :    0.103874
  33 H :    0.125068
  34 H :    0.122511
  35 H :    0.127310
  36 H :    0.107345
  37 H :    0.120957
  38 H :    0.130890
  39 H :    0.121760
  40 H :    0.130254

  Mayer bond orders larger than 0.100000
B(  0-C ,  1-C ) :   1.1616 B(  0-C , 19-H ) :   0.9393 B(  0-C , 20-H ) :   0.9343
B(  0-C , 21-H ) :   0.9459 B(  1-C ,  2-O ) :   0.9025 B(  1-C , 22-H ) :   0.9333
B(  1-C , 23-H ) :   0.9112 B(  2-O ,  3-P ) :   1.0603 B(  3-P ,  4-S ) :   1.6360
B(  3-P ,  5-O ) :   1.1244 B(  3-P ,  8-S ) :   0.9746 B(  4-S ,  8-S ) :   0.1028
B(  5-O ,  6-C ) :   0.8957 B(  6-C ,  7-C ) :   1.1671 B(  6-C , 24-H ) :   0.9271
B(  6-C , 25-H ) :   0.9140 B(  7-C , 26-H ) :   0.9484 B(  7-C , 27-H ) :   0.9400
B(  7-C , 28-H ) :   0.9502 B(  8-S ,  9-C ) :   1.0071 B(  9-C , 10-S ) :   1.0104
B(  9-C , 29-H ) :   0.8659 B(  9-C , 30-H ) :   0.8592 B( 10-S , 11-P ) :   0.9315
B( 10-S , 12-S ) :   0.1127 B( 11-P , 12-S ) :   1.6431 B( 11-P , 13-O ) :   1.1470
B( 11-P , 16-O ) :   1.0900 B( 12-S , 30-H ) :   0.1034 B( 13-O , 14-C ) :   0.8904
B( 14-C , 15-C ) :   1.1661 B( 14-C , 31-H ) :   0.9347 B( 14-C , 32-H ) :   0.9171
B( 15-C , 33-H ) :   0.9387 B( 15-C , 34-H ) :   0.9153 B( 15-C , 35-H ) :   0.9451
B( 16-O , 17-C ) :   0.9115 B( 17-C , 18-C ) :   1.1675 B( 17-C , 36-H ) :   0.9260
B( 17-C , 37-H ) :   0.9332 B( 18-C , 38-H ) :   0.9433 B( 18-C , 39-H ) :   0.9326
B( 18-C , 40-H ) :   0.9351

Dispersion correction           -0.064297942
FINAL SINGLE POINT ENERGY     -2929.519006453480

DIPOLE MOMENT
-------------

Method             : SCF
Type of density    : Electron Density
Multiplicity       :   1
Irrep              :   0
Energy             : -2929.6403049336313416 Eh
Relativity type    :
Basis              : AO
                                X                 Y                 Z
Electronic contribution:     -7.535410925       6.084442660     -18.410066897
Nuclear contribution   :      7.794574370      -7.061397284      20.519420925
                        -----------------------------------------
Total Dipole Moment    :      0.259163445      -0.976954624       2.109354028
                        -----------------------------------------
Magnitude (a.u.)       :      2.339012707
Magnitude (Debye)      :      5.945297820

Rotational constants in cm-1:             0.012908             0.004541             0.004369
Rotational constants in MHz :           386.969137           136.150045           130.966233

                             ****ORCA TERMINATED NORMALLY****
TOTAL RUN TIME: 0 days 0 hours 0 minutes 21 seconds 100 msec
