                         Program Version 6.0.1  -  RELEASE   -
|  1> ! r2scan-3c def2/J RI DEFGRID2 scfconv6 printgap
|  2> %output
|  3>     printlevel normal
|  4> end
|  5> * xyz 0 1
|  6> C 3.7813422346 -4.1410154325 -1.6679232411
|  7> C 2.8500035611 -3.0926192488 -2.2550362319
|  8> O 2.7713154246 -1.9330791635 -1.4022523452
|  9> C 1.9147360837 -1.9479895486 -0.4029491415
| 10> O 1.1703913432 -2.8676284907 -0.1443315452
| 11> C 1.9307078382 -0.6385626765 0.3615839244
| 12> C 1.2640074186 0.4504092873 -0.4806350999
| 13> H 1.8727256135 0.6480190005 -1.3698735487
| 14> C 1.1450851313 1.7533581941 0.2944834569
| 15> O 2.0140187857 2.1390424111 1.0400202822
| 16> O 0.045567167 2.4216390965 0.011244769
| 17> C -0.1371562247 3.6930630219 0.6697456831
| 18> C -1.2971675534 4.4116929106 0.0127091508
| 19> S -0.3369586243 -0.0853664173 -1.1664767335
| 20> P -1.6090358591 0.1366802234 0.5255007681
| 21> S -0.8386129187 0.4081923717 2.3075056216
| 22> O -2.6562213333 1.2559000947 0.1503653942
| 23> C -3.4132252696 1.2150898866 -1.0770510429
| 24> O -2.5263589043 -1.171900778 0.4103600096
| 25> C -2.0459943553 -2.4561615785 0.8209670318
| 26> H 3.3822095237 -4.511464361 -0.7263421826
| 27> H 3.8710155051 -4.9696954151 -2.3624078051
| 28> H 4.764367066 -3.7130038628 -1.4915332556
| 29> H 1.8423372415 -3.4973721734 -2.3838495132
| 30> H 3.2300551666 -2.7068651814 -3.2008251326
| 31> H 2.9562609129 -0.3344040908 0.5713227633
| 32> H 1.3939855003 -0.7714323935 1.3029863647
| 33> H -0.3286692067 3.4928384089 1.7291151478
| 34> H 0.7997938763 4.25155383 0.5849445274
| 35> H -1.1079790209 4.535076414 -1.0494512032
| 36> H -2.2091035207 3.8386853822 0.1498054986
| 37> H -1.4148940684 5.3865713508 0.4737182637
| 38> H -4.0036459779 2.1275930443 -1.0794025341
| 39> H -4.0573492648 0.3382956798 -1.0860594732
| 40> H -2.7344923946 1.1907390694 -1.9293869878
| 41> H -1.1610858333 -2.7423765039 0.2502766199
| 42> H -2.8629195895 -3.1469977804 0.6315304574
| 43> H -1.7980211955 -2.4377492795 1.8829859895
| 44> *
| 45>
| 46>                          ****END OF INPUT****

CARTESIAN COORDINATES (ANGSTROEM)
---------------------------------
  C      3.781342   -4.141015   -1.667923
  C      2.850004   -3.092619   -2.255036
  O      2.771315   -1.933079   -1.402252
  C      1.914736   -1.947990   -0.402949
  O      1.170391   -2.867628   -0.144332
  C      1.930708   -0.638563    0.361584
  C      1.264007    0.450409   -0.480635
  H      1.872726    0.648019   -1.369874
  C      1.145085    1.753358    0.294483
  O      2.014019    2.139042    1.040020
  O      0.045567    2.421639    0.011245
  C     -0.137156    3.693063    0.669746
  C     -1.297168    4.411693    0.012709
  S     -0.336959   -0.085366   -1.166477
  P     -1.609036    0.136680    0.525501
  S     -0.838613    0.408192    2.307506
  O     -2.656221    1.255900    0.150365
  C     -3.413225    1.215090   -1.077051
  O     -2.526359   -1.171901    0.410360
  C     -2.045994   -2.456162    0.820967
  H      3.382210   -4.511464   -0.726342
  H      3.871016   -4.969695   -2.362408
  H      4.764367   -3.713004   -1.491533
  H      1.842337   -3.497372   -2.383850
  H      3.230055   -2.706865   -3.200825
  H      2.956261   -0.334404    0.571323
  H      1.393986   -0.771432    1.302986
  H     -0.328669    3.492838    1.729115
  H      0.799794    4.251554    0.584945
  H     -1.107979    4.535076   -1.049451
  H     -2.209104    3.838685    0.149805
  H     -1.414894    5.386571    0.473718
  H     -4.003646    2.127593   -1.079403
  H     -4.057349    0.338296   -1.086059
  H     -2.734492    1.190739   -1.929387
  H     -1.161086   -2.742377    0.250277
  H     -2.862920   -3.146998    0.631530
  H     -1.798021   -2.437749    1.882986

 Total Charge           Charge          ....    0
 Multiplicity           Mult            ....    1
 Number of Electrons    NEL             ....  174
 Basis Dimension        Dim             ....  510

ORBITAL ENERGIES
----------------

  NO   OCC          E(Eh)            E(eV)
   0   2.0000     -88.574364     -2410.2310
   1   2.0000     -88.519981     -2408.7512
   2   2.0000     -76.914885     -2092.9604
   3   2.0000     -19.007321      -517.2155
   4   2.0000     -19.002708      -517.0900
   5   2.0000     -18.995884      -516.9043
   6   2.0000     -18.987058      -516.6641
   7   2.0000     -18.936149      -515.2788
   8   2.0000     -18.936107      -515.2777
   9   2.0000     -10.164560      -276.5918
  10   2.0000     -10.161131      -276.4984
  11   2.0000     -10.103437      -274.9285
  12   2.0000     -10.099619      -274.8246
  13   2.0000     -10.098730      -274.8004
  14   2.0000     -10.090022      -274.5635
  15   2.0000     -10.078878      -274.2602
  16   2.0000     -10.050142      -273.4783
  17   2.0000     -10.033735      -273.0318
  18   2.0000     -10.029607      -272.9195
  19   2.0000      -7.869028      -214.1271
  20   2.0000      -7.814704      -212.6489
  21   2.0000      -6.593061      -179.4063
  22   2.0000      -5.816060      -158.2630
  23   2.0000      -5.812867      -158.1762
  24   2.0000      -5.805913      -157.9869
  25   2.0000      -5.762661      -156.8100
  26   2.0000      -5.754923      -156.5994
  27   2.0000      -5.754473      -156.5872
  28   2.0000      -4.738756      -128.9481
  29   2.0000      -4.738087      -128.9299
  30   2.0000      -4.736611      -128.8897
  31   2.0000      -1.083493       -29.4833
  32   2.0000      -1.081629       -29.4326
  33   2.0000      -1.050277       -28.5795
  34   2.0000      -1.006801       -27.3964
  35   2.0000      -0.986131       -26.8340
  36   2.0000      -0.985729       -26.8231
  37   2.0000      -0.812730       -22.1155
  38   2.0000      -0.757225       -20.6051
  39   2.0000      -0.743069       -20.2199
  40   2.0000      -0.731601       -19.9079
  41   2.0000      -0.696293       -18.9471
  42   2.0000      -0.671933       -18.2842
  43   2.0000      -0.659398       -17.9431
  44   2.0000      -0.650257       -17.6944
  45   2.0000      -0.629592       -17.1321
  46   2.0000      -0.597220       -16.2512
  47   2.0000      -0.542799       -14.7703
  48   2.0000      -0.535906       -14.5828
  49   2.0000      -0.530049       -14.4234
  50   2.0000      -0.502239       -13.6666
  51   2.0000      -0.492688       -13.4067
  52   2.0000      -0.470104       -12.7922
  53   2.0000      -0.467861       -12.7311
  54   2.0000      -0.459261       -12.4971
  55   2.0000      -0.452091       -12.3020
  56   2.0000      -0.450906       -12.2698
  57   2.0000      -0.444209       -12.0875
  58   2.0000      -0.438833       -11.9413
  59   2.0000      -0.425841       -11.5877
  60   2.0000      -0.420863       -11.4523
  61   2.0000      -0.415760       -11.3134
  62   2.0000      -0.412964       -11.2373
  63   2.0000      -0.402120       -10.9422
  64   2.0000      -0.388480       -10.5711
  65   2.0000      -0.384844       -10.4722
  66   2.0000      -0.374081       -10.1793
  67   2.0000      -0.367959       -10.0127
  68   2.0000      -0.365549        -9.9471
  69   2.0000      -0.354468        -9.6456
  70   2.0000      -0.351491        -9.5645
  71   2.0000      -0.341256        -9.2860
  72   2.0000      -0.332946        -9.0599
  73   2.0000      -0.329429        -8.9642
  74   2.0000      -0.327691        -8.9169
  75   2.0000      -0.318064        -8.6550
  76   2.0000      -0.315032        -8.5724
  77   2.0000      -0.311007        -8.4629
  78   2.0000      -0.288744        -7.8571
  79   2.0000      -0.281601        -7.6628
  80   2.0000      -0.276476        -7.5233
  81   2.0000      -0.274090        -7.4584
  82   2.0000      -0.254283        -6.9194
  83   2.0000      -0.243079        -6.6145
  84   2.0000      -0.227129        -6.1805
  85   2.0000      -0.217469        -5.9176
  86   2.0000      -0.216882        -5.9017
  87   0.0000      -0.045238        -1.2310
  88   0.0000      -0.032583        -0.8866
  89   0.0000      -0.015343        -0.4175
  90   0.0000       0.002634         0.0717
  91   0.0000       0.012330         0.3355

MULLIKEN ATOMIC CHARGES
-----------------------
   0 C :   -0.468969
   1 C :   -0.133399
   2 O :   -0.173082
   3 C :    0.439006
   4 O :   -0.405730
   5 C :   -0.483560
   6 C :    0.013170
   7 H :    0.199572
   8 C :    0.257071
   9 O :   -0.392548
  10 O :   -0.141342
  11 C :   -0.130994
  12 C :   -0.471433
  13 S :   -0.185729
  14 P :    0.779842
  15 S :   -0.438655
  16 O :   -0.316646
  17 C :   -0.294167
  18 O :   -0.353881
  19 C :   -0.303897
  20 H :    0.175367
  21 H :    0.148610
  22 H :    0.153398
  23 H :    0.168617
  24 H :    0.149348
  25 H :    0.190813
  26 H :    0.218857
  27 H :    0.174484
  28 H :    0.161157
  29 H :    0.151341
  30 H :    0.164789
  31 H :    0.147896
  32 H :    0.155948
  33 H :    0.172137
  34 H :    0.168316
  35 H :    0.190710
  36 H :    0.144248
  37 H :    0.169336
Sum of atomic charges:    0.0000000

LOEWDIN ATOMIC CHARGES
----------------------
   0 C :   -0.388624
   1 C :    0.029704
   2 O :   -0.588166
   3 C :    0.340192
   4 O :   -0.444718
   5 C :   -0.206362
   6 C :   -0.188521
   7 H :    0.206543
   8 C :    0.334057
   9 O :   -0.409370
  10 O :   -0.632979
  11 C :    0.037423
  12 C :   -0.385794
  13 S :    0.219203
  14 P :    0.411483
  15 S :   -0.053648
  16 O :   -0.658863
  17 C :   -0.055124
  18 O :   -0.685503
  19 C :   -0.057999
  20 H :    0.166519
  21 H :    0.160018
  22 H :    0.158286
  23 H :    0.188292
  24 H :    0.178663
  25 H :    0.195153
  26 H :    0.200115
  27 H :    0.188428
  28 H :    0.184764
  29 H :    0.158951
  30 H :    0.167046
  31 H :    0.159994
  32 H :    0.179235
  33 H :    0.175878
  34 H :    0.173849
  35 H :    0.192372
  36 H :    0.173842
  37 H :    0.175661

  Mayer bond orders larger than 0.100000
B(  0-C ,  1-C ) :   0.9389 B(  0-C , 20-H ) :   0.9705 B(  0-C , 21-H ) :   0.9647
B(  0-C , 22-H ) :   0.9721 B(  1-C ,  2-O ) :   0.8126 B(  1-C , 23-H ) :   0.9679
B(  1-C , 24-H ) :   0.9604 B(  2-O ,  3-C ) :   1.0287 B(  3-C ,  4-O ) :   1.8090
B(  3-C ,  5-C ) :   0.8799 B(  5-C ,  6-C ) :   0.8930 B(  5-C , 25-H ) :   0.9455
B(  5-C , 26-H ) :   0.9875 B(  6-C ,  7-H ) :   0.8815 B(  6-C ,  8-C ) :   0.9339
B(  6-C , 13-S ) :   0.8546 B(  8-C ,  9-O ) :   1.8386 B(  8-C , 10-O ) :   1.1315
B( 10-O , 11-C ) :   0.7772 B( 11-C , 12-C ) :   0.9348 B( 11-C , 27-H ) :   0.9397
B( 11-C , 28-H ) :   0.9562 B( 12-C , 29-H ) :   0.9768 B( 12-C , 30-H ) :   0.9648
B( 12-C , 31-H ) :   0.9672 B( 13-S , 14-P ) :   1.0093 B( 14-P , 15-S ) :   1.7589
B( 14-P , 16-O ) :   1.1423 B( 14-P , 18-O ) :   1.0425 B( 16-O , 17-C ) :   0.7981
B( 17-C , 32-H ) :   0.9646 B( 17-C , 33-H ) :   0.9593 B( 17-C , 34-H ) :   0.9547
B( 18-O , 19-C ) :   0.8308 B( 19-C , 35-H ) :   0.9397 B( 19-C , 36-H ) :   0.9677
B( 19-C , 37-H ) :   0.9582

Dispersion correction           -0.018087371
FINAL SINGLE POINT ENERGY     -1981.454272556733

DIPOLE MOMENT
-------------

Method             : SCF
Type of density    : Electron Density
Multiplicity       :   1
Irrep              :   0
Energy             : -1981.4735837509197154 Eh
Relativity type    :
Basis              : AO
                                X                 Y                 Z
Electronic contribution:     -4.043756420       2.876946507       7.194684295
Nuclear contribution   :      3.767903147      -2.968924093      -9.041254903
                        -----------------------------------------
Total Dipole Moment    :     -0.275853273      -0.091977586      -1.846570608
                        -----------------------------------------
Magnitude (a.u.)       :      1.869325524
Magnitude (Debye)      :      4.751447878

Rotational constants in cm-1:             0.014584             0.006975             0.005808
Rotational constants in MHz :           437.230213           209.114786           174.120229

                             ****ORCA TERMINATED NORMALLY****
TOTAL RUN TIME: 0 days 0 hours 1 minutes 24 seconds 23 msec
