                         Program Version 6.0.1  -  RELEASE   -
|  1> ! r2scan-3c def2/J RI DEFGRID2 scfconv6 printgap
|  2> %output
|  3>     printlevel normal
|  4> end
|  5> %cpcm
|  6>     smd true
|  7>     smdsolvent "water"
|  8> end
|  9> * xyz 0 1
| 10> C 3.7813422346 -4.1410154325 -1.6679232411
| 11> C 2.8500035611 -3.0926192488 -2.2550362319
| 12> O 2.7713154246 -1.9330791635 -1.4022523452
| 13> C 1.9147360837 -1.9479895486 -0.4029491415
| 14> O 1.1703913432 -2.8676284907 -0.1443315452
| 15> C 1.9307078382 -0.6385626765 0.3615839244
| 16> C 1.2640074186 0.4504092873 -0.4806350999
| 17> H 1.8727256135 0.6480190005 -1.3698735487
| 18> C 1.1450851313 1.7533581941 0.2944834569
| 19> O 2.0140187857 2.1390424111 1.0400202822
| 20> O 0.045567167 2.4216390965 0.011244769
| 21> C -0.1371562247 3.6930630219 0.6697456831
| 22> C -1.2971675534 4.4116929106 0.0127091508
| 23> S -0.3369586243 -0.0853664173 -1.1664767335
| 24> P -1.6090358591 0.1366802234 0.5255007681
| 25> S -0.8386129187 0.4081923717 2.3075056216
| 26> O -2.6562213333 1.2559000947 0.1503653942
| 27> C -3.4132252696 1.2150898866 -1.0770510429
| 28> O -2.5263589043 -1.171900778 0.4103600096
| 29> C -2.0459943553 -2.4561615785 0.8209670318
| 30> H 3.3822095237 -4.511464361 -0.7263421826
| 31> H 3.8710155051 -4.9696954151 -2.3624078051
| 32> H 4.764367066 -3.7130038628 -1.4915332556
| 33> H 1.8423372415 -3.4973721734 -2.3838495132
| 34> H 3.2300551666 -2.7068651814 -3.2008251326
| 35> H 2.9562609129 -0.3344040908 0.5713227633
| 36> H 1.3939855003 -0.7714323935 1.3029863647
| 37> H -0.3286692067 3.4928384089 1.7291151478
| 38> H 0.7997938763 4.25155383 0.5849445274
| 39> H -1.1079790209 4.535076414 -1.0494512032
| 40> H -2.2091035207 3.8386853822 0.1498054986
| 41> H -1.4148940684 5.3865713508 0.4737182637
| 42> H -4.0036459779 2.1275930443 -1.0794025341
| 43> H -4.0573492648 0.3382956798 -1.0860594732
| 44> H -2.7344923946 1.1907390694 -1.9293869878
| 45> H -1.1610858333 -2.7423765039 0.2502766199
| 46> H -2.8629195895 -3.1469977804 0.6315304574
| 47> H -1.7980211955 -2.4377492795 1.8829859895
| 48> *
| 49>
| 50>                          ****END OF INPUT****

CARTESIAN COORDINATES (ANGSTROEM)
---------------------------------
  C      3.781342   -4.141015   -1.667923
  C      2.850004   -3.092619   -2.255036
  O      2.771315   -1.933079   -1.402252
  C      1.914736   -1.947990   -0.402949
  O      1.170391   -2.867628   -0.144332
  C      1.930708   -0.638563    0.361584
  C      1.264007    0.450409   -0.480635
  H      1.872726    0.648019   -1.369874
  C      1.145085    1.753358    0.294483
  O      2.014019    2.139042    1.040020
  O      0.045567    2.421639    0.011245
  C     -0.137156    3.693063    0.669746
  C     -1.297168    4.411693    0.012709
  S     -0.336959   -0.085366   -1.166477
  P     -1.609036    0.136680    0.525501
  S     -0.838613    0.408192    2.307506
  O     -2.656221    1.255900    0.150365
  C     -3.413225    1.215090   -1.077051
  O     -2.526359   -1.171901    0.410360
  C     -2.045994   -2.456162    0.820967
  H      3.382210   -4.511464   -0.726342
  H      3.871016   -4.969695   -2.362408
  H      4.764367   -3.713004   -1.491533
  H      1.842337   -3.497372   -2.383850
  H      3.230055   -2.706865   -3.200825
  H      2.956261   -0.334404    0.571323
  H      1.393986   -0.771432    1.302986
  H     -0.328669    3.492838    1.729115
  H      0.799794    4.251554    0.584945
  H     -1.107979    4.535076   -1.049451
  H     -2.209104    3.838685    0.149805
  H     -1.414894    5.386571    0.473718
  H     -4.003646    2.127593   -1.079403
  H     -4.057349    0.338296   -1.086059
  H     -2.734492    1.190739   -1.929387
  H     -1.161086   -2.742377    0.250277
  H     -2.862920   -3.146998    0.631530
  H     -1.798021   -2.437749    1.882986

 Total Charge           Charge          ....    0
 Multiplicity           Mult            ....    1
 Number of Electrons    NEL             ....  174
 Basis Dimension        Dim             ....  510

ORBITAL ENERGIES
----------------

  NO   OCC          E(Eh)            E(eV)
   0   2.0000     -88.579921     -2410.3822
   1   2.0000     -88.532553     -2409.0932
   2   2.0000     -76.923186     -2093.1863
   3   2.0000     -19.011616      -517.3324
   4   2.0000     -19.008652      -517.2517
   5   2.0000     -18.999038      -516.9901
   6   2.0000     -18.994314      -516.8615
   7   2.0000     -18.953819      -515.7596
   8   2.0000     -18.947680      -515.5926
   9   2.0000     -10.178864      -276.9810
  10   2.0000     -10.169667      -276.7307
  11   2.0000     -10.104478      -274.9568
  12   2.0000     -10.087382      -274.4916
  13   2.0000     -10.086249      -274.4608
  14   2.0000     -10.085581      -274.4426
  15   2.0000     -10.079163      -274.2680
  16   2.0000     -10.052721      -273.5485
  17   2.0000     -10.019519      -272.6450
  18   2.0000     -10.019367      -272.6408
  19   2.0000      -7.874474      -214.2753
  20   2.0000      -7.827620      -213.0004
  21   2.0000      -6.601459      -179.6348
  22   2.0000      -5.821539      -158.4121
  23   2.0000      -5.818318      -158.3245
  24   2.0000      -5.811343      -158.1347
  25   2.0000      -5.775447      -157.1579
  26   2.0000      -5.767888      -156.9522
  27   2.0000      -5.767403      -156.9390
  28   2.0000      -4.747097      -129.1751
  29   2.0000      -4.746461      -129.1578
  30   2.0000      -4.745118      -129.1212
  31   2.0000      -1.092389       -29.7254
  32   2.0000      -1.086594       -29.5677
  33   2.0000      -1.054831       -28.7034
  34   2.0000      -1.011792       -27.5323
  35   2.0000      -1.001995       -27.2657
  36   2.0000      -0.995159       -27.0796
  37   2.0000      -0.816019       -22.2050
  38   2.0000      -0.752564       -20.4783
  39   2.0000      -0.740916       -20.1614
  40   2.0000      -0.731011       -19.8918
  41   2.0000      -0.695791       -18.9334
  42   2.0000      -0.670731       -18.2515
  43   2.0000      -0.662905       -18.0386
  44   2.0000      -0.652404       -17.7528
  45   2.0000      -0.623744       -16.9729
  46   2.0000      -0.595505       -16.2045
  47   2.0000      -0.544662       -14.8210
  48   2.0000      -0.537339       -14.6217
  49   2.0000      -0.525621       -14.3029
  50   2.0000      -0.505709       -13.7611
  51   2.0000      -0.493317       -13.4238
  52   2.0000      -0.473216       -12.8769
  53   2.0000      -0.467636       -12.7250
  54   2.0000      -0.465954       -12.6793
  55   2.0000      -0.460511       -12.5311
  56   2.0000      -0.451959       -12.2984
  57   2.0000      -0.448221       -12.1967
  58   2.0000      -0.443582       -12.0705
  59   2.0000      -0.426543       -11.6068
  60   2.0000      -0.419962       -11.4278
  61   2.0000      -0.413533       -11.2528
  62   2.0000      -0.411289       -11.1917
  63   2.0000      -0.403024       -10.9668
  64   2.0000      -0.387810       -10.5529
  65   2.0000      -0.385160       -10.4807
  66   2.0000      -0.371002       -10.0955
  67   2.0000      -0.365574        -9.9478
  68   2.0000      -0.360079        -9.7982
  69   2.0000      -0.353762        -9.6264
  70   2.0000      -0.349920        -9.5218
  71   2.0000      -0.337842        -9.1931
  72   2.0000      -0.334531        -9.1031
  73   2.0000      -0.331496        -9.0205
  74   2.0000      -0.326714        -8.8903
  75   2.0000      -0.320445        -8.7198
  76   2.0000      -0.315882        -8.5956
  77   2.0000      -0.307722        -8.3735
  78   2.0000      -0.290705        -7.9105
  79   2.0000      -0.284601        -7.7444
  80   2.0000      -0.283792        -7.7224
  81   2.0000      -0.280609        -7.6358
  82   2.0000      -0.267811        -7.2875
  83   2.0000      -0.255835        -6.9616
  84   2.0000      -0.238347        -6.4858
  85   2.0000      -0.231074        -6.2878
  86   2.0000      -0.228640        -6.2216
  87   0.0000      -0.052836        -1.4377
  88   0.0000      -0.041823        -1.1381
  89   0.0000      -0.023271        -0.6332
  90   0.0000      -0.001482        -0.0403
  91   0.0000       0.005933         0.1615

MULLIKEN ATOMIC CHARGES
-----------------------
   0 C :   -0.495751
   1 C :   -0.137778
   2 O :   -0.182236
   3 C :    0.458479
   4 O :   -0.469232
   5 C :   -0.498855
   6 C :    0.031726
   7 H :    0.249846
   8 C :    0.280596
   9 O :   -0.465452
  10 O :   -0.151357
  11 C :   -0.139515
  12 C :   -0.509675
  13 S :   -0.185605
  14 P :    0.804159
  15 S :   -0.491489
  16 O :   -0.351351
  17 C :   -0.301238
  18 O :   -0.373599
  19 C :   -0.322479
  20 H :    0.170832
  21 H :    0.172013
  22 H :    0.166694
  23 H :    0.174873
  24 H :    0.176799
  25 H :    0.209003
  26 H :    0.217366
  27 H :    0.181727
  28 H :    0.176040
  29 H :    0.170459
  30 H :    0.170381
  31 H :    0.171398
  32 H :    0.186041
  33 H :    0.187126
  34 H :    0.179776
  35 H :    0.183399
  36 H :    0.177148
  37 H :    0.179731
Sum of atomic charges:    0.0000000

LOEWDIN ATOMIC CHARGES
----------------------
   0 C :   -0.391499
   1 C :    0.035916
   2 O :   -0.584119
   3 C :    0.348217
   4 O :   -0.489260
   5 C :   -0.206750
   6 C :   -0.183624
   7 H :    0.226242
   8 C :    0.343260
   9 O :   -0.461672
  10 O :   -0.632176
  11 C :    0.039158
  12 C :   -0.386372
  13 S :    0.230222
  14 P :    0.412225
  15 S :   -0.093589
  16 O :   -0.675405
  17 C :   -0.045827
  18 O :   -0.693613
  19 C :   -0.057180
  20 H :    0.163204
  21 H :    0.168686
  22 H :    0.162677
  23 H :    0.190560
  24 H :    0.190614
  25 H :    0.203733
  26 H :    0.196706
  27 H :    0.188443
  28 H :    0.190912
  29 H :    0.165264
  30 H :    0.167846
  31 H :    0.169188
  32 H :    0.192131
  33 H :    0.182860
  34 H :    0.179714
  35 H :    0.188330
  36 H :    0.187426
  37 H :    0.177549

  Mayer bond orders larger than 0.100000
B(  0-C ,  1-C ) :   0.9355 B(  0-C , 20-H ) :   0.9689 B(  0-C , 21-H ) :   0.9595
B(  0-C , 22-H ) :   0.9688 B(  1-C ,  2-O ) :   0.7942 B(  1-C , 23-H ) :   0.9631
B(  1-C , 24-H ) :   0.9507 B(  2-O ,  3-C ) :   1.0602 B(  3-C ,  4-O ) :   1.7588
B(  3-C ,  5-C ) :   0.8999 B(  5-C ,  6-C ) :   0.8721 B(  5-C , 25-H ) :   0.9244
B(  5-C , 26-H ) :   0.9959 B(  6-C ,  7-H ) :   0.8609 B(  6-C ,  8-C ) :   0.9437
B(  6-C , 13-S ) :   0.8323 B(  8-C ,  9-O ) :   1.7877 B(  8-C , 10-O ) :   1.1532
B( 10-O , 11-C ) :   0.7627 B( 11-C , 12-C ) :   0.9356 B( 11-C , 27-H ) :   0.9341
B( 11-C , 28-H ) :   0.9490 B( 12-C , 29-H ) :   0.9739 B( 12-C , 30-H ) :   0.9614
B( 12-C , 31-H ) :   0.9608 B( 13-S , 14-P ) :   1.0233 B( 14-P , 15-S ) :   1.7320
B( 14-P , 16-O ) :   1.1466 B( 14-P , 18-O ) :   1.0391 B( 16-O , 17-C ) :   0.7885
B( 17-C , 32-H ) :   0.9535 B( 17-C , 33-H ) :   0.9508 B( 17-C , 34-H ) :   0.9459
B( 18-O , 19-C ) :   0.8230 B( 19-C , 35-H ) :   0.9407 B( 19-C , 36-H ) :   0.9571
B( 19-C , 37-H ) :   0.9552

Dispersion correction           -0.018087371
FINAL SINGLE POINT ENERGY     -1981.467501585257

DIPOLE MOMENT
-------------

Method             : SCF
Type of density    : Electron Density
Multiplicity       :   1
Irrep              :   0
Energy             : -1981.4868127794431985 Eh
Relativity type    :
Basis              : AO
                                X                 Y                 Z
Electronic contribution:     -4.090274395       2.980053563       6.254208385
Nuclear contribution   :      3.767903147      -2.968924093      -9.041254903
                        -----------------------------------------
Total Dipole Moment    :     -0.322371248       0.011129469      -2.787046518
                        -----------------------------------------
Magnitude (a.u.)       :      2.805650616
Magnitude (Debye)      :      7.131397125

Rotational constants in cm-1:             0.014584             0.006975             0.005808
Rotational constants in MHz :           437.230213           209.114786           174.120229

                             ****ORCA TERMINATED NORMALLY****
TOTAL RUN TIME: 0 days 0 hours 1 minutes 51 seconds 443 msec
