                         Program Version 6.0.0  -   RELEASE  -
|  1> ! r2scan-3c def2/J RI DEFGRID2 scfconv6 printgap
|  2> %output
|  3>     printlevel normal
|  4> end
|  5> * xyz 0 1
|  6> C 4.4218913596 -0.9437366058 -2.1480358669
|  7> C 3.4569147805 -2.0214466578 -1.6983679033
|  8> O 2.869583923 -1.7452512775 -0.4134253771
|  9> P 2.0985220979 -0.417490993 -0.0179009253
| 10> S 3.1556533693 1.1815279071 0.4108531169
| 11> O 1.2491093589 -0.995006316 1.1874538075
| 12> C 1.3271826025 -0.4933580365 2.5311770907
| 13> C 2.4311143427 -1.1967993097 3.2934533639
| 14> S 0.6939938972 -0.2046323437 -1.5959055451
| 15> C 0.204513911 1.4950140232 -1.221156669
| 16> S -0.5611863423 1.6783142529 0.4167062854
| 17> P -2.2078107882 0.406609024 0.0777888927
| 18> S -2.966196503 0.3276411888 -1.7311889202
| 19> O -3.261375504 0.8035209726 1.2034199477
| 20> C -4.2818909041 1.7947881332 0.9916738837
| 21> C -3.7038380425 3.1904551469 0.8766345103
| 22> O -1.6307831271 -0.9388127742 0.6813908997
| 23> C -2.2193696585 -2.2326265839 0.4166039134
| 24> C -1.3346533824 -3.0204295298 -0.5294367403
| 25> H 5.1799758908 -0.7719374071 -1.3875297247
| 26> H 4.9020239113 -1.2526211458 -3.0709818023
| 27> H 3.8891055199 -0.0097441392 -2.3209961214
| 28> H 3.9661756569 -2.974853701 -1.5462027993
| 29> H 2.6487175398 -2.1451098056 -2.4248842296
| 30> H 1.5023886755 0.5877736855 2.5031819276
| 31> H 0.3419019696 -0.6912749487 2.9569404619
| 32> H 2.2726339064 -2.271457835 3.2782209388
| 33> H 3.391256951 -0.9762813472 2.8291223283
| 34> H 2.4428843331 -0.8446014883 4.3199134555
| 35> H -0.5050237944 1.7871925912 -1.9941163029
| 36> H 1.0825403327 2.1404721861 -1.2172880855
| 37> H -4.835230613 1.5313137092 0.0845072791
| 38> H -4.928502124 1.6955931205 1.8644676411
| 39> H -3.1113610895 3.2744622866 -0.0335824605
| 40> H -4.5131037468 3.9124820804 0.8373894394
| 41> H -3.0659677539 3.4073443002 1.7298899084
| 42> H -2.2941787474 -2.7164751192 1.3918055969
| 43> H -3.2199005477 -2.0957623652 -0.0039291177
| 44> H -0.3196551131 -3.0580929489 -0.1402244298
| 45> H -1.7224804729 -4.0291336881 -0.6283711568
| 46> H -1.3157641253 -2.546415868 -1.5088086285
| 47> *
| 48>
| 49>                          ****END OF INPUT****

CARTESIAN COORDINATES (ANGSTROEM)
---------------------------------
  C      4.421891   -0.943737   -2.148036
  C      3.456915   -2.021447   -1.698368
  O      2.869584   -1.745251   -0.413425
  P      2.098522   -0.417491   -0.017901
  S      3.155653    1.181528    0.410853
  O      1.249109   -0.995006    1.187454
  C      1.327183   -0.493358    2.531177
  C      2.431114   -1.196799    3.293453
  S      0.693994   -0.204632   -1.595906
  C      0.204514    1.495014   -1.221157
  S     -0.561186    1.678314    0.416706
  P     -2.207811    0.406609    0.077789
  S     -2.966197    0.327641   -1.731189
  O     -3.261376    0.803521    1.203420
  C     -4.281891    1.794788    0.991674
  C     -3.703838    3.190455    0.876635
  O     -1.630783   -0.938813    0.681391
  C     -2.219370   -2.232627    0.416604
  C     -1.334653   -3.020430   -0.529437
  H      5.179976   -0.771937   -1.387530
  H      4.902024   -1.252621   -3.070982
  H      3.889106   -0.009744   -2.320996
  H      3.966176   -2.974854   -1.546203
  H      2.648718   -2.145110   -2.424884
  H      1.502389    0.587774    2.503182
  H      0.341902   -0.691275    2.956940
  H      2.272634   -2.271458    3.278221
  H      3.391257   -0.976281    2.829122
  H      2.442884   -0.844601    4.319913
  H     -0.505024    1.787193   -1.994116
  H      1.082540    2.140472   -1.217288
  H     -4.835231    1.531314    0.084507
  H     -4.928502    1.695593    1.864468
  H     -3.111361    3.274462   -0.033582
  H     -4.513104    3.912482    0.837389
  H     -3.065968    3.407344    1.729890
  H     -2.294179   -2.716475    1.391806
  H     -3.219901   -2.095762   -0.003929
  H     -0.319655   -3.058093   -0.140224
  H     -1.722480   -4.029134   -0.628371
  H     -1.315764   -2.546416   -1.508809

 Total Charge           Charge          ....    0
 Multiplicity           Mult            ....    1
 Number of Electrons    NEL             ....  202
 Basis Dimension        Dim             ....  539

ORBITAL ENERGIES
----------------

  NO   OCC          E(Eh)            E(eV)
   0   2.0000     -88.577006     -2410.3029
   1   2.0000     -88.574984     -2410.2478
   2   2.0000     -88.522046     -2408.8073
   3   2.0000     -88.518583     -2408.7131
   4   2.0000     -76.913842     -2092.9320
   5   2.0000     -76.913196     -2092.9145
   6   2.0000     -18.992363      -516.8085
   7   2.0000     -18.991855      -516.7946
   8   2.0000     -18.985174      -516.6129
   9   2.0000     -18.983315      -516.5623
  10   2.0000     -10.107614      -275.0422
  11   2.0000     -10.103920      -274.9417
  12   2.0000     -10.097733      -274.7733
  13   2.0000     -10.096412      -274.7373
  14   2.0000     -10.089071      -274.5376
  15   2.0000     -10.028731      -272.8956
  16   2.0000     -10.027638      -272.8659
  17   2.0000     -10.022679      -272.7310
  18   2.0000     -10.022358      -272.7222
  19   2.0000      -7.871399      -214.1917
  20   2.0000      -7.869396      -214.1372
  21   2.0000      -7.816824      -212.7066
  22   2.0000      -7.813440      -212.6145
  23   2.0000      -6.592338      -179.3866
  24   2.0000      -6.591408      -179.3613
  25   2.0000      -5.818297      -158.3239
  26   2.0000      -5.816244      -158.2680
  27   2.0000      -5.815330      -158.2432
  28   2.0000      -5.813192      -158.1850
  29   2.0000      -5.808404      -158.0547
  30   2.0000      -5.806579      -158.0051
  31   2.0000      -5.764424      -156.8580
  32   2.0000      -5.761140      -156.7686
  33   2.0000      -5.757244      -156.6626
  34   2.0000      -5.756743      -156.6489
  35   2.0000      -5.753718      -156.5666
  36   2.0000      -5.753394      -156.5578
  37   2.0000      -4.737755      -128.9209
  38   2.0000      -4.737200      -128.9058
  39   2.0000      -4.736859      -128.8965
  40   2.0000      -4.736473      -128.8860
  41   2.0000      -4.736221      -128.8791
  42   2.0000      -4.735092      -128.8484
  43   2.0000      -1.048698       -28.5365
  44   2.0000      -1.047346       -28.4997
  45   2.0000      -1.008248       -27.4358
  46   2.0000      -1.006658       -27.3926
  47   2.0000      -0.803689       -21.8695
  48   2.0000      -0.757261       -20.6061
  49   2.0000      -0.748124       -20.3575
  50   2.0000      -0.728975       -19.8364
  51   2.0000      -0.726934       -19.7809
  52   2.0000      -0.709841       -19.3158
  53   2.0000      -0.686360       -18.6768
  54   2.0000      -0.670717       -18.2511
  55   2.0000      -0.631058       -17.1720
  56   2.0000      -0.624707       -16.9991
  57   2.0000      -0.606044       -16.4913
  58   2.0000      -0.601290       -16.3619
  59   2.0000      -0.590701       -16.0738
  60   2.0000      -0.526000       -14.3132
  61   2.0000      -0.518051       -14.0969
  62   2.0000      -0.489614       -13.3231
  63   2.0000      -0.487465       -13.2646
  64   2.0000      -0.476966       -12.9789
  65   2.0000      -0.458379       -12.4731
  66   2.0000      -0.457801       -12.4574
  67   2.0000      -0.451249       -12.2791
  68   2.0000      -0.445128       -12.1125
  69   2.0000      -0.435358       -11.8467
  70   2.0000      -0.428564       -11.6618
  71   2.0000      -0.410792       -11.1782
  72   2.0000      -0.404741       -11.0136
  73   2.0000      -0.401226       -10.9179
  74   2.0000      -0.395769       -10.7694
  75   2.0000      -0.392744       -10.6871
  76   2.0000      -0.386288       -10.5114
  77   2.0000      -0.369631       -10.0582
  78   2.0000      -0.366363        -9.9692
  79   2.0000      -0.360608        -9.8126
  80   2.0000      -0.360023        -9.7967
  81   2.0000      -0.359736        -9.7889
  82   2.0000      -0.355029        -9.6608
  83   2.0000      -0.353327        -9.6145
  84   2.0000      -0.348080        -9.4717
  85   2.0000      -0.332004        -9.0343
  86   2.0000      -0.317764        -8.6468
  87   2.0000      -0.310495        -8.4490
  88   2.0000      -0.310245        -8.4422
  89   2.0000      -0.302196        -8.2232
  90   2.0000      -0.295295        -8.0354
  91   2.0000      -0.292642        -7.9632
  92   2.0000      -0.287008        -7.8099
  93   2.0000      -0.278795        -7.5864
  94   2.0000      -0.268496        -7.3061
  95   2.0000      -0.244882        -6.6636
  96   2.0000      -0.230467        -6.2713
  97   2.0000      -0.227351        -6.1865
  98   2.0000      -0.220744        -6.0067
  99   2.0000      -0.213335        -5.8051
 100   2.0000      -0.210829        -5.7370
 101   0.0000      -0.049206        -1.3390
 102   0.0000      -0.026500        -0.7211
 103   0.0000      -0.002660        -0.0724
 104   0.0000      -0.000813        -0.0221
 105   0.0000       0.009345         0.2543

MULLIKEN ATOMIC CHARGES
-----------------------
   0 C :   -0.425816
   1 C :   -0.154337
   2 O :   -0.300968
   3 P :    0.675250
   4 S :   -0.468568
   5 O :   -0.259557
   6 C :   -0.149167
   7 C :   -0.451529
   8 S :   -0.132200
   9 C :   -0.246317
  10 S :   -0.119818
  11 P :    0.675613
  12 S :   -0.477380
  13 O :   -0.296880
  14 C :   -0.155228
  15 C :   -0.445581
  16 O :   -0.255905
  17 C :   -0.118181
  18 C :   -0.480404
  19 H :    0.163920
  20 H :    0.147245
  21 H :    0.168919
  22 H :    0.150423
  23 H :    0.152802
  24 H :    0.175347
  25 H :    0.160716
  26 H :    0.150767
  27 H :    0.165834
  28 H :    0.145295
  29 H :    0.209934
  30 H :    0.209293
  31 H :    0.173149
  32 H :    0.147634
  33 H :    0.173121
  34 H :    0.148010
  35 H :    0.155536
  36 H :    0.147476
  37 H :    0.156698
  38 H :    0.167790
  39 H :    0.141133
  40 H :    0.175930
Sum of atomic charges:    0.0000000

LOEWDIN ATOMIC CHARGES
----------------------
   0 C :   -0.406330
   1 C :    0.023201
   2 O :   -0.653501
   3 P :    0.385417
   4 S :   -0.128373
   5 O :   -0.663740
   6 C :    0.007336
   7 C :   -0.396682
   8 S :    0.159706
   9 C :   -0.418815
  10 S :    0.184209
  11 P :    0.379432
  12 S :   -0.129363
  13 O :   -0.660748
  14 C :    0.018466
  15 C :   -0.406603
  16 O :   -0.669440
  17 C :    0.028010
  18 C :   -0.401963
  19 H :    0.165228
  20 H :    0.158090
  21 H :    0.166070
  22 H :    0.181731
  23 H :    0.172057
  24 H :    0.182425
  25 H :    0.180599
  26 H :    0.157651
  27 H :    0.164159
  28 H :    0.158683
  29 H :    0.189200
  30 H :    0.190784
  31 H :    0.179750
  32 H :    0.179200
  33 H :    0.164375
  34 H :    0.159185
  35 H :    0.160333
  36 H :    0.176358
  37 H :    0.177136
  38 H :    0.165164
  39 H :    0.155750
  40 H :    0.165854

  Mayer bond orders larger than 0.100000
B(  0-C ,  1-C ) :   0.9404 B(  0-C , 19-H ) :   0.9660 B(  0-C , 20-H ) :   0.9628
B(  0-C , 21-H ) :   0.9547 B(  1-C ,  2-O ) :   0.8060 B(  1-C , 22-H ) :   0.9577
B(  1-C , 23-H ) :   0.9634 B(  2-O ,  3-P ) :   1.1037 B(  3-P ,  4-S ) :   1.7751
B(  3-P ,  5-O ) :   1.1230 B(  3-P ,  8-S ) :   1.0334 B(  5-O ,  6-C ) :   0.7600
B(  6-C ,  7-C ) :   0.9320 B(  6-C , 24-H ) :   0.9563 B(  6-C , 25-H ) :   0.9631
B(  7-C , 26-H ) :   0.9761 B(  7-C , 27-H ) :   0.9648 B(  7-C , 28-H ) :   0.9666
B(  8-S ,  9-C ) :   0.9060 B(  9-C , 10-S ) :   0.8946 B(  9-C , 29-H ) :   0.9127
B(  9-C , 30-H ) :   0.9093 B( 10-S , 11-P ) :   1.0943 B( 11-P , 12-S ) :   1.7481
B( 11-P , 13-O ) :   1.0644 B( 11-P , 16-O ) :   1.1613 B( 13-O , 14-C ) :   0.8178
B( 14-C , 15-C ) :   0.9226 B( 14-C , 31-H ) :   0.9676 B( 14-C , 32-H ) :   0.9586
B( 15-C , 33-H ) :   0.9633 B( 15-C , 34-H ) :   0.9594 B( 15-C , 35-H ) :   0.9682
B( 16-O , 17-C ) :   0.7592 B( 17-C , 18-C ) :   0.9467 B( 17-C , 36-H ) :   0.9601
B( 17-C , 37-H ) :   0.9638 B( 18-C , 38-H ) :   0.9678 B( 18-C , 39-H ) :   0.9636
B( 18-C , 40-H ) :   0.9643

Dispersion correction           -0.022276325
FINAL SINGLE POINT ENERGY     -2932.461749961365

DIPOLE MOMENT
-------------

Method             : SCF
Type of density    : Electron Density
Multiplicity       :   1
Irrep              :   0
Energy             : -2932.4859187891156580 Eh
Relativity type    :
Basis              : AO
                                X                 Y                 Z
Electronic contribution:     -2.083416251       7.024705231      -4.859282573
Nuclear contribution   :      1.754726861      -7.668798055       5.235546029
                        -----------------------------------------
Total Dipole Moment    :     -0.328689390      -0.644092824       0.376263457
                        -----------------------------------------
Magnitude (a.u.)       :      0.815148128
Magnitude (Debye)      :      2.071941882

Rotational constants in cm-1:             0.012593             0.005274             0.005095
Rotational constants in MHz :           377.524251           158.101623           152.745349

                             ****ORCA TERMINATED NORMALLY****
TOTAL RUN TIME: 0 days 0 hours 1 minutes 26 seconds 835 msec
