                         Program Version 6.0.0  -   RELEASE  -
|  1> ! r2scan-3c def2/J RI DEFGRID2 scfconv6 printgap
|  2> %output
|  3>     printlevel normal
|  4> end
|  5> %cpcm
|  6>     smd true
|  7>     smdsolvent "water"
|  8> end
|  9> * xyz 0 1
| 10> C 4.4218913596 -0.9437366058 -2.1480358669
| 11> C 3.4569147805 -2.0214466578 -1.6983679033
| 12> O 2.869583923 -1.7452512775 -0.4134253771
| 13> P 2.0985220979 -0.417490993 -0.0179009253
| 14> S 3.1556533693 1.1815279071 0.4108531169
| 15> O 1.2491093589 -0.995006316 1.1874538075
| 16> C 1.3271826025 -0.4933580365 2.5311770907
| 17> C 2.4311143427 -1.1967993097 3.2934533639
| 18> S 0.6939938972 -0.2046323437 -1.5959055451
| 19> C 0.204513911 1.4950140232 -1.221156669
| 20> S -0.5611863423 1.6783142529 0.4167062854
| 21> P -2.2078107882 0.406609024 0.0777888927
| 22> S -2.966196503 0.3276411888 -1.7311889202
| 23> O -3.261375504 0.8035209726 1.2034199477
| 24> C -4.2818909041 1.7947881332 0.9916738837
| 25> C -3.7038380425 3.1904551469 0.8766345103
| 26> O -1.6307831271 -0.9388127742 0.6813908997
| 27> C -2.2193696585 -2.2326265839 0.4166039134
| 28> C -1.3346533824 -3.0204295298 -0.5294367403
| 29> H 5.1799758908 -0.7719374071 -1.3875297247
| 30> H 4.9020239113 -1.2526211458 -3.0709818023
| 31> H 3.8891055199 -0.0097441392 -2.3209961214
| 32> H 3.9661756569 -2.974853701 -1.5462027993
| 33> H 2.6487175398 -2.1451098056 -2.4248842296
| 34> H 1.5023886755 0.5877736855 2.5031819276
| 35> H 0.3419019696 -0.6912749487 2.9569404619
| 36> H 2.2726339064 -2.271457835 3.2782209388
| 37> H 3.391256951 -0.9762813472 2.8291223283
| 38> H 2.4428843331 -0.8446014883 4.3199134555
| 39> H -0.5050237944 1.7871925912 -1.9941163029
| 40> H 1.0825403327 2.1404721861 -1.2172880855
| 41> H -4.835230613 1.5313137092 0.0845072791
| 42> H -4.928502124 1.6955931205 1.8644676411
| 43> H -3.1113610895 3.2744622866 -0.0335824605
| 44> H -4.5131037468 3.9124820804 0.8373894394
| 45> H -3.0659677539 3.4073443002 1.7298899084
| 46> H -2.2941787474 -2.7164751192 1.3918055969
| 47> H -3.2199005477 -2.0957623652 -0.0039291177
| 48> H -0.3196551131 -3.0580929489 -0.1402244298
| 49> H -1.7224804729 -4.0291336881 -0.6283711568
| 50> H -1.3157641253 -2.546415868 -1.5088086285
| 51> *
| 52>
| 53>                          ****END OF INPUT****

CARTESIAN COORDINATES (ANGSTROEM)
---------------------------------
  C      4.421891   -0.943737   -2.148036
  C      3.456915   -2.021447   -1.698368
  O      2.869584   -1.745251   -0.413425
  P      2.098522   -0.417491   -0.017901
  S      3.155653    1.181528    0.410853
  O      1.249109   -0.995006    1.187454
  C      1.327183   -0.493358    2.531177
  C      2.431114   -1.196799    3.293453
  S      0.693994   -0.204632   -1.595906
  C      0.204514    1.495014   -1.221157
  S     -0.561186    1.678314    0.416706
  P     -2.207811    0.406609    0.077789
  S     -2.966197    0.327641   -1.731189
  O     -3.261376    0.803521    1.203420
  C     -4.281891    1.794788    0.991674
  C     -3.703838    3.190455    0.876635
  O     -1.630783   -0.938813    0.681391
  C     -2.219370   -2.232627    0.416604
  C     -1.334653   -3.020430   -0.529437
  H      5.179976   -0.771937   -1.387530
  H      4.902024   -1.252621   -3.070982
  H      3.889106   -0.009744   -2.320996
  H      3.966176   -2.974854   -1.546203
  H      2.648718   -2.145110   -2.424884
  H      1.502389    0.587774    2.503182
  H      0.341902   -0.691275    2.956940
  H      2.272634   -2.271458    3.278221
  H      3.391257   -0.976281    2.829122
  H      2.442884   -0.844601    4.319913
  H     -0.505024    1.787193   -1.994116
  H      1.082540    2.140472   -1.217288
  H     -4.835231    1.531314    0.084507
  H     -4.928502    1.695593    1.864468
  H     -3.111361    3.274462   -0.033582
  H     -4.513104    3.912482    0.837389
  H     -3.065968    3.407344    1.729890
  H     -2.294179   -2.716475    1.391806
  H     -3.219901   -2.095762   -0.003929
  H     -0.319655   -3.058093   -0.140224
  H     -1.722480   -4.029134   -0.628371
  H     -1.315764   -2.546416   -1.508809

 Total Charge           Charge          ....    0
 Multiplicity           Mult            ....    1
 Number of Electrons    NEL             ....  202
 Basis Dimension        Dim             ....  539

ORBITAL ENERGIES
----------------

  NO   OCC          E(Eh)            E(eV)
   0   2.0000     -88.579449     -2410.3694
   1   2.0000     -88.577717     -2410.3222
   2   2.0000     -88.527902     -2408.9667
   3   2.0000     -88.526119     -2408.9182
   4   2.0000     -76.918936     -2093.0707
   5   2.0000     -76.918190     -2093.0504
   6   2.0000     -18.995309      -516.8886
   7   2.0000     -18.993996      -516.8529
   8   2.0000     -18.989561      -516.7322
   9   2.0000     -18.988562      -516.7051
  10   2.0000     -10.105657      -274.9889
  11   2.0000     -10.093075      -274.6465
  12   2.0000     -10.088948      -274.5342
  13   2.0000     -10.088530      -274.5229
  14   2.0000     -10.086339      -274.4632
  15   2.0000     -10.018572      -272.6192
  16   2.0000     -10.018197      -272.6090
  17   2.0000     -10.016768      -272.5701
  18   2.0000     -10.015777      -272.5431
  19   2.0000      -7.873877      -214.2591
  20   2.0000      -7.872104      -214.2108
  21   2.0000      -7.822950      -212.8733
  22   2.0000      -7.821265      -212.8274
  23   2.0000      -6.597217      -179.5194
  24   2.0000      -6.596716      -179.5058
  25   2.0000      -5.820774      -158.3913
  26   2.0000      -5.818956      -158.3418
  27   2.0000      -5.817798      -158.3103
  28   2.0000      -5.815902      -158.2587
  29   2.0000      -5.810897      -158.1226
  30   2.0000      -5.809290      -158.0788
  31   2.0000      -5.770503      -157.0234
  32   2.0000      -5.768907      -156.9799
  33   2.0000      -5.763354      -156.8288
  34   2.0000      -5.762880      -156.8159
  35   2.0000      -5.761556      -156.7799
  36   2.0000      -5.761208      -156.7704
  37   2.0000      -4.742640      -129.0538
  38   2.0000      -4.742297      -129.0445
  39   2.0000      -4.742098      -129.0391
  40   2.0000      -4.741592      -129.0253
  41   2.0000      -4.740933      -129.0073
  42   2.0000      -4.740646      -128.9995
  43   2.0000      -1.052662       -28.6444
  44   2.0000      -1.049885       -28.5688
  45   2.0000      -1.011543       -27.5255
  46   2.0000      -1.009177       -27.4611
  47   2.0000      -0.804758       -21.8986
  48   2.0000      -0.755379       -20.5549
  49   2.0000      -0.743506       -20.2318
  50   2.0000      -0.722080       -19.6488
  51   2.0000      -0.720890       -19.6164
  52   2.0000      -0.709677       -19.3113
  53   2.0000      -0.689731       -18.7685
  54   2.0000      -0.675549       -18.3826
  55   2.0000      -0.630816       -17.1654
  56   2.0000      -0.622353       -16.9351
  57   2.0000      -0.600907       -16.3515
  58   2.0000      -0.597177       -16.2500
  59   2.0000      -0.588801       -16.0221
  60   2.0000      -0.522818       -14.2266
  61   2.0000      -0.515886       -14.0380
  62   2.0000      -0.487668       -13.2701
  63   2.0000      -0.485069       -13.1994
  64   2.0000      -0.476542       -12.9674
  65   2.0000      -0.455906       -12.4058
  66   2.0000      -0.454562       -12.3693
  67   2.0000      -0.450002       -12.2452
  68   2.0000      -0.442016       -12.0279
  69   2.0000      -0.432507       -11.7691
  70   2.0000      -0.424999       -11.5648
  71   2.0000      -0.409603       -11.1459
  72   2.0000      -0.402757       -10.9596
  73   2.0000      -0.399893       -10.8816
  74   2.0000      -0.393284       -10.7018
  75   2.0000      -0.391598       -10.6559
  76   2.0000      -0.384717       -10.4687
  77   2.0000      -0.367369        -9.9966
  78   2.0000      -0.362253        -9.8574
  79   2.0000      -0.355641        -9.6775
  80   2.0000      -0.353942        -9.6313
  81   2.0000      -0.351954        -9.5772
  82   2.0000      -0.351525        -9.5655
  83   2.0000      -0.347487        -9.4556
  84   2.0000      -0.345761        -9.4086
  85   2.0000      -0.331043        -9.0082
  86   2.0000      -0.315683        -8.5902
  87   2.0000      -0.307869        -8.3775
  88   2.0000      -0.305137        -8.3032
  89   2.0000      -0.301928        -8.2159
  90   2.0000      -0.295956        -8.0534
  91   2.0000      -0.293206        -7.9785
  92   2.0000      -0.286878        -7.8063
  93   2.0000      -0.279193        -7.5972
  94   2.0000      -0.270784        -7.3684
  95   2.0000      -0.247695        -6.7401
  96   2.0000      -0.234866        -6.3910
  97   2.0000      -0.234224        -6.3736
  98   2.0000      -0.227052        -6.1784
  99   2.0000      -0.220544        -6.0013
 100   2.0000      -0.217182        -5.9098
 101   0.0000      -0.052882        -1.4390
 102   0.0000      -0.031758        -0.8642
 103   0.0000      -0.005769        -0.1570
 104   0.0000      -0.004954        -0.1348
 105   0.0000       0.009269         0.2522

MULLIKEN ATOMIC CHARGES
-----------------------
   0 C :   -0.466478
   1 C :   -0.154503
   2 O :   -0.334567
   3 P :    0.710676
   4 S :   -0.513214
   5 O :   -0.293121
   6 C :   -0.135642
   7 C :   -0.495089
   8 S :   -0.137555
   9 C :   -0.257795
  10 S :   -0.130312
  11 P :    0.710972
  12 S :   -0.520798
  13 O :   -0.325324
  14 C :   -0.154888
  15 C :   -0.482477
  16 O :   -0.283195
  17 C :   -0.125958
  18 C :   -0.500863
  19 H :    0.170168
  20 H :    0.173542
  21 H :    0.165891
  22 H :    0.177090
  23 H :    0.172336
  24 H :    0.175840
  25 H :    0.179016
  26 H :    0.166524
  27 H :    0.164799
  28 H :    0.170034
  29 H :    0.234008
  30 H :    0.230278
  31 H :    0.177433
  32 H :    0.174108
  33 H :    0.171182
  34 H :    0.172351
  35 H :    0.168647
  36 H :    0.174172
  37 H :    0.168978
  38 H :    0.166356
  39 H :    0.166708
  40 H :    0.170670
Sum of atomic charges:    0.0000000

LOEWDIN ATOMIC CHARGES
----------------------
   0 C :   -0.409959
   1 C :    0.029494
   2 O :   -0.668699
   3 P :    0.389627
   4 S :   -0.156809
   5 O :   -0.681497
   6 C :    0.010442
   7 C :   -0.400620
   8 S :    0.160314
   9 C :   -0.411831
  10 S :    0.179336
  11 P :    0.384871
  12 S :   -0.155711
  13 O :   -0.673292
  14 C :    0.023622
  15 C :   -0.409896
  16 O :   -0.684797
  17 C :    0.031616
  18 C :   -0.403768
  19 H :    0.164338
  20 H :    0.168088
  21 H :    0.161864
  22 H :    0.193078
  23 H :    0.179565
  24 H :    0.182690
  25 H :    0.187931
  26 H :    0.162413
  27 H :    0.161596
  28 H :    0.167775
  29 H :    0.197018
  30 H :    0.197327
  31 H :    0.181123
  32 H :    0.190343
  33 H :    0.161203
  34 H :    0.168046
  35 H :    0.163470
  36 H :    0.187253
  37 H :    0.181339
  38 H :    0.163717
  39 H :    0.165051
  40 H :    0.162328

  Mayer bond orders larger than 0.100000
B(  0-C ,  1-C ) :   0.9217 B(  0-C , 19-H ) :   0.9669 B(  0-C , 20-H ) :   0.9566
B(  0-C , 21-H ) :   0.9571 B(  1-C ,  2-O ) :   0.7967 B(  1-C , 22-H ) :   0.9479
B(  1-C , 23-H ) :   0.9580 B(  2-O ,  3-P ) :   1.1084 B(  3-P ,  4-S ) :   1.7385
B(  3-P ,  5-O ) :   1.1219 B(  3-P ,  8-S ) :   1.0501 B(  5-O ,  6-C ) :   0.7490
B(  6-C ,  7-C ) :   0.9265 B(  6-C , 24-H ) :   0.9526 B(  6-C , 25-H ) :   0.9535
B(  7-C , 26-H ) :   0.9731 B(  7-C , 27-H ) :   0.9658 B(  7-C , 28-H ) :   0.9606
B(  8-S ,  9-C ) :   0.8950 B(  9-C , 10-S ) :   0.8856 B(  9-C , 29-H ) :   0.9059
B(  9-C , 30-H ) :   0.9037 B( 10-S , 11-P ) :   1.1051 B( 11-P , 12-S ) :   1.7105
B( 11-P , 13-O ) :   1.0715 B( 11-P , 16-O ) :   1.1657 B( 13-O , 14-C ) :   0.8062
B( 14-C , 15-C ) :   0.9111 B( 14-C , 31-H ) :   0.9657 B( 14-C , 32-H ) :   0.9490
B( 15-C , 33-H ) :   0.9638 B( 15-C , 34-H ) :   0.9541 B( 15-C , 35-H ) :   0.9657
B( 16-O , 17-C ) :   0.7464 B( 17-C , 18-C ) :   0.9378 B( 17-C , 36-H ) :   0.9498
B( 17-C , 37-H ) :   0.9604 B( 18-C , 38-H ) :   0.9663 B( 18-C , 39-H ) :   0.9595
B( 18-C , 40-H ) :   0.9660

Dispersion correction           -0.022276325
FINAL SINGLE POINT ENERGY     -2932.468940404287

DIPOLE MOMENT
-------------

Method             : SCF
Type of density    : Electron Density
Multiplicity       :   1
Irrep              :   0
Energy             : -2932.4931092320375683 Eh
Relativity type    :
Basis              : AO
                                X                 Y                 Z
Electronic contribution:     -2.291134774       6.878836911      -4.844314607
Nuclear contribution   :      1.754726861      -7.668798055       5.235546029
                        -----------------------------------------
Total Dipole Moment    :     -0.536407913      -0.789961145       0.391231422
                        -----------------------------------------
Magnitude (a.u.)       :      1.031907983
Magnitude (Debye)      :      2.622901647

Rotational constants in cm-1:             0.012593             0.005274             0.005095
Rotational constants in MHz :           377.524251           158.101623           152.745349

                             ****ORCA TERMINATED NORMALLY****
TOTAL RUN TIME: 0 days 0 hours 1 minutes 51 seconds 619 msec
