                         Program Version 6.0.0  -   RELEASE  -
|  1> ! pbe def2-sv(p) def2/J RI DEFGRID1 loosescf d4 GCP(DFT/SV(P)) printgap
|  2> %output
|  3>     printlevel normal
|  4> end
|  5> * xyz 0 1
|  6> C -2.411176258 -0.0863425867 -0.0041664742
|  7> C -1.8303504774 -1.3448428517 0.0057784526
|  8> C -0.4501955103 -1.4560591306 0.0075161411
|  9> C 0.3281948524 -0.3168404885 0.0005345812
| 10> C -0.2286212906 0.9679331786 -0.0081598875
| 11> C -1.6271199917 1.0478280494 -0.0122895694
| 12> N 0.5429927969 2.0909376779 0.0491956518
| 13> Cl 2.0731138535 -0.4894911575 -0.0048944659
| 14> H -3.4858615878 0.0097113632 -0.008405577
| 15> H -2.4400279501 -2.2335521175 0.0103914923
| 16> H 0.0240361478 -2.4252903545 0.0114827335
| 17> H -2.0853237408 2.0247613479 -0.0193569006
| 18> H 1.5205071207 1.9850685527 -0.1652177143
| 19> H 0.1116124943 2.9602706169 -0.2118419608
| 20> *
| 21>
| 22>                          ****END OF INPUT****

CARTESIAN COORDINATES (ANGSTROEM)
---------------------------------
  C     -2.411176   -0.086343   -0.004166
  C     -1.830350   -1.344843    0.005778
  C     -0.450196   -1.456059    0.007516
  C      0.328195   -0.316840    0.000535
  C     -0.228621    0.967933   -0.008160
  C     -1.627120    1.047828   -0.012290
  N      0.542993    2.090938    0.049196
  Cl     2.073114   -0.489491   -0.004894
  H     -3.485862    0.009711   -0.008406
  H     -2.440028   -2.233552    0.010391
  H      0.024036   -2.425290    0.011483
  H     -2.085324    2.024761   -0.019357
  H      1.520507    1.985069   -0.165218
  H      0.111612    2.960271   -0.211842

 Total Charge           Charge          ....    0
 Multiplicity           Mult            ....    1
 Number of Electrons    NEL             ....   66
 Basis Dimension        Dim             ....  128

ORBITAL ENERGIES
----------------

  NO   OCC          E(Eh)            E(eV)
   0   2.0000    -100.638476     -2738.5121
   1   2.0000     -13.997564      -380.8931
   2   2.0000      -9.940455      -270.4935
   3   2.0000      -9.938248      -270.4335
   4   2.0000      -9.894517      -269.2435
   5   2.0000      -9.891450      -269.1600
   6   2.0000      -9.889965      -269.1196
   7   2.0000      -9.885059      -268.9861
   8   2.0000      -9.173834      -249.6327
   9   2.0000      -7.004974      -190.6150
  10   2.0000      -6.993798      -190.3109
  11   2.0000      -6.993604      -190.3056
  12   2.0000      -0.850546       -23.1445
  13   2.0000      -0.787937       -21.4409
  14   2.0000      -0.751063       -20.4375
  15   2.0000      -0.663240       -18.0477
  16   2.0000      -0.647565       -17.6211
  17   2.0000      -0.557754       -15.1773
  18   2.0000      -0.537800       -14.6343
  19   2.0000      -0.480529       -13.0758
  20   2.0000      -0.474046       -12.8995
  21   2.0000      -0.430848       -11.7240
  22   2.0000      -0.395839       -10.7713
  23   2.0000      -0.391882       -10.6636
  24   2.0000      -0.380059       -10.3419
  25   2.0000      -0.363375        -9.8879
  26   2.0000      -0.325905        -8.8683
  27   2.0000      -0.309543        -8.4231
  28   2.0000      -0.292749        -7.9661
  29   2.0000      -0.280525        -7.6335
  30   2.0000      -0.268922        -7.3177
  31   2.0000      -0.217189        -5.9100
  32   2.0000      -0.176720        -4.8088
  33   0.0000      -0.033753        -0.9185
  34   0.0000      -0.015756        -0.4287
  35   0.0000       0.013122         0.3571
  36   0.0000       0.036560         0.9948
  37   0.0000       0.064480         1.7546

MULLIKEN ATOMIC CHARGES
-----------------------
   0 C :   -0.041184
   1 C :   -0.060038
   2 C :   -0.108933
   3 C :    0.052662
   4 C :    0.116129
   5 C :   -0.159043
   6 N :   -0.312537
   7 Cl:   -0.103586
   8 H :    0.050555
   9 H :    0.049903
  10 H :    0.043200
  11 H :    0.023279
  12 H :    0.223336
  13 H :    0.226258
Sum of atomic charges:    0.0000000

LOEWDIN ATOMIC CHARGES
----------------------
   0 C :   -0.120646
   1 C :   -0.154964
   2 C :   -0.135004
   3 C :   -0.158230
   4 C :   -0.022295
   5 C :   -0.158273
   6 N :   -0.306339
   7 Cl:    0.109068
   8 H :    0.124280
   9 H :    0.123751
  10 H :    0.129201
  11 H :    0.121202
  12 H :    0.217781
  13 H :    0.230469

  Mayer bond orders larger than 0.100000
B(  0-C ,  1-C ) :   1.3474 B(  0-C ,  5-C ) :   1.3831 B(  0-C ,  8-H ) :   0.9642
B(  1-C ,  2-C ) :   1.3482 B(  1-C ,  9-H ) :   0.9648 B(  2-C ,  3-C ) :   1.4195
B(  2-C , 10-H ) :   0.9646 B(  3-C ,  4-C ) :   1.3555 B(  3-C ,  7-Cl) :   0.9604
B(  4-C ,  5-C ) :   1.3122 B(  4-C ,  6-N ) :   1.3055 B(  5-C , 11-H ) :   0.9640
B(  6-N , 12-H ) :   0.8527 B(  6-N , 13-H ) :   0.8761

Dispersion correction           -0.015959259
FINAL SINGLE POINT ENERGY      -746.246450403732

DIPOLE MOMENT
-------------

Method             : SCF
Type of density    : Electron Density
Multiplicity       :   1
Irrep              :   0
Energy             :  -746.2854344250259828 Eh
Relativity type    :
Basis              : AO
                                X                 Y                 Z
Electronic contribution:      8.605695696      -2.137888297       0.084708302
Nuclear contribution   :     -8.741665709       2.845977589      -0.352432043
                        -----------------------------------------
Total Dipole Moment    :     -0.135970013       0.708089292      -0.267723741
                        -----------------------------------------
Magnitude (a.u.)       :      0.769125667
Magnitude (Debye)      :      1.954962081

Rotational constants in cm-1:             0.098776             0.051425             0.033834
Rotational constants in MHz :          2961.241994          1541.674332          1014.303759

                             ****ORCA TERMINATED NORMALLY****
TOTAL RUN TIME: 0 days 0 hours 0 minutes 6 seconds 633 msec
