                         Program Version 6.0.1  -  RELEASE   -
|  1> ! pbe def2-sv(p) def2/J RI DEFGRID1 loosescf d4 GCP(DFT/SV(P)) printgap
|  2> %output
|  3>     printlevel normal
|  4> end
|  5> * xyz 0 1
|  6> C 5.3644083348 -2.2160082621 -1.0294148323
|  7> C 4.0697391211 -2.9531788851 -1.3323022284
|  8> O 3.1240700385 -2.0802518984 -1.9821281331
|  9> C 2.3431336192 -1.3324818647 -1.2344481538
| 10> O 2.3238062796 -1.3479722057 -0.0203234579
| 11> C 1.4587656933 -0.4301038094 -2.0693814426
| 12> C 0.4233682093 0.2318174931 -1.1715380093
| 13> H -0.1106191118 1.0222218664 -1.7092338351
| 14> C 1.1177151559 0.8702795664 0.0217937086
| 15> O 2.132039275 1.5190191604 -0.0971978063
| 16> O 0.4605915767 0.6914159217 1.1479312699
| 17> C 1.0136031778 1.252232287 2.3547089668
| 18> C 0.6864127957 2.7302995647 2.4854080015
| 19> S -0.8174097049 -1.0085837603 -0.6433844499
| 20> P -2.1591834716 0.2764386604 0.3244012708
| 21> S -2.1072471583 2.1911807238 -0.13185759
| 22> O -3.589437276 -0.3778449282 0.0058145459
| 23> C -4.2281074302 -0.1980616754 -1.2624599869
| 24> O -2.0368484907 -0.1154788745 1.8579072025
| 25> C -2.91233583 0.4896958159 2.824623685
| 26> H 5.1761287816 -1.4025581713 -0.3316607705
| 27> H 6.0753318245 -2.9044515878 -0.5848334834
| 28> H 5.7843392843 -1.8055437767 -1.9434048495
| 29> H 3.6163452565 -3.3362007516 -0.4137822775
| 30> H 4.2282536869 -3.7612230747 -2.0462290003
| 31> H 0.9879348484 -1.0071181789 -2.8639657978
| 32> H 2.0950412581 0.3368069902 -2.5166437356
| 33> H 0.5568568673 0.6643773053 3.151236441
| 34> H 2.0948581394 1.0904185869 2.3321376802
| 35> H -0.3862721633 2.8881421004 2.4014951361
| 36> H 1.0284221078 3.0885682825 3.4503551212
| 37> H 1.1811258802 3.2946357292 1.6982318621
| 38> H -5.2631781523 -0.4960064045 -1.1162390523
| 39> H -3.7486076893 -0.8278851491 -2.0109771099
| 40> H -4.1716668003 0.8497281687 -1.5637390825
| 41> H -2.9437082326 1.5713961459 2.6811276868
| 42> H -2.4896507218 0.245495032 3.7958338248
| 43> H -3.9150248867 0.0760636373 2.7252139239
| 44> *
| 45>
| 46>                          ****END OF INPUT****

CARTESIAN COORDINATES (ANGSTROEM)
---------------------------------
  C      5.364408   -2.216008   -1.029415
  C      4.069739   -2.953179   -1.332302
  O      3.124070   -2.080252   -1.982128
  C      2.343134   -1.332482   -1.234448
  O      2.323806   -1.347972   -0.020323
  C      1.458766   -0.430104   -2.069381
  C      0.423368    0.231817   -1.171538
  H     -0.110619    1.022222   -1.709234
  C      1.117715    0.870280    0.021794
  O      2.132039    1.519019   -0.097198
  O      0.460592    0.691416    1.147931
  C      1.013603    1.252232    2.354709
  C      0.686413    2.730300    2.485408
  S     -0.817410   -1.008584   -0.643384
  P     -2.159183    0.276439    0.324401
  S     -2.107247    2.191181   -0.131858
  O     -3.589437   -0.377845    0.005815
  C     -4.228107   -0.198062   -1.262460
  O     -2.036848   -0.115479    1.857907
  C     -2.912336    0.489696    2.824624
  H      5.176129   -1.402558   -0.331661
  H      6.075332   -2.904452   -0.584833
  H      5.784339   -1.805544   -1.943405
  H      3.616345   -3.336201   -0.413782
  H      4.228254   -3.761223   -2.046229
  H      0.987935   -1.007118   -2.863966
  H      2.095041    0.336807   -2.516644
  H      0.556857    0.664377    3.151236
  H      2.094858    1.090419    2.332138
  H     -0.386272    2.888142    2.401495
  H      1.028422    3.088568    3.450355
  H      1.181126    3.294636    1.698232
  H     -5.263178   -0.496006   -1.116239
  H     -3.748608   -0.827885   -2.010977
  H     -4.171667    0.849728   -1.563739
  H     -2.943708    1.571396    2.681128
  H     -2.489651    0.245495    3.795834
  H     -3.915025    0.076064    2.725214

 Total Charge           Charge          ....    0
 Multiplicity           Mult            ....    1
 Number of Electrons    NEL             ....  174
 Basis Dimension        Dim             ....  316

ORBITAL ENERGIES
----------------

  NO   OCC          E(Eh)            E(eV)
   0   2.0000     -88.038718     -2395.6553
   1   2.0000     -87.981759     -2394.1054
   2   2.0000     -76.423787     -2079.5970
   3   2.0000     -18.808544      -511.8065
   4   2.0000     -18.795521      -511.4521
   5   2.0000     -18.789537      -511.2893
   6   2.0000     -18.787561      -511.2355
   7   2.0000     -18.747521      -510.1460
   8   2.0000     -18.725808      -509.5551
   9   2.0000     -10.016922      -272.5743
  10   2.0000     -10.006664      -272.2952
  11   2.0000      -9.952465      -270.8203
  12   2.0000      -9.945979      -270.6438
  13   2.0000      -9.942912      -270.5604
  14   2.0000      -9.941114      -270.5115
  15   2.0000      -9.938475      -270.4397
  16   2.0000      -9.917177      -269.8601
  17   2.0000      -9.889584      -269.1093
  18   2.0000      -9.872437      -268.6427
  19   2.0000      -7.683703      -209.0842
  20   2.0000      -7.626762      -207.5347
  21   2.0000      -6.420902      -174.7216
  22   2.0000      -5.711570      -155.4197
  23   2.0000      -5.708438      -155.3345
  24   2.0000      -5.700471      -155.1177
  25   2.0000      -5.655612      -153.8970
  26   2.0000      -5.647620      -153.6796
  27   2.0000      -5.646723      -153.6551
  28   2.0000      -4.643465      -126.3551
  29   2.0000      -4.642675      -126.3336
  30   2.0000      -4.641443      -126.3001
  31   2.0000      -1.017963       -27.7002
  32   2.0000      -1.003523       -27.3072
  33   2.0000      -0.982509       -26.7354
  34   2.0000      -0.938669       -25.5425
  35   2.0000      -0.924515       -25.1573
  36   2.0000      -0.907324       -24.6896
  37   2.0000      -0.764097       -20.7921
  38   2.0000      -0.717203       -19.5161
  39   2.0000      -0.696511       -18.9530
  40   2.0000      -0.689737       -18.7687
  41   2.0000      -0.653949       -17.7949
  42   2.0000      -0.631496       -17.1839
  43   2.0000      -0.626467       -17.0470
  44   2.0000      -0.612754       -16.6739
  45   2.0000      -0.596792       -16.2395
  46   2.0000      -0.559910       -15.2359
  47   2.0000      -0.511782       -13.9263
  48   2.0000      -0.502966       -13.6864
  49   2.0000      -0.493357       -13.4249
  50   2.0000      -0.478963       -13.0332
  51   2.0000      -0.468368       -12.7449
  52   2.0000      -0.463106       -12.6017
  53   2.0000      -0.442723       -12.0471
  54   2.0000      -0.434129       -11.8133
  55   2.0000      -0.426427       -11.6037
  56   2.0000      -0.425019       -11.5654
  57   2.0000      -0.417153       -11.3513
  58   2.0000      -0.412174       -11.2158
  59   2.0000      -0.408562       -11.1175
  60   2.0000      -0.400407       -10.8956
  61   2.0000      -0.396920       -10.8007
  62   2.0000      -0.390571       -10.6280
  63   2.0000      -0.380977       -10.3669
  64   2.0000      -0.375077       -10.2064
  65   2.0000      -0.367901       -10.0111
  66   2.0000      -0.357126        -9.7179
  67   2.0000      -0.350685        -9.5426
  68   2.0000      -0.346425        -9.4267
  69   2.0000      -0.335880        -9.1398
  70   2.0000      -0.331155        -9.0112
  71   2.0000      -0.324538        -8.8311
  72   2.0000      -0.317298        -8.6341
  73   2.0000      -0.308520        -8.3953
  74   2.0000      -0.303359        -8.2548
  75   2.0000      -0.298883        -8.1330
  76   2.0000      -0.294847        -8.0232
  77   2.0000      -0.284894        -7.7524
  78   2.0000      -0.268929        -7.3179
  79   2.0000      -0.267103        -7.2682
  80   2.0000      -0.259078        -7.0499
  81   2.0000      -0.249545        -6.7905
  82   2.0000      -0.238794        -6.4979
  83   2.0000      -0.230246        -6.2653
  84   2.0000      -0.205715        -5.5978
  85   2.0000      -0.202232        -5.5030
  86   2.0000      -0.195054        -5.3077
  87   0.0000      -0.039955        -1.0872
  88   0.0000      -0.025924        -0.7054
  89   0.0000      -0.012981        -0.3532
  90   0.0000       0.010300         0.2803
  91   0.0000       0.019995         0.5441

MULLIKEN ATOMIC CHARGES
-----------------------
   0 C :   -0.306553
   1 C :   -0.013478
   2 O :   -0.225862
   3 C :    0.117773
   4 O :   -0.195335
   5 C :   -0.101501
   6 C :   -0.319599
   7 H :    0.152960
   8 C :    0.244689
   9 O :   -0.212337
  10 O :   -0.226032
  11 C :    0.001203
  12 C :   -0.312425
  13 S :   -0.066321
  14 P :    0.636606
  15 S :   -0.347558
  16 O :   -0.390158
  17 C :   -0.099521
  18 O :   -0.368843
  19 C :   -0.104424
  20 H :    0.133820
  21 H :    0.114839
  22 H :    0.116091
  23 H :    0.113047
  24 H :    0.105258
  25 H :    0.129045
  26 H :    0.144392
  27 H :    0.099952
  28 H :    0.107475
  29 H :    0.122876
  30 H :    0.103544
  31 H :    0.127424
  32 H :    0.122433
  33 H :    0.110340
  34 H :    0.116611
  35 H :    0.121479
  36 H :    0.126506
  37 H :    0.121583
Sum of atomic charges:    0.0000000

LOEWDIN ATOMIC CHARGES
----------------------
   0 C :   -0.355570
   1 C :   -0.109037
   2 O :   -0.054828
   3 C :    0.038286
   4 O :   -0.150186
   5 C :   -0.249708
   6 C :   -0.265886
   7 H :    0.142536
   8 C :    0.019693
   9 O :   -0.171781
  10 O :   -0.049759
  11 C :   -0.103111
  12 C :   -0.361095
  13 S :    0.116672
  14 P :    0.581198
  15 S :   -0.329873
  16 O :   -0.264358
  17 C :   -0.218206
  18 O :   -0.244080
  19 C :   -0.210365
  20 H :    0.133739
  21 H :    0.131598
  22 H :    0.125992
  23 H :    0.121805
  24 H :    0.118960
  25 H :    0.143309
  26 H :    0.160161
  27 H :    0.115958
  28 H :    0.121243
  29 H :    0.121669
  30 H :    0.125800
  31 H :    0.131454
  32 H :    0.120916
  33 H :    0.109083
  34 H :    0.108576
  35 H :    0.111928
  36 H :    0.121686
  37 H :    0.115580

  Mayer bond orders larger than 0.100000
B(  0-C ,  1-C ) :   1.1748 B(  0-C , 20-H ) :   0.9451 B(  0-C , 21-H ) :   0.9439
B(  0-C , 22-H ) :   0.9487 B(  1-C ,  2-O ) :   0.9094 B(  1-C , 23-H ) :   0.9143
B(  1-C , 24-H ) :   0.9371 B(  2-O ,  3-C ) :   1.2503 B(  3-C ,  4-O ) :   2.0012
B(  3-C ,  5-C ) :   0.9947 B(  5-C ,  6-C ) :   1.0652 B(  5-C , 25-H ) :   0.8999
B(  5-C , 26-H ) :   0.8736 B(  6-C ,  7-H ) :   0.8508 B(  6-C ,  8-C ) :   0.8630
B(  6-C , 13-S ) :   1.0193 B(  8-C ,  9-O ) :   2.0405 B(  8-C , 10-O ) :   1.2453
B( 10-O , 11-C ) :   0.9079 B( 11-C , 12-C ) :   1.1767 B( 11-C , 27-H ) :   0.9353
B( 11-C , 28-H ) :   0.9196 B( 12-C , 29-H ) :   0.9384 B( 12-C , 30-H ) :   0.9428
B( 12-C , 31-H ) :   0.9427 B( 13-S , 14-P ) :   0.9919 B( 13-S , 15-S ) :   0.1187
B( 14-P , 15-S ) :   1.5991 B( 14-P , 16-O ) :   1.0704 B( 14-P , 18-O ) :   1.1164
B( 16-O , 17-C ) :   0.9358 B( 17-C , 32-H ) :   0.9591 B( 17-C , 33-H ) :   0.9491
B( 17-C , 34-H ) :   0.9306 B( 18-O , 19-C ) :   0.9255 B( 19-C , 35-H ) :   0.9318
B( 19-C , 36-H ) :   0.9581 B( 19-C , 37-H ) :   0.9509

Dispersion correction           -0.052797995
FINAL SINGLE POINT ENERGY     -1979.021986603773

DIPOLE MOMENT
-------------

Method             : SCF
Type of density    : Electron Density
Multiplicity       :   1
Irrep              :   0
Energy             : -1979.1516287094023028 Eh
Relativity type    :
Basis              : AO
                                X                 Y                 Z
Electronic contribution:    -11.316244497      -0.284181422      -4.608833340
Nuclear contribution   :     11.239906270      -0.694166015       4.563531764
                        -----------------------------------------
Total Dipole Moment    :     -0.076338227      -0.978347438      -0.045301576
                        -----------------------------------------
Magnitude (a.u.)       :      0.982366259
Magnitude (Debye)      :      2.496976592

Rotational constants in cm-1:             0.016427             0.006164             0.005302
Rotational constants in MHz :           492.479171           184.780013           158.942400

                             ****ORCA TERMINATED NORMALLY****
TOTAL RUN TIME: 0 days 0 hours 0 minutes 40 seconds 305 msec
