                         Program Version 6.0.0  -   RELEASE  -
|  1> ! pbe def2-sv(p) def2/J RI DEFGRID1 loosescf d4 GCP(DFT/SV(P)) printgap
|  2> %output
|  3>     printlevel normal
|  4> end
|  5> * xyz 0 1
|  6> C 4.496533564 0.8233725971 -2.090770364
|  7> C 3.1636233822 0.103656519 -2.0995396197
|  8> O 2.2654927098 0.6633832685 -1.1109605791
|  9> P 2.1086207103 0.1351472831 0.3646354722
| 10> S 0.8792437341 1.2471520352 1.3962239213
| 11> O 3.5989528946 0.1142467446 0.9178382927
| 12> C 3.894207618 0.0639559147 2.3258773135
| 13> C 3.4270989254 -1.2271963163 2.9651464985
| 14> S 1.6879974225 -1.9459994679 0.1528058375
| 15> C 0.0621294015 -1.8456801435 -0.629352502
| 16> S -1.2671292295 -1.4140403399 0.5404632093
| 17> P -2.2004917433 0.106462721 -0.6276733386
| 18> S -1.0410367277 1.0916579788 -1.8598529974
| 19> O -3.0910357622 0.8860577011 0.4264165241
| 20> C -2.6270972104 1.7145257739 1.5074339936
| 21> C -2.2768541603 3.107226892 1.0251017741
| 22> O -3.2953600685 -0.6486209147 -1.4752291193
| 23> C -4.3296790568 -1.482161827 -0.8960217968
| 24> C -5.622450866 -0.7085101549 -0.7369617214
| 25> H 4.3435226813 1.8897891321 -2.2332079963
| 26> H 5.0054696175 0.664170022 -1.1439963906
| 27> H 5.1109672571 0.4381398047 -2.8985663379
| 28> H 3.2907526409 -0.9643384075 -1.9002971157
| 29> H 2.638191667 0.247507695 -3.0460835538
| 30> H 4.9794020551 0.1661236009 2.3673509529
| 31> H 3.4196500625 0.924715584 2.8069851339
| 32> H 3.7810284167 -1.2679156876 3.9902133698
| 33> H 2.3385019367 -1.2682196428 2.9674114176
| 34> H 3.8091909843 -2.0835840056 2.4149469869
| 35> H -0.1367299902 -2.836266765 -1.0294799168
| 36> H 0.0763823465 -1.0874299415 -1.4181733024
| 37> H -3.4689356333 1.7343420229 2.2020954109
| 38> H -1.7645237506 1.2449371263 1.9865479645
| 39> H -1.4202491813 3.0669180482 0.3547200401
| 40> H -3.11760761 3.5478285197 0.4958682194
| 41> H -2.0172744479 3.7246762525 1.8786913387
| 42> H -4.4444416191 -2.3030884558 -1.606072712
| 43> H -3.976479301 -1.868913505 0.0642997888
| 44> H -5.9309522451 -0.2998334527 -1.6952503015
| 45> H -6.3926815009 -1.3780346888 -0.3669493547
| 46> H -5.4898585755 0.1097913764 -0.0347045315
| 47> *
| 48>
| 49>                          ****END OF INPUT****

CARTESIAN COORDINATES (ANGSTROEM)
---------------------------------
  C      4.496534    0.823373   -2.090770
  C      3.163623    0.103657   -2.099540
  O      2.265493    0.663383   -1.110961
  P      2.108621    0.135147    0.364635
  S      0.879244    1.247152    1.396224
  O      3.598953    0.114247    0.917838
  C      3.894208    0.063956    2.325877
  C      3.427099   -1.227196    2.965146
  S      1.687997   -1.945999    0.152806
  C      0.062129   -1.845680   -0.629353
  S     -1.267129   -1.414040    0.540463
  P     -2.200492    0.106463   -0.627673
  S     -1.041037    1.091658   -1.859853
  O     -3.091036    0.886058    0.426417
  C     -2.627097    1.714526    1.507434
  C     -2.276854    3.107227    1.025102
  O     -3.295360   -0.648621   -1.475229
  C     -4.329679   -1.482162   -0.896022
  C     -5.622451   -0.708510   -0.736962
  H      4.343523    1.889789   -2.233208
  H      5.005470    0.664170   -1.143996
  H      5.110967    0.438140   -2.898566
  H      3.290753   -0.964338   -1.900297
  H      2.638192    0.247508   -3.046084
  H      4.979402    0.166124    2.367351
  H      3.419650    0.924716    2.806985
  H      3.781028   -1.267916    3.990213
  H      2.338502   -1.268220    2.967411
  H      3.809191   -2.083584    2.414947
  H     -0.136730   -2.836267   -1.029480
  H      0.076382   -1.087430   -1.418173
  H     -3.468936    1.734342    2.202095
  H     -1.764524    1.244937    1.986548
  H     -1.420249    3.066918    0.354720
  H     -3.117608    3.547829    0.495868
  H     -2.017274    3.724676    1.878691
  H     -4.444442   -2.303088   -1.606073
  H     -3.976479   -1.868914    0.064300
  H     -5.930952   -0.299833   -1.695250
  H     -6.392682   -1.378035   -0.366949
  H     -5.489859    0.109791   -0.034705

 Total Charge           Charge          ....    0
 Multiplicity           Mult            ....    1
 Number of Electrons    NEL             ....  202
 Basis Dimension        Dim             ....  334

ORBITAL ENERGIES
----------------

  NO   OCC          E(Eh)            E(eV)
   0   2.0000     -88.043819     -2395.7941
   1   2.0000     -88.035554     -2395.5692
   2   2.0000     -87.980514     -2394.0715
   3   2.0000     -87.976683     -2393.9672
   4   2.0000     -76.424445     -2079.6149
   5   2.0000     -76.419672     -2079.4850
   6   2.0000     -18.793568      -511.3990
   7   2.0000     -18.791347      -511.3385
   8   2.0000     -18.788711      -511.2668
   9   2.0000     -18.781729      -511.0768
  10   2.0000      -9.953745      -270.8552
  11   2.0000      -9.953502      -270.8486
  12   2.0000      -9.952280      -270.8153
  13   2.0000      -9.950670      -270.7715
  14   2.0000      -9.947263      -270.6788
  15   2.0000      -9.885212      -268.9903
  16   2.0000      -9.883378      -268.9404
  17   2.0000      -9.882535      -268.9175
  18   2.0000      -9.871264      -268.6107
  19   2.0000      -7.688661      -209.2191
  20   2.0000      -7.680521      -208.9976
  21   2.0000      -7.625619      -207.5036
  22   2.0000      -7.621870      -207.4016
  23   2.0000      -6.421843      -174.7472
  24   2.0000      -6.417143      -174.6193
  25   2.0000      -5.716345      -155.5497
  26   2.0000      -5.713107      -155.4615
  27   2.0000      -5.708347      -155.3320
  28   2.0000      -5.705917      -155.2659
  29   2.0000      -5.705112      -155.2440
  30   2.0000      -5.697490      -155.0366
  31   2.0000      -5.654564      -153.8685
  32   2.0000      -5.650980      -153.7710
  33   2.0000      -5.646050      -153.6368
  34   2.0000      -5.645864      -153.6318
  35   2.0000      -5.642643      -153.5441
  36   2.0000      -5.641635      -153.5167
  37   2.0000      -4.644860      -126.3931
  38   2.0000      -4.643645      -126.3600
  39   2.0000      -4.641900      -126.3125
  40   2.0000      -4.639980      -126.2603
  41   2.0000      -4.638975      -126.2329
  42   2.0000      -4.637303      -126.1874
  43   2.0000      -0.986853       -26.8536
  44   2.0000      -0.983172       -26.7535
  45   2.0000      -0.944999       -25.7147
  46   2.0000      -0.938947       -25.5500
  47   2.0000      -0.759077       -20.6555
  48   2.0000      -0.717894       -19.5349
  49   2.0000      -0.708504       -19.2794
  50   2.0000      -0.689974       -18.7751
  51   2.0000      -0.684401       -18.6235
  52   2.0000      -0.671975       -18.2854
  53   2.0000      -0.648345       -17.6424
  54   2.0000      -0.632705       -17.2168
  55   2.0000      -0.593601       -16.1527
  56   2.0000      -0.582950       -15.8629
  57   2.0000      -0.574825       -15.6418
  58   2.0000      -0.568471       -15.4689
  59   2.0000      -0.560045       -15.2396
  60   2.0000      -0.501457       -13.6453
  61   2.0000      -0.496456       -13.5093
  62   2.0000      -0.474168       -12.9028
  63   2.0000      -0.472270       -12.8511
  64   2.0000      -0.449900       -12.2424
  65   2.0000      -0.445854       -12.1323
  66   2.0000      -0.441049       -12.0016
  67   2.0000      -0.430394       -11.7116
  68   2.0000      -0.427599       -11.6356
  69   2.0000      -0.419543       -11.4164
  70   2.0000      -0.411109       -11.1868
  71   2.0000      -0.394715       -10.7407
  72   2.0000      -0.390420       -10.6239
  73   2.0000      -0.382433       -10.4065
  74   2.0000      -0.378684       -10.3045
  75   2.0000      -0.366076        -9.9614
  76   2.0000      -0.357697        -9.7334
  77   2.0000      -0.354562        -9.6481
  78   2.0000      -0.353062        -9.6073
  79   2.0000      -0.351314        -9.5597
  80   2.0000      -0.346184        -9.4201
  81   2.0000      -0.345225        -9.3940
  82   2.0000      -0.337195        -9.1756
  83   2.0000      -0.334571        -9.1041
  84   2.0000      -0.326924        -8.8961
  85   2.0000      -0.316578        -8.6145
  86   2.0000      -0.312019        -8.4905
  87   2.0000      -0.294862        -8.0236
  88   2.0000      -0.291534        -7.9331
  89   2.0000      -0.287268        -7.8170
  90   2.0000      -0.283698        -7.7198
  91   2.0000      -0.270715        -7.3665
  92   2.0000      -0.267673        -7.2837
  93   2.0000      -0.261198        -7.1076
  94   2.0000      -0.257093        -6.9959
  95   2.0000      -0.241705        -6.5771
  96   2.0000      -0.221470        -6.0265
  97   2.0000      -0.203219        -5.5299
  98   2.0000      -0.195960        -5.3324
  99   2.0000      -0.188307        -5.1241
 100   2.0000      -0.183058        -4.9813
 101   0.0000      -0.036915        -1.0045
 102   0.0000      -0.027594        -0.7509
 103   0.0000      -0.012915        -0.3514
 104   0.0000       0.004054         0.1103
 105   0.0000       0.026438         0.7194

MULLIKEN ATOMIC CHARGES
-----------------------
   0 C :   -0.290870
   1 C :   -0.014858
   2 O :   -0.346455
   3 P :    0.615006
   4 S :   -0.312411
   5 O :   -0.381884
   6 C :    0.000528
   7 C :   -0.327246
   8 S :   -0.108373
   9 C :   -0.347128
  10 S :   -0.098583
  11 P :    0.603131
  12 S :   -0.294519
  13 O :   -0.381882
  14 C :   -0.018255
  15 C :   -0.306250
  16 O :   -0.357599
  17 C :   -0.009496
  18 C :   -0.288836
  19 H :    0.121932
  20 H :    0.121403
  21 H :    0.108336
  22 H :    0.098839
  23 H :    0.113254
  24 H :    0.104557
  25 H :    0.113812
  26 H :    0.115360
  27 H :    0.133486
  28 H :    0.119333
  29 H :    0.181431
  30 H :    0.191673
  31 H :    0.099160
  32 H :    0.130238
  33 H :    0.146707
  34 H :    0.110459
  35 H :    0.106487
  36 H :    0.104947
  37 H :    0.097243
  38 H :    0.118842
  39 H :    0.106632
  40 H :    0.121849
Sum of atomic charges:   -0.0000000

LOEWDIN ATOMIC CHARGES
----------------------
   0 C :   -0.360106
   1 C :   -0.116406
   2 O :   -0.226141
   3 P :    0.573594
   4 S :   -0.300434
   5 O :   -0.247608
   6 C :   -0.117937
   7 C :   -0.373722
   8 S :    0.076376
   9 C :   -0.483749
  10 S :    0.061019
  11 P :    0.566909
  12 S :   -0.293010
  13 O :   -0.239105
  14 C :   -0.116360
  15 C :   -0.365519
  16 O :   -0.241814
  17 C :   -0.117194
  18 C :   -0.359593
  19 H :    0.129648
  20 H :    0.125426
  21 H :    0.129025
  22 H :    0.101555
  23 H :    0.122383
  24 H :    0.118166
  25 H :    0.113114
  26 H :    0.132487
  27 H :    0.123390
  28 H :    0.122973
  29 H :    0.135660
  30 H :    0.120771
  31 H :    0.115007
  32 H :    0.107628
  33 H :    0.128047
  34 H :    0.124250
  35 H :    0.129206
  36 H :    0.118908
  37 H :    0.100926
  38 H :    0.128377
  39 H :    0.127785
  40 H :    0.126069

  Mayer bond orders larger than 0.100000
B(  0-C ,  1-C ) :   1.1668 B(  0-C , 19-H ) :   0.9473 B(  0-C , 20-H ) :   0.9415
B(  0-C , 21-H ) :   0.9396 B(  1-C ,  2-O ) :   0.8963 B(  1-C , 22-H ) :   0.9085
B(  1-C , 23-H ) :   0.9332 B(  2-O ,  3-P ) :   1.1425 B(  3-P ,  4-S ) :   1.6525
B(  3-P ,  5-O ) :   1.0791 B(  3-P ,  8-S ) :   0.9476 B(  4-S ,  8-S ) :   0.1130
B(  5-O ,  6-C ) :   0.9044 B(  6-C ,  7-C ) :   1.1654 B(  6-C , 24-H ) :   0.9333
B(  6-C , 25-H ) :   0.9169 B(  7-C , 26-H ) :   0.9369 B(  7-C , 27-H ) :   0.9321
B(  7-C , 28-H ) :   0.9423 B(  8-S ,  9-C ) :   0.9961 B(  9-C , 10-S ) :   0.9937
B(  9-C , 29-H ) :   0.9117 B(  9-C , 30-H ) :   0.8476 B( 10-S , 11-P ) :   0.9508
B( 10-S , 12-S ) :   0.1162 B( 11-P , 12-S ) :   1.6441 B( 11-P , 13-O ) :   1.0974
B( 11-P , 16-O ) :   1.1243 B( 12-S , 30-H ) :   0.1179 B( 13-O , 14-C ) :   0.8974
B( 14-C , 15-C ) :   1.1733 B( 14-C , 31-H ) :   0.9344 B( 14-C , 32-H ) :   0.9111
B( 15-C , 33-H ) :   0.9286 B( 15-C , 34-H ) :   0.9465 B( 15-C , 35-H ) :   0.9386
B( 16-O , 17-C ) :   0.9016 B( 17-C , 18-C ) :   1.1632 B( 17-C , 36-H ) :   0.9369
B( 17-C , 37-H ) :   0.9108 B( 18-C , 38-H ) :   0.9471 B( 18-C , 39-H ) :   0.9402
B( 18-C , 40-H ) :   0.9426

Dispersion correction           -0.065863327
FINAL SINGLE POINT ENERGY     -2929.513801367787

DIPOLE MOMENT
-------------

Method             : SCF
Type of density    : Electron Density
Multiplicity       :   1
Irrep              :   0
Energy             : -2929.6329977019227044 Eh
Relativity type    :
Basis              : AO
                                X                 Y                 Z
Electronic contribution:     -0.353570998      -3.061920052      -3.611723844
Nuclear contribution   :      0.661026004       2.081560953       4.109354657
                        -----------------------------------------
Total Dipole Moment    :      0.307455006      -0.980359099       0.497630813
                        -----------------------------------------
Magnitude (a.u.)       :      1.141608063
Magnitude (Debye)      :      2.901737091

Rotational constants in cm-1:             0.013082             0.004774             0.004697
Rotational constants in MHz :           392.185960           143.127491           140.803973

                             ****ORCA TERMINATED NORMALLY****
TOTAL RUN TIME: 0 days 0 hours 0 minutes 20 seconds 727 msec
