                         Program Version 6.0.0  -   RELEASE  -
|  1> ! pbe def2-sv(p) def2/J RI DEFGRID1 loosescf d4 GCP(DFT/SV(P)) printgap
|  2> %output
|  3>     printlevel normal
|  4> end
|  5> * xyz 0 1
|  6> C 5.4839602577 -1.009066476 -0.6329877001
|  7> C 4.1810342635 -1.4471489963 -1.2672747022
|  8> O 3.2205349509 -0.3695700935 -1.3535389533
|  9> P 2.6477137521 0.4143187927 -0.09697292
| 10> S 3.7324902975 1.8354171506 0.7037497919
| 11> O 2.2878143273 -0.7896353924 0.8873318209
| 12> C 2.1735565875 -0.6012287348 2.3061572678
| 13> C 0.9311614497 0.1807270989 2.6776927832
| 14> S 0.852953958 1.106910277 -0.9718777318
| 15> C 0.1934725616 -0.4613912198 -1.6218394182
| 16> S -0.6724251448 -1.4539745964 -0.3816754802
| 17> P -2.3423438082 -0.1787780094 -0.1906564183
| 18> S -2.9927295988 0.6439362922 -1.8535423721
| 19> O -1.8554741429 0.8073180738 0.9446074397
| 20> C -2.4140002744 2.1258032001 1.1070511018
| 21> C -3.8432132533 2.0635596497 1.6019719908
| 22> O -3.4011284325 -1.0709936534 0.5852518127
| 23> C -4.182803792 -2.0772715078 -0.0904527802
| 24> C -5.3762610289 -2.4048116173 0.7840680048
| 25> H 5.8966078783 -0.1558424093 -1.1662659566
| 26> H 5.3193462852 -0.7171464364 0.4033524398
| 27> H 6.1935125326 -1.829971554 -0.6629252411
| 28> H 3.7282233846 -2.2667753936 -0.7047268412
| 29> H 4.3241233746 -1.7417242777 -2.308487044
| 30> H 2.1484793665 -1.6151616322 2.7069793446
| 31> H 3.0681203494 -0.0763674221 2.6574599171
| 32> H 0.0368117539 -0.3193053865 2.3142661714
| 33> H 0.8749294014 0.277401886 3.7570717867
| 34> H 0.9808043705 1.1764685682 2.2357647573
| 35> H 1.0064933965 -1.0629113936 -2.0165133814
| 36> H -0.5113764511 -0.1826860755 -2.4060858505
| 37> H -1.7516342143 2.6053924138 1.8287954354
| 38> H -2.3537990743 2.649673953 0.1475785442
| 39> H -4.2031806695 3.0690881257 1.7956324892
| 40> H -4.4740668207 1.6010257002 0.8435733304
| 41> H -3.8986830183 1.4746647343 2.5135556372
| 42> H -4.4933170218 -1.6829081229 -1.0639349697
| 43> H -3.5485793904 -2.9541291969 -0.2453661009
| 44> H -5.998276361 -1.5241686293 0.9166570504
| 45> H -5.9604891279 -3.1869437843 0.3105759109
| 46> H -5.037914942 -2.7465706921 1.757771848
| 47> *
| 48>
| 49>                          ****END OF INPUT****

CARTESIAN COORDINATES (ANGSTROEM)
---------------------------------
  C      5.483960   -1.009066   -0.632988
  C      4.181034   -1.447149   -1.267275
  O      3.220535   -0.369570   -1.353539
  P      2.647714    0.414319   -0.096973
  S      3.732490    1.835417    0.703750
  O      2.287814   -0.789635    0.887332
  C      2.173557   -0.601229    2.306157
  C      0.931161    0.180727    2.677693
  S      0.852954    1.106910   -0.971878
  C      0.193473   -0.461391   -1.621839
  S     -0.672425   -1.453975   -0.381675
  P     -2.342344   -0.178778   -0.190656
  S     -2.992730    0.643936   -1.853542
  O     -1.855474    0.807318    0.944607
  C     -2.414000    2.125803    1.107051
  C     -3.843213    2.063560    1.601972
  O     -3.401128   -1.070994    0.585252
  C     -4.182804   -2.077272   -0.090453
  C     -5.376261   -2.404812    0.784068
  H      5.896608   -0.155842   -1.166266
  H      5.319346   -0.717146    0.403352
  H      6.193513   -1.829972   -0.662925
  H      3.728223   -2.266775   -0.704727
  H      4.324123   -1.741724   -2.308487
  H      2.148479   -1.615162    2.706979
  H      3.068120   -0.076367    2.657460
  H      0.036812   -0.319305    2.314266
  H      0.874929    0.277402    3.757072
  H      0.980804    1.176469    2.235765
  H      1.006493   -1.062911   -2.016513
  H     -0.511376   -0.182686   -2.406086
  H     -1.751634    2.605392    1.828795
  H     -2.353799    2.649674    0.147579
  H     -4.203181    3.069088    1.795632
  H     -4.474067    1.601026    0.843573
  H     -3.898683    1.474665    2.513556
  H     -4.493317   -1.682908   -1.063935
  H     -3.548579   -2.954129   -0.245366
  H     -5.998276   -1.524169    0.916657
  H     -5.960489   -3.186944    0.310576
  H     -5.037915   -2.746571    1.757772

 Total Charge           Charge          ....    0
 Multiplicity           Mult            ....    1
 Number of Electrons    NEL             ....  202
 Basis Dimension        Dim             ....  334

ORBITAL ENERGIES
----------------

  NO   OCC          E(Eh)            E(eV)
   0   2.0000     -88.044624     -2395.8160
   1   2.0000     -88.038595     -2395.6520
   2   2.0000     -87.992984     -2394.4108
   3   2.0000     -87.983571     -2394.1547
   4   2.0000     -76.430467     -2079.7787
   5   2.0000     -76.425344     -2079.6393
   6   2.0000     -18.799645      -511.5643
   7   2.0000     -18.794953      -511.4367
   8   2.0000     -18.793246      -511.3902
   9   2.0000     -18.792501      -511.3700
  10   2.0000      -9.958126      -270.9744
  11   2.0000      -9.957738      -270.9638
  12   2.0000      -9.954819      -270.8844
  13   2.0000      -9.952534      -270.8222
  14   2.0000      -9.947662      -270.6897
  15   2.0000      -9.893026      -269.2029
  16   2.0000      -9.885445      -268.9966
  17   2.0000      -9.884709      -268.9766
  18   2.0000      -9.873845      -268.6810
  19   2.0000      -7.690128      -209.2590
  20   2.0000      -7.683774      -209.0861
  21   2.0000      -7.637843      -207.8363
  22   2.0000      -7.628794      -207.5900
  23   2.0000      -6.428271      -174.9221
  24   2.0000      -6.422671      -174.7698
  25   2.0000      -5.717852      -155.5907
  26   2.0000      -5.714742      -155.5060
  27   2.0000      -5.712030      -155.4322
  28   2.0000      -5.708066      -155.3244
  29   2.0000      -5.707049      -155.2967
  30   2.0000      -5.700585      -155.1208
  31   2.0000      -5.666572      -154.1953
  32   2.0000      -5.658534      -153.9765
  33   2.0000      -5.658157      -153.9663
  34   2.0000      -5.657758      -153.9554
  35   2.0000      -5.649395      -153.7278
  36   2.0000      -5.648932      -153.7153
  37   2.0000      -4.650659      -126.5509
  38   2.0000      -4.650021      -126.5335
  39   2.0000      -4.648837      -126.5013
  40   2.0000      -4.645523      -126.4111
  41   2.0000      -4.644470      -126.3825
  42   2.0000      -4.642917      -126.3402
  43   2.0000      -0.992701       -27.0128
  44   2.0000      -0.987612       -26.8743
  45   2.0000      -0.951744       -25.8983
  46   2.0000      -0.944098       -25.6902
  47   2.0000      -0.764415       -20.8008
  48   2.0000      -0.725027       -19.7290
  49   2.0000      -0.710047       -19.3214
  50   2.0000      -0.691750       -18.8235
  51   2.0000      -0.684967       -18.6389
  52   2.0000      -0.674244       -18.3471
  53   2.0000      -0.655001       -17.8235
  54   2.0000      -0.638872       -17.3846
  55   2.0000      -0.602193       -16.3865
  56   2.0000      -0.590634       -16.0720
  57   2.0000      -0.576633       -15.6910
  58   2.0000      -0.570124       -15.5139
  59   2.0000      -0.562344       -15.3022
  60   2.0000      -0.507932       -13.8215
  61   2.0000      -0.496908       -13.5216
  62   2.0000      -0.481502       -13.1023
  63   2.0000      -0.469794       -12.7837
  64   2.0000      -0.459790       -12.5115
  65   2.0000      -0.449477       -12.2309
  66   2.0000      -0.441130       -12.0038
  67   2.0000      -0.436126       -11.8676
  68   2.0000      -0.426971       -11.6185
  69   2.0000      -0.417593       -11.3633
  70   2.0000      -0.411159       -11.1882
  71   2.0000      -0.402698       -10.9580
  72   2.0000      -0.397026       -10.8036
  73   2.0000      -0.389678       -10.6037
  74   2.0000      -0.383116       -10.4251
  75   2.0000      -0.377250       -10.2655
  76   2.0000      -0.362286        -9.8583
  77   2.0000      -0.361080        -9.8255
  78   2.0000      -0.352277        -9.5859
  79   2.0000      -0.350818        -9.5462
  80   2.0000      -0.347992        -9.4694
  81   2.0000      -0.347413        -9.4536
  82   2.0000      -0.344913        -9.3856
  83   2.0000      -0.334978        -9.1152
  84   2.0000      -0.327908        -8.9228
  85   2.0000      -0.325164        -8.8482
  86   2.0000      -0.313558        -8.5324
  87   2.0000      -0.305569        -8.3150
  88   2.0000      -0.294876        -8.0240
  89   2.0000      -0.291748        -7.9389
  90   2.0000      -0.287941        -7.8353
  91   2.0000      -0.279566        -7.6074
  92   2.0000      -0.274935        -7.4814
  93   2.0000      -0.267835        -7.2882
  94   2.0000      -0.257288        -7.0012
  95   2.0000      -0.233699        -6.3593
  96   2.0000      -0.219837        -5.9821
  97   2.0000      -0.213082        -5.7983
  98   2.0000      -0.206620        -5.6224
  99   2.0000      -0.202806        -5.5186
 100   2.0000      -0.198294        -5.3959
 101   0.0000      -0.042089        -1.1453
 102   0.0000      -0.019972        -0.5435
 103   0.0000      -0.008823        -0.2401
 104   0.0000       0.005800         0.1578
 105   0.0000       0.008611         0.2343

MULLIKEN ATOMIC CHARGES
-----------------------
   0 C :   -0.312028
   1 C :   -0.003514
   2 O :   -0.384363
   3 P :    0.613258
   4 S :   -0.316770
   5 O :   -0.384433
   6 C :   -0.002835
   7 C :   -0.323298
   8 S :   -0.055222
   9 C :   -0.376579
  10 S :   -0.080318
  11 P :    0.615268
  12 S :   -0.333399
  13 O :   -0.353373
  14 C :   -0.005048
  15 C :   -0.308671
  16 O :   -0.376362
  17 C :   -0.012871
  18 C :   -0.281275
  19 H :    0.127117
  20 H :    0.129559
  21 H :    0.110220
  22 H :    0.107426
  23 H :    0.107697
  24 H :    0.099270
  25 H :    0.108018
  26 H :    0.135068
  27 H :    0.104153
  28 H :    0.121728
  29 H :    0.188500
  30 H :    0.197762
  31 H :    0.111824
  32 H :    0.116328
  33 H :    0.114300
  34 H :    0.122399
  35 H :    0.116474
  36 H :    0.108233
  37 H :    0.103558
  38 H :    0.120363
  39 H :    0.113962
  40 H :    0.117874
Sum of atomic charges:   -0.0000000

LOEWDIN ATOMIC CHARGES
----------------------
   0 C :   -0.366516
   1 C :   -0.112239
   2 O :   -0.248217
   3 P :    0.566824
   4 S :   -0.316944
   5 O :   -0.248335
   6 C :   -0.122043
   7 C :   -0.371461
   8 S :    0.098258
   9 C :   -0.484095
  10 S :    0.087328
  11 P :    0.571169
  12 S :   -0.319997
  13 O :   -0.227856
  14 C :   -0.115703
  15 C :   -0.364920
  16 O :   -0.246412
  17 C :   -0.119737
  18 C :   -0.350007
  19 H :    0.131555
  20 H :    0.122340
  21 H :    0.129422
  22 H :    0.111755
  23 H :    0.120016
  24 H :    0.116155
  25 H :    0.106848
  26 H :    0.119769
  27 H :    0.127372
  28 H :    0.120019
  29 H :    0.133658
  30 H :    0.130712
  31 H :    0.121166
  32 H :    0.112802
  33 H :    0.131554
  34 H :    0.121482
  35 H :    0.126197
  36 H :    0.109406
  37 H :    0.110685
  38 H :    0.128477
  39 H :    0.131876
  40 H :    0.127638

  Mayer bond orders larger than 0.100000
B(  0-C ,  1-C ) :   1.1716 B(  0-C , 19-H ) :   0.9446 B(  0-C , 20-H ) :   0.9356
B(  0-C , 21-H ) :   0.9356 B(  1-C ,  2-O ) :   0.9026 B(  1-C , 22-H ) :   0.9279
B(  1-C , 23-H ) :   0.9343 B(  2-O ,  3-P ) :   1.0944 B(  3-P ,  4-S ) :   1.6522
B(  3-P ,  5-O ) :   1.0695 B(  3-P ,  8-S ) :   0.9842 B(  5-O ,  6-C ) :   0.9035
B(  6-C ,  7-C ) :   1.1659 B(  6-C , 24-H ) :   0.9318 B(  6-C , 25-H ) :   0.9131
B(  7-C , 26-H ) :   0.9320 B(  7-C , 27-H ) :   0.9379 B(  7-C , 28-H ) :   0.9345
B(  8-S ,  9-C ) :   0.9861 B(  9-C , 10-S ) :   1.0008 B(  9-C , 29-H ) :   0.8920
B(  9-C , 30-H ) :   0.8721 B( 10-S , 11-P ) :   0.9682 B( 10-S , 12-S ) :   0.1099
B( 11-P , 12-S ) :   1.5982 B( 11-P , 13-O ) :   1.1339 B( 11-P , 16-O ) :   1.1110
B( 13-O , 14-C ) :   0.8991 B( 14-C , 15-C ) :   1.1638 B( 14-C , 31-H ) :   0.9323
B( 14-C , 32-H ) :   0.9169 B( 15-C , 33-H ) :   0.9391 B( 15-C , 34-H ) :   0.9351
B( 15-C , 35-H ) :   0.9461 B( 16-O , 17-C ) :   0.9018 B( 17-C , 18-C ) :   1.1612
B( 17-C , 36-H ) :   0.9099 B( 17-C , 37-H ) :   0.9295 B( 18-C , 38-H ) :   0.9514
B( 18-C , 39-H ) :   0.9416 B( 18-C , 40-H ) :   0.9503

Dispersion correction           -0.064291808
FINAL SINGLE POINT ENERGY     -2929.523187447874

DIPOLE MOMENT
-------------

Method             : SCF
Type of density    : Electron Density
Multiplicity       :   1
Irrep              :   0
Energy             : -2929.6447595987633576 Eh
Relativity type    :
Basis              : AO
                                X                 Y                 Z
Electronic contribution:      7.806084063       7.345664664     -12.475768713
Nuclear contribution   :     -8.414573118      -8.932781432      13.118171269
                        -----------------------------------------
Total Dipole Moment    :     -0.608489055      -1.587116768       0.642402556
                        -----------------------------------------
Magnitude (a.u.)       :      1.817107484
Magnitude (Debye)      :      4.618720169

Rotational constants in cm-1:             0.014413             0.004270             0.004089
Rotational constants in MHz :           432.083769           128.007520           122.580999

                             ****ORCA TERMINATED NORMALLY****
TOTAL RUN TIME: 0 days 0 hours 0 minutes 20 seconds 897 msec
