                         Program Version 6.0.0  -   RELEASE  -
|  1> ! pbe def2-sv(p) def2/J RI DEFGRID1 loosescf d4 GCP(DFT/SV(P)) printgap
|  2> %output
|  3>     printlevel normal
|  4> end
|  5> * xyz 0 1
|  6> C 2.552754961 0.6798506142 -2.6969795356
|  7> C 1.7212739245 1.5078375467 -1.7412932886
|  8> O 1.2460781325 0.7248964178 -0.6302884424
|  9> P 2.1950309813 0.295408049 0.564738046
| 10> S 3.5306561605 1.6151270275 1.1155793754
| 11> O 2.7907681252 -1.0899788726 0.0380859557
| 12> C 3.9715929072 -1.6706904687 0.6172345076
| 13> C 3.7155231834 -2.2062701864 2.0116222814
| 14> S 0.7269795082 -0.2263466466 1.9742975798
| 15> C -0.1368853867 -1.5599749191 1.0507271279
| 16> S -1.9194244857 -1.310641121 1.0369468857
| 17> P -2.0168964739 -0.0351350717 -0.670615735
| 18> S -1.0621228141 -0.6568501097 -2.2583692991
| 19> O -1.4794989984 1.3811905244 -0.2248266886
| 20> C -2.0050430718 2.116491545 0.905277865
| 21> C -2.9722121157 3.1862183908 0.4424203028
| 22> O -3.5778738642 0.2319376279 -0.8014763732
| 23> C -4.5952699312 -0.7877038336 -0.7918688179
| 24> C -4.3645386774 -1.8602281058 -1.8351678677
| 25> H 3.4680063043 0.3501095571 -2.2084470967
| 26> H 1.9847649289 -0.1902228666 -3.0190349563
| 27> H 2.8081458601 1.2830296355 -3.562412306
| 28> H 0.806026008 1.8673610338 -2.21524454
| 29> H 2.2959732456 2.3520778202 -1.3460030459
| 30> H 4.244035047 -2.4651225406 -0.0788174262
| 31> H 4.7557046024 -0.906995707 0.639629586
| 32> H 4.6180037895 -2.6809404704 2.3831258602
| 33> H 3.4476014974 -1.3881513804 2.6800423344
| 34> H 2.9074865533 -2.9330499171 1.9996084238
| 35> H 0.0415348195 -2.4966601399 1.5713131204
| 36> H 0.2328750698 -1.5867353524 0.0250076839
| 37> H -2.4867318522 1.4179258328 1.5958366754
| 38> H -1.125981476 2.5518616416 1.38684664
| 39> H -3.3129643002 3.7519257013 1.3039328668
| 40> H -2.4797835774 3.8575387174 -0.2558298419
| 41> H -3.8264806777 2.7314563354 -0.0520872055
| 42> H -4.6300315929 -1.2241637611 0.2100563013
| 43> H -5.5148922223 -0.2334954868 -0.9879799862
| 44> H -3.4542195046 -2.4141301956 -1.6112514309
| 45> H -5.205110764 -2.5465767193 -1.8368384404
| 46> H -4.2611171249 -1.4147052512 -2.8218276688
| 47> *
| 48>
| 49>                          ****END OF INPUT****

CARTESIAN COORDINATES (ANGSTROEM)
---------------------------------
  C      2.552755    0.679851   -2.696980
  C      1.721274    1.507838   -1.741293
  O      1.246078    0.724896   -0.630288
  P      2.195031    0.295408    0.564738
  S      3.530656    1.615127    1.115579
  O      2.790768   -1.089979    0.038086
  C      3.971593   -1.670690    0.617235
  C      3.715523   -2.206270    2.011622
  S      0.726980   -0.226347    1.974298
  C     -0.136885   -1.559975    1.050727
  S     -1.919424   -1.310641    1.036947
  P     -2.016896   -0.035135   -0.670616
  S     -1.062123   -0.656850   -2.258369
  O     -1.479499    1.381191   -0.224827
  C     -2.005043    2.116492    0.905278
  C     -2.972212    3.186218    0.442420
  O     -3.577874    0.231938   -0.801476
  C     -4.595270   -0.787704   -0.791869
  C     -4.364539   -1.860228   -1.835168
  H      3.468006    0.350110   -2.208447
  H      1.984765   -0.190223   -3.019035
  H      2.808146    1.283030   -3.562412
  H      0.806026    1.867361   -2.215245
  H      2.295973    2.352078   -1.346003
  H      4.244035   -2.465123   -0.078817
  H      4.755705   -0.906996    0.639630
  H      4.618004   -2.680940    2.383126
  H      3.447601   -1.388151    2.680042
  H      2.907487   -2.933050    1.999608
  H      0.041535   -2.496660    1.571313
  H      0.232875   -1.586735    0.025008
  H     -2.486732    1.417926    1.595837
  H     -1.125981    2.551862    1.386847
  H     -3.312964    3.751926    1.303933
  H     -2.479784    3.857539   -0.255830
  H     -3.826481    2.731456   -0.052087
  H     -4.630032   -1.224164    0.210056
  H     -5.514892   -0.233495   -0.987980
  H     -3.454220   -2.414130   -1.611251
  H     -5.205111   -2.546577   -1.836838
  H     -4.261117   -1.414705   -2.821828

 Total Charge           Charge          ....    0
 Multiplicity           Mult            ....    1
 Number of Electrons    NEL             ....  202
 Basis Dimension        Dim             ....  334

ORBITAL ENERGIES
----------------

  NO   OCC          E(Eh)            E(eV)
   0   2.0000     -88.051276     -2395.9970
   1   2.0000     -88.041266     -2395.7246
   2   2.0000     -87.985161     -2394.1980
   3   2.0000     -87.985080     -2394.1957
   4   2.0000     -76.429582     -2079.7547
   5   2.0000     -76.421313     -2079.5296
   6   2.0000     -18.801344      -511.6106
   7   2.0000     -18.790886      -511.3260
   8   2.0000     -18.789833      -511.2973
   9   2.0000     -18.778113      -510.9784
  10   2.0000      -9.964752      -271.1547
  11   2.0000      -9.961371      -271.0627
  12   2.0000      -9.951403      -270.7914
  13   2.0000      -9.950892      -270.7775
  14   2.0000      -9.937094      -270.4021
  15   2.0000      -9.887413      -269.0502
  16   2.0000      -9.884995      -268.9844
  17   2.0000      -9.884877      -268.9812
  18   2.0000      -9.871719      -268.6231
  19   2.0000      -7.696293      -209.4268
  20   2.0000      -7.686590      -209.1628
  21   2.0000      -7.630254      -207.6298
  22   2.0000      -7.630245      -207.6295
  23   2.0000      -6.426813      -174.8825
  24   2.0000      -6.419295      -174.6779
  25   2.0000      -5.723997      -155.7579
  26   2.0000      -5.720668      -155.6673
  27   2.0000      -5.714905      -155.5105
  28   2.0000      -5.713589      -155.4747
  29   2.0000      -5.710919      -155.4020
  30   2.0000      -5.703252      -155.1934
  31   2.0000      -5.659336      -153.9984
  32   2.0000      -5.659237      -153.9957
  33   2.0000      -5.650876      -153.7682
  34   2.0000      -5.650854      -153.7676
  35   2.0000      -5.650344      -153.7537
  36   2.0000      -5.650187      -153.7494
  37   2.0000      -4.649687      -126.5244
  38   2.0000      -4.648923      -126.5036
  39   2.0000      -4.646713      -126.4435
  40   2.0000      -4.641583      -126.3039
  41   2.0000      -4.641208      -126.2937
  42   2.0000      -4.639837      -126.2564
  43   2.0000      -0.991968       -26.9928
  44   2.0000      -0.980560       -26.6824
  45   2.0000      -0.947582       -25.7850
  46   2.0000      -0.938866       -25.5479
  47   2.0000      -0.765725       -20.8364
  48   2.0000      -0.722259       -19.6537
  49   2.0000      -0.708748       -19.2860
  50   2.0000      -0.693485       -18.8707
  51   2.0000      -0.684266       -18.6198
  52   2.0000      -0.671255       -18.2658
  53   2.0000      -0.652844       -17.7648
  54   2.0000      -0.639617       -17.4049
  55   2.0000      -0.594775       -16.1847
  56   2.0000      -0.591870       -16.1056
  57   2.0000      -0.574647       -15.6369
  58   2.0000      -0.571839       -15.5605
  59   2.0000      -0.562841       -15.3157
  60   2.0000      -0.504845       -13.7375
  61   2.0000      -0.488471       -13.2920
  62   2.0000      -0.477194       -12.9851
  63   2.0000      -0.467724       -12.7274
  64   2.0000      -0.460185       -12.5223
  65   2.0000      -0.446623       -12.1532
  66   2.0000      -0.441191       -12.0054
  67   2.0000      -0.436724       -11.8839
  68   2.0000      -0.430215       -11.7068
  69   2.0000      -0.417720       -11.3668
  70   2.0000      -0.412077       -11.2132
  71   2.0000      -0.401105       -10.9146
  72   2.0000      -0.393648       -10.7117
  73   2.0000      -0.387470       -10.5436
  74   2.0000      -0.380906       -10.3650
  75   2.0000      -0.373876       -10.1737
  76   2.0000      -0.360283        -9.8038
  77   2.0000      -0.357606        -9.7309
  78   2.0000      -0.351887        -9.5753
  79   2.0000      -0.350669        -9.5422
  80   2.0000      -0.345129        -9.3914
  81   2.0000      -0.343034        -9.3344
  82   2.0000      -0.342434        -9.3181
  83   2.0000      -0.334364        -9.0985
  84   2.0000      -0.328718        -8.9449
  85   2.0000      -0.323457        -8.8017
  86   2.0000      -0.313810        -8.5392
  87   2.0000      -0.301944        -8.2163
  88   2.0000      -0.293144        -7.9769
  89   2.0000      -0.288473        -7.8497
  90   2.0000      -0.281163        -7.6508
  91   2.0000      -0.273932        -7.4541
  92   2.0000      -0.264863        -7.2073
  93   2.0000      -0.263691        -7.1754
  94   2.0000      -0.260813        -7.0971
  95   2.0000      -0.241935        -6.5834
  96   2.0000      -0.219066        -5.9611
  97   2.0000      -0.208058        -5.6616
  98   2.0000      -0.204697        -5.5701
  99   2.0000      -0.201008        -5.4697
 100   2.0000      -0.194653        -5.2968
 101   0.0000      -0.043250        -1.1769
 102   0.0000      -0.030475        -0.8293
 103   0.0000      -0.021178        -0.5763
 104   0.0000       0.003867         0.1052
 105   0.0000       0.018022         0.4904

MULLIKEN ATOMIC CHARGES
-----------------------
   0 C :   -0.306473
   1 C :    0.004294
   2 O :   -0.358280
   3 P :    0.606194
   4 S :   -0.326942
   5 O :   -0.380606
   6 C :   -0.007632
   7 C :   -0.313416
   8 S :   -0.078846
   9 C :   -0.355359
  10 S :   -0.113939
  11 P :    0.607934
  12 S :   -0.301858
  13 O :   -0.344564
  14 C :   -0.013020
  15 C :   -0.284750
  16 O :   -0.378625
  17 C :   -0.017798
  18 C :   -0.307582
  19 H :    0.112752
  20 H :    0.123095
  21 H :    0.106229
  22 H :    0.104975
  23 H :    0.104964
  24 H :    0.105885
  25 H :    0.112370
  26 H :    0.113240
  27 H :    0.129067
  28 H :    0.111397
  29 H :    0.188084
  30 H :    0.206244
  31 H :    0.096071
  32 H :    0.115940
  33 H :    0.109565
  34 H :    0.118885
  35 H :    0.116692
  36 H :    0.116362
  37 H :    0.111792
  38 H :    0.126490
  39 H :    0.112523
  40 H :    0.128647
Sum of atomic charges:    0.0000000

LOEWDIN ATOMIC CHARGES
----------------------
   0 C :   -0.363358
   1 C :   -0.120263
   2 O :   -0.233372
   3 P :    0.565047
   4 S :   -0.322026
   5 O :   -0.247886
   6 C :   -0.121527
   7 C :   -0.367382
   8 S :    0.078885
   9 C :   -0.473314
  10 S :    0.070111
  11 P :    0.578145
  12 S :   -0.295878
  13 O :   -0.224444
  14 C :   -0.119000
  15 C :   -0.358615
  16 O :   -0.244487
  17 C :   -0.115409
  18 C :   -0.369512
  19 H :    0.119125
  20 H :    0.125942
  21 H :    0.127919
  22 H :    0.116199
  23 H :    0.106243
  24 H :    0.118622
  25 H :    0.110152
  26 H :    0.131339
  27 H :    0.122563
  28 H :    0.121339
  29 H :    0.135440
  30 H :    0.130445
  31 H :    0.100878
  32 H :    0.121231
  33 H :    0.129493
  34 H :    0.128175
  35 H :    0.124371
  36 H :    0.108365
  37 H :    0.122331
  38 H :    0.121920
  39 H :    0.130777
  40 H :    0.131417

  Mayer bond orders larger than 0.100000
B(  0-C ,  1-C ) :   1.1684 B(  0-C , 19-H ) :   0.9410 B(  0-C , 20-H ) :   0.9436
B(  0-C , 21-H ) :   0.9400 B(  1-C ,  2-O ) :   0.9002 B(  1-C , 22-H ) :   0.9221
B(  1-C , 23-H ) :   0.9166 B(  2-O ,  3-P ) :   1.1341 B(  3-P ,  4-S ) :   1.6336
B(  3-P ,  5-O ) :   1.0554 B(  3-P ,  8-S ) :   0.9812 B(  5-O ,  6-C ) :   0.9130
B(  6-C ,  7-C ) :   1.1644 B(  6-C , 24-H ) :   0.9335 B(  6-C , 25-H ) :   0.9127
B(  7-C , 26-H ) :   0.9387 B(  7-C , 27-H ) :   0.9346 B(  7-C , 28-H ) :   0.9459
B(  8-S ,  9-C ) :   0.9596 B(  9-C , 10-S ) :   1.0139 B(  9-C , 29-H ) :   0.9080
B(  9-C , 30-H ) :   0.8584 B( 10-S , 11-P ) :   0.9376 B( 10-S , 12-S ) :   0.1066
B( 11-P , 12-S ) :   1.6451 B( 11-P , 13-O ) :   1.1425 B( 11-P , 16-O ) :   1.0809
B( 13-O , 14-C ) :   0.8921 B( 14-C , 15-C ) :   1.1610 B( 14-C , 31-H ) :   0.9116
B( 14-C , 32-H ) :   0.9309 B( 15-C , 33-H ) :   0.9405 B( 15-C , 34-H ) :   0.9474
B( 15-C , 35-H ) :   0.9434 B( 16-O , 17-C ) :   0.9116 B( 17-C , 18-C ) :   1.1670
B( 17-C , 36-H ) :   0.9259 B( 17-C , 37-H ) :   0.9328 B( 18-C , 38-H ) :   0.9320
B( 18-C , 39-H ) :   0.9344 B( 18-C , 40-H ) :   0.9427

Dispersion correction           -0.066727410
FINAL SINGLE POINT ENERGY     -2929.516779538823

DIPOLE MOMENT
-------------

Method             : SCF
Type of density    : Electron Density
Multiplicity       :   1
Irrep              :   0
Energy             : -2929.6376447005573027 Eh
Relativity type    :
Basis              : AO
                                X                 Y                 Z
Electronic contribution:      3.443128851       1.635440422       6.045392917
Nuclear contribution   :     -4.608574536      -2.371685899      -5.800471059
                        -----------------------------------------
Total Dipole Moment    :     -1.165445684      -0.736245477       0.244921858
                        -----------------------------------------
Magnitude (a.u.)       :      1.400109911
Magnitude (Debye)      :      3.558796570

Rotational constants in cm-1:             0.012626             0.005076             0.004942
Rotational constants in MHz :           378.503218           152.173315           148.142538

                             ****ORCA TERMINATED NORMALLY****
TOTAL RUN TIME: 0 days 0 hours 0 minutes 21 seconds 384 msec
