                         Program Version 6.0.0  -   RELEASE  -
|  1> ! pbe def2-sv(p) def2/J RI DEFGRID1 loosescf d4 GCP(DFT/SV(P)) printgap
|  2> %output
|  3>     printlevel normal
|  4> end
|  5> * xyz 0 1
|  6> C 5.3823390563 0.1742556907 -2.2599442949
|  7> C 4.0660979166 -0.5282628407 -1.997213928
|  8> O 3.454478749 0.0917339176 -0.8472710202
|  9> P 1.9147169262 -0.105413932 -0.5293774923
| 10> S 0.7283631526 0.2891117894 -2.0369764077
| 11> O 1.6689616579 0.8483403636 0.6924153443
| 12> C 2.110713554 0.6572495293 2.0609570302
| 13> C 3.600621979 0.4261993302 2.1750506229
| 14> S 1.7979934582 -2.1104829784 0.1626300391
| 15> C 0.0028527001 -2.2736015969 0.0448170566
| 16> S -0.8808057215 -1.3813990628 1.3718178717
| 17> P -1.9895877903 0.151496576 0.4004042208
| 18> S -1.3056695625 1.9926645166 0.3843374798
| 19> O -3.3751699762 0.0163589229 1.1741916005
| 20> C -3.6543064523 0.7097787621 2.4054906921
| 21> C -4.582006745 1.881862945 2.1491148467
| 22> O -2.3138061744 -0.5607337887 -0.9700578923
| 23> C -2.7566885794 0.1766417919 -2.128556139
| 24> C -4.1296074236 0.7751188627 -1.9177503031
| 25> H 6.0322701426 0.082458086 -1.3948445846
| 26> H 5.8617346526 -0.2800301383 -3.1207392098
| 27> H 5.2089010746 1.2278864004 -2.4605283349
| 28> H 4.2146510537 -1.5874239823 -1.7715141329
| 29> H 3.3836190673 -0.4352122481 -2.848747521
| 30> H 1.8025870235 1.586088712 2.544237197
| 31> H 1.5472879748 -0.1800330512 2.4842676694
| 32> H 3.8722117583 0.4126727875 3.2261335295
| 33> H 3.8718865522 -0.5274422169 1.7266558554
| 34> H 4.1436883349 1.2221072899 1.6721659129
| 35> H -0.2229660224 -3.3289897191 0.168711151
| 36> H -0.3325736641 -1.8991381811 -0.9224251346
| 37> H -4.1185459574 -0.035155993 3.0541202287
| 38> H -2.7157940813 1.0515140212 2.8510782268
| 39> H -5.4830047875 1.5422264344 1.6464112091
| 40> H -4.8476929017 2.3410689321 3.0956561827
| 41> H -4.0824010276 2.6200632986 1.5251524123
| 42> H -2.015553368 0.9516419293 -2.3500882233
| 43> H -2.749121867 -0.5674144788 -2.9262913711
| 44> H -4.4645605927 1.2363013663 -2.8414556154
| 45> H -4.8328235656 0.0023595359 -1.6185440554
| 46> H -4.0836845401 1.5341729475 -1.1380287223
| 47> *
| 48>
| 49>                          ****END OF INPUT****

CARTESIAN COORDINATES (ANGSTROEM)
---------------------------------
  C      5.382339    0.174256   -2.259944
  C      4.066098   -0.528263   -1.997214
  O      3.454479    0.091734   -0.847271
  P      1.914717   -0.105414   -0.529377
  S      0.728363    0.289112   -2.036976
  O      1.668962    0.848340    0.692415
  C      2.110714    0.657250    2.060957
  C      3.600622    0.426199    2.175051
  S      1.797993   -2.110483    0.162630
  C      0.002853   -2.273602    0.044817
  S     -0.880806   -1.381399    1.371818
  P     -1.989588    0.151497    0.400404
  S     -1.305670    1.992665    0.384337
  O     -3.375170    0.016359    1.174192
  C     -3.654306    0.709779    2.405491
  C     -4.582007    1.881863    2.149115
  O     -2.313806   -0.560734   -0.970058
  C     -2.756689    0.176642   -2.128556
  C     -4.129607    0.775119   -1.917750
  H      6.032270    0.082458   -1.394845
  H      5.861735   -0.280030   -3.120739
  H      5.208901    1.227886   -2.460528
  H      4.214651   -1.587424   -1.771514
  H      3.383619   -0.435212   -2.848748
  H      1.802587    1.586089    2.544237
  H      1.547288   -0.180033    2.484268
  H      3.872212    0.412673    3.226134
  H      3.871887   -0.527442    1.726656
  H      4.143688    1.222107    1.672166
  H     -0.222966   -3.328990    0.168711
  H     -0.332574   -1.899138   -0.922425
  H     -4.118546   -0.035156    3.054120
  H     -2.715794    1.051514    2.851078
  H     -5.483005    1.542226    1.646411
  H     -4.847693    2.341069    3.095656
  H     -4.082401    2.620063    1.525152
  H     -2.015553    0.951642   -2.350088
  H     -2.749122   -0.567414   -2.926291
  H     -4.464561    1.236301   -2.841456
  H     -4.832824    0.002360   -1.618544
  H     -4.083685    1.534173   -1.138029

 Total Charge           Charge          ....    0
 Multiplicity           Mult            ....    1
 Number of Electrons    NEL             ....  202
 Basis Dimension        Dim             ....  334

ORBITAL ENERGIES
----------------

  NO   OCC          E(Eh)            E(eV)
   0   2.0000     -88.043014     -2395.7722
   1   2.0000     -88.035047     -2395.5554
   2   2.0000     -87.978901     -2394.0276
   3   2.0000     -87.975301     -2393.9297
   4   2.0000     -76.423450     -2079.5878
   5   2.0000     -76.419293     -2079.4747
   6   2.0000     -18.793079      -511.3857
   7   2.0000     -18.787996      -511.2474
   8   2.0000     -18.787132      -511.2239
   9   2.0000     -18.780532      -511.0443
  10   2.0000      -9.956066      -270.9183
  11   2.0000      -9.952827      -270.8302
  12   2.0000      -9.949301      -270.7342
  13   2.0000      -9.948338      -270.7080
  14   2.0000      -9.945051      -270.6186
  15   2.0000      -9.888509      -269.0800
  16   2.0000      -9.884537      -268.9719
  17   2.0000      -9.878270      -268.8014
  18   2.0000      -9.878080      -268.7962
  19   2.0000      -7.688300      -209.2093
  20   2.0000      -7.680412      -208.9946
  21   2.0000      -7.623977      -207.4590
  22   2.0000      -7.620261      -207.3578
  23   2.0000      -6.420918      -174.7221
  24   2.0000      -6.416740      -174.6084
  25   2.0000      -5.715999      -155.5402
  26   2.0000      -5.712686      -155.4501
  27   2.0000      -5.708701      -155.3417
  28   2.0000      -5.705564      -155.2563
  29   2.0000      -5.704690      -155.2325
  30   2.0000      -5.697115      -155.0264
  31   2.0000      -5.652847      -153.8218
  32   2.0000      -5.649288      -153.7249
  33   2.0000      -5.644605      -153.5975
  34   2.0000      -5.644090      -153.5835
  35   2.0000      -5.641186      -153.5045
  36   2.0000      -5.640042      -153.4734
  37   2.0000      -4.643634      -126.3597
  38   2.0000      -4.642932      -126.3406
  39   2.0000      -4.640999      -126.2880
  40   2.0000      -4.639285      -126.2414
  41   2.0000      -4.638596      -126.2226
  42   2.0000      -4.637156      -126.1834
  43   2.0000      -0.985709       -26.8225
  44   2.0000      -0.980567       -26.6826
  45   2.0000      -0.943614       -25.6770
  46   2.0000      -0.939280       -25.5591
  47   2.0000      -0.759508       -20.6673
  48   2.0000      -0.718275       -19.5452
  49   2.0000      -0.707599       -19.2547
  50   2.0000      -0.690853       -18.7991
  51   2.0000      -0.681563       -18.5463
  52   2.0000      -0.669086       -18.2067
  53   2.0000      -0.646639       -17.5959
  54   2.0000      -0.630089       -17.1456
  55   2.0000      -0.594359       -16.1733
  56   2.0000      -0.588452       -16.0126
  57   2.0000      -0.567861       -15.4523
  58   2.0000      -0.565164       -15.3789
  59   2.0000      -0.561992       -15.2926
  60   2.0000      -0.503934       -13.7127
  61   2.0000      -0.493720       -13.4348
  62   2.0000      -0.472491       -12.8571
  63   2.0000      -0.471247       -12.8233
  64   2.0000      -0.451757       -12.2929
  65   2.0000      -0.445247       -12.1158
  66   2.0000      -0.433880       -11.8065
  67   2.0000      -0.431391       -11.7388
  68   2.0000      -0.427829       -11.6418
  69   2.0000      -0.415603       -11.3091
  70   2.0000      -0.407092       -11.0775
  71   2.0000      -0.397583       -10.8188
  72   2.0000      -0.394504       -10.7350
  73   2.0000      -0.379528       -10.3275
  74   2.0000      -0.376094       -10.2340
  75   2.0000      -0.371446       -10.1076
  76   2.0000      -0.363329        -9.8867
  77   2.0000      -0.356652        -9.7050
  78   2.0000      -0.350532        -9.5385
  79   2.0000      -0.347877        -9.4662
  80   2.0000      -0.347299        -9.4505
  81   2.0000      -0.343977        -9.3601
  82   2.0000      -0.336581        -9.1588
  83   2.0000      -0.333909        -9.0861
  84   2.0000      -0.324943        -8.8421
  85   2.0000      -0.313841        -8.5400
  86   2.0000      -0.309687        -8.4270
  87   2.0000      -0.298926        -8.1342
  88   2.0000      -0.291345        -7.9279
  89   2.0000      -0.286318        -7.7911
  90   2.0000      -0.280537        -7.6338
  91   2.0000      -0.270344        -7.3564
  92   2.0000      -0.268578        -7.3084
  93   2.0000      -0.260703        -7.0941
  94   2.0000      -0.253902        -6.9090
  95   2.0000      -0.238344        -6.4857
  96   2.0000      -0.216505        -5.8914
  97   2.0000      -0.209883        -5.7112
  98   2.0000      -0.197984        -5.3874
  99   2.0000      -0.188961        -5.1419
 100   2.0000      -0.175364        -4.7719
 101   0.0000      -0.043108        -1.1730
 102   0.0000      -0.025258        -0.6873
 103   0.0000      -0.019127        -0.5205
 104   0.0000       0.007093         0.1930
 105   0.0000       0.025725         0.7000

MULLIKEN ATOMIC CHARGES
-----------------------
   0 C :   -0.280910
   1 C :   -0.011880
   2 O :   -0.375190
   3 P :    0.603685
   4 S :   -0.315941
   5 O :   -0.337243
   6 C :    0.000156
   7 C :   -0.308385
   8 S :   -0.118217
   9 C :   -0.348311
  10 S :   -0.116487
  11 P :    0.611758
  12 S :   -0.303090
  13 O :   -0.375434
  14 C :   -0.005345
  15 C :   -0.291423
  16 O :   -0.369525
  17 C :   -0.008008
  18 C :   -0.309576
  19 H :    0.114883
  20 H :    0.112402
  21 H :    0.123561
  22 H :    0.101259
  23 H :    0.106435
  24 H :    0.111105
  25 H :    0.114664
  26 H :    0.112570
  27 H :    0.114355
  28 H :    0.122311
  29 H :    0.182807
  30 H :    0.209518
  31 H :    0.103294
  32 H :    0.096225
  33 H :    0.113040
  34 H :    0.105623
  35 H :    0.127579
  36 H :    0.129012
  37 H :    0.102638
  38 H :    0.110862
  39 H :    0.114744
  40 H :    0.130478
Sum of atomic charges:   -0.0000000

LOEWDIN ATOMIC CHARGES
----------------------
   0 C :   -0.350436
   1 C :   -0.121233
   2 O :   -0.243062
   3 P :    0.569927
   4 S :   -0.302066
   5 O :   -0.218961
   6 C :   -0.112778
   7 C :   -0.366975
   8 S :    0.057360
   9 C :   -0.474286
  10 S :    0.061506
  11 P :    0.566362
  12 S :   -0.303607
  13 O :   -0.251808
  14 C :   -0.118109
  15 C :   -0.360987
  16 O :   -0.233445
  17 C :   -0.117040
  18 C :   -0.366073
  19 H :    0.125886
  20 H :    0.131175
  21 H :    0.130507
  22 H :    0.108302
  23 H :    0.109127
  24 H :    0.123749
  25 H :    0.104728
  26 H :    0.130984
  27 H :    0.116325
  28 H :    0.128081
  29 H :    0.137939
  30 H :    0.130780
  31 H :    0.115954
  32 H :    0.105106
  33 H :    0.124620
  34 H :    0.127554
  35 H :    0.124908
  36 H :    0.112212
  37 H :    0.118117
  38 H :    0.130427
  39 H :    0.125382
  40 H :    0.123848

  Mayer bond orders larger than 0.100000
B(  0-C ,  1-C ) :   1.1603 B(  0-C , 19-H ) :   0.9513 B(  0-C , 20-H ) :   0.9418
B(  0-C , 21-H ) :   0.9504 B(  1-C ,  2-O ) :   0.9020 B(  1-C , 22-H ) :   0.9294
B(  1-C , 23-H ) :   0.9072 B(  2-O ,  3-P ) :   1.0949 B(  3-P ,  4-S ) :   1.6263
B(  3-P ,  5-O ) :   1.1745 B(  3-P ,  8-S ) :   0.9344 B(  4-S ,  8-S ) :   0.1058
B(  5-O ,  6-C ) :   0.8928 B(  6-C ,  7-C ) :   1.1683 B(  6-C , 24-H ) :   0.9330
B(  6-C , 25-H ) :   0.9115 B(  7-C , 26-H ) :   0.9364 B(  7-C , 27-H ) :   0.9391
B(  7-C , 28-H ) :   0.9429 B(  8-S ,  9-C ) :   1.0050 B(  9-C , 10-S ) :   1.0008
B(  9-C , 29-H ) :   0.9103 B(  9-C , 30-H ) :   0.8598 B( 10-S , 11-P ) :   0.9368
B( 10-S , 12-S ) :   0.1038 B( 11-P , 12-S ) :   1.6367 B( 11-P , 13-O ) :   1.0856
B( 11-P , 16-O ) :   1.1303 B( 13-O , 14-C ) :   0.9104 B( 14-C , 15-C ) :   1.1710
B( 14-C , 31-H ) :   0.9336 B( 14-C , 32-H ) :   0.9106 B( 15-C , 33-H ) :   0.9472
B( 15-C , 34-H ) :   0.9398 B( 15-C , 35-H ) :   0.9326 B( 16-O , 17-C ) :   0.8907
B( 17-C , 18-C ) :   1.1637 B( 17-C , 36-H ) :   0.9113 B( 17-C , 37-H ) :   0.9361
B( 18-C , 38-H ) :   0.9380 B( 18-C , 39-H ) :   0.9446 B( 18-C , 40-H ) :   0.9316

Dispersion correction           -0.067089464
FINAL SINGLE POINT ENERGY     -2929.511959358342

DIPOLE MOMENT
-------------

Method             : SCF
Type of density    : Electron Density
Multiplicity       :   1
Irrep              :   0
Energy             : -2929.6300602648216227 Eh
Relativity type    :
Basis              : AO
                                X                 Y                 Z
Electronic contribution:      0.310255872      -7.235032231      -0.310656085
Nuclear contribution   :      0.039409703       6.538510907       0.683589731
                        -----------------------------------------
Total Dipole Moment    :      0.349665575      -0.696521324       0.372933646
                        -----------------------------------------
Magnitude (a.u.)       :      0.863995065
Magnitude (Debye)      :      2.196100929

Rotational constants in cm-1:             0.013719             0.005022             0.004648
Rotational constants in MHz :           411.290889           150.559727           139.331447

                             ****ORCA TERMINATED NORMALLY****
TOTAL RUN TIME: 0 days 0 hours 0 minutes 21 seconds 142 msec
