                         Program Version 6.0.0  -   RELEASE  -
|  1> ! wb97x-v def2-tzvp def2/J RIJCOSX DEFGRID2 scfconv7 GCP(DFT/TZ) printgap
|  2> %output
|  3>     printlevel normal
|  4> end
|  5> * xyz 0 1
|  6> C -0.2449852795487488 0.0025202087908247433 0.00998835694516159
|  7> N 1.3772688183790693 -0.01688815499199289 -0.25070394192643164
|  8> O 1.8859837397827652 -1.109131934926744 -0.30513215565066176
|  9> O 1.9111099843703436 1.0635571053570017 -0.30245134694415005
| 10> Cl -0.9083449053843525 1.4618725336411083 -0.7102110094954609
| 11> Cl -0.9417229784759539 -1.4497567537374074 -0.6922071266998905
| 12> Cl -0.39616312519473446 0.015101275078115466 1.7790364530559035
| 13> *
| 14>
| 15>                          ****END OF INPUT****

CARTESIAN COORDINATES (ANGSTROEM)
---------------------------------
  C     -0.244985    0.002520    0.009988
  N      1.377269   -0.016888   -0.250704
  O      1.885984   -1.109132   -0.305132
  O      1.911110    1.063557   -0.302451
  Cl    -0.908345    1.461873   -0.710211
  Cl    -0.941723   -1.449757   -0.692207
  Cl    -0.396163    0.015101    1.779036

 Total Charge           Charge          ....    0
 Multiplicity           Mult            ....    1
 Number of Electrons    NEL             ....   80
 Basis Dimension        Dim             ....  235

ORBITAL ENERGIES
----------------

  NO   OCC          E(Eh)            E(eV)
   0   2.0000    -107.196327     -2916.9604
   1   2.0000    -107.195516     -2916.9383
   2   2.0000    -107.195505     -2916.9380
   3   2.0000     -21.748060      -591.7948
   4   2.0000     -21.747930      -591.7913
   5   2.0000     -16.807607      -457.3582
   6   2.0000     -12.303867      -334.8052
   7   2.0000     -11.349605      -308.8385
   8   2.0000     -11.348939      -308.8203
   9   2.0000     -11.348732      -308.8147
  10   2.0000      -9.141815      -248.7614
  11   2.0000      -9.141336      -248.7484
  12   2.0000      -9.139465      -248.6975
  13   2.0000      -9.138415      -248.6689
  14   2.0000      -9.138068      -248.6595
  15   2.0000      -9.137577      -248.6461
  16   2.0000      -9.136980      -248.6299
  17   2.0000      -9.136594      -248.6194
  18   2.0000      -9.136508      -248.6170
  19   2.0000      -1.953054       -53.1453
  20   2.0000      -1.805609       -49.1331
  21   2.0000      -1.529154       -41.6104
  22   2.0000      -1.440091       -39.1869
  23   2.0000      -1.439458       -39.1696
  24   2.0000      -1.342086       -36.5200
  25   2.0000      -1.221888       -33.2493
  26   2.0000      -1.178891       -32.0793
  27   2.0000      -1.119522       -30.4638
  28   2.0000      -1.117516       -30.4092
  29   2.0000      -0.998278       -27.1645
  30   2.0000      -0.991365       -26.9764
  31   2.0000      -0.956811       -26.0362
  32   2.0000      -0.935021       -25.4432
  33   2.0000      -0.931529       -25.3482
  34   2.0000      -0.854218       -23.2444
  35   2.0000      -0.853427       -23.2229
  36   2.0000      -0.844652       -22.9841
  37   2.0000      -0.835453       -22.7338
  38   2.0000      -0.834896       -22.7187
  39   2.0000      -0.826447       -22.4888
  40   0.0000      -0.506956       -13.7950
  41   0.0000      -0.409479       -11.1425
  42   0.0000      -0.334685        -9.1072
  43   0.0000      -0.308533        -8.3956
  44   0.0000      -0.301772        -8.2116

MULLIKEN ATOMIC CHARGES
-----------------------
   0 C :    0.074803
   1 N :    0.396384
   2 O :   -0.255113
   3 O :   -0.255327
   4 Cl:    0.020855
   5 Cl:    0.021189
   6 Cl:   -0.002790
Sum of atomic charges:    0.0000000

LOEWDIN ATOMIC CHARGES
----------------------
   0 C :   -1.105113
   1 N :   -0.108783
   2 O :    0.007652
   3 O :    0.007443
   4 Cl:    0.407897
   5 Cl:    0.408252
   6 Cl:    0.382652

  Mayer bond orders larger than 0.100000
B(  0-C ,  1-N ) :   0.8313 B(  0-C ,  4-Cl) :   1.2124 B(  0-C ,  5-Cl) :   1.2130
B(  0-C ,  6-Cl) :   1.1709 B(  1-N ,  2-O ) :   1.7038 B(  1-N ,  3-O ) :   1.7042
B(  2-O ,  3-O ) :   0.2174

FINAL SINGLE POINT ENERGY     -1623.630928772957

DIPOLE MOMENT
-------------

Method             : SCF
Type of density    : Electron Density
Multiplicity       :   1
Irrep              :   0
Energy             : -1623.6362164101565213 Eh
Relativity type    :
Basis              : AO
                                X                 Y                 Z
Electronic contribution:     -3.828709055       0.045046961       0.581657183
Nuclear contribution   :      3.017041262      -0.036581784      -0.510041130
                        -----------------------------------------
Total Dipole Moment    :     -0.811667793       0.008465178       0.071616053
                        -----------------------------------------
Magnitude (a.u.)       :      0.814865096
Magnitude (Debye)      :      2.071222472

Rotational constants in cm-1:             0.049744             0.046858             0.042461
Rotational constants in MHz :          1491.282518          1404.757106          1272.950700

                             ****ORCA TERMINATED NORMALLY****
TOTAL RUN TIME: 0 days 0 hours 1 minutes 6 seconds 729 msec
