                         Program Version 6.0.0  -   RELEASE  -
|  1> ! wb97x-v def2-tzvp def2/J RIJCOSX DEFGRID2 scfconv7 GCP(DFT/TZ) printgap
|  2> %output
|  3>     printlevel normal
|  4> end
|  5> %cpcm
|  6>     smd true
|  7>     smdsolvent "water"
|  8> end
|  9> * xyz 0 1
| 10> C -0.2449852795487488 0.0025202087908247433 0.00998835694516159
| 11> N 1.3772688183790693 -0.01688815499199289 -0.25070394192643164
| 12> O 1.8859837397827652 -1.109131934926744 -0.30513215565066176
| 13> O 1.9111099843703436 1.0635571053570017 -0.30245134694415005
| 14> Cl -0.9083449053843525 1.4618725336411083 -0.7102110094954609
| 15> Cl -0.9417229784759539 -1.4497567537374074 -0.6922071266998905
| 16> Cl -0.39616312519473446 0.015101275078115466 1.7790364530559035
| 17> *
| 18>
| 19>                          ****END OF INPUT****

CARTESIAN COORDINATES (ANGSTROEM)
---------------------------------
  C     -0.244985    0.002520    0.009988
  N      1.377269   -0.016888   -0.250704
  O      1.885984   -1.109132   -0.305132
  O      1.911110    1.063557   -0.302451
  Cl    -0.908345    1.461873   -0.710211
  Cl    -0.941723   -1.449757   -0.692207
  Cl    -0.396163    0.015101    1.779036

 Total Charge           Charge          ....    0
 Multiplicity           Mult            ....    1
 Number of Electrons    NEL             ....   80
 Basis Dimension        Dim             ....  235

ORBITAL ENERGIES
----------------

  NO   OCC          E(Eh)            E(eV)
   0   2.0000    -107.192959     -2916.8687
   1   2.0000    -107.192436     -2916.8545
   2   2.0000    -107.192424     -2916.8541
   3   2.0000     -21.754194      -591.9617
   4   2.0000     -21.754073      -591.9584
   5   2.0000     -16.812600      -457.4941
   6   2.0000     -12.302622      -334.7714
   7   2.0000     -11.346165      -308.7448
   8   2.0000     -11.345795      -308.7348
   9   2.0000     -11.345578      -308.7289
  10   2.0000      -9.138452      -248.6699
  11   2.0000      -9.138183      -248.6626
  12   2.0000      -9.136242      -248.6098
  13   2.0000      -9.135090      -248.5784
  14   2.0000      -9.134657      -248.5667
  15   2.0000      -9.134418      -248.5601
  16   2.0000      -9.133667      -248.5397
  17   2.0000      -9.133385      -248.5320
  18   2.0000      -9.133331      -248.5306
  19   2.0000      -1.958496       -53.2934
  20   2.0000      -1.811547       -49.2947
  21   2.0000      -1.526469       -41.5373
  22   2.0000      -1.436840       -39.0984
  23   2.0000      -1.435927       -39.0736
  24   2.0000      -1.346507       -36.6403
  25   2.0000      -1.226039       -33.3622
  26   2.0000      -1.187262       -32.3070
  27   2.0000      -1.123680       -30.5769
  28   2.0000      -1.117211       -30.4009
  29   2.0000      -0.996360       -27.1123
  30   2.0000      -0.988257       -26.8918
  31   2.0000      -0.963238       -26.2110
  32   2.0000      -0.942215       -25.6390
  33   2.0000      -0.935542       -25.4574
  34   2.0000      -0.851099       -23.1596
  35   2.0000      -0.849856       -23.1258
  36   2.0000      -0.843251       -22.9460
  37   2.0000      -0.831722       -22.6323
  38   2.0000      -0.831659       -22.6306
  39   2.0000      -0.822951       -22.3936
  40   0.0000      -0.511477       -13.9180
  41   0.0000      -0.407252       -11.0819
  42   0.0000      -0.332877        -9.0580
  43   0.0000      -0.306021        -8.3273
  44   0.0000      -0.299039        -8.1373

MULLIKEN ATOMIC CHARGES
-----------------------
   0 C :    0.072814
   1 N :    0.445506
   2 O :   -0.289057
   3 O :   -0.289481
   4 Cl:    0.026357
   5 Cl:    0.026659
   6 Cl:    0.007202
Sum of atomic charges:    0.0000000

LOEWDIN ATOMIC CHARGES
----------------------
   0 C :   -1.102659
   1 N :   -0.096554
   2 O :   -0.008612
   3 O :   -0.009025
   4 Cl:    0.413373
   5 Cl:    0.413726
   6 Cl:    0.389751

  Mayer bond orders larger than 0.100000
B(  0-C ,  1-N ) :   0.8298 B(  0-C ,  4-Cl) :   1.2152 B(  0-C ,  5-Cl) :   1.2159
B(  0-C ,  6-Cl) :   1.1789 B(  1-N ,  2-O ) :   1.6863 B(  1-N ,  3-O ) :   1.6863
B(  2-O ,  3-O ) :   0.2183

FINAL SINGLE POINT ENERGY     -1623.627975018662

DIPOLE MOMENT
-------------

Method             : SCF
Type of density    : Electron Density
Multiplicity       :   1
Irrep              :   0
Energy             : -1623.6332626558621541 Eh
Relativity type    :
Basis              : AO
                                X                 Y                 Z
Electronic contribution:     -4.017272982       0.046339612       0.588839145
Nuclear contribution   :      3.017041262      -0.036581784      -0.510041130
                        -----------------------------------------
Total Dipole Moment    :     -1.000231719       0.009757828       0.078798015
                        -----------------------------------------
Magnitude (a.u.)       :      1.003378211
Magnitude (Debye)      :      2.550384731

Rotational constants in cm-1:             0.049744             0.046858             0.042461
Rotational constants in MHz :          1491.282518          1404.757106          1272.950700

                             ****ORCA TERMINATED NORMALLY****
TOTAL RUN TIME: 0 days 0 hours 1 minutes 9 seconds 326 msec
