                         Program Version 6.0.0  -   RELEASE  -
|  1> ! pbe def2-sv(p) def2/J RI DEFGRID1 loosescf d4 GCP(DFT/SV(P)) printgap
|  2> %output
|  3>     printlevel normal
|  4> end
|  5> * xyz 0 1
|  6> C 2.3852716444 0.9428282583 -2.7902495603
|  7> C 1.7683977922 1.3770600341 -1.4757782434
|  8> O 1.7539119345 0.2512691306 -0.5837519327
|  9> P 2.2168658813 0.3114897283 0.9412244734
| 10> S 3.5198469999 1.7242513254 1.3140071187
| 11> O 2.6734541112 -1.1816694081 1.2222161837
| 12> C 3.8780978036 -1.715440613 0.6249890065
| 13> C 3.5478844636 -2.5303263169 -0.6093026938
| 14> S 0.4772874752 0.3102372546 2.1081506275
| 15> C -0.296631622 -1.2377544423 1.4818478141
| 16> S -2.068747852 -1.046206938 1.2422820724
| 17> P -1.9433800572 -0.1373422199 -0.6864464113
| 18> S -0.847320999 -1.0723900312 -2.0046796752
| 19> O -1.4096348005 1.325385213 -0.4063534768
| 20> C -2.0716693015 2.2606097299 0.4808177604
| 21> C -2.9614085289 3.2046127314 -0.3004038947
| 22> O -3.4586904488 0.1102605136 -1.0905197152
| 23> C -4.2493768714 -0.8855005356 -1.7653747193
| 24> C -4.4964210925 -2.1060141315 -0.9032918064
| 25> H 1.8201519866 0.1096841881 -3.2018206588
| 26> H 2.3565264318 1.7741052379 -3.4868675625
| 27> H 3.417522895 0.6372198626 -2.6394690199
| 28> H 0.7315530179 1.6929897504 -1.612794323
| 29> H 2.342240541 2.1868567126 -1.0121683356
| 30> H 4.5534016811 -0.8855221321 0.3920383206
| 31> H 4.322908271 -2.3352010542 1.40577635
| 32> H 4.4665566616 -2.9247869207 -1.0318466421
| 33> H 2.8906517473 -3.35505029 -0.3475840696
| 34> H 3.0486108313 -1.9125989325 -1.3521086288
| 35> H -0.1523328949 -2.0131142908 2.2285398683
| 36> H 0.1673017202 -1.5022841417 0.5307321793
| 37> H -2.643812073 1.6998354886 1.2249465824
| 38> H -1.2570039678 2.7926507037 0.9774969638
| 39> H -3.7623888492 2.6529195165 -0.7848943676
| 40> H -3.3886015454 3.9315140018 0.3832874485
| 41> H -2.3823713573 3.7245700026 -1.0588242562
| 42> H -5.1782520588 -0.3638475842 -2.0001252873
| 43> H -3.7355035574 -1.1642367925 -2.6903368391
| 44> H -3.5662106308 -2.6505807749 -0.7501624531
| 45> H -4.8933825541 -1.8123136263 0.0651820603
| 46> H -5.206819734 -2.7576770712 -1.4018472979
| 47> *
| 48>
| 49>                          ****END OF INPUT****

CARTESIAN COORDINATES (ANGSTROEM)
---------------------------------
  C      2.385272    0.942828   -2.790250
  C      1.768398    1.377060   -1.475778
  O      1.753912    0.251269   -0.583752
  P      2.216866    0.311490    0.941224
  S      3.519847    1.724251    1.314007
  O      2.673454   -1.181669    1.222216
  C      3.878098   -1.715441    0.624989
  C      3.547884   -2.530326   -0.609303
  S      0.477287    0.310237    2.108151
  C     -0.296632   -1.237754    1.481848
  S     -2.068748   -1.046207    1.242282
  P     -1.943380   -0.137342   -0.686446
  S     -0.847321   -1.072390   -2.004680
  O     -1.409635    1.325385   -0.406353
  C     -2.071669    2.260610    0.480818
  C     -2.961409    3.204613   -0.300404
  O     -3.458690    0.110261   -1.090520
  C     -4.249377   -0.885501   -1.765375
  C     -4.496421   -2.106014   -0.903292
  H      1.820152    0.109684   -3.201821
  H      2.356526    1.774105   -3.486868
  H      3.417523    0.637220   -2.639469
  H      0.731553    1.692990   -1.612794
  H      2.342241    2.186857   -1.012168
  H      4.553402   -0.885522    0.392038
  H      4.322908   -2.335201    1.405776
  H      4.466557   -2.924787   -1.031847
  H      2.890652   -3.355050   -0.347584
  H      3.048611   -1.912599   -1.352109
  H     -0.152333   -2.013114    2.228540
  H      0.167302   -1.502284    0.530732
  H     -2.643812    1.699835    1.224947
  H     -1.257004    2.792651    0.977497
  H     -3.762389    2.652920   -0.784894
  H     -3.388602    3.931514    0.383287
  H     -2.382371    3.724570   -1.058824
  H     -5.178252   -0.363848   -2.000125
  H     -3.735504   -1.164237   -2.690337
  H     -3.566211   -2.650581   -0.750162
  H     -4.893383   -1.812314    0.065182
  H     -5.206820   -2.757677   -1.401847

 Total Charge           Charge          ....    0
 Multiplicity           Mult            ....    1
 Number of Electrons    NEL             ....  202
 Basis Dimension        Dim             ....  334

ORBITAL ENERGIES
----------------

  NO   OCC          E(Eh)            E(eV)
   0   2.0000     -88.051753     -2396.0100
   1   2.0000     -88.038379     -2395.6461
   2   2.0000     -87.993151     -2394.4154
   3   2.0000     -87.980580     -2394.0733
   4   2.0000     -76.434118     -2079.8781
   5   2.0000     -76.419659     -2079.4846
   6   2.0000     -18.805677      -511.7285
   7   2.0000     -18.798009      -511.5198
   8   2.0000     -18.788121      -511.2508
   9   2.0000     -18.781851      -511.0801
  10   2.0000      -9.962471      -271.0926
  11   2.0000      -9.958316      -270.9796
  12   2.0000      -9.956023      -270.9172
  13   2.0000      -9.950339      -270.7625
  14   2.0000      -9.935114      -270.3482
  15   2.0000      -9.892686      -269.1937
  16   2.0000      -9.888430      -269.0779
  17   2.0000      -9.882240      -268.9094
  18   2.0000      -9.874782      -268.7065
  19   2.0000      -7.696696      -209.4377
  20   2.0000      -7.683854      -209.0883
  21   2.0000      -7.638179      -207.8454
  22   2.0000      -7.625854      -207.5101
  23   2.0000      -6.431677      -175.0148
  24   2.0000      -6.417778      -174.6366
  25   2.0000      -5.724450      -155.7702
  26   2.0000      -5.721203      -155.6818
  27   2.0000      -5.713820      -155.4809
  28   2.0000      -5.712173      -155.4361
  29   2.0000      -5.708177      -155.3274
  30   2.0000      -5.700492      -155.1183
  31   2.0000      -5.667146      -154.2109
  32   2.0000      -5.658677      -153.9804
  33   2.0000      -5.658357      -153.9717
  34   2.0000      -5.654806      -153.8751
  35   2.0000      -5.646676      -153.6539
  36   2.0000      -5.645749      -153.6286
  37   2.0000      -4.654628      -126.6589
  38   2.0000      -4.653398      -126.6254
  39   2.0000      -4.651830      -126.5827
  40   2.0000      -4.640262      -126.2679
  41   2.0000      -4.639689      -126.2523
  42   2.0000      -4.638124      -126.2098
  43   2.0000      -0.996927       -27.1278
  44   2.0000      -0.980154       -26.6713
  45   2.0000      -0.953830       -25.9550
  46   2.0000      -0.937265       -25.5043
  47   2.0000      -0.765529       -20.8311
  48   2.0000      -0.725031       -19.7291
  49   2.0000      -0.710635       -19.3374
  50   2.0000      -0.696983       -18.9659
  51   2.0000      -0.680997       -18.5309
  52   2.0000      -0.674169       -18.3451
  53   2.0000      -0.653545       -17.7839
  54   2.0000      -0.637466       -17.3463
  55   2.0000      -0.602921       -16.4063
  56   2.0000      -0.587839       -15.9959
  57   2.0000      -0.579485       -15.7686
  58   2.0000      -0.563966       -15.3463
  59   2.0000      -0.559778       -15.2323
  60   2.0000      -0.506639       -13.7863
  61   2.0000      -0.496008       -13.4971
  62   2.0000      -0.482234       -13.1222
  63   2.0000      -0.474260       -12.9053
  64   2.0000      -0.459382       -12.5004
  65   2.0000      -0.452592       -12.3157
  66   2.0000      -0.444356       -12.0916
  67   2.0000      -0.434788       -11.8312
  68   2.0000      -0.426181       -11.5970
  69   2.0000      -0.418635       -11.3916
  70   2.0000      -0.411549       -11.1988
  71   2.0000      -0.397579       -10.8187
  72   2.0000      -0.393504       -10.7078
  73   2.0000      -0.386523       -10.5178
  74   2.0000      -0.376329       -10.2404
  75   2.0000      -0.373410       -10.1610
  76   2.0000      -0.368521       -10.0280
  77   2.0000      -0.360586        -9.8120
  78   2.0000      -0.359402        -9.7798
  79   2.0000      -0.352339        -9.5876
  80   2.0000      -0.349975        -9.5233
  81   2.0000      -0.347257        -9.4494
  82   2.0000      -0.340421        -9.2633
  83   2.0000      -0.334942        -9.1142
  84   2.0000      -0.327344        -8.9075
  85   2.0000      -0.323040        -8.7904
  86   2.0000      -0.311687        -8.4814
  87   2.0000      -0.303555        -8.2602
  88   2.0000      -0.297788        -8.1032
  89   2.0000      -0.288032        -7.8377
  90   2.0000      -0.281354        -7.6560
  91   2.0000      -0.276163        -7.5148
  92   2.0000      -0.272498        -7.4151
  93   2.0000      -0.270808        -7.3691
  94   2.0000      -0.256946        -6.9919
  95   2.0000      -0.240694        -6.5496
  96   2.0000      -0.218480        -5.9451
  97   2.0000      -0.212079        -5.7710
  98   2.0000      -0.209000        -5.6872
  99   2.0000      -0.201982        -5.4962
 100   2.0000      -0.193238        -5.2583
 101   0.0000      -0.043170        -1.1747
 102   0.0000      -0.027624        -0.7517
 103   0.0000      -0.019223        -0.5231
 104   0.0000       0.004384         0.1193
 105   0.0000       0.018344         0.4992

MULLIKEN ATOMIC CHARGES
-----------------------
   0 C :   -0.294433
   1 C :   -0.016009
   2 O :   -0.376173
   3 P :    0.610271
   4 S :   -0.323722
   5 O :   -0.381870
   6 C :   -0.008646
   7 C :   -0.303363
   8 S :   -0.080273
   9 C :   -0.361983
  10 S :   -0.092922
  11 P :    0.603700
  12 S :   -0.300471
  13 O :   -0.355293
  14 C :   -0.013410
  15 C :   -0.285037
  16 O :   -0.378259
  17 C :   -0.002173
  18 C :   -0.325776
  19 H :    0.125510
  20 H :    0.106687
  21 H :    0.107427
  22 H :    0.111585
  23 H :    0.102601
  24 H :    0.102263
  25 H :    0.109082
  26 H :    0.109283
  27 H :    0.114401
  28 H :    0.135002
  29 H :    0.190078
  30 H :    0.208160
  31 H :    0.102165
  32 H :    0.116429
  33 H :    0.119217
  34 H :    0.111902
  35 H :    0.118304
  36 H :    0.108204
  37 H :    0.115260
  38 H :    0.132592
  39 H :    0.120748
  40 H :    0.118943
Sum of atomic charges:    0.0000000

LOEWDIN ATOMIC CHARGES
----------------------
   0 C :   -0.355321
   1 C :   -0.128741
   2 O :   -0.241925
   3 P :    0.561246
   4 S :   -0.322965
   5 O :   -0.250694
   6 C :   -0.115075
   7 C :   -0.361707
   8 S :    0.078363
   9 C :   -0.475502
  10 S :    0.084646
  11 P :    0.578774
  12 S :   -0.295677
  13 O :   -0.229821
  14 C :   -0.120386
  15 C :   -0.358948
  16 O :   -0.243757
  17 C :   -0.116628
  18 C :   -0.372293
  19 H :    0.123900
  20 H :    0.128322
  21 H :    0.120547
  22 H :    0.109835
  23 H :    0.101688
  24 H :    0.108096
  25 H :    0.120043
  26 H :    0.129124
  27 H :    0.125646
  28 H :    0.129483
  29 H :    0.138910
  30 H :    0.127413
  31 H :    0.103325
  32 H :    0.120183
  33 H :    0.124932
  34 H :    0.131015
  35 H :    0.127754
  36 H :    0.120039
  37 H :    0.114277
  38 H :    0.123136
  39 H :    0.124451
  40 H :    0.134294

  Mayer bond orders larger than 0.100000
B(  0-C ,  1-C ) :   1.1678 B(  0-C , 19-H ) :   0.9435 B(  0-C , 20-H ) :   0.9418
B(  0-C , 21-H ) :   0.9463 B(  1-C ,  2-O ) :   0.9032 B(  1-C , 22-H ) :   0.9121
B(  1-C , 23-H ) :   0.8995 B(  2-O ,  3-P ) :   1.0877 B(  3-P ,  4-S ) :   1.6569
B(  3-P ,  5-O ) :   1.0925 B(  3-P ,  8-S ) :   0.9934 B(  5-O ,  6-C ) :   0.9008
B(  6-C ,  7-C ) :   1.1662 B(  6-C , 24-H ) :   0.9079 B(  6-C , 25-H ) :   0.9366
B(  7-C , 26-H ) :   0.9404 B(  7-C , 27-H ) :   0.9459 B(  7-C , 28-H ) :   0.9372
B(  8-S ,  9-C ) :   0.9545 B(  9-C , 10-S ) :   1.0098 B(  9-C , 29-H ) :   0.9100
B(  9-C , 30-H ) :   0.8591 B( 10-S , 11-P ) :   0.9461 B( 10-S , 12-S ) :   0.1058
B( 11-P , 12-S ) :   1.6424 B( 11-P , 13-O ) :   1.1285 B( 11-P , 16-O ) :   1.0891
B( 13-O , 14-C ) :   0.8800 B( 14-C , 15-C ) :   1.1625 B( 14-C , 31-H ) :   0.9101
B( 14-C , 32-H ) :   0.9304 B( 15-C , 33-H ) :   0.9419 B( 15-C , 34-H ) :   0.9398
B( 15-C , 35-H ) :   0.9480 B( 16-O , 17-C ) :   0.9018 B( 17-C , 18-C ) :   1.1660
B( 17-C , 36-H ) :   0.9332 B( 17-C , 37-H ) :   0.9183 B( 18-C , 38-H ) :   0.9337
B( 18-C , 39-H ) :   0.9432 B( 18-C , 40-H ) :   0.9367

Dispersion correction           -0.065535750
FINAL SINGLE POINT ENERGY     -2929.520148879917

DIPOLE MOMENT
-------------

Method             : SCF
Type of density    : Electron Density
Multiplicity       :   1
Irrep              :   0
Energy             : -2929.6423301554182217 Eh
Relativity type    :
Basis              : AO
                                X                 Y                 Z
Electronic contribution:      4.504720253       1.919565890      14.958049568
Nuclear contribution   :     -5.957424604      -2.467535619     -15.480881414
                        -----------------------------------------
Total Dipole Moment    :     -1.452704351      -0.547969729      -0.522831846
                        -----------------------------------------
Magnitude (a.u.)       :      1.638283826
Magnitude (Debye)      :      4.164186553

Rotational constants in cm-1:             0.012008             0.005188             0.004992
Rotational constants in MHz :           359.982341           155.522696           149.643882

                             ****ORCA TERMINATED NORMALLY****
TOTAL RUN TIME: 0 days 0 hours 0 minutes 21 seconds 674 msec
