                         Program Version 6.0.1  -  RELEASE   -
|  1> ! pbe def2-sv(p) def2/J RI DEFGRID1 loosescf d4 GCP(DFT/SV(P)) printgap
|  2> %output
|  3>     printlevel normal
|  4> end
|  5> * xyz 0 1
|  6> C 5.2908442693 -2.5151955921 -0.5848281612
|  7> C 4.6125776316 -1.411493259 0.211213644
|  8> O 3.178248217 -1.5411080549 0.1569149926
|  9> C 2.5393197274 -1.0007604659 -0.8587656129
| 10> O 3.0632435299 -0.3733835595 -1.752526773
| 11> C 1.0467399752 -1.2702388162 -0.7786371694
| 12> C 0.2860532509 -0.0338327901 -1.2439740231
| 13> H 0.7257957277 0.3137566091 -2.1865655185
| 14> C 0.3652672783 1.1068277914 -0.2517302525
| 15> O -0.5875788491 1.8193181252 0.0014543705
| 16> O 1.5512758665 1.2212841256 0.2770858881
| 17> C 1.7718602087 2.2747210001 1.2408949499
| 18> C 2.08841367 3.5897478985 0.5496334169
| 19> S -1.4669232894 -0.3541272807 -1.6220433667
| 20> P -2.3695734854 -0.0868827161 0.2796823227
| 21> S -1.30987016 -0.4463033113 1.9002007927
| 22> O -3.2935855933 1.1997320277 0.2565721558
| 23> C -3.1303716998 2.3668816662 1.064904215
| 24> O -3.5921330669 -1.1060571625 0.1246366195
| 25> C -3.3765925949 -2.5200420591 0.0802054642
| 26> H 5.0444091761 -2.4207590809 -1.6398574648
| 27> H 6.3662406064 -2.4341241466 -0.4658164709
| 28> H 4.9631551662 -3.4881882476 -0.2294227747
| 29> H 4.8870607665 -0.4276786709 -0.1794764993
| 30> H 4.8515222428 -1.4823962754 1.2723119242
| 31> H 0.7831823583 -1.5491773352 0.2422334728
| 32> H 0.8163851155 -2.1005166897 -1.4489679335
| 33> H 0.8787326504 2.3595783937 1.8663235497
| 34> H 2.6143566862 1.9188545216 1.8335061334
| 35> H 2.3254012476 4.3375678936 1.2989645168
| 36> H 2.93788563 3.4656047317 -0.1166654103
| 37> H 1.2316094622 3.9277982708 -0.0286456868
| 38> H -2.5526890223 2.1335176647 1.9611175153
| 39> H -4.1348017109 2.6860127297 1.3342894194
| 40> H -2.6177330443 3.1341296272 0.4878395986
| 41> H -2.7343709044 -2.8278271663 0.9077646885
| 42> H -2.9234069849 -2.8015128944 -0.8704747683
| 43> H -4.3621372761 -2.9674638598 0.1802007774
| 44> *
| 45>
| 46>                          ****END OF INPUT****

CARTESIAN COORDINATES (ANGSTROEM)
---------------------------------
  C      5.290844   -2.515196   -0.584828
  C      4.612578   -1.411493    0.211214
  O      3.178248   -1.541108    0.156915
  C      2.539320   -1.000760   -0.858766
  O      3.063244   -0.373384   -1.752527
  C      1.046740   -1.270239   -0.778637
  C      0.286053   -0.033833   -1.243974
  H      0.725796    0.313757   -2.186566
  C      0.365267    1.106828   -0.251730
  O     -0.587579    1.819318    0.001454
  O      1.551276    1.221284    0.277086
  C      1.771860    2.274721    1.240895
  C      2.088414    3.589748    0.549633
  S     -1.466923   -0.354127   -1.622043
  P     -2.369573   -0.086883    0.279682
  S     -1.309870   -0.446303    1.900201
  O     -3.293586    1.199732    0.256572
  C     -3.130372    2.366882    1.064904
  O     -3.592133   -1.106057    0.124637
  C     -3.376593   -2.520042    0.080205
  H      5.044409   -2.420759   -1.639857
  H      6.366241   -2.434124   -0.465816
  H      4.963155   -3.488188   -0.229423
  H      4.887061   -0.427679   -0.179476
  H      4.851522   -1.482396    1.272312
  H      0.783182   -1.549177    0.242233
  H      0.816385   -2.100517   -1.448968
  H      0.878733    2.359578    1.866324
  H      2.614357    1.918855    1.833506
  H      2.325401    4.337568    1.298965
  H      2.937886    3.465605   -0.116665
  H      1.231609    3.927798   -0.028646
  H     -2.552689    2.133518    1.961118
  H     -4.134802    2.686013    1.334289
  H     -2.617733    3.134130    0.487840
  H     -2.734371   -2.827827    0.907765
  H     -2.923407   -2.801513   -0.870475
  H     -4.362137   -2.967464    0.180201

 Total Charge           Charge          ....    0
 Multiplicity           Mult            ....    1
 Number of Electrons    NEL             ....  174
 Basis Dimension        Dim             ....  316

ORBITAL ENERGIES
----------------

  NO   OCC          E(Eh)            E(eV)
   0   2.0000     -88.036155     -2395.5856
   1   2.0000     -87.978570     -2394.0186
   2   2.0000     -76.421912     -2079.5460
   3   2.0000     -18.822325      -512.1815
   4   2.0000     -18.804115      -511.6860
   5   2.0000     -18.781553      -511.0720
   6   2.0000     -18.778286      -510.9831
   7   2.0000     -18.752787      -510.2893
   8   2.0000     -18.740474      -509.9542
   9   2.0000     -10.028647      -272.8934
  10   2.0000     -10.011614      -272.4299
  11   2.0000      -9.957712      -270.9631
  12   2.0000      -9.951011      -270.7808
  13   2.0000      -9.949132      -270.7296
  14   2.0000      -9.935050      -270.3465
  15   2.0000      -9.933214      -270.2965
  16   2.0000      -9.906767      -269.5768
  17   2.0000      -9.893825      -269.2247
  18   2.0000      -9.890167      -269.1251
  19   2.0000      -7.681279      -209.0182
  20   2.0000      -7.623538      -207.4470
  21   2.0000      -6.417940      -174.6410
  22   2.0000      -5.709355      -155.3595
  23   2.0000      -5.705794      -155.2626
  24   2.0000      -5.698015      -155.0509
  25   2.0000      -5.652527      -153.8131
  26   2.0000      -5.644348      -153.5905
  27   2.0000      -5.643406      -153.5649
  28   2.0000      -4.640232      -126.2671
  29   2.0000      -4.640091      -126.2633
  30   2.0000      -4.638590      -126.2225
  31   2.0000      -1.031569       -28.0704
  32   2.0000      -1.012265       -27.5451
  33   2.0000      -0.975696       -26.5500
  34   2.0000      -0.935125       -25.4460
  35   2.0000      -0.929359       -25.2892
  36   2.0000      -0.917962       -24.9790
  37   2.0000      -0.765863       -20.8402
  38   2.0000      -0.713807       -19.4237
  39   2.0000      -0.712516       -19.3885
  40   2.0000      -0.689400       -18.7595
  41   2.0000      -0.655841       -17.8463
  42   2.0000      -0.629838       -17.1388
  43   2.0000      -0.623350       -16.9622
  44   2.0000      -0.614344       -16.7171
  45   2.0000      -0.599020       -16.3002
  46   2.0000      -0.567691       -15.4477
  47   2.0000      -0.512276       -13.9397
  48   2.0000      -0.504632       -13.7317
  49   2.0000      -0.502005       -13.6602
  50   2.0000      -0.482336       -13.1250
  51   2.0000      -0.465943       -12.6790
  52   2.0000      -0.463245       -12.6055
  53   2.0000      -0.445050       -12.1104
  54   2.0000      -0.438710       -11.9379
  55   2.0000      -0.430121       -11.7042
  56   2.0000      -0.426726       -11.6118
  57   2.0000      -0.420526       -11.4431
  58   2.0000      -0.413155       -11.2425
  59   2.0000      -0.407185       -11.0801
  60   2.0000      -0.399373       -10.8675
  61   2.0000      -0.397627       -10.8200
  62   2.0000      -0.386952       -10.5295
  63   2.0000      -0.386803       -10.5254
  64   2.0000      -0.382786       -10.4161
  65   2.0000      -0.370803       -10.0901
  66   2.0000      -0.361132        -9.8269
  67   2.0000      -0.356653        -9.7050
  68   2.0000      -0.350842        -9.5469
  69   2.0000      -0.345531        -9.4024
  70   2.0000      -0.340146        -9.2559
  71   2.0000      -0.329377        -8.9628
  72   2.0000      -0.325780        -8.8649
  73   2.0000      -0.311015        -8.4632
  74   2.0000      -0.302955        -8.2438
  75   2.0000      -0.296114        -8.0577
  76   2.0000      -0.294882        -8.0242
  77   2.0000      -0.285294        -7.7632
  78   2.0000      -0.276227        -7.5165
  79   2.0000      -0.262809        -7.1514
  80   2.0000      -0.261498        -7.1157
  81   2.0000      -0.251120        -6.8333
  82   2.0000      -0.239708        -6.5228
  83   2.0000      -0.231516        -6.2999
  84   2.0000      -0.216093        -5.8802
  85   2.0000      -0.196513        -5.3474
  86   2.0000      -0.193393        -5.2625
  87   0.0000      -0.049150        -1.3374
  88   0.0000      -0.032048        -0.8721
  89   0.0000      -0.018677        -0.5082
  90   0.0000       0.007827         0.2130
  91   0.0000       0.029875         0.8130

MULLIKEN ATOMIC CHARGES
-----------------------
   0 C :   -0.306036
   1 C :   -0.012654
   2 O :   -0.223581
   3 C :    0.115246
   4 O :   -0.214877
   5 C :   -0.059050
   6 C :   -0.305422
   7 H :    0.167208
   8 C :    0.201490
   9 O :   -0.203944
  10 O :   -0.210461
  11 C :   -0.007804
  12 C :   -0.310639
  13 S :   -0.080175
  14 P :    0.620403
  15 S :   -0.350869
  16 O :   -0.364532
  17 C :   -0.088744
  18 O :   -0.370091
  19 C :   -0.100280
  20 H :    0.127328
  21 H :    0.113592
  22 H :    0.116031
  23 H :    0.106472
  24 H :    0.103974
  25 H :    0.119272
  26 H :    0.120476
  27 H :    0.118733
  28 H :    0.107502
  29 H :    0.117385
  30 H :    0.122618
  31 H :    0.128665
  32 H :    0.115059
  33 H :    0.118281
  34 H :    0.122901
  35 H :    0.111974
  36 H :    0.110894
  37 H :    0.123657
Sum of atomic charges:    0.0000000

LOEWDIN ATOMIC CHARGES
----------------------
   0 C :   -0.356068
   1 C :   -0.110719
   2 O :   -0.053132
   3 C :    0.027284
   4 O :   -0.176424
   5 C :   -0.255709
   6 C :   -0.266488
   7 H :    0.158311
   8 C :    0.021758
   9 O :   -0.167200
  10 O :   -0.023357
  11 C :   -0.104166
  12 C :   -0.356463
  13 S :    0.110925
  14 P :    0.587648
  15 S :   -0.336140
  16 O :   -0.234689
  17 C :   -0.207220
  18 O :   -0.254666
  19 C :   -0.220362
  20 H :    0.130613
  21 H :    0.130955
  22 H :    0.125764
  23 H :    0.119033
  24 H :    0.118330
  25 H :    0.134038
  26 H :    0.145686
  27 H :    0.124427
  28 H :    0.121025
  29 H :    0.133131
  30 H :    0.129118
  31 H :    0.130948
  32 H :    0.107754
  33 H :    0.117216
  34 H :    0.115073
  35 H :    0.107484
  36 H :    0.104558
  37 H :    0.121725

  Mayer bond orders larger than 0.100000
B(  0-C ,  1-C ) :   1.1742 B(  0-C , 20-H ) :   0.9462 B(  0-C , 21-H ) :   0.9442
B(  0-C , 22-H ) :   0.9488 B(  1-C ,  2-O ) :   0.9167 B(  1-C , 23-H ) :   0.9140
B(  1-C , 24-H ) :   0.9368 B(  2-O ,  3-C ) :   1.2476 B(  3-C ,  4-O ) :   2.0231
B(  3-C ,  5-C ) :   0.9923 B(  5-C ,  6-C ) :   1.0246 B(  5-C , 25-H ) :   0.8884
B(  5-C , 26-H ) :   0.8814 B(  6-C ,  7-H ) :   0.8471 B(  6-C ,  8-C ) :   0.9144
B(  6-C , 13-S ) :   1.0238 B(  8-C ,  9-O ) :   1.9483 B(  8-C , 10-O ) :   1.2840
B( 10-O , 11-C ) :   0.8981 B( 11-C , 12-C ) :   1.1727 B( 11-C , 27-H ) :   0.9144
B( 11-C , 28-H ) :   0.9364 B( 12-C , 29-H ) :   0.9434 B( 12-C , 30-H ) :   0.9465
B( 12-C , 31-H ) :   0.9447 B( 13-S , 14-P ) :   0.9410 B( 13-S , 15-S ) :   0.1153
B( 14-P , 15-S ) :   1.5548 B( 14-P , 16-O ) :   1.1443 B( 14-P , 18-O ) :   1.0954
B( 16-O , 17-C ) :   0.9255 B( 17-C , 32-H ) :   0.9357 B( 17-C , 33-H ) :   0.9541
B( 17-C , 34-H ) :   0.9517 B( 18-O , 19-C ) :   0.9416 B( 19-C , 35-H ) :   0.9345
B( 19-C , 36-H ) :   0.9437 B( 19-C , 37-H ) :   0.9593

Dispersion correction           -0.051938392
FINAL SINGLE POINT ENERGY     -1979.017251155342

DIPOLE MOMENT
-------------

Method             : SCF
Type of density    : Electron Density
Multiplicity       :   1
Irrep              :   0
Energy             : -1979.1484303518354864 Eh
Relativity type    :
Basis              : AO
                                X                 Y                 Z
Electronic contribution:    -18.954240820      -1.672935838      -3.360552750
Nuclear contribution   :     20.121978384       1.786162501       3.686014474
                        -----------------------------------------
Total Dipole Moment    :      1.167737564       0.113226663       0.325461724
                        -----------------------------------------
Magnitude (a.u.)       :      1.217520690
Magnitude (Debye)      :      3.094691654

Rotational constants in cm-1:             0.015005             0.006376             0.005331
Rotational constants in MHz :           449.853443           191.142282           159.805580

                             ****ORCA TERMINATED NORMALLY****
TOTAL RUN TIME: 0 days 0 hours 0 minutes 43 seconds 869 msec
