                         Program Version 6.0.0  -   RELEASE  -
|  1> ! r2scan-3c def2/J RI DEFGRID2 scfconv6 printgap
|  2> %output
|  3>     printlevel normal
|  4> end
|  5> * xyz 0 1
|  6> C 5.2663206544 -2.2682936505 -1.3179087373
|  7> C 4.2963351009 -1.1067187346 -1.3956994304
|  8> O 3.2174857212 -1.3674856069 -0.4750465613
|  9> P 2.2575214716 -0.2089320787 0.0291311252
| 10> S 3.1598041561 1.4187457502 0.6548892348
| 11> O 1.358186879 -0.9669411914 1.0860074053
| 12> C 1.6796013146 -0.9494449308 2.4960200065
| 13> C 2.9402049791 -1.7345943779 2.7880068883
| 14> S 0.9126448735 0.0375140823 -1.5853185165
| 15> C 0.2492354103 1.6367205013 -1.0462501425
| 16> S -0.7764894515 1.5024255488 0.4345483498
| 17> P -2.3321942528 0.3403850922 -0.4675797061
| 18> S -2.6905041117 0.745146095 -2.3446285943
| 19> O -3.5417416789 0.5700916977 0.5346601357
| 20> C -4.2343474677 1.8357379671 0.583757344
| 21> C -5.5224802764 1.6291250016 1.35409837
| 22> O -1.9672127479 -1.1711430194 -0.2313059684
| 23> C -1.8021404295 -1.7505878627 1.0871793523
| 24> C -3.0610809406 -2.4794604872 1.5078972736
| 25> H 6.0713544791 -2.1068918252 -2.0272166952
| 26> H 5.6807794048 -2.3451756407 -0.3168100721
| 27> H 4.7535052863 -3.1946383581 -1.5596306628
| 28> H 3.8727317898 -1.0055302373 -2.3986916252
| 29> H 4.7751871809 -0.1628455672 -1.1134065568
| 30> H 1.7873631933 0.0928099941 2.8125591978
| 31> H 0.8046424461 -1.3939683326 2.9714752958
| 32> H 3.7941460972 -1.2457800133 2.3204535941
| 33> H 3.1002794469 -1.7741917949 3.8608661134
| 34> H 2.8546984081 -2.7440102018 2.3946407978
| 35> H -0.3532959909 2.016653795 -1.871089922
| 36> H 1.0707680338 2.3106284336 -0.8024681931
| 37> H -3.583061706 2.5619711903 1.0775214864
| 38> H -4.4264664415 2.1655896069 -0.4422729664
| 39> H -6.0569220224 2.5716249435 1.4104826978
| 40> H -6.1449857679 0.8947407654 0.8507285127
| 41> H -5.3038535217 1.2797741644 2.3589646665
| 42> H -0.9559890769 -2.4324532416 0.9810672543
| 43> H -1.5488298343 -0.9537214686 1.7923224664
| 44> H -3.8879491178 -1.7796322237 1.594160452
| 45> H -3.3166156438 -3.2347997996 0.7699762316
| 46> H -2.8920054088 -2.9572819031 2.4678350686
| 47> *
| 48>
| 49>                          ****END OF INPUT****

CARTESIAN COORDINATES (ANGSTROEM)
---------------------------------
  C      5.266321   -2.268294   -1.317909
  C      4.296335   -1.106719   -1.395699
  O      3.217486   -1.367486   -0.475047
  P      2.257521   -0.208932    0.029131
  S      3.159804    1.418746    0.654889
  O      1.358187   -0.966941    1.086007
  C      1.679601   -0.949445    2.496020
  C      2.940205   -1.734594    2.788007
  S      0.912645    0.037514   -1.585319
  C      0.249235    1.636721   -1.046250
  S     -0.776489    1.502426    0.434548
  P     -2.332194    0.340385   -0.467580
  S     -2.690504    0.745146   -2.344629
  O     -3.541742    0.570092    0.534660
  C     -4.234347    1.835738    0.583757
  C     -5.522480    1.629125    1.354098
  O     -1.967213   -1.171143   -0.231306
  C     -1.802140   -1.750588    1.087179
  C     -3.061081   -2.479460    1.507897
  H      6.071354   -2.106892   -2.027217
  H      5.680779   -2.345176   -0.316810
  H      4.753505   -3.194638   -1.559631
  H      3.872732   -1.005530   -2.398692
  H      4.775187   -0.162846   -1.113407
  H      1.787363    0.092810    2.812559
  H      0.804642   -1.393968    2.971475
  H      3.794146   -1.245780    2.320454
  H      3.100279   -1.774192    3.860866
  H      2.854698   -2.744010    2.394641
  H     -0.353296    2.016654   -1.871090
  H      1.070768    2.310628   -0.802468
  H     -3.583062    2.561971    1.077521
  H     -4.426466    2.165590   -0.442273
  H     -6.056922    2.571625    1.410483
  H     -6.144986    0.894741    0.850729
  H     -5.303854    1.279774    2.358965
  H     -0.955989   -2.432453    0.981067
  H     -1.548830   -0.953721    1.792322
  H     -3.887949   -1.779632    1.594160
  H     -3.316616   -3.234800    0.769976
  H     -2.892005   -2.957282    2.467835

 Total Charge           Charge          ....    0
 Multiplicity           Mult            ....    1
 Number of Electrons    NEL             ....  202
 Basis Dimension        Dim             ....  539

ORBITAL ENERGIES
----------------

  NO   OCC          E(Eh)            E(eV)
   0   2.0000     -88.573160     -2410.1982
   1   2.0000     -88.571900     -2410.1639
   2   2.0000     -88.521590     -2408.7949
   3   2.0000     -88.517880     -2408.6940
   4   2.0000     -76.914002     -2092.9364
   5   2.0000     -76.912226     -2092.8881
   6   2.0000     -18.995396      -516.8910
   7   2.0000     -18.994506      -516.8668
   8   2.0000     -18.993669      -516.8440
   9   2.0000     -18.990255      -516.7511
  10   2.0000     -10.101980      -274.8888
  11   2.0000     -10.101447      -274.8744
  12   2.0000     -10.101064      -274.8639
  13   2.0000     -10.100574      -274.8506
  14   2.0000     -10.100074      -274.8370
  15   2.0000     -10.036165      -273.0979
  16   2.0000     -10.034800      -273.0608
  17   2.0000     -10.032373      -272.9948
  18   2.0000     -10.031481      -272.9705
  19   2.0000      -7.867217      -214.0779
  20   2.0000      -7.866132      -214.0483
  21   2.0000      -7.816433      -212.6960
  22   2.0000      -7.812695      -212.5942
  23   2.0000      -6.592773      -179.3985
  24   2.0000      -6.590823      -179.3454
  25   2.0000      -5.814101      -158.2097
  26   2.0000      -5.812904      -158.1772
  27   2.0000      -5.811106      -158.1282
  28   2.0000      -5.809978      -158.0976
  29   2.0000      -5.804345      -157.9443
  30   2.0000      -5.803397      -157.9185
  31   2.0000      -5.763967      -156.8455
  32   2.0000      -5.760426      -156.7492
  33   2.0000      -5.756728      -156.6485
  34   2.0000      -5.756515      -156.6427
  35   2.0000      -5.752881      -156.5438
  36   2.0000      -5.752693      -156.5387
  37   2.0000      -4.738163      -128.9320
  38   2.0000      -4.737697      -128.9193
  39   2.0000      -4.736657      -128.8910
  40   2.0000      -4.736559      -128.8883
  41   2.0000      -4.735811      -128.8680
  42   2.0000      -4.734185      -128.8237
  43   2.0000      -1.052939       -28.6519
  44   2.0000      -1.052437       -28.6383
  45   2.0000      -1.014056       -27.5939
  46   2.0000      -1.011400       -27.5216
  47   2.0000      -0.800016       -21.7696
  48   2.0000      -0.760868       -20.7043
  49   2.0000      -0.752595       -20.4792
  50   2.0000      -0.738171       -20.0867
  51   2.0000      -0.736012       -20.0279
  52   2.0000      -0.708424       -19.2772
  53   2.0000      -0.683258       -18.5924
  54   2.0000      -0.667873       -18.1738
  55   2.0000      -0.632106       -17.2005
  56   2.0000      -0.620497       -16.8846
  57   2.0000      -0.604883       -16.4597
  58   2.0000      -0.602192       -16.3865
  59   2.0000      -0.594958       -16.1896
  60   2.0000      -0.536815       -14.6075
  61   2.0000      -0.526737       -14.3332
  62   2.0000      -0.502040       -13.6612
  63   2.0000      -0.498954       -13.5772
  64   2.0000      -0.476629       -12.9697
  65   2.0000      -0.464021       -12.6267
  66   2.0000      -0.461426       -12.5560
  67   2.0000      -0.455547       -12.3961
  68   2.0000      -0.449706       -12.2371
  69   2.0000      -0.431822       -11.7505
  70   2.0000      -0.422710       -11.5025
  71   2.0000      -0.416094       -11.3225
  72   2.0000      -0.407519       -11.0891
  73   2.0000      -0.398730       -10.8500
  74   2.0000      -0.397456       -10.8153
  75   2.0000      -0.389325       -10.5941
  76   2.0000      -0.384096       -10.4518
  77   2.0000      -0.375215       -10.2101
  78   2.0000      -0.374516       -10.1911
  79   2.0000      -0.368992       -10.0408
  80   2.0000      -0.364528        -9.9193
  81   2.0000      -0.363355        -9.8874
  82   2.0000      -0.362428        -9.8622
  83   2.0000      -0.358662        -9.7597
  84   2.0000      -0.348790        -9.4911
  85   2.0000      -0.335687        -9.1345
  86   2.0000      -0.325766        -8.8645
  87   2.0000      -0.318076        -8.6553
  88   2.0000      -0.317466        -8.6387
  89   2.0000      -0.309850        -8.4314
  90   2.0000      -0.303693        -8.2639
  91   2.0000      -0.294703        -8.0193
  92   2.0000      -0.287025        -7.8104
  93   2.0000      -0.278869        -7.5884
  94   2.0000      -0.271104        -7.3771
  95   2.0000      -0.246414        -6.7053
  96   2.0000      -0.230368        -6.2686
  97   2.0000      -0.226506        -6.1635
  98   2.0000      -0.217968        -5.9312
  99   2.0000      -0.212800        -5.7906
 100   2.0000      -0.211666        -5.7597
 101   0.0000      -0.044800        -1.2191
 102   0.0000      -0.022892        -0.6229
 103   0.0000       0.001486         0.0404
 104   0.0000       0.003599         0.0979
 105   0.0000       0.015774         0.4292

MULLIKEN ATOMIC CHARGES
-----------------------
   0 C :   -0.439781
   1 C :   -0.156228
   2 O :   -0.287835
   3 P :    0.699943
   4 S :   -0.496833
   5 O :   -0.260610
   6 C :   -0.156222
   7 C :   -0.440492
   8 S :   -0.124368
   9 C :   -0.233671
  10 S :   -0.187188
  11 P :    0.669475
  12 S :   -0.447442
  13 O :   -0.282004
  14 C :   -0.153585
  15 C :   -0.442685
  16 O :   -0.255463
  17 C :   -0.111645
  18 C :   -0.483799
  19 H :    0.147889
  20 H :    0.153672
  21 H :    0.154941
  22 H :    0.154271
  23 H :    0.170941
  24 H :    0.178174
  25 H :    0.145416
  26 H :    0.170836
  27 H :    0.147753
  28 H :    0.155514
  29 H :    0.215935
  30 H :    0.212118
  31 H :    0.154203
  32 H :    0.171323
  33 H :    0.148206
  34 H :    0.159574
  35 H :    0.150747
  36 H :    0.169555
  37 H :    0.157368
  38 H :    0.167284
  39 H :    0.160583
  40 H :    0.144130
Sum of atomic charges:   -0.0000000

LOEWDIN ATOMIC CHARGES
----------------------
   0 C :   -0.385526
   1 C :    0.020501
   2 O :   -0.664913
   3 P :    0.374769
   4 S :   -0.139482
   5 O :   -0.673427
   6 C :    0.016111
   7 C :   -0.399224
   8 S :    0.178376
   9 C :   -0.424946
  10 S :    0.132829
  11 P :    0.378045
  12 S :   -0.101310
  13 O :   -0.678366
  14 C :    0.019225
  15 C :   -0.386551
  16 O :   -0.642957
  17 C :    0.019925
  18 C :   -0.392424
  19 H :    0.160530
  20 H :    0.159604
  21 H :    0.160411
  22 H :    0.173150
  23 H :    0.180715
  24 H :    0.182615
  25 H :    0.176959
  26 H :    0.166609
  27 H :    0.159746
  28 H :    0.160777
  29 H :    0.191530
  30 H :    0.191120
  31 H :    0.173081
  32 H :    0.181611
  33 H :    0.160976
  34 H :    0.161818
  35 H :    0.158282
  36 H :    0.186762
  37 H :    0.175599
  38 H :    0.166610
  39 H :    0.162920
  40 H :    0.157919

  Mayer bond orders larger than 0.100000
B(  0-C ,  1-C ) :   0.9561 B(  0-C , 19-H ) :   0.9642 B(  0-C , 20-H ) :   0.9715
B(  0-C , 21-H ) :   0.9715 B(  1-C ,  2-O ) :   0.7786 B(  1-C , 22-H ) :   0.9455
B(  1-C , 23-H ) :   0.9516 B(  2-O ,  3-P ) :   1.0947 B(  3-P ,  4-S ) :   1.7237
B(  3-P ,  5-O ) :   1.1524 B(  3-P ,  8-S ) :   1.0799 B(  5-O ,  6-C ) :   0.7766
B(  6-C ,  7-C ) :   0.9262 B(  6-C , 24-H ) :   0.9625 B(  6-C , 25-H ) :   0.9606
B(  7-C , 26-H ) :   0.9590 B(  7-C , 27-H ) :   0.9623 B(  7-C , 28-H ) :   0.9713
B(  8-S ,  9-C ) :   0.9200 B(  9-C , 10-S ) :   0.9134 B(  9-C , 29-H ) :   0.9072
B(  9-C , 30-H ) :   0.9052 B( 10-S , 11-P ) :   0.9787 B( 11-P , 12-S ) :   1.8304
B( 11-P , 13-O ) :   1.0484 B( 11-P , 16-O ) :   1.1629 B( 13-O , 14-C ) :   0.7883
B( 14-C , 15-C ) :   0.9538 B( 14-C , 31-H ) :   0.9414 B( 14-C , 32-H ) :   0.9500
B( 15-C , 33-H ) :   0.9633 B( 15-C , 34-H ) :   0.9714 B( 15-C , 35-H ) :   0.9720
B( 16-O , 17-C ) :   0.7303 B( 17-C , 18-C ) :   0.9298 B( 17-C , 36-H ) :   0.9550
B( 17-C , 37-H ) :   0.9697 B( 18-C , 38-H ) :   0.9689 B( 18-C , 39-H ) :   0.9736
B( 18-C , 40-H ) :   0.9659

Dispersion correction           -0.020940950
FINAL SINGLE POINT ENERGY     -2932.466616088665

DIPOLE MOMENT
-------------

Method             : SCF
Type of density    : Electron Density
Multiplicity       :   1
Irrep              :   0
Energy             : -2932.4919455233807639 Eh
Relativity type    :
Basis              : AO
                                X                 Y                 Z
Electronic contribution:     -0.067896958      12.102293473     -15.119077343
Nuclear contribution   :      0.124949998     -12.874478895      16.559781569
                        -----------------------------------------
Total Dipole Moment    :      0.057053041      -0.772185421       1.440704225
                        -----------------------------------------
Magnitude (a.u.)       :      1.635589814
Magnitude (Debye)      :      4.157338918

Rotational constants in cm-1:             0.013455             0.004499             0.004203
Rotational constants in MHz :           403.381454           134.869970           126.012281

                             ****ORCA TERMINATED NORMALLY****
TOTAL RUN TIME: 0 days 0 hours 1 minutes 18 seconds 207 msec
