                         Program Version 6.0.0  -   RELEASE  -
|  1> ! r2scan-3c def2/J RI DEFGRID2 scfconv6 printgap
|  2> %output
|  3>     printlevel normal
|  4> end
|  5> %cpcm
|  6>     smd true
|  7>     smdsolvent "water"
|  8> end
|  9> * xyz 0 1
| 10> C 5.2663206544 -2.2682936505 -1.3179087373
| 11> C 4.2963351009 -1.1067187346 -1.3956994304
| 12> O 3.2174857212 -1.3674856069 -0.4750465613
| 13> P 2.2575214716 -0.2089320787 0.0291311252
| 14> S 3.1598041561 1.4187457502 0.6548892348
| 15> O 1.358186879 -0.9669411914 1.0860074053
| 16> C 1.6796013146 -0.9494449308 2.4960200065
| 17> C 2.9402049791 -1.7345943779 2.7880068883
| 18> S 0.9126448735 0.0375140823 -1.5853185165
| 19> C 0.2492354103 1.6367205013 -1.0462501425
| 20> S -0.7764894515 1.5024255488 0.4345483498
| 21> P -2.3321942528 0.3403850922 -0.4675797061
| 22> S -2.6905041117 0.745146095 -2.3446285943
| 23> O -3.5417416789 0.5700916977 0.5346601357
| 24> C -4.2343474677 1.8357379671 0.583757344
| 25> C -5.5224802764 1.6291250016 1.35409837
| 26> O -1.9672127479 -1.1711430194 -0.2313059684
| 27> C -1.8021404295 -1.7505878627 1.0871793523
| 28> C -3.0610809406 -2.4794604872 1.5078972736
| 29> H 6.0713544791 -2.1068918252 -2.0272166952
| 30> H 5.6807794048 -2.3451756407 -0.3168100721
| 31> H 4.7535052863 -3.1946383581 -1.5596306628
| 32> H 3.8727317898 -1.0055302373 -2.3986916252
| 33> H 4.7751871809 -0.1628455672 -1.1134065568
| 34> H 1.7873631933 0.0928099941 2.8125591978
| 35> H 0.8046424461 -1.3939683326 2.9714752958
| 36> H 3.7941460972 -1.2457800133 2.3204535941
| 37> H 3.1002794469 -1.7741917949 3.8608661134
| 38> H 2.8546984081 -2.7440102018 2.3946407978
| 39> H -0.3532959909 2.016653795 -1.871089922
| 40> H 1.0707680338 2.3106284336 -0.8024681931
| 41> H -3.583061706 2.5619711903 1.0775214864
| 42> H -4.4264664415 2.1655896069 -0.4422729664
| 43> H -6.0569220224 2.5716249435 1.4104826978
| 44> H -6.1449857679 0.8947407654 0.8507285127
| 45> H -5.3038535217 1.2797741644 2.3589646665
| 46> H -0.9559890769 -2.4324532416 0.9810672543
| 47> H -1.5488298343 -0.9537214686 1.7923224664
| 48> H -3.8879491178 -1.7796322237 1.594160452
| 49> H -3.3166156438 -3.2347997996 0.7699762316
| 50> H -2.8920054088 -2.9572819031 2.4678350686
| 51> *
| 52>
| 53>                          ****END OF INPUT****

CARTESIAN COORDINATES (ANGSTROEM)
---------------------------------
  C      5.266321   -2.268294   -1.317909
  C      4.296335   -1.106719   -1.395699
  O      3.217486   -1.367486   -0.475047
  P      2.257521   -0.208932    0.029131
  S      3.159804    1.418746    0.654889
  O      1.358187   -0.966941    1.086007
  C      1.679601   -0.949445    2.496020
  C      2.940205   -1.734594    2.788007
  S      0.912645    0.037514   -1.585319
  C      0.249235    1.636721   -1.046250
  S     -0.776489    1.502426    0.434548
  P     -2.332194    0.340385   -0.467580
  S     -2.690504    0.745146   -2.344629
  O     -3.541742    0.570092    0.534660
  C     -4.234347    1.835738    0.583757
  C     -5.522480    1.629125    1.354098
  O     -1.967213   -1.171143   -0.231306
  C     -1.802140   -1.750588    1.087179
  C     -3.061081   -2.479460    1.507897
  H      6.071354   -2.106892   -2.027217
  H      5.680779   -2.345176   -0.316810
  H      4.753505   -3.194638   -1.559631
  H      3.872732   -1.005530   -2.398692
  H      4.775187   -0.162846   -1.113407
  H      1.787363    0.092810    2.812559
  H      0.804642   -1.393968    2.971475
  H      3.794146   -1.245780    2.320454
  H      3.100279   -1.774192    3.860866
  H      2.854698   -2.744010    2.394641
  H     -0.353296    2.016654   -1.871090
  H      1.070768    2.310628   -0.802468
  H     -3.583062    2.561971    1.077521
  H     -4.426466    2.165590   -0.442273
  H     -6.056922    2.571625    1.410483
  H     -6.144986    0.894741    0.850729
  H     -5.303854    1.279774    2.358965
  H     -0.955989   -2.432453    0.981067
  H     -1.548830   -0.953721    1.792322
  H     -3.887949   -1.779632    1.594160
  H     -3.316616   -3.234800    0.769976
  H     -2.892005   -2.957282    2.467835

 Total Charge           Charge          ....    0
 Multiplicity           Mult            ....    1
 Number of Electrons    NEL             ....  202
 Basis Dimension        Dim             ....  539

ORBITAL ENERGIES
----------------

  NO   OCC          E(Eh)            E(eV)
   0   2.0000     -88.579998     -2410.3843
   1   2.0000     -88.577445     -2410.3148
   2   2.0000     -88.530600     -2409.0401
   3   2.0000     -88.528638     -2408.9867
   4   2.0000     -76.920393     -2093.1103
   5   2.0000     -76.919066     -2093.0742
   6   2.0000     -18.997052      -516.9361
   7   2.0000     -18.996563      -516.9227
   8   2.0000     -18.996240      -516.9140
   9   2.0000     -18.994526      -516.8673
  10   2.0000     -10.103369      -274.9267
  11   2.0000     -10.092544      -274.6321
  12   2.0000     -10.091377      -274.6003
  13   2.0000     -10.090628      -274.5800
  14   2.0000     -10.089924      -274.5608
  15   2.0000     -10.020162      -272.6625
  16   2.0000     -10.019838      -272.6537
  17   2.0000     -10.018996      -272.6307
  18   2.0000     -10.018647      -272.6212
  19   2.0000      -7.874179      -214.2673
  20   2.0000      -7.871653      -214.1986
  21   2.0000      -7.825779      -212.9503
  22   2.0000      -7.823752      -212.8951
  23   2.0000      -6.599020      -179.5685
  24   2.0000      -6.597859      -179.5369
  25   2.0000      -5.820997      -158.3974
  26   2.0000      -5.818433      -158.3276
  27   2.0000      -5.818038      -158.3169
  28   2.0000      -5.815529      -158.2486
  29   2.0000      -5.811402      -158.1363
  30   2.0000      -5.808888      -158.0679
  31   2.0000      -5.773386      -157.1018
  32   2.0000      -5.771241      -157.0435
  33   2.0000      -5.765942      -156.8993
  34   2.0000      -5.765854      -156.8969
  35   2.0000      -5.764037      -156.8474
  36   2.0000      -5.763839      -156.8420
  37   2.0000      -4.744775      -129.1119
  38   2.0000      -4.743977      -129.0902
  39   2.0000      -4.743176      -129.0684
  40   2.0000      -4.742784      -129.0577
  41   2.0000      -4.742532      -129.0509
  42   2.0000      -4.741751      -129.0296
  43   2.0000      -1.056192       -28.7404
  44   2.0000      -1.053826       -28.6761
  45   2.0000      -1.014612       -27.6090
  46   2.0000      -1.014095       -27.5949
  47   2.0000      -0.804662       -21.8960
  48   2.0000      -0.757221       -20.6050
  49   2.0000      -0.746012       -20.3000
  50   2.0000      -0.728003       -19.8100
  51   2.0000      -0.724970       -19.7274
  52   2.0000      -0.708778       -19.2868
  53   2.0000      -0.687879       -18.7181
  54   2.0000      -0.675380       -18.3780
  55   2.0000      -0.627934       -17.0870
  56   2.0000      -0.616542       -16.7770
  57   2.0000      -0.599302       -16.3078
  58   2.0000      -0.594500       -16.1772
  59   2.0000      -0.591442       -16.0940
  60   2.0000      -0.534028       -14.5316
  61   2.0000      -0.523413       -14.2428
  62   2.0000      -0.498987       -13.5781
  63   2.0000      -0.494599       -13.4587
  64   2.0000      -0.476387       -12.9632
  65   2.0000      -0.459999       -12.5172
  66   2.0000      -0.457042       -12.4367
  67   2.0000      -0.447646       -12.1811
  68   2.0000      -0.443748       -12.0750
  69   2.0000      -0.431501       -11.7417
  70   2.0000      -0.420319       -11.4375
  71   2.0000      -0.411222       -11.1899
  72   2.0000      -0.404241       -10.9999
  73   2.0000      -0.397744       -10.8232
  74   2.0000      -0.391595       -10.6558
  75   2.0000      -0.385313       -10.4849
  76   2.0000      -0.384230       -10.4554
  77   2.0000      -0.367836       -10.0093
  78   2.0000      -0.363191        -9.8829
  79   2.0000      -0.362325        -9.8594
  80   2.0000      -0.355933        -9.6854
  81   2.0000      -0.353066        -9.6074
  82   2.0000      -0.352512        -9.5923
  83   2.0000      -0.348525        -9.4838
  84   2.0000      -0.344866        -9.3843
  85   2.0000      -0.330314        -8.9883
  86   2.0000      -0.322341        -8.7713
  87   2.0000      -0.315245        -8.5783
  88   2.0000      -0.313656        -8.5350
  89   2.0000      -0.305472        -8.3123
  90   2.0000      -0.300353        -8.1730
  91   2.0000      -0.292599        -7.9620
  92   2.0000      -0.285562        -7.7705
  93   2.0000      -0.278722        -7.5844
  94   2.0000      -0.273835        -7.4514
  95   2.0000      -0.252712        -6.8766
  96   2.0000      -0.239453        -6.5159
  97   2.0000      -0.236641        -6.4393
  98   2.0000      -0.227504        -6.1907
  99   2.0000      -0.223804        -6.0900
 100   2.0000      -0.221330        -6.0227
 101   0.0000      -0.052099        -1.4177
 102   0.0000      -0.031253        -0.8504
 103   0.0000      -0.004969        -0.1352
 104   0.0000      -0.001840        -0.0501
 105   0.0000       0.013671         0.3720

MULLIKEN ATOMIC CHARGES
-----------------------
   0 C :   -0.482606
   1 C :   -0.147155
   2 O :   -0.312375
   3 P :    0.731774
   4 S :   -0.538239
   5 O :   -0.285531
   6 C :   -0.148194
   7 C :   -0.483829
   8 S :   -0.153353
   9 C :   -0.240862
  10 S :   -0.186073
  11 P :    0.679415
  12 S :   -0.502040
  13 O :   -0.298581
  14 C :   -0.140293
  15 C :   -0.481824
  16 O :   -0.291069
  17 C :   -0.094133
  18 C :   -0.528701
  19 H :    0.169989
  20 H :    0.166178
  21 H :    0.166244
  22 H :    0.171829
  23 H :    0.172560
  24 H :    0.178385
  25 H :    0.180908
  26 H :    0.168878
  27 H :    0.173074
  28 H :    0.170597
  29 H :    0.233097
  30 H :    0.232372
  31 H :    0.170581
  32 H :    0.172850
  33 H :    0.169859
  34 H :    0.167037
  35 H :    0.166472
  36 H :    0.183071
  37 H :    0.177485
  38 H :    0.170675
  39 H :    0.169521
  40 H :    0.172006
Sum of atomic charges:    0.0000000

LOEWDIN ATOMIC CHARGES
----------------------
   0 C :   -0.389032
   1 C :    0.025011
   2 O :   -0.676543
   3 P :    0.379080
   4 S :   -0.165025
   5 O :   -0.682432
   6 C :    0.022751
   7 C :   -0.402462
   8 S :    0.159563
   9 C :   -0.420406
  10 S :    0.137804
  11 P :    0.379402
  12 S :   -0.144463
  13 O :   -0.682300
  14 C :    0.024701
  15 C :   -0.389006
  16 O :   -0.667464
  17 C :    0.027553
  18 C :   -0.394036
  19 H :    0.169162
  20 H :    0.162716
  21 H :    0.163431
  22 H :    0.180005
  23 H :    0.181813
  24 H :    0.182791
  25 H :    0.191461
  26 H :    0.163134
  27 H :    0.169276
  28 H :    0.164467
  29 H :    0.196460
  30 H :    0.197036
  31 H :    0.180069
  32 H :    0.181940
  33 H :    0.169372
  34 H :    0.163439
  35 H :    0.163432
  36 H :    0.193032
  37 H :    0.184176
  38 H :    0.166204
  39 H :    0.164469
  40 H :    0.169420

  Mayer bond orders larger than 0.100000
B(  0-C ,  1-C ) :   0.9524 B(  0-C , 19-H ) :   0.9583 B(  0-C , 20-H ) :   0.9688
B(  0-C , 21-H ) :   0.9688 B(  1-C ,  2-O ) :   0.7710 B(  1-C , 22-H ) :   0.9371
B(  1-C , 23-H ) :   0.9482 B(  2-O ,  3-P ) :   1.1027 B(  3-P ,  4-S ) :   1.6919
B(  3-P ,  5-O ) :   1.1627 B(  3-P ,  8-S ) :   1.0851 B(  5-O ,  6-C ) :   0.7643
B(  6-C ,  7-C ) :   0.9125 B(  6-C , 24-H ) :   0.9589 B(  6-C , 25-H ) :   0.9496
B(  7-C , 26-H ) :   0.9588 B(  7-C , 27-H ) :   0.9561 B(  7-C , 28-H ) :   0.9708
B(  8-S ,  9-C ) :   0.9073 B(  9-C , 10-S ) :   0.9033 B(  9-C , 29-H ) :   0.9025
B(  9-C , 30-H ) :   0.9016 B( 10-S , 11-P ) :   0.9921 B( 11-P , 12-S ) :   1.8067
B( 11-P , 13-O ) :   1.0629 B( 11-P , 16-O ) :   1.1691 B( 13-O , 14-C ) :   0.7788
B( 14-C , 15-C ) :   0.9542 B( 14-C , 31-H ) :   0.9322 B( 14-C , 32-H ) :   0.9472
B( 15-C , 33-H ) :   0.9576 B( 15-C , 34-H ) :   0.9690 B( 15-C , 35-H ) :   0.9681
B( 16-O , 17-C ) :   0.7189 B( 17-C , 18-C ) :   0.9264 B( 17-C , 36-H ) :   0.9452
B( 17-C , 37-H ) :   0.9558 B( 18-C , 38-H ) :   0.9680 B( 18-C , 39-H ) :   0.9724
B( 18-C , 40-H ) :   0.9586

Dispersion correction           -0.020940950
FINAL SINGLE POINT ENERGY     -2932.476912029565

DIPOLE MOMENT
-------------

Method             : SCF
Type of density    : Electron Density
Multiplicity       :   1
Irrep              :   0
Energy             : -2932.5022414642803597 Eh
Relativity type    :
Basis              : AO
                                X                 Y                 Z
Electronic contribution:     -0.004070925      12.052909803     -14.434025279
Nuclear contribution   :      0.124949998     -12.874478895      16.559781569
                        -----------------------------------------
Total Dipole Moment    :      0.120879073      -0.821569091       2.125756290
                        -----------------------------------------
Magnitude (a.u.)       :      2.282197916
Magnitude (Debye)      :      5.800886098

Rotational constants in cm-1:             0.013455             0.004499             0.004203
Rotational constants in MHz :           403.381454           134.869970           126.012281

                             ****ORCA TERMINATED NORMALLY****
TOTAL RUN TIME: 0 days 0 hours 1 minutes 48 seconds 269 msec
