                         Program Version 6.0.0  -   RELEASE  -
|  1> ! r2scan-3c def2/J RI DEFGRID2 scfconv6 printgap
|  2> %output
|  3>     printlevel normal
|  4> end
|  5> * xyz 0 1
|  6> C 4.5577420472 -2.2501188985 0.316084288
|  7> C 4.1070863434 -2.0561573368 -1.1172597509
|  8> O 2.710969499 -1.7050879617 -1.2047181699
|  9> P 2.1412985075 -0.3500823619 -0.6111168134
| 10> S 3.3011652165 1.2298975067 -0.6973399546
| 11> O 1.671921929 -0.7553808675 0.8546774346
| 12> C 1.8614573884 0.0473166633 2.0382971409
| 13> C 0.7433954837 -0.2516351918 3.0152013841
| 14> S 0.4131055358 -0.3279591397 -1.8297308154
| 15> C -0.0038328643 1.4149020166 -1.5611970425
| 16> S -0.4853649516 1.7440178266 0.1532327798
| 17> P -2.1662580828 0.4506137235 0.1697586644
| 18> S -3.2386181555 0.4348685192 -1.4753277651
| 19> O -2.9347682119 0.9073443792 1.4791344097
| 20> C -3.6884582047 2.1374547613 1.5205807231
| 21> C -4.5967758099 2.0826732904 2.7320285729
| 22> O -1.6020194678 -0.9365657246 0.6687622006
| 23> C -1.9607163268 -2.2135403017 0.094914338
| 24> C -0.7891352742 -3.1593016658 0.2585804629
| 25> H 4.5262456409 -1.2972158747 0.8442392691
| 26> H 3.9085605752 -2.9599677641 0.8222502936
| 27> H 5.577595313 -2.6221003366 0.3255085876
| 28> H 4.1789282634 -2.9792870789 -1.6938779757
| 29> H 4.6915281966 -1.2679981672 -1.6019739682
| 30> H 2.8319881506 -0.2222340978 2.4631186066
| 31> H 1.879076943 1.1050381452 1.7592863557
| 32> H 0.7355118167 -1.3098991886 3.2587094791
| 33> H 0.9034374077 0.3260758702 3.9196521644
| 34> H -0.2201118933 0.015348352 2.5877106399
| 35> H -0.8366667301 1.6446093572 -2.225259678
| 36> H 0.8619394704 2.0419820359 -1.773516475
| 37> H -2.982149356 2.9695450696 1.5865084542
| 38> H -4.2611801684 2.2258375207 0.5913573364
| 39> H -5.2841712728 1.2460770461 2.6454287154
| 40> H -4.0040135202 1.9597127101 3.6335511211
| 41> H -5.1621300402 3.0065817062 2.7949455035
| 42> H -2.8401922876 -2.5765024571 0.6317493219
| 43> H -2.21784104 -2.0694610392 -0.9598212498
| 44> H 0.0785411026 -2.7889253798 -0.2830163872
| 45> H -0.5319173958 -3.2522014414 1.3094927347
| 46> H -1.0640279941 -4.1325218366 -0.1348728181
| 47> *
| 48>
| 49>                          ****END OF INPUT****

CARTESIAN COORDINATES (ANGSTROEM)
---------------------------------
  C      4.557742   -2.250119    0.316084
  C      4.107086   -2.056157   -1.117260
  O      2.710969   -1.705088   -1.204718
  P      2.141299   -0.350082   -0.611117
  S      3.301165    1.229898   -0.697340
  O      1.671922   -0.755381    0.854677
  C      1.861457    0.047317    2.038297
  C      0.743395   -0.251635    3.015201
  S      0.413106   -0.327959   -1.829731
  C     -0.003833    1.414902   -1.561197
  S     -0.485365    1.744018    0.153233
  P     -2.166258    0.450614    0.169759
  S     -3.238618    0.434869   -1.475328
  O     -2.934768    0.907344    1.479134
  C     -3.688458    2.137455    1.520581
  C     -4.596776    2.082673    2.732029
  O     -1.602019   -0.936566    0.668762
  C     -1.960716   -2.213540    0.094914
  C     -0.789135   -3.159302    0.258580
  H      4.526246   -1.297216    0.844239
  H      3.908561   -2.959968    0.822250
  H      5.577595   -2.622100    0.325509
  H      4.178928   -2.979287   -1.693878
  H      4.691528   -1.267998   -1.601974
  H      2.831988   -0.222234    2.463119
  H      1.879077    1.105038    1.759286
  H      0.735512   -1.309899    3.258709
  H      0.903437    0.326076    3.919652
  H     -0.220112    0.015348    2.587711
  H     -0.836667    1.644609   -2.225260
  H      0.861939    2.041982   -1.773516
  H     -2.982149    2.969545    1.586508
  H     -4.261180    2.225838    0.591357
  H     -5.284171    1.246077    2.645429
  H     -4.004014    1.959713    3.633551
  H     -5.162130    3.006582    2.794946
  H     -2.840192   -2.576502    0.631749
  H     -2.217841   -2.069461   -0.959821
  H      0.078541   -2.788925   -0.283016
  H     -0.531917   -3.252201    1.309493
  H     -1.064028   -4.132522   -0.134873

 Total Charge           Charge          ....    0
 Multiplicity           Mult            ....    1
 Number of Electrons    NEL             ....  202
 Basis Dimension        Dim             ....  539

ORBITAL ENERGIES
----------------

  NO   OCC          E(Eh)            E(eV)
   0   2.0000     -88.577188     -2410.3078
   1   2.0000     -88.574296     -2410.2291
   2   2.0000     -88.522938     -2408.8316
   3   2.0000     -88.521868     -2408.8025
   4   2.0000     -76.915312     -2092.9720
   5   2.0000     -76.914912     -2092.9611
   6   2.0000     -18.994205      -516.8586
   7   2.0000     -18.992722      -516.8182
   8   2.0000     -18.989883      -516.7410
   9   2.0000     -18.989003      -516.7170
  10   2.0000     -10.105219      -274.9770
  11   2.0000     -10.102630      -274.9065
  12   2.0000     -10.100560      -274.8502
  13   2.0000     -10.095706      -274.7181
  14   2.0000     -10.095156      -274.7032
  15   2.0000     -10.034702      -273.0581
  16   2.0000     -10.034195      -273.0443
  17   2.0000     -10.025848      -272.8172
  18   2.0000     -10.025797      -272.8158
  19   2.0000      -7.871628      -214.1979
  20   2.0000      -7.868586      -214.1151
  21   2.0000      -7.817687      -212.7301
  22   2.0000      -7.816604      -212.7006
  23   2.0000      -6.593864      -179.4282
  24   2.0000      -6.593309      -179.4130
  25   2.0000      -5.818422      -158.3273
  26   2.0000      -5.815525      -158.2485
  27   2.0000      -5.815452      -158.2465
  28   2.0000      -5.812557      -158.1677
  29   2.0000      -5.808857      -158.0670
  30   2.0000      -5.805526      -157.9764
  31   2.0000      -5.765324      -156.8824
  32   2.0000      -5.764191      -156.8516
  33   2.0000      -5.758253      -156.6900
  34   2.0000      -5.757419      -156.6673
  35   2.0000      -5.756892      -156.6530
  36   2.0000      -5.756664      -156.6468
  37   2.0000      -4.739131      -128.9583
  38   2.0000      -4.738874      -128.9513
  39   2.0000      -4.738610      -128.9441
  40   2.0000      -4.738032      -128.9284
  41   2.0000      -4.737702      -128.9194
  42   2.0000      -4.737420      -128.9118
  43   2.0000      -1.051408       -28.6103
  44   2.0000      -1.048321       -28.5263
  45   2.0000      -1.011148       -27.5147
  46   2.0000      -1.009662       -27.4743
  47   2.0000      -0.804288       -21.8858
  48   2.0000      -0.762921       -20.7601
  49   2.0000      -0.751923       -20.4609
  50   2.0000      -0.733381       -19.9563
  51   2.0000      -0.731860       -19.9149
  52   2.0000      -0.708108       -19.2686
  53   2.0000      -0.683949       -18.6112
  54   2.0000      -0.669740       -18.2245
  55   2.0000      -0.635403       -17.2902
  56   2.0000      -0.623782       -16.9740
  57   2.0000      -0.602854       -16.4045
  58   2.0000      -0.599357       -16.3093
  59   2.0000      -0.589671       -16.0458
  60   2.0000      -0.534555       -14.5460
  61   2.0000      -0.524149       -14.2628
  62   2.0000      -0.500824       -13.6281
  63   2.0000      -0.497418       -13.5354
  64   2.0000      -0.478627       -13.0241
  65   2.0000      -0.461892       -12.5687
  66   2.0000      -0.459569       -12.5055
  67   2.0000      -0.451339       -12.2816
  68   2.0000      -0.447930       -12.1888
  69   2.0000      -0.427596       -11.6355
  70   2.0000      -0.420366       -11.4387
  71   2.0000      -0.415316       -11.3013
  72   2.0000      -0.413919       -11.2633
  73   2.0000      -0.402503       -10.9527
  74   2.0000      -0.395709       -10.7678
  75   2.0000      -0.392143       -10.6708
  76   2.0000      -0.381944       -10.3932
  77   2.0000      -0.375248       -10.2110
  78   2.0000      -0.373338       -10.1590
  79   2.0000      -0.365917        -9.9571
  80   2.0000      -0.363260        -9.8848
  81   2.0000      -0.363059        -9.8793
  82   2.0000      -0.352726        -9.5982
  83   2.0000      -0.349600        -9.5131
  84   2.0000      -0.348080        -9.4717
  85   2.0000      -0.338828        -9.2200
  86   2.0000      -0.324447        -8.8287
  87   2.0000      -0.318214        -8.6590
  88   2.0000      -0.311868        -8.4864
  89   2.0000      -0.304993        -8.2993
  90   2.0000      -0.299471        -8.1490
  91   2.0000      -0.292859        -7.9691
  92   2.0000      -0.290122        -7.8946
  93   2.0000      -0.280382        -7.6296
  94   2.0000      -0.270926        -7.3723
  95   2.0000      -0.246599        -6.7103
  96   2.0000      -0.231174        -6.2906
  97   2.0000      -0.229223        -6.2375
  98   2.0000      -0.222239        -6.0474
  99   2.0000      -0.215308        -5.8588
 100   2.0000      -0.212169        -5.7734
 101   0.0000      -0.051765        -1.4086
 102   0.0000      -0.027904        -0.7593
 103   0.0000      -0.000490        -0.0133
 104   0.0000       0.004381         0.1192
 105   0.0000       0.007393         0.2012

MULLIKEN ATOMIC CHARGES
-----------------------
   0 C :   -0.444252
   1 C :   -0.154744
   2 O :   -0.315542
   3 P :    0.669100
   4 S :   -0.478237
   5 O :   -0.244495
   6 C :   -0.097330
   7 C :   -0.470516
   8 S :   -0.133158
   9 C :   -0.227765
  10 S :   -0.171946
  11 P :    0.712278
  12 S :   -0.484569
  13 O :   -0.301153
  14 C :   -0.152794
  15 C :   -0.438114
  16 O :   -0.254457
  17 C :   -0.124631
  18 C :   -0.452390
  19 H :    0.166417
  20 H :    0.159490
  21 H :    0.150616
  22 H :    0.150767
  23 H :    0.173333
  24 H :    0.142969
  25 H :    0.171378
  26 H :    0.146165
  27 H :    0.145004
  28 H :    0.175086
  29 H :    0.212723
  30 H :    0.211428
  31 H :    0.151581
  32 H :    0.170206
  33 H :    0.157200
  34 H :    0.152772
  35 H :    0.147243
  36 H :    0.146417
  37 H :    0.173821
  38 H :    0.168137
  39 H :    0.147515
  40 H :    0.144445
Sum of atomic charges:    0.0000000

LOEWDIN ATOMIC CHARGES
----------------------
   0 C :   -0.400405
   1 C :    0.025929
   2 O :   -0.675964
   3 P :    0.381844
   4 S :   -0.125665
   5 O :   -0.668085
   6 C :    0.008345
   7 C :   -0.392052
   8 S :    0.188402
   9 C :   -0.418078
  10 S :    0.155618
  11 P :    0.373870
  12 S :   -0.128014
  13 O :   -0.663255
  14 C :    0.020002
  15 C :   -0.385003
  16 O :   -0.668620
  17 C :    0.019972
  18 C :   -0.390440
  19 H :    0.163492
  20 H :    0.161643
  21 H :    0.160604
  22 H :    0.181214
  23 H :    0.180011
  24 H :    0.169328
  25 H :    0.181315
  26 H :    0.158508
  27 H :    0.158323
  28 H :    0.171196
  29 H :    0.190995
  30 H :    0.190320
  31 H :    0.171787
  32 H :    0.180662
  33 H :    0.161417
  34 H :    0.159667
  35 H :    0.160211
  36 H :    0.172290
  37 H :    0.183852
  38 H :    0.167235
  39 H :    0.159154
  40 H :    0.158376

  Mayer bond orders larger than 0.100000
B(  0-C ,  1-C ) :   0.9155 B(  0-C , 19-H ) :   0.9626 B(  0-C , 20-H ) :   0.9695
B(  0-C , 21-H ) :   0.9592 B(  1-C ,  2-O ) :   0.8123 B(  1-C , 22-H ) :   0.9597
B(  1-C , 23-H ) :   0.9686 B(  2-O ,  3-P ) :   1.1435 B(  3-P ,  4-S ) :   1.7738
B(  3-P ,  5-O ) :   1.0589 B(  3-P ,  8-S ) :   1.0638 B(  5-O ,  6-C ) :   0.7469
B(  6-C ,  7-C ) :   0.9356 B(  6-C , 24-H ) :   0.9436 B(  6-C , 25-H ) :   0.9596
B(  7-C , 26-H ) :   0.9682 B(  7-C , 27-H ) :   0.9689 B(  7-C , 28-H ) :   0.9661
B(  8-S ,  9-C ) :   0.9005 B(  9-C , 10-S ) :   0.8922 B(  9-C , 29-H ) :   0.9078
B(  9-C , 30-H ) :   0.9089 B( 10-S , 11-P ) :   1.0189 B( 11-P , 12-S ) :   1.7652
B( 11-P , 13-O ) :   1.1054 B( 11-P , 16-O ) :   1.1559 B( 13-O , 14-C ) :   0.7791
B( 14-C , 15-C ) :   0.9571 B( 14-C , 31-H ) :   0.9426 B( 14-C , 32-H ) :   0.9520
B( 15-C , 33-H ) :   0.9717 B( 15-C , 34-H ) :   0.9716 B( 15-C , 35-H ) :   0.9643
B( 16-O , 17-C ) :   0.7659 B( 17-C , 18-C ) :   0.9499 B( 17-C , 36-H ) :   0.9438
B( 17-C , 37-H ) :   0.9621 B( 18-C , 38-H ) :   0.9643 B( 18-C , 39-H ) :   0.9664
B( 18-C , 40-H ) :   0.9656

Dispersion correction           -0.022248977
FINAL SINGLE POINT ENERGY     -2932.465589583049

DIPOLE MOMENT
-------------

Method             : SCF
Type of density    : Electron Density
Multiplicity       :   1
Irrep              :   0
Energy             : -2932.4898805568268472 Eh
Relativity type    :
Basis              : AO
                                X                 Y                 Z
Electronic contribution:     -0.604110985       9.804223359     -18.474854478
Nuclear contribution   :      0.741711763     -10.477139905      19.766024674
                        -----------------------------------------
Total Dipole Moment    :      0.137600778      -0.672916546       1.291170196
                        -----------------------------------------
Magnitude (a.u.)       :      1.462487992
Magnitude (Debye)      :      3.717349053

Rotational constants in cm-1:             0.013375             0.005010             0.004953
Rotational constants in MHz :           400.958936           150.188084           148.492406

                             ****ORCA TERMINATED NORMALLY****
TOTAL RUN TIME: 0 days 0 hours 1 minutes 23 seconds 820 msec
