                         Program Version 6.0.0  -   RELEASE  -
|  1> ! r2scan-3c def2/J RI DEFGRID2 scfconv6 printgap
|  2> %output
|  3>     printlevel normal
|  4> end
|  5> %cpcm
|  6>     smd true
|  7>     smdsolvent "water"
|  8> end
|  9> * xyz 0 1
| 10> C 4.5577420472 -2.2501188985 0.316084288
| 11> C 4.1070863434 -2.0561573368 -1.1172597509
| 12> O 2.710969499 -1.7050879617 -1.2047181699
| 13> P 2.1412985075 -0.3500823619 -0.6111168134
| 14> S 3.3011652165 1.2298975067 -0.6973399546
| 15> O 1.671921929 -0.7553808675 0.8546774346
| 16> C 1.8614573884 0.0473166633 2.0382971409
| 17> C 0.7433954837 -0.2516351918 3.0152013841
| 18> S 0.4131055358 -0.3279591397 -1.8297308154
| 19> C -0.0038328643 1.4149020166 -1.5611970425
| 20> S -0.4853649516 1.7440178266 0.1532327798
| 21> P -2.1662580828 0.4506137235 0.1697586644
| 22> S -3.2386181555 0.4348685192 -1.4753277651
| 23> O -2.9347682119 0.9073443792 1.4791344097
| 24> C -3.6884582047 2.1374547613 1.5205807231
| 25> C -4.5967758099 2.0826732904 2.7320285729
| 26> O -1.6020194678 -0.9365657246 0.6687622006
| 27> C -1.9607163268 -2.2135403017 0.094914338
| 28> C -0.7891352742 -3.1593016658 0.2585804629
| 29> H 4.5262456409 -1.2972158747 0.8442392691
| 30> H 3.9085605752 -2.9599677641 0.8222502936
| 31> H 5.577595313 -2.6221003366 0.3255085876
| 32> H 4.1789282634 -2.9792870789 -1.6938779757
| 33> H 4.6915281966 -1.2679981672 -1.6019739682
| 34> H 2.8319881506 -0.2222340978 2.4631186066
| 35> H 1.879076943 1.1050381452 1.7592863557
| 36> H 0.7355118167 -1.3098991886 3.2587094791
| 37> H 0.9034374077 0.3260758702 3.9196521644
| 38> H -0.2201118933 0.015348352 2.5877106399
| 39> H -0.8366667301 1.6446093572 -2.225259678
| 40> H 0.8619394704 2.0419820359 -1.773516475
| 41> H -2.982149356 2.9695450696 1.5865084542
| 42> H -4.2611801684 2.2258375207 0.5913573364
| 43> H -5.2841712728 1.2460770461 2.6454287154
| 44> H -4.0040135202 1.9597127101 3.6335511211
| 45> H -5.1621300402 3.0065817062 2.7949455035
| 46> H -2.8401922876 -2.5765024571 0.6317493219
| 47> H -2.21784104 -2.0694610392 -0.9598212498
| 48> H 0.0785411026 -2.7889253798 -0.2830163872
| 49> H -0.5319173958 -3.2522014414 1.3094927347
| 50> H -1.0640279941 -4.1325218366 -0.1348728181
| 51> *
| 52>
| 53>                          ****END OF INPUT****

CARTESIAN COORDINATES (ANGSTROEM)
---------------------------------
  C      4.557742   -2.250119    0.316084
  C      4.107086   -2.056157   -1.117260
  O      2.710969   -1.705088   -1.204718
  P      2.141299   -0.350082   -0.611117
  S      3.301165    1.229898   -0.697340
  O      1.671922   -0.755381    0.854677
  C      1.861457    0.047317    2.038297
  C      0.743395   -0.251635    3.015201
  S      0.413106   -0.327959   -1.829731
  C     -0.003833    1.414902   -1.561197
  S     -0.485365    1.744018    0.153233
  P     -2.166258    0.450614    0.169759
  S     -3.238618    0.434869   -1.475328
  O     -2.934768    0.907344    1.479134
  C     -3.688458    2.137455    1.520581
  C     -4.596776    2.082673    2.732029
  O     -1.602019   -0.936566    0.668762
  C     -1.960716   -2.213540    0.094914
  C     -0.789135   -3.159302    0.258580
  H      4.526246   -1.297216    0.844239
  H      3.908561   -2.959968    0.822250
  H      5.577595   -2.622100    0.325509
  H      4.178928   -2.979287   -1.693878
  H      4.691528   -1.267998   -1.601974
  H      2.831988   -0.222234    2.463119
  H      1.879077    1.105038    1.759286
  H      0.735512   -1.309899    3.258709
  H      0.903437    0.326076    3.919652
  H     -0.220112    0.015348    2.587711
  H     -0.836667    1.644609   -2.225260
  H      0.861939    2.041982   -1.773516
  H     -2.982149    2.969545    1.586508
  H     -4.261180    2.225838    0.591357
  H     -5.284171    1.246077    2.645429
  H     -4.004014    1.959713    3.633551
  H     -5.162130    3.006582    2.794946
  H     -2.840192   -2.576502    0.631749
  H     -2.217841   -2.069461   -0.959821
  H      0.078541   -2.788925   -0.283016
  H     -0.531917   -3.252201    1.309493
  H     -1.064028   -4.132522   -0.134873

 Total Charge           Charge          ....    0
 Multiplicity           Mult            ....    1
 Number of Electrons    NEL             ....  202
 Basis Dimension        Dim             ....  539

ORBITAL ENERGIES
----------------

  NO   OCC          E(Eh)            E(eV)
   0   2.0000     -88.580808     -2410.4063
   1   2.0000     -88.579812     -2410.3792
   2   2.0000     -88.530126     -2409.0272
   3   2.0000     -88.529715     -2409.0160
   4   2.0000     -76.920790     -2093.1211
   5   2.0000     -76.920362     -2093.1095
   6   2.0000     -18.996479      -516.9205
   7   2.0000     -18.994590      -516.8691
   8   2.0000     -18.994307      -516.8614
   9   2.0000     -18.992979      -516.8252
  10   2.0000     -10.105483      -274.9842
  11   2.0000     -10.091271      -274.5974
  12   2.0000     -10.090927      -274.5881
  13   2.0000     -10.090299      -274.5710
  14   2.0000     -10.088619      -274.5253
  15   2.0000     -10.019926      -272.6560
  16   2.0000     -10.019581      -272.6466
  17   2.0000     -10.018437      -272.6155
  18   2.0000     -10.017610      -272.5930
  19   2.0000      -7.875219      -214.2956
  20   2.0000      -7.874167      -214.2670
  21   2.0000      -7.825151      -212.9332
  22   2.0000      -7.824741      -212.9220
  23   2.0000      -6.599380      -179.5783
  24   2.0000      -6.598775      -179.5618
  25   2.0000      -5.822014      -158.4251
  26   2.0000      -5.821041      -158.3986
  27   2.0000      -5.819045      -158.3443
  28   2.0000      -5.818087      -158.3182
  29   2.0000      -5.812451      -158.1648
  30   2.0000      -5.811226      -158.1315
  31   2.0000      -5.772738      -157.0842
  32   2.0000      -5.772259      -157.0712
  33   2.0000      -5.765630      -156.8908
  34   2.0000      -5.765038      -156.8747
  35   2.0000      -5.764970      -156.8728
  36   2.0000      -5.764807      -156.8684
  37   2.0000      -4.744632      -129.1080
  38   2.0000      -4.744387      -129.1013
  39   2.0000      -4.744032      -129.0917
  40   2.0000      -4.743507      -129.0774
  41   2.0000      -4.743268      -129.0709
  42   2.0000      -4.742956      -129.0624
  43   2.0000      -1.054473       -28.6937
  44   2.0000      -1.050633       -28.5892
  45   2.0000      -1.013668       -27.5833
  46   2.0000      -1.011825       -27.5331
  47   2.0000      -0.807162       -21.9640
  48   2.0000      -0.760248       -20.6874
  49   2.0000      -0.746356       -20.3094
  50   2.0000      -0.724766       -19.7219
  51   2.0000      -0.723865       -19.6974
  52   2.0000      -0.708106       -19.2685
  53   2.0000      -0.688174       -18.7262
  54   2.0000      -0.676156       -18.3991
  55   2.0000      -0.633375       -17.2350
  56   2.0000      -0.619110       -16.8468
  57   2.0000      -0.596100       -16.2207
  58   2.0000      -0.594230       -16.1698
  59   2.0000      -0.587306       -15.9814
  60   2.0000      -0.531935       -14.4747
  61   2.0000      -0.521739       -14.1972
  62   2.0000      -0.499554       -13.5936
  63   2.0000      -0.494166       -13.4469
  64   2.0000      -0.478716       -13.0265
  65   2.0000      -0.456190       -12.4136
  66   2.0000      -0.455945       -12.4069
  67   2.0000      -0.447477       -12.1765
  68   2.0000      -0.443658       -12.0726
  69   2.0000      -0.428263       -11.6536
  70   2.0000      -0.416758       -11.3406
  71   2.0000      -0.414082       -11.2677
  72   2.0000      -0.411993       -11.2109
  73   2.0000      -0.401708       -10.9310
  74   2.0000      -0.395285       -10.7563
  75   2.0000      -0.387955       -10.5568
  76   2.0000      -0.379350       -10.3226
  77   2.0000      -0.368027       -10.0145
  78   2.0000      -0.363100        -9.8804
  79   2.0000      -0.358968        -9.7680
  80   2.0000      -0.355602        -9.6764
  81   2.0000      -0.354322        -9.6416
  82   2.0000      -0.347225        -9.4485
  83   2.0000      -0.344538        -9.3753
  84   2.0000      -0.342433        -9.3181
  85   2.0000      -0.333878        -9.0853
  86   2.0000      -0.323211        -8.7950
  87   2.0000      -0.314695        -8.5633
  88   2.0000      -0.308346        -8.3905
  89   2.0000      -0.305004        -8.2996
  90   2.0000      -0.300680        -8.1819
  91   2.0000      -0.290912        -7.9161
  92   2.0000      -0.289183        -7.8691
  93   2.0000      -0.279837        -7.6147
  94   2.0000      -0.272187        -7.4066
  95   2.0000      -0.250612        -6.8195
  96   2.0000      -0.238719        -6.4959
  97   2.0000      -0.236486        -6.4351
  98   2.0000      -0.230213        -6.2644
  99   2.0000      -0.222983        -6.0677
 100   2.0000      -0.219608        -5.9758
 101   0.0000      -0.057172        -1.5557
 102   0.0000      -0.034158        -0.9295
 103   0.0000      -0.005167        -0.1406
 104   0.0000       0.001824         0.0496
 105   0.0000       0.005830         0.1586

MULLIKEN ATOMIC CHARGES
-----------------------
   0 C :   -0.477272
   1 C :   -0.153550
   2 O :   -0.343180
   3 P :    0.693155
   4 S :   -0.517286
   5 O :   -0.271331
   6 C :   -0.088376
   7 C :   -0.517301
   8 S :   -0.155949
   9 C :   -0.239725
  10 S :   -0.171660
  11 P :    0.737167
  12 S :   -0.529056
  13 O :   -0.328317
  14 C :   -0.143291
  15 C :   -0.481473
  16 O :   -0.280367
  17 C :   -0.111310
  18 C :   -0.506868
  19 H :    0.170200
  20 H :    0.170821
  21 H :    0.174536
  22 H :    0.176404
  23 H :    0.178513
  24 H :    0.172963
  25 H :    0.170219
  26 H :    0.168448
  27 H :    0.170753
  28 H :    0.168834
  29 H :    0.233832
  30 H :    0.232684
  31 H :    0.170497
  32 H :    0.172970
  33 H :    0.166470
  34 H :    0.166103
  35 H :    0.170031
  36 H :    0.172473
  37 H :    0.173585
  38 H :    0.165811
  39 H :    0.169249
  40 H :    0.170592
Sum of atomic charges:   -0.0000000

LOEWDIN ATOMIC CHARGES
----------------------
   0 C :   -0.402156
   1 C :    0.030258
   2 O :   -0.689043
   3 P :    0.384370
   4 S :   -0.151053
   5 O :   -0.680606
   6 C :    0.012607
   7 C :   -0.396209
   8 S :    0.174277
   9 C :   -0.412680
  10 S :    0.158672
  11 P :    0.377889
  12 S :   -0.158219
  13 O :   -0.676085
  14 C :    0.024930
  15 C :   -0.388652
  16 O :   -0.682647
  17 C :    0.023505
  18 C :   -0.394791
  19 H :    0.163158
  20 H :    0.164998
  21 H :    0.169585
  22 H :    0.191878
  23 H :    0.181633
  24 H :    0.180893
  25 H :    0.181198
  26 H :    0.163922
  27 H :    0.168538
  28 H :    0.166517
  29 H :    0.197316
  30 H :    0.196701
  31 H :    0.179663
  32 H :    0.181828
  33 H :    0.163112
  34 H :    0.163361
  35 H :    0.169243
  36 H :    0.182487
  37 H :    0.183777
  38 H :    0.163294
  39 H :    0.163893
  40 H :    0.168638

  Mayer bond orders larger than 0.100000
B(  0-C ,  1-C ) :   0.9060 B(  0-C , 19-H ) :   0.9603 B(  0-C , 20-H ) :   0.9676
B(  0-C , 21-H ) :   0.9535 B(  1-C ,  2-O ) :   0.7996 B(  1-C , 22-H ) :   0.9497
B(  1-C , 23-H ) :   0.9647 B(  2-O ,  3-P ) :   1.1492 B(  3-P ,  4-S ) :   1.7528
B(  3-P ,  5-O ) :   1.0603 B(  3-P ,  8-S ) :   1.0735 B(  5-O ,  6-C ) :   0.7377
B(  6-C ,  7-C ) :   0.9238 B(  6-C , 24-H ) :   0.9356 B(  6-C , 25-H ) :   0.9562
B(  7-C , 26-H ) :   0.9660 B(  7-C , 27-H ) :   0.9617 B(  7-C , 28-H ) :   0.9672
B(  8-S ,  9-C ) :   0.8889 B(  9-C , 10-S ) :   0.8850 B(  9-C , 29-H ) :   0.9017
B(  9-C , 30-H ) :   0.9036 B( 10-S , 11-P ) :   1.0351 B( 11-P , 12-S ) :   1.7324
B( 11-P , 13-O ) :   1.1112 B( 11-P , 16-O ) :   1.1594 B( 13-O , 14-C ) :   0.7725
B( 14-C , 15-C ) :   0.9526 B( 14-C , 31-H ) :   0.9337 B( 14-C , 32-H ) :   0.9482
B( 15-C , 33-H ) :   0.9698 B( 15-C , 34-H ) :   0.9689 B( 15-C , 35-H ) :   0.9582
B( 16-O , 17-C ) :   0.7578 B( 17-C , 18-C ) :   0.9340 B( 17-C , 36-H ) :   0.9345
B( 17-C , 37-H ) :   0.9592 B( 18-C , 38-H ) :   0.9664 B( 18-C , 39-H ) :   0.9650
B( 18-C , 40-H ) :   0.9588

Dispersion correction           -0.022248977
FINAL SINGLE POINT ENERGY     -2932.474251198317

DIPOLE MOMENT
-------------

Method             : SCF
Type of density    : Electron Density
Multiplicity       :   1
Irrep              :   0
Energy             : -2932.4985421720948580 Eh
Relativity type    :
Basis              : AO
                                X                 Y                 Z
Electronic contribution:     -0.477012485       9.725936560     -18.065260465
Nuclear contribution   :      0.741711763     -10.477139905      19.766024674
                        -----------------------------------------
Total Dipole Moment    :      0.264699278      -0.751203345       1.700764209
                        -----------------------------------------
Magnitude (a.u.)       :      1.878023181
Magnitude (Debye)      :      4.773555564

Rotational constants in cm-1:             0.013375             0.005010             0.004953
Rotational constants in MHz :           400.958936           150.188084           148.492406

                             ****ORCA TERMINATED NORMALLY****
TOTAL RUN TIME: 0 days 0 hours 1 minutes 52 seconds 394 msec
