                         Program Version 6.0.0  -   RELEASE  -
|  1> ! pbe def2-sv(p) def2/J RI DEFGRID1 loosescf d4 GCP(DFT/SV(P)) printgap
|  2> %output
|  3>     printlevel normal
|  4> end
|  5> * xyz 0 1
|  6> C 3.8607914444 1.4486886584 -2.0005141893
|  7> C 2.5710556542 0.701809423 -2.2643442919
|  8> O 2.3747543708 -0.3823543047 -1.3369707131
|  9> P 2.1172375055 -0.162229207 0.2097039936
| 10> S 1.0212979765 1.3957918613 0.7052822045
| 11> O 3.5909181549 -0.1020112088 0.7989277824
| 12> C 3.8744228003 0.3839219939 2.122661152
| 13> C 3.3189362269 -0.5307023976 3.1948864196
| 14> S 1.5237877292 -2.1170158461 0.7204999216
| 15> C -0.1635249518 -2.1757704071 0.0581071348
| 16> S -1.3442981596 -1.1662502501 1.0100274052
| 17> P -1.9356057445 0.1755935434 -0.4996600432
| 18> S -0.909250715 0.2502038445 -2.1633922853
| 19> O -2.1417936605 1.6243080772 0.10762438
| 20> C -2.9903543055 1.9151405612 1.2459186781
| 21> C -2.2181047903 1.8435530804 2.5478644692
| 22> O -3.4104032302 -0.4221747368 -0.7019161833
| 23> C -4.2516794482 0.0286760386 -1.7834072513
| 24> C -5.4213033309 -0.9282051008 -1.8885608177
| 25> H 4.6949735035 0.7528570977 -1.9662848576
| 26> H 4.0223329595 2.1729094796 -2.7928235197
| 27> H 3.798117705 1.9732874326 -1.0479526502
| 28> H 2.5724502049 0.2104795067 -3.2383995091
| 29> H 1.7080915653 1.3730648372 -2.2029056043
| 30> H 4.9635553841 0.4324545911 2.1552944447
| 31> H 3.4510698562 1.3890610176 2.2188017957
| 32> H 3.6495984557 -0.1854955803 4.169167981
| 33> H 2.2298537607 -0.5170688417 3.1655290504
| 34> H 3.6594009812 -1.5506115084 3.0351675849
| 35> H -0.4718061262 -3.2146813987 0.1375957575
| 36> H -0.1636123628 -1.8347121491 -0.980145838
| 37> H -3.33890576 2.9311187092 1.0508694828
| 38> H -3.8350855622 1.2206718126 1.247812206
| 39> H -1.2967062111 2.4146724332 2.4601621788
| 40> H -2.8268875534 2.2590481396 3.34456835
| 41> H -1.9644689867 0.8144204734 2.7915423668
| 42> H -4.5833263942 1.0490588621 -1.568119121
| 43> H -3.6565982196 0.0404811849 -2.7030122628
| 44> H -5.9774284682 -0.9404993327 -0.9557488209
| 45> H -6.0730684352 -0.6059184891 -2.6939950993
| 46> H -5.0611094518 -1.9316069381 -2.0959063712
| 47> *
| 48>
| 49>                          ****END OF INPUT****

CARTESIAN COORDINATES (ANGSTROEM)
---------------------------------
  C      3.860791    1.448689   -2.000514
  C      2.571056    0.701809   -2.264344
  O      2.374754   -0.382354   -1.336971
  P      2.117238   -0.162229    0.209704
  S      1.021298    1.395792    0.705282
  O      3.590918   -0.102011    0.798928
  C      3.874423    0.383922    2.122661
  C      3.318936   -0.530702    3.194886
  S      1.523788   -2.117016    0.720500
  C     -0.163525   -2.175770    0.058107
  S     -1.344298   -1.166250    1.010027
  P     -1.935606    0.175594   -0.499660
  S     -0.909251    0.250204   -2.163392
  O     -2.141794    1.624308    0.107624
  C     -2.990354    1.915141    1.245919
  C     -2.218105    1.843553    2.547864
  O     -3.410403   -0.422175   -0.701916
  C     -4.251679    0.028676   -1.783407
  C     -5.421303   -0.928205   -1.888561
  H      4.694974    0.752857   -1.966285
  H      4.022333    2.172909   -2.792824
  H      3.798118    1.973287   -1.047953
  H      2.572450    0.210480   -3.238400
  H      1.708092    1.373065   -2.202906
  H      4.963555    0.432455    2.155294
  H      3.451070    1.389061    2.218802
  H      3.649598   -0.185496    4.169168
  H      2.229854   -0.517069    3.165529
  H      3.659401   -1.550612    3.035168
  H     -0.471806   -3.214681    0.137596
  H     -0.163612   -1.834712   -0.980146
  H     -3.338906    2.931119    1.050869
  H     -3.835086    1.220672    1.247812
  H     -1.296706    2.414672    2.460162
  H     -2.826888    2.259048    3.344568
  H     -1.964469    0.814420    2.791542
  H     -4.583326    1.049059   -1.568119
  H     -3.656598    0.040481   -2.703012
  H     -5.977428   -0.940499   -0.955749
  H     -6.073068   -0.605918   -2.693995
  H     -5.061109   -1.931607   -2.095906

 Total Charge           Charge          ....    0
 Multiplicity           Mult            ....    1
 Number of Electrons    NEL             ....  202
 Basis Dimension        Dim             ....  334

ORBITAL ENERGIES
----------------

  NO   OCC          E(Eh)            E(eV)
   0   2.0000     -88.038647     -2395.6534
   1   2.0000     -88.038188     -2395.6409
   2   2.0000     -87.981360     -2394.0945
   3   2.0000     -87.979586     -2394.0463
   4   2.0000     -76.421249     -2079.5279
   5   2.0000     -76.419270     -2079.4740
   6   2.0000     -18.790626      -511.3189
   7   2.0000     -18.786215      -511.1989
   8   2.0000     -18.783325      -511.1203
   9   2.0000     -18.779703      -511.0217
  10   2.0000      -9.956756      -270.9371
  11   2.0000      -9.954027      -270.8628
  12   2.0000      -9.948141      -270.7027
  13   2.0000      -9.947841      -270.6945
  14   2.0000      -9.938110      -270.4297
  15   2.0000      -9.885977      -269.0111
  16   2.0000      -9.882604      -268.9193
  17   2.0000      -9.880817      -268.8707
  18   2.0000      -9.875011      -268.7127
  19   2.0000      -7.684098      -209.0949
  20   2.0000      -7.683772      -209.0861
  21   2.0000      -7.626498      -207.5276
  22   2.0000      -7.624061      -207.4613
  23   2.0000      -6.419190      -174.6750
  24   2.0000      -6.416777      -174.6094
  25   2.0000      -5.712070      -155.4333
  26   2.0000      -5.711608      -155.4208
  27   2.0000      -5.708844      -155.3456
  28   2.0000      -5.708326      -155.3315
  29   2.0000      -5.700636      -155.1222
  30   2.0000      -5.700617      -155.1217
  31   2.0000      -5.655480      -153.8934
  32   2.0000      -5.652873      -153.8225
  33   2.0000      -5.647369      -153.6727
  34   2.0000      -5.646211      -153.6412
  35   2.0000      -5.644757      -153.6016
  36   2.0000      -5.644328      -153.5900
  37   2.0000      -4.642145      -126.3192
  38   2.0000      -4.640577      -126.2765
  39   2.0000      -4.639643      -126.2511
  40   2.0000      -4.639259      -126.2406
  41   2.0000      -4.638556      -126.2215
  42   2.0000      -4.637323      -126.1880
  43   2.0000      -0.980987       -26.6940
  44   2.0000      -0.979210       -26.6457
  45   2.0000      -0.938099       -25.5270
  46   2.0000      -0.937768       -25.5180
  47   2.0000      -0.759802       -20.6753
  48   2.0000      -0.719165       -19.5695
  49   2.0000      -0.704284       -19.1645
  50   2.0000      -0.690342       -18.7852
  51   2.0000      -0.681425       -18.5425
  52   2.0000      -0.668970       -18.2036
  53   2.0000      -0.648303       -17.6412
  54   2.0000      -0.631669       -17.1886
  55   2.0000      -0.596608       -16.2345
  56   2.0000      -0.583031       -15.8651
  57   2.0000      -0.572634       -15.5822
  58   2.0000      -0.565965       -15.4007
  59   2.0000      -0.554198       -15.0805
  60   2.0000      -0.507107       -13.7991
  61   2.0000      -0.485464       -13.2101
  62   2.0000      -0.476419       -12.9640
  63   2.0000      -0.465534       -12.6678
  64   2.0000      -0.445656       -12.1269
  65   2.0000      -0.443926       -12.0798
  66   2.0000      -0.437192       -11.8966
  67   2.0000      -0.432216       -11.7612
  68   2.0000      -0.428657       -11.6644
  69   2.0000      -0.416362       -11.3298
  70   2.0000      -0.407152       -11.0792
  71   2.0000      -0.389224       -10.5913
  72   2.0000      -0.385280       -10.4840
  73   2.0000      -0.381168       -10.3721
  74   2.0000      -0.375897       -10.2287
  75   2.0000      -0.371351       -10.1050
  76   2.0000      -0.361766        -9.8441
  77   2.0000      -0.357422        -9.7260
  78   2.0000      -0.350102        -9.5268
  79   2.0000      -0.349305        -9.5051
  80   2.0000      -0.345950        -9.4138
  81   2.0000      -0.342023        -9.3069
  82   2.0000      -0.336062        -9.1447
  83   2.0000      -0.332376        -9.0444
  84   2.0000      -0.330599        -8.9961
  85   2.0000      -0.315191        -8.5768
  86   2.0000      -0.309387        -8.4188
  87   2.0000      -0.301837        -8.2134
  88   2.0000      -0.290095        -7.8939
  89   2.0000      -0.276849        -7.5335
  90   2.0000      -0.274247        -7.4626
  91   2.0000      -0.269886        -7.3440
  92   2.0000      -0.264770        -7.2048
  93   2.0000      -0.264391        -7.1945
  94   2.0000      -0.256376        -6.9763
  95   2.0000      -0.235244        -6.4013
  96   2.0000      -0.219228        -5.9655
  97   2.0000      -0.206113        -5.6086
  98   2.0000      -0.200305        -5.4506
  99   2.0000      -0.189806        -5.1649
 100   2.0000      -0.181752        -4.9457
 101   0.0000      -0.039468        -1.0740
 102   0.0000      -0.030961        -0.8425
 103   0.0000      -0.008202        -0.2232
 104   0.0000       0.005492         0.1494
 105   0.0000       0.023968         0.6522

MULLIKEN ATOMIC CHARGES
-----------------------
   0 C :   -0.302382
   1 C :   -0.010263
   2 O :   -0.364792
   3 P :    0.616953
   4 S :   -0.325263
   5 O :   -0.373519
   6 C :   -0.002473
   7 C :   -0.319578
   8 S :   -0.088676
   9 C :   -0.344756
  10 S :   -0.091195
  11 P :    0.635932
  12 S :   -0.313189
  13 O :   -0.363937
  14 C :   -0.034025
  15 C :   -0.299953
  16 O :   -0.388114
  17 C :   -0.019655
  18 C :   -0.273076
  19 H :    0.113456
  20 H :    0.109018
  21 H :    0.119375
  22 H :    0.101422
  23 H :    0.128866
  24 H :    0.103915
  25 H :    0.108710
  26 H :    0.111840
  27 H :    0.128874
  28 H :    0.119065
  29 H :    0.183482
  30 H :    0.197727
  31 H :    0.110370
  32 H :    0.105237
  33 H :    0.136835
  34 H :    0.107566
  35 H :    0.132202
  36 H :    0.095341
  37 H :    0.107966
  38 H :    0.112024
  39 H :    0.109829
  40 H :    0.118844
Sum of atomic charges:   -0.0000000

LOEWDIN ATOMIC CHARGES
----------------------
   0 C :   -0.365130
   1 C :   -0.120889
   2 O :   -0.237224
   3 P :    0.568228
   4 S :   -0.313061
   5 O :   -0.243825
   6 C :   -0.120709
   7 C :   -0.371397
   8 S :    0.090183
   9 C :   -0.477337
  10 S :    0.086576
  11 P :    0.574191
  12 S :   -0.292691
  13 O :   -0.236039
  14 C :   -0.115539
  15 C :   -0.363595
  16 O :   -0.264770
  17 C :   -0.123520
  18 C :   -0.350308
  19 H :    0.124624
  20 H :    0.129041
  21 H :    0.121308
  22 H :    0.118028
  23 H :    0.110436
  24 H :    0.118056
  25 H :    0.108839
  26 H :    0.130576
  27 H :    0.121961
  28 H :    0.123995
  29 H :    0.138547
  30 H :    0.125200
  31 H :    0.121514
  32 H :    0.107952
  33 H :    0.131830
  34 H :    0.128669
  35 H :    0.119695
  36 H :    0.106149
  37 H :    0.107561
  38 H :    0.124550
  39 H :    0.129604
  40 H :    0.128726

  Mayer bond orders larger than 0.100000
B(  0-C ,  1-C ) :   1.1615 B(  0-C , 19-H ) :   0.9451 B(  0-C , 20-H ) :   0.9393
B(  0-C , 21-H ) :   0.9382 B(  1-C ,  2-O ) :   0.9011 B(  1-C , 22-H ) :   0.9366
B(  1-C , 23-H ) :   0.9086 B(  2-O ,  3-P ) :   1.1356 B(  3-P ,  4-S ) :   1.6030
B(  3-P ,  5-O ) :   1.0980 B(  3-P ,  8-S ) :   0.9640 B(  4-S ,  8-S ) :   0.1192
B(  5-O ,  6-C ) :   0.9086 B(  6-C ,  7-C ) :   1.1666 B(  6-C , 24-H ) :   0.9332
B(  6-C , 25-H ) :   0.9132 B(  7-C , 26-H ) :   0.9378 B(  7-C , 27-H ) :   0.9335
B(  7-C , 28-H ) :   0.9437 B(  8-S ,  9-C ) :   0.9974 B(  9-C , 10-S ) :   1.0002
B(  9-C , 29-H ) :   0.9117 B(  9-C , 30-H ) :   0.8515 B( 10-S , 11-P ) :   0.9629
B( 10-S , 12-S ) :   0.1114 B( 11-P , 12-S ) :   1.6160 B( 11-P , 13-O ) :   1.1199
B( 11-P , 16-O ) :   1.0670 B( 12-S , 30-H ) :   0.1079 B( 13-O , 14-C ) :   0.9073
B( 14-C , 15-C ) :   1.1716 B( 14-C , 31-H ) :   0.9341 B( 14-C , 32-H ) :   0.9175
B( 15-C , 33-H ) :   0.9394 B( 15-C , 34-H ) :   0.9372 B( 15-C , 35-H ) :   0.9351
B( 16-O , 17-C ) :   0.9097 B( 17-C , 18-C ) :   1.1593 B( 17-C , 36-H ) :   0.9283
B( 17-C , 37-H ) :   0.9112 B( 18-C , 38-H ) :   0.9518 B( 18-C , 39-H ) :   0.9424
B( 18-C , 40-H ) :   0.9504

Dispersion correction           -0.066939897
FINAL SINGLE POINT ENERGY     -2929.513821472297

DIPOLE MOMENT
-------------

Method             : SCF
Type of density    : Electron Density
Multiplicity       :   1
Irrep              :   0
Energy             : -2929.6314301032462026 Eh
Relativity type    :
Basis              : AO
                                X                 Y                 Z
Electronic contribution:      3.779027167      -7.673216020      -3.054151734
Nuclear contribution   :     -4.385963955       7.788807472       3.547310250
                        -----------------------------------------
Total Dipole Moment    :     -0.606936788       0.115591452       0.493158516
                        -----------------------------------------
Magnitude (a.u.)       :      0.790530816
Magnitude (Debye)      :      2.009369646

Rotational constants in cm-1:             0.012591             0.005215             0.004846
Rotational constants in MHz :           377.460547           156.336558           145.264699

                             ****ORCA TERMINATED NORMALLY****
TOTAL RUN TIME: 0 days 0 hours 0 minutes 21 seconds 120 msec
