                         Program Version 6.0.0  -   RELEASE  -
|  1> ! pbe def2-sv(p) def2/J RI DEFGRID1 loosescf d4 GCP(DFT/SV(P)) printgap
|  2> %output
|  3>     printlevel normal
|  4> end
|  5> * xyz 0 1
|  6> C 1.7685855877 -3.0368324092 -1.2799018091
|  7> C 3.0807340007 -2.6519070928 -0.6315366516
|  8> O 3.356559908 -1.2319440248 -0.7252221417
|  9> P 2.4297722907 -0.0777103862 -0.1776904628
| 10> S 3.4163290184 1.5671861611 0.1977569344
| 11> O 1.7025924163 -0.7452374947 1.0739637695
| 12> C 1.4892441207 -0.0949440621 2.3384927405
| 13> C 2.3729198077 -0.7357797057 3.3903107274
| 14> S 0.9613750315 0.1139566875 -1.7138148861
| 15> C 0.3951202075 1.7771123431 -1.2991433093
| 16> S -0.4222818762 1.8468693097 0.3181556269
| 17> P -1.929005035 0.416631065 -0.1038486968
| 18> S -2.6691816346 0.5195210268 -1.9216410501
| 19> O -2.9942411302 0.6229336924 1.0551169228
| 20> C -4.0652396449 1.5840028817 0.9683825145
| 21> C -5.2623212046 1.0289783581 1.7145835071
| 22> O -1.2047276634 -0.9080586967 0.3702965748
| 23> C -1.8885287994 -2.1332063235 0.7229425178
| 24> C -2.5578009967 -2.7797081033 -0.4717252099
| 25> H 1.7428640666 -2.7031805352 -2.3149902165
| 26> H 1.6577003969 -4.1163649298 -1.2477154413
| 27> H 0.9395036675 -2.5758373661 -0.7460578691
| 28> H 3.932149815 -3.1027592949 -1.1434009341
| 29> H 3.0896826099 -2.9303931363 0.4241834989
| 30> H 1.7154138624 0.9717445294 2.2403306135
| 31> H 0.4287292401 -0.2207985009 2.5666429122
| 32> H 2.1721941091 -1.8013683238 3.4563539375
| 33> H 3.4195307836 -0.5855729364 3.133303074
| 34> H 2.1743734479 -0.2720199339 4.3510392376
| 35> H -0.3079325157 2.0700602965 -2.0781144796
| 36> H 1.244765452 2.4579771246 -1.2472734835
| 37> H -3.7110673079 2.5151987569 1.4161573854
| 38> H -4.2979824877 1.7555089918 -0.0880203881
| 39> H -4.9934806394 0.8193088275 2.7458821776
| 40> H -6.0626196509 1.761334941 1.6945855889
| 41> H -5.6071806371 0.1121806552 1.2441628445
| 42> H -1.0900795338 -2.7615786578 1.1224263248
| 43> H -2.613528347 -1.9095152059 1.5083560198
| 44> H -2.9722614161 -3.7385448236 -0.1765675773
| 45> H -3.3596707723 -2.1448157791 -0.8449055041
| 46> H -1.8389885055 -2.9290101704 -1.2742081993
| 47> *
| 48>
| 49>                          ****END OF INPUT****

CARTESIAN COORDINATES (ANGSTROEM)
---------------------------------
  C      1.768586   -3.036832   -1.279902
  C      3.080734   -2.651907   -0.631537
  O      3.356560   -1.231944   -0.725222
  P      2.429772   -0.077710   -0.177690
  S      3.416329    1.567186    0.197757
  O      1.702592   -0.745237    1.073964
  C      1.489244   -0.094944    2.338493
  C      2.372920   -0.735780    3.390311
  S      0.961375    0.113957   -1.713815
  C      0.395120    1.777112   -1.299143
  S     -0.422282    1.846869    0.318156
  P     -1.929005    0.416631   -0.103849
  S     -2.669182    0.519521   -1.921641
  O     -2.994241    0.622934    1.055117
  C     -4.065240    1.584003    0.968383
  C     -5.262321    1.028978    1.714584
  O     -1.204728   -0.908059    0.370297
  C     -1.888529   -2.133206    0.722943
  C     -2.557801   -2.779708   -0.471725
  H      1.742864   -2.703181   -2.314990
  H      1.657700   -4.116365   -1.247715
  H      0.939504   -2.575837   -0.746058
  H      3.932150   -3.102759   -1.143401
  H      3.089683   -2.930393    0.424183
  H      1.715414    0.971745    2.240331
  H      0.428729   -0.220799    2.566643
  H      2.172194   -1.801368    3.456354
  H      3.419531   -0.585573    3.133303
  H      2.174373   -0.272020    4.351039
  H     -0.307933    2.070060   -2.078114
  H      1.244765    2.457977   -1.247273
  H     -3.711067    2.515199    1.416157
  H     -4.297982    1.755509   -0.088020
  H     -4.993481    0.819309    2.745882
  H     -6.062620    1.761335    1.694586
  H     -5.607181    0.112181    1.244163
  H     -1.090080   -2.761579    1.122426
  H     -2.613528   -1.909515    1.508356
  H     -2.972261   -3.738545   -0.176568
  H     -3.359671   -2.144816   -0.844906
  H     -1.838989   -2.929010   -1.274208

 Total Charge           Charge          ....    0
 Multiplicity           Mult            ....    1
 Number of Electrons    NEL             ....  202
 Basis Dimension        Dim             ....  334

ORBITAL ENERGIES
----------------

  NO   OCC          E(Eh)            E(eV)
   0   2.0000     -88.041414     -2395.7287
   1   2.0000     -88.034652     -2395.5447
   2   2.0000     -87.989205     -2394.3080
   3   2.0000     -87.980837     -2394.0803
   4   2.0000     -76.430906     -2079.7907
   5   2.0000     -76.423360     -2079.5854
   6   2.0000     -18.801336      -511.6104
   7   2.0000     -18.794090      -511.4132
   8   2.0000     -18.791565      -511.3445
   9   2.0000     -18.788729      -511.2673
  10   2.0000      -9.960797      -271.0471
  11   2.0000      -9.958980      -270.9976
  12   2.0000      -9.957543      -270.9585
  13   2.0000      -9.949261      -270.7331
  14   2.0000      -9.945424      -270.6288
  15   2.0000      -9.893825      -269.2247
  16   2.0000      -9.890948      -269.1464
  17   2.0000      -9.887148      -269.0430
  18   2.0000      -9.883294      -268.9381
  19   2.0000      -7.686278      -209.1543
  20   2.0000      -7.679369      -208.9663
  21   2.0000      -7.634206      -207.7373
  22   2.0000      -7.626121      -207.5173
  23   2.0000      -6.428121      -174.9181
  24   2.0000      -6.420636      -174.7144
  25   2.0000      -5.714200      -155.4913
  26   2.0000      -5.710885      -155.4011
  27   2.0000      -5.707373      -155.3055
  28   2.0000      -5.703948      -155.2123
  29   2.0000      -5.703144      -155.1904
  30   2.0000      -5.696195      -155.0013
  31   2.0000      -5.663070      -154.1000
  32   2.0000      -5.655088      -153.8828
  33   2.0000      -5.654901      -153.8777
  34   2.0000      -5.654367      -153.8631
  35   2.0000      -5.646630      -153.6526
  36   2.0000      -5.646281      -153.6431
  37   2.0000      -4.651130      -126.5637
  38   2.0000      -4.649690      -126.5245
  39   2.0000      -4.648399      -126.4894
  40   2.0000      -4.643690      -126.3612
  41   2.0000      -4.642013      -126.3156
  42   2.0000      -4.641078      -126.2901
  43   2.0000      -0.993521       -27.0351
  44   2.0000      -0.984280       -26.7836
  45   2.0000      -0.949617       -25.8404
  46   2.0000      -0.940929       -25.6040
  47   2.0000      -0.763140       -20.7661
  48   2.0000      -0.723752       -19.6943
  49   2.0000      -0.711902       -19.3718
  50   2.0000      -0.695119       -18.9152
  51   2.0000      -0.691351       -18.8126
  52   2.0000      -0.672344       -18.2954
  53   2.0000      -0.651085       -17.7169
  54   2.0000      -0.635413       -17.2905
  55   2.0000      -0.598860       -16.2958
  56   2.0000      -0.592711       -16.1285
  57   2.0000      -0.578823       -15.7506
  58   2.0000      -0.575159       -15.6509
  59   2.0000      -0.559445       -15.2233
  60   2.0000      -0.510815       -13.9000
  61   2.0000      -0.495832       -13.4923
  62   2.0000      -0.479571       -13.0498
  63   2.0000      -0.475853       -12.9486
  64   2.0000      -0.458908       -12.4875
  65   2.0000      -0.445407       -12.1201
  66   2.0000      -0.444104       -12.0847
  67   2.0000      -0.441235       -12.0066
  68   2.0000      -0.426350       -11.6016
  69   2.0000      -0.417160       -11.3515
  70   2.0000      -0.411815       -11.2061
  71   2.0000      -0.401437       -10.9236
  72   2.0000      -0.388822       -10.5804
  73   2.0000      -0.381670       -10.3858
  74   2.0000      -0.378965       -10.3122
  75   2.0000      -0.376410       -10.2426
  76   2.0000      -0.372445       -10.1347
  77   2.0000      -0.361204        -9.8288
  78   2.0000      -0.357260        -9.7215
  79   2.0000      -0.354909        -9.6576
  80   2.0000      -0.350323        -9.5328
  81   2.0000      -0.348968        -9.4959
  82   2.0000      -0.345116        -9.3911
  83   2.0000      -0.341588        -9.2951
  84   2.0000      -0.337648        -9.1879
  85   2.0000      -0.324302        -8.8247
  86   2.0000      -0.307100        -8.3566
  87   2.0000      -0.304628        -8.2894
  88   2.0000      -0.299860        -8.1596
  89   2.0000      -0.294245        -8.0068
  90   2.0000      -0.287011        -7.8100
  91   2.0000      -0.280336        -7.6283
  92   2.0000      -0.269671        -7.3381
  93   2.0000      -0.265165        -7.2155
  94   2.0000      -0.255341        -6.9482
  95   2.0000      -0.235823        -6.4171
  96   2.0000      -0.213909        -5.8207
  97   2.0000      -0.210938        -5.7399
  98   2.0000      -0.203318        -5.5326
  99   2.0000      -0.197617        -5.3774
 100   2.0000      -0.192537        -5.2392
 101   0.0000      -0.046596        -1.2679
 102   0.0000      -0.022807        -0.6206
 103   0.0000      -0.000353        -0.0096
 104   0.0000       0.004537         0.1235
 105   0.0000       0.008262         0.2248

MULLIKEN ATOMIC CHARGES
-----------------------
   0 C :   -0.378579
   1 C :    0.013557
   2 O :   -0.369646
   3 P :    0.628701
   4 S :   -0.320477
   5 O :   -0.386857
   6 C :   -0.012775
   7 C :   -0.278218
   8 S :   -0.095721
   9 C :   -0.347761
  10 S :   -0.099779
  11 P :    0.634389
  12 S :   -0.327932
  13 O :   -0.387259
  14 C :   -0.009911
  15 C :   -0.286677
  16 O :   -0.363038
  17 C :   -0.007092
  18 C :   -0.313447
  19 H :    0.134791
  20 H :    0.115907
  21 H :    0.166901
  22 H :    0.112373
  23 H :    0.105396
  24 H :    0.114598
  25 H :    0.097271
  26 H :    0.106121
  27 H :    0.117079
  28 H :    0.108662
  29 H :    0.190835
  30 H :    0.192415
  31 H :    0.105613
  32 H :    0.109716
  33 H :    0.116276
  34 H :    0.115355
  35 H :    0.117026
  36 H :    0.107903
  37 H :    0.110200
  38 H :    0.108802
  39 H :    0.127897
  40 H :    0.127385
Sum of atomic charges:    0.0000000

LOEWDIN ATOMIC CHARGES
----------------------
   0 C :   -0.379419
   1 C :   -0.106530
   2 O :   -0.243039
   3 P :    0.574097
   4 S :   -0.313727
   5 O :   -0.246075
   6 C :   -0.126966
   7 C :   -0.356336
   8 S :    0.087789
   9 C :   -0.482214
  10 S :    0.084657
  11 P :    0.569627
  12 S :   -0.316157
  13 O :   -0.249804
  14 C :   -0.120247
  15 C :   -0.351793
  16 O :   -0.235761
  17 C :   -0.111168
  18 C :   -0.366684
  19 H :    0.129026
  20 H :    0.132507
  21 H :    0.125425
  22 H :    0.123374
  23 H :    0.113095
  24 H :    0.103849
  25 H :    0.107114
  26 H :    0.119912
  27 H :    0.126398
  28 H :    0.129413
  29 H :    0.130940
  30 H :    0.130714
  31 H :    0.114362
  32 H :    0.108064
  33 H :    0.126007
  34 H :    0.132594
  35 H :    0.126669
  36 H :    0.117261
  37 H :    0.111679
  38 H :    0.128727
  39 H :    0.122309
  40 H :    0.130310

  Mayer bond orders larger than 0.100000
B(  0-C ,  1-C ) :   1.1677 B(  0-C , 19-H ) :   0.9380 B(  0-C , 20-H ) :   0.9343
B(  0-C , 21-H ) :   0.9209 B(  1-C ,  2-O ) :   0.9002 B(  1-C , 22-H ) :   0.9340
B(  1-C , 23-H ) :   0.9283 B(  2-O ,  3-P ) :   1.1366 B(  3-P ,  4-S ) :   1.6355
B(  3-P ,  5-O ) :   1.0672 B(  3-P ,  8-S ) :   0.9450 B(  4-S ,  8-S ) :   0.1040
B(  5-O ,  6-C ) :   0.8994 B(  6-C ,  7-C ) :   1.1586 B(  6-C , 24-H ) :   0.8999
B(  6-C , 25-H ) :   0.9278 B(  7-C , 26-H ) :   0.9493 B(  7-C , 27-H ) :   0.9459
B(  7-C , 28-H ) :   0.9416 B(  8-S ,  9-C ) :   1.0211 B(  9-C , 10-S ) :   0.9907
B(  9-C , 29-H ) :   0.8857 B(  9-C , 30-H ) :   0.8777 B( 10-S , 11-P ) :   0.9541
B( 10-S , 12-S ) :   0.1148 B( 11-P , 12-S ) :   1.6168 B( 11-P , 13-O ) :   1.0917
B( 11-P , 16-O ) :   1.1136 B( 13-O , 14-C ) :   0.9015 B( 14-C , 15-C ) :   1.1604
B( 14-C , 31-H ) :   0.9322 B( 14-C , 32-H ) :   0.9024 B( 15-C , 33-H ) :   0.9509
B( 15-C , 34-H ) :   0.9416 B( 15-C , 35-H ) :   0.9508 B( 16-O , 17-C ) :   0.8983
B( 17-C , 18-C ) :   1.1720 B( 17-C , 36-H ) :   0.9291 B( 17-C , 37-H ) :   0.9281
B( 18-C , 38-H ) :   0.9361 B( 18-C , 39-H ) :   0.9326 B( 18-C , 40-H ) :   0.9465

Dispersion correction           -0.066785541
FINAL SINGLE POINT ENERGY     -2929.518188773635

DIPOLE MOMENT
-------------

Method             : SCF
Type of density    : Electron Density
Multiplicity       :   1
Irrep              :   0
Energy             : -2929.6374903059863755 Eh
Relativity type    :
Basis              : AO
                                X                 Y                 Z
Electronic contribution:     12.666135180      17.195132813     -12.952564679
Nuclear contribution   :    -13.923330598     -18.586900003      14.198822198
                        -----------------------------------------
Total Dipole Moment    :     -1.257195418      -1.391767190       1.246257518
                        -----------------------------------------
Magnitude (a.u.)       :      2.251824601
Magnitude (Debye)      :      5.723683267

Rotational constants in cm-1:             0.011860             0.005396             0.005165
Rotational constants in MHz :           355.541067           161.768128           154.835329

                             ****ORCA TERMINATED NORMALLY****
TOTAL RUN TIME: 0 days 0 hours 0 minutes 22 seconds 32 msec
