                         Program Version 6.0.0  -   RELEASE  -
|  1> ! pbe def2-sv(p) def2/J RI DEFGRID1 loosescf d4 GCP(DFT/SV(P)) printgap
|  2> %output
|  3>     printlevel normal
|  4> end
|  5> * xyz 0 1
|  6> C 5.5619412463 -1.0063317087 0.2564994078
|  7> C 4.2482196224 -1.6211596041 -0.1804235253
|  8> O 3.5413610803 -0.7490164977 -1.0975893514
|  9> P 2.4684354546 0.32223653 -0.6602571598
| 10> S 1.7957240081 1.3060639861 -2.2082808765
| 11> O 3.2283377991 1.1756242949 0.4443590256
| 12> C 2.7936896306 2.4887151333 0.8418377874
| 13> C 1.4562244249 2.4596117056 1.551550391
| 14> S 1.0432729627 -0.8123133774 0.4540390963
| 15> C 0.0853434847 -1.34522431 -1.0040486411
| 16> S -1.4891018486 -2.0769061663 -0.5267723112
| 17> P -2.3352533618 -0.3464733266 0.3458295463
| 18> S -1.8184930627 1.3957280127 -0.4088220361
| 19> O -1.9337628683 -0.5431871682 1.8636248747
| 20> C -1.8721485324 0.5478206178 2.8022475329
| 21> C -3.2595569817 1.0238403758 3.1779093609
| 22> O -3.8875693296 -0.682124407 0.398133611
| 23> C -4.6932481261 -1.1311477654 -0.7058705152
| 24> C -4.5730061521 -0.2406236791 -1.925501661
| 25> H 6.1638880588 -0.7586208396 -0.6134308395
| 26> H 5.3843425891 -0.1007948133 0.8295752341
| 27> H 6.0990238307 -1.7209677389 0.8723895068
| 28> H 3.6023552197 -1.8287339716 0.6776469703
| 29> H 4.4105014713 -2.5358315177 -0.753504932
| 30> H 3.5905697735 2.8377788056 1.5001491949
| 31> H 2.740951418 3.1206027708 -0.0498642091
| 32> H 1.2410450401 3.4439074901 1.954989851
| 33> H 0.6672477166 2.1947602281 0.8472471834
| 34> H 1.4725875216 1.7314388267 2.3593551081
| 35> H 0.634691514 -2.1115728314 -1.5466007456
| 36> H -0.0896220295 -0.4668688795 -1.631827064
| 37> H -1.3354645775 0.1311377018 3.6551542566
| 38> H -1.2919900253 1.3619991057 2.3564314604
| 39> H -3.1851181112 1.802331743 3.9305302526
| 40> H -3.7573350945 1.4256060119 2.2958162053
| 41> H -3.848667165 0.1968629721 3.5647100334
| 42> H -4.3996736414 -2.1571137877 -0.9451629891
| 43> H -5.7078807445 -1.1202475375 -0.3035164205
| 44> H -5.2657073631 -0.5784636004 -2.6895677842
| 45> H -4.7981171761 0.791661482 -1.6671096628
| 46> H -3.5598174672 -0.2818765404 -2.3244222218
| 47> *
| 48>
| 49>                          ****END OF INPUT****

CARTESIAN COORDINATES (ANGSTROEM)
---------------------------------
  C      5.561941   -1.006332    0.256499
  C      4.248220   -1.621160   -0.180424
  O      3.541361   -0.749016   -1.097589
  P      2.468435    0.322237   -0.660257
  S      1.795724    1.306064   -2.208281
  O      3.228338    1.175624    0.444359
  C      2.793690    2.488715    0.841838
  C      1.456224    2.459612    1.551550
  S      1.043273   -0.812313    0.454039
  C      0.085343   -1.345224   -1.004049
  S     -1.489102   -2.076906   -0.526772
  P     -2.335253   -0.346473    0.345830
  S     -1.818493    1.395728   -0.408822
  O     -1.933763   -0.543187    1.863625
  C     -1.872149    0.547821    2.802248
  C     -3.259557    1.023840    3.177909
  O     -3.887569   -0.682124    0.398134
  C     -4.693248   -1.131148   -0.705871
  C     -4.573006   -0.240624   -1.925502
  H      6.163888   -0.758621   -0.613431
  H      5.384343   -0.100795    0.829575
  H      6.099024   -1.720968    0.872390
  H      3.602355   -1.828734    0.677647
  H      4.410501   -2.535832   -0.753505
  H      3.590570    2.837779    1.500149
  H      2.740951    3.120603   -0.049864
  H      1.241045    3.443907    1.954990
  H      0.667248    2.194760    0.847247
  H      1.472588    1.731439    2.359355
  H      0.634692   -2.111573   -1.546601
  H     -0.089622   -0.466869   -1.631827
  H     -1.335465    0.131138    3.655154
  H     -1.291990    1.361999    2.356431
  H     -3.185118    1.802332    3.930530
  H     -3.757335    1.425606    2.295816
  H     -3.848667    0.196863    3.564710
  H     -4.399674   -2.157114   -0.945163
  H     -5.707881   -1.120248   -0.303516
  H     -5.265707   -0.578464   -2.689568
  H     -4.798117    0.791661   -1.667110
  H     -3.559817   -0.281877   -2.324422

 Total Charge           Charge          ....    0
 Multiplicity           Mult            ....    1
 Number of Electrons    NEL             ....  202
 Basis Dimension        Dim             ....  334

ORBITAL ENERGIES
----------------

  NO   OCC          E(Eh)            E(eV)
   0   2.0000     -88.048702     -2395.9270
   1   2.0000     -88.038379     -2395.6461
   2   2.0000     -87.985370     -2394.2036
   3   2.0000     -87.980854     -2394.0807
   4   2.0000     -76.426952     -2079.6831
   5   2.0000     -76.423119     -2079.5788
   6   2.0000     -18.794458      -511.4232
   7   2.0000     -18.793389      -511.3941
   8   2.0000     -18.789776      -511.2958
   9   2.0000     -18.786376      -511.2033
  10   2.0000      -9.959156      -271.0024
  11   2.0000      -9.954247      -270.8688
  12   2.0000      -9.952500      -270.8213
  13   2.0000      -9.951395      -270.7912
  14   2.0000      -9.948966      -270.7251
  15   2.0000      -9.885002      -268.9846
  16   2.0000      -9.883516      -268.9441
  17   2.0000      -9.882066      -268.9047
  18   2.0000      -9.878474      -268.8069
  19   2.0000      -7.694008      -209.3646
  20   2.0000      -7.682899      -209.0623
  21   2.0000      -7.629812      -207.6177
  22   2.0000      -7.626142      -207.5179
  23   2.0000      -6.424170      -174.8105
  24   2.0000      -6.420603      -174.7135
  25   2.0000      -5.721816      -155.6985
  26   2.0000      -5.718516      -155.6087
  27   2.0000      -5.711030      -155.4050
  28   2.0000      -5.710718      -155.3965
  29   2.0000      -5.707645      -155.3129
  30   2.0000      -5.699800      -155.0995
  31   2.0000      -5.658712      -153.9814
  32   2.0000      -5.655121      -153.8837
  33   2.0000      -5.650589      -153.7603
  34   2.0000      -5.649906      -153.7418
  35   2.0000      -5.646685      -153.6541
  36   2.0000      -5.646274      -153.6429
  37   2.0000      -4.646634      -126.4413
  38   2.0000      -4.646103      -126.4269
  39   2.0000      -4.644611      -126.3863
  40   2.0000      -4.643593      -126.3586
  41   2.0000      -4.642259      -126.3223
  42   2.0000      -4.640781      -126.2821
  43   2.0000      -0.986741       -26.8506
  44   2.0000      -0.986147       -26.8344
  45   2.0000      -0.944876       -25.7114
  46   2.0000      -0.944694       -25.7064
  47   2.0000      -0.764084       -20.7918
  48   2.0000      -0.720466       -19.6049
  49   2.0000      -0.708954       -19.2916
  50   2.0000      -0.688179       -18.7263
  51   2.0000      -0.687480       -18.7073
  52   2.0000      -0.675072       -18.3696
  53   2.0000      -0.650917       -17.7123
  54   2.0000      -0.635314       -17.2878
  55   2.0000      -0.597256       -16.2522
  56   2.0000      -0.591688       -16.1006
  57   2.0000      -0.575478       -15.6595
  58   2.0000      -0.573378       -15.6024
  59   2.0000      -0.558284       -15.1917
  60   2.0000      -0.500270       -13.6130
  61   2.0000      -0.492644       -13.4055
  62   2.0000      -0.473172       -12.8757
  63   2.0000      -0.470261       -12.7964
  64   2.0000      -0.453281       -12.3344
  65   2.0000      -0.447521       -12.1777
  66   2.0000      -0.438809       -11.9406
  67   2.0000      -0.435002       -11.8370
  68   2.0000      -0.428281       -11.6541
  69   2.0000      -0.425228       -11.5710
  70   2.0000      -0.414331       -11.2745
  71   2.0000      -0.396143       -10.7796
  72   2.0000      -0.390395       -10.6232
  73   2.0000      -0.388217       -10.5639
  74   2.0000      -0.383933       -10.4474
  75   2.0000      -0.371061       -10.0971
  76   2.0000      -0.364042        -9.9061
  77   2.0000      -0.355715        -9.6795
  78   2.0000      -0.351138        -9.5550
  79   2.0000      -0.348278        -9.4771
  80   2.0000      -0.347209        -9.4480
  81   2.0000      -0.345151        -9.3920
  82   2.0000      -0.341662        -9.2971
  83   2.0000      -0.337452        -9.1825
  84   2.0000      -0.333617        -9.0782
  85   2.0000      -0.316958        -8.6249
  86   2.0000      -0.312475        -8.5029
  87   2.0000      -0.297630        -8.0989
  88   2.0000      -0.294664        -8.0182
  89   2.0000      -0.289494        -7.8775
  90   2.0000      -0.287346        -7.8191
  91   2.0000      -0.273793        -7.4503
  92   2.0000      -0.269339        -7.3291
  93   2.0000      -0.263081        -7.1588
  94   2.0000      -0.258837        -7.0433
  95   2.0000      -0.231377        -6.2961
  96   2.0000      -0.222091        -6.0434
  97   2.0000      -0.207608        -5.6493
  98   2.0000      -0.200266        -5.4495
  99   2.0000      -0.195969        -5.3326
 100   2.0000      -0.193316        -5.2604
 101   0.0000      -0.043479        -1.1831
 102   0.0000      -0.030717        -0.8359
 103   0.0000      -0.009592        -0.2610
 104   0.0000       0.013991         0.3807
 105   0.0000       0.017144         0.4665

MULLIKEN ATOMIC CHARGES
-----------------------
   0 C :   -0.292275
   1 C :   -0.011804
   2 O :   -0.360459
   3 P :    0.604002
   4 S :   -0.303066
   5 O :   -0.382143
   6 C :    0.016830
   7 C :   -0.369986
   8 S :   -0.107516
   9 C :   -0.357258
  10 S :   -0.092734
  11 P :    0.606124
  12 S :   -0.306767
  13 O :   -0.358104
  14 C :   -0.023698
  15 C :   -0.300801
  16 O :   -0.373374
  17 C :   -0.010572
  18 C :   -0.311984
  19 H :    0.119493
  20 H :    0.123465
  21 H :    0.108398
  22 H :    0.101713
  23 H :    0.106969
  24 H :    0.100978
  25 H :    0.113617
  26 H :    0.111535
  27 H :    0.169989
  28 H :    0.113150
  29 H :    0.179935
  30 H :    0.214001
  31 H :    0.103809
  32 H :    0.130078
  33 H :    0.109283
  34 H :    0.122874
  35 H :    0.115390
  36 H :    0.113394
  37 H :    0.109725
  38 H :    0.111905
  39 H :    0.126984
  40 H :    0.128900
Sum of atomic charges:    0.0000000

LOEWDIN ATOMIC CHARGES
----------------------
   0 C :   -0.360623
   1 C :   -0.116847
   2 O :   -0.241581
   3 P :    0.571362
   4 S :   -0.296115
   5 O :   -0.246300
   6 C :   -0.114784
   7 C :   -0.380210
   8 S :    0.064270
   9 C :   -0.481606
  10 S :    0.088658
  11 P :    0.568271
  12 S :   -0.294935
  13 O :   -0.239150
  14 C :   -0.118973
  15 C :   -0.362626
  16 O :   -0.244772
  17 C :   -0.113726
  18 C :   -0.369417
  19 H :    0.128601
  20 H :    0.126098
  21 H :    0.128886
  22 H :    0.102257
  23 H :    0.119866
  24 H :    0.116599
  25 H :    0.114406
  26 H :    0.130516
  27 H :    0.122153
  28 H :    0.119913
  29 H :    0.132961
  30 H :    0.122959
  31 H :    0.118168
  32 H :    0.113148
  33 H :    0.129030
  34 H :    0.123736
  35 H :    0.125830
  36 H :    0.109530
  37 H :    0.121798
  38 H :    0.130209
  39 H :    0.130008
  40 H :    0.122435

  Mayer bond orders larger than 0.100000
B(  0-C ,  1-C ) :   1.1640 B(  0-C , 19-H ) :   0.9472 B(  0-C , 20-H ) :   0.9412
B(  0-C , 21-H ) :   0.9395 B(  1-C ,  2-O ) :   0.8995 B(  1-C , 22-H ) :   0.9089
B(  1-C , 23-H ) :   0.9368 B(  2-O ,  3-P ) :   1.1299 B(  3-P ,  4-S ) :   1.6511
B(  3-P ,  5-O ) :   1.0875 B(  3-P ,  8-S ) :   0.9480 B(  4-S ,  8-S ) :   0.1146
B(  5-O ,  6-C ) :   0.9029 B(  6-C ,  7-C ) :   1.1630 B(  6-C , 24-H ) :   0.9326
B(  6-C , 25-H ) :   0.9182 B(  7-C , 26-H ) :   0.9367 B(  7-C , 27-H ) :   0.9122
B(  7-C , 28-H ) :   0.9419 B(  8-S ,  9-C ) :   0.9766 B(  9-C , 10-S ) :   1.0173
B(  9-C , 29-H ) :   0.9071 B(  9-C , 30-H ) :   0.8511 B( 10-S , 11-P ) :   0.9398
B( 10-S , 12-S ) :   0.1138 B( 11-P , 12-S ) :   1.6125 B( 11-P , 13-O ) :   1.1285
B( 11-P , 16-O ) :   1.1072 B( 13-O , 14-C ) :   0.9047 B( 14-C , 15-C ) :   1.1626
B( 14-C , 31-H ) :   0.9344 B( 14-C , 32-H ) :   0.9071 B( 15-C , 33-H ) :   0.9399
B( 15-C , 34-H ) :   0.9368 B( 15-C , 35-H ) :   0.9465 B( 16-O , 17-C ) :   0.9145
B( 17-C , 18-C ) :   1.1633 B( 17-C , 36-H ) :   0.9284 B( 17-C , 37-H ) :   0.9342
B( 18-C , 38-H ) :   0.9349 B( 18-C , 39-H ) :   0.9425 B( 18-C , 40-H ) :   0.9339

Dispersion correction           -0.065057765
FINAL SINGLE POINT ENERGY     -2929.517070658291

DIPOLE MOMENT
-------------

Method             : SCF
Type of density    : Electron Density
Multiplicity       :   1
Irrep              :   0
Energy             : -2929.6366229706068225 Eh
Relativity type    :
Basis              : AO
                                X                 Y                 Z
Electronic contribution:      1.134247735      -5.710387211     -10.720636196
Nuclear contribution   :     -1.247394018       5.059797402      11.939956216
                        -----------------------------------------
Total Dipole Moment    :     -0.113146283      -0.650589809       1.219320020
                        -----------------------------------------
Magnitude (a.u.)       :      1.386654424
Magnitude (Debye)      :      3.524595443

Rotational constants in cm-1:             0.013084             0.004662             0.004371
Rotational constants in MHz :           392.260019           139.763601           131.048353

                             ****ORCA TERMINATED NORMALLY****
TOTAL RUN TIME: 0 days 0 hours 0 minutes 21 seconds 87 msec
