                         Program Version 6.0.0  -   RELEASE  -
|  1> ! pbe def2-sv(p) def2/J RI DEFGRID1 loosescf d4 GCP(DFT/SV(P)) printgap
|  2> %output
|  3>     printlevel normal
|  4> end
|  5> * xyz 0 1
|  6> C 3.7923790283 -1.1717295997 -2.3959171775
|  7> C 4.215335722 0.1550756244 -1.7988597404
|  8> O 3.6900921265 0.3613734288 -0.4768378892
|  9> P 2.1318669155 0.5131388679 -0.166559019
| 10> S 1.1410925393 1.5379516677 -1.5075856136
| 11> O 2.1740590654 1.2372211622 1.2291123256
| 12> C 3.1392663623 1.0016302029 2.281521756
| 13> C 3.0833610273 -0.4148291207 2.8113846952
| 14> S 1.4518614547 -1.4855544326 0.1424609585
| 15> C 0.1355171183 -1.6020408538 -1.106846602
| 16> S -1.4941290768 -1.9710678703 -0.4043018793
| 17> P -2.0287154579 -0.0940448059 0.3691134817
| 18> S -0.9070671268 0.7886069991 1.7057321784
| 19> O -3.4743678891 -0.3321102132 0.9731880481
| 20> C -4.5635785125 -0.9214082218 0.2196143192
| 21> C -4.7738708745 -2.3649953372 0.6294773294
| 22> O -2.2050646294 0.6934864047 -1.0152746558
| 23> C -2.254205876 2.128192646 -1.0712559127
| 24> C -3.5815114763 2.6602961252 -0.5720781507
| 25> H 4.3342335976 -1.332847587 -3.3223451847
| 26> H 4.0056791854 -1.9844656729 -1.7064095574
| 27> H 2.7251350065 -1.1581205743 -2.6112347261
| 28> H 3.8851321238 0.9838182996 -2.4328680318
| 29> H 5.2958031742 0.2052518528 -1.6557807786
| 30> H 4.1317339847 1.2392399774 1.8928371603
| 31> H 2.8495115088 1.7261020263 3.0442750276
| 32> H 3.3985122878 -1.1203127251 2.0437570473
| 33> H 3.7462608813 -0.5013471545 3.6665839113
| 34> H 2.0685304295 -0.6587853549 3.1181900867
| 35> H 0.362439398 -2.4438798354 -1.7558775022
| 36> H 0.0908556008 -0.6616186026 -1.6635238391
| 37> H -5.432347568 -0.3100374061 0.4706834688
| 38> H -4.346868696 -0.8376687283 -0.8482083678
| 39> H -3.9070791203 -2.966609812 0.3648817224
| 40> H -4.928733146 -2.4258607257 1.703051598
| 41> H -5.6481039433 -2.7543751307 0.1174858516
| 42> H -1.4255898143 2.5306688823 -0.4788540737
| 43> H -2.0839521227 2.3600868954 -2.1238639975
| 44> H -3.5973060773 3.7398271198 -0.6841102862
| 45> H -4.4000553073 2.2265115457 -1.1405397467
| 46> H -3.704961178 2.4122023045 0.4818136134
| 47> *
| 48>
| 49>                          ****END OF INPUT****

CARTESIAN COORDINATES (ANGSTROEM)
---------------------------------
  C      3.792379   -1.171730   -2.395917
  C      4.215336    0.155076   -1.798860
  O      3.690092    0.361373   -0.476838
  P      2.131867    0.513139   -0.166559
  S      1.141093    1.537952   -1.507586
  O      2.174059    1.237221    1.229112
  C      3.139266    1.001630    2.281522
  C      3.083361   -0.414829    2.811385
  S      1.451861   -1.485554    0.142461
  C      0.135517   -1.602041   -1.106847
  S     -1.494129   -1.971068   -0.404302
  P     -2.028715   -0.094045    0.369113
  S     -0.907067    0.788607    1.705732
  O     -3.474368   -0.332110    0.973188
  C     -4.563579   -0.921408    0.219614
  C     -4.773871   -2.364995    0.629477
  O     -2.205065    0.693486   -1.015275
  C     -2.254206    2.128193   -1.071256
  C     -3.581511    2.660296   -0.572078
  H      4.334234   -1.332848   -3.322345
  H      4.005679   -1.984466   -1.706410
  H      2.725135   -1.158121   -2.611235
  H      3.885132    0.983818   -2.432868
  H      5.295803    0.205252   -1.655781
  H      4.131734    1.239240    1.892837
  H      2.849512    1.726102    3.044275
  H      3.398512   -1.120313    2.043757
  H      3.746261   -0.501347    3.666584
  H      2.068530   -0.658785    3.118190
  H      0.362439   -2.443880   -1.755878
  H      0.090856   -0.661619   -1.663524
  H     -5.432348   -0.310037    0.470683
  H     -4.346869   -0.837669   -0.848208
  H     -3.907079   -2.966610    0.364882
  H     -4.928733   -2.425861    1.703052
  H     -5.648104   -2.754375    0.117486
  H     -1.425590    2.530669   -0.478854
  H     -2.083952    2.360087   -2.123864
  H     -3.597306    3.739827   -0.684110
  H     -4.400055    2.226512   -1.140540
  H     -3.704961    2.412202    0.481814

 Total Charge           Charge          ....    0
 Multiplicity           Mult            ....    1
 Number of Electrons    NEL             ....  202
 Basis Dimension        Dim             ....  334

ORBITAL ENERGIES
----------------

  NO   OCC          E(Eh)            E(eV)
   0   2.0000     -88.039511     -2395.6769
   1   2.0000     -88.037596     -2395.6248
   2   2.0000     -87.983928     -2394.1644
   3   2.0000     -87.972403     -2393.8508
   4   2.0000     -76.424090     -2079.6052
   5   2.0000     -76.415675     -2079.3762
   6   2.0000     -18.787865      -511.2438
   7   2.0000     -18.787467      -511.2330
   8   2.0000     -18.784956      -511.1646
   9   2.0000     -18.780503      -511.0435
  10   2.0000      -9.954692      -270.8810
  11   2.0000      -9.953023      -270.8355
  12   2.0000      -9.952904      -270.8323
  13   2.0000      -9.952698      -270.8267
  14   2.0000      -9.936832      -270.3949
  15   2.0000      -9.887053      -269.0404
  16   2.0000      -9.885990      -269.0115
  17   2.0000      -9.884659      -268.9753
  18   2.0000      -9.877845      -268.7898
  19   2.0000      -7.685083      -209.1217
  20   2.0000      -7.682221      -209.0439
  21   2.0000      -7.628900      -207.5929
  22   2.0000      -7.617422      -207.2806
  23   2.0000      -6.421215      -174.7302
  24   2.0000      -6.413711      -174.5259
  25   2.0000      -5.712939      -155.4570
  26   2.0000      -5.710235      -155.3834
  27   2.0000      -5.709483      -155.3629
  28   2.0000      -5.706790      -155.2897
  29   2.0000      -5.702068      -155.1612
  30   2.0000      -5.699078      -155.0798
  31   2.0000      -5.657749      -153.9552
  32   2.0000      -5.649500      -153.7307
  33   2.0000      -5.649057      -153.7186
  34   2.0000      -5.646491      -153.6488
  35   2.0000      -5.637992      -153.4176
  36   2.0000      -5.637451      -153.4028
  37   2.0000      -4.644125      -126.3731
  38   2.0000      -4.642631      -126.3324
  39   2.0000      -4.641778      -126.3092
  40   2.0000      -4.636694      -126.1709
  41   2.0000      -4.635265      -126.1320
  42   2.0000      -4.633957      -126.0964
  43   2.0000      -0.983985       -26.7756
  44   2.0000      -0.977403       -26.5965
  45   2.0000      -0.939069       -25.5534
  46   2.0000      -0.936446       -25.4820
  47   2.0000      -0.758398       -20.6371
  48   2.0000      -0.717415       -19.5219
  49   2.0000      -0.707632       -19.2556
  50   2.0000      -0.689211       -18.7544
  51   2.0000      -0.687017       -18.6947
  52   2.0000      -0.672051       -18.2874
  53   2.0000      -0.647226       -17.6119
  54   2.0000      -0.630725       -17.1629
  55   2.0000      -0.597146       -16.2492
  56   2.0000      -0.579469       -15.7682
  57   2.0000      -0.578038       -15.7292
  58   2.0000      -0.573263       -15.5993
  59   2.0000      -0.557091       -15.1592
  60   2.0000      -0.495766       -13.4905
  61   2.0000      -0.492188       -13.3931
  62   2.0000      -0.470583       -12.8052
  63   2.0000      -0.466277       -12.6881
  64   2.0000      -0.450233       -12.2515
  65   2.0000      -0.445712       -12.1284
  66   2.0000      -0.444025       -12.0825
  67   2.0000      -0.433739       -11.8026
  68   2.0000      -0.424463       -11.5502
  69   2.0000      -0.418399       -11.3852
  70   2.0000      -0.404319       -11.0021
  71   2.0000      -0.398346       -10.8395
  72   2.0000      -0.392136       -10.6706
  73   2.0000      -0.384152       -10.4533
  74   2.0000      -0.375354       -10.2139
  75   2.0000      -0.367578       -10.0023
  76   2.0000      -0.361997        -9.8504
  77   2.0000      -0.354696        -9.6518
  78   2.0000      -0.353566        -9.6210
  79   2.0000      -0.352472        -9.5913
  80   2.0000      -0.347564        -9.4577
  81   2.0000      -0.343210        -9.3392
  82   2.0000      -0.337148        -9.1743
  83   2.0000      -0.335534        -9.1303
  84   2.0000      -0.332249        -9.0410
  85   2.0000      -0.309506        -8.4221
  86   2.0000      -0.307907        -8.3786
  87   2.0000      -0.300318        -8.1721
  88   2.0000      -0.294613        -8.0168
  89   2.0000      -0.291301        -7.9267
  90   2.0000      -0.272308        -7.4099
  91   2.0000      -0.268976        -7.3192
  92   2.0000      -0.265463        -7.2236
  93   2.0000      -0.259024        -7.0484
  94   2.0000      -0.255923        -6.9640
  95   2.0000      -0.233195        -6.3456
  96   2.0000      -0.217707        -5.9241
  97   2.0000      -0.203716        -5.5434
  98   2.0000      -0.199606        -5.4316
  99   2.0000      -0.186989        -5.0882
 100   2.0000      -0.183149        -4.9837
 101   0.0000      -0.035940        -0.9780
 102   0.0000      -0.029752        -0.8096
 103   0.0000      -0.009913        -0.2697
 104   0.0000       0.011219         0.3053
 105   0.0000       0.015325         0.4170

MULLIKEN ATOMIC CHARGES
-----------------------
   0 C :   -0.320714
   1 C :    0.006535
   2 O :   -0.388891
   3 P :    0.627142
   4 S :   -0.315506
   5 O :   -0.349100
   6 C :    0.007906
   7 C :   -0.336028
   8 S :   -0.100394
   9 C :   -0.346234
  10 S :   -0.106929
  11 P :    0.610135
  12 S :   -0.300799
  13 O :   -0.366872
  14 C :   -0.034133
  15 C :   -0.290329
  16 O :   -0.386200
  17 C :   -0.017907
  18 C :   -0.306455
  19 H :    0.112207
  20 H :    0.119763
  21 H :    0.122383
  22 H :    0.110752
  23 H :    0.102695
  24 H :    0.107728
  25 H :    0.112809
  26 H :    0.124829
  27 H :    0.115113
  28 H :    0.142744
  29 H :    0.181127
  30 H :    0.202040
  31 H :    0.110135
  32 H :    0.110645
  33 H :    0.130944
  34 H :    0.122897
  35 H :    0.110174
  36 H :    0.129189
  37 H :    0.100916
  38 H :    0.111907
  39 H :    0.106545
  40 H :    0.127229
Sum of atomic charges:   -0.0000000

LOEWDIN ATOMIC CHARGES
----------------------
   0 C :   -0.370825
   1 C :   -0.115605
   2 O :   -0.254416
   3 P :    0.579275
   4 S :   -0.293284
   5 O :   -0.224646
   6 C :   -0.106861
   7 C :   -0.371539
   8 S :    0.080197
   9 C :   -0.483273
  10 S :    0.082509
  11 P :    0.559453
  12 S :   -0.304383
  13 O :   -0.242546
  14 C :   -0.121677
  15 C :   -0.359850
  16 O :   -0.253233
  17 C :   -0.127669
  18 C :   -0.365442
  19 H :    0.130375
  20 H :    0.124172
  21 H :    0.119433
  22 H :    0.111497
  23 H :    0.117793
  24 H :    0.113036
  25 H :    0.124494
  26 H :    0.115606
  27 H :    0.132459
  28 H :    0.134412
  29 H :    0.135307
  30 H :    0.123612
  31 H :    0.120065
  32 H :    0.109270
  33 H :    0.119706
  34 H :    0.130600
  35 H :    0.130364
  36 H :    0.110259
  37 H :    0.115810
  38 H :    0.130737
  39 H :    0.119556
  40 H :    0.125254

  Mayer bond orders larger than 0.100000
B(  0-C ,  1-C ) :   1.1649 B(  0-C , 19-H ) :   0.9365 B(  0-C , 20-H ) :   0.9415
B(  0-C , 21-H ) :   0.9373 B(  1-C ,  2-O ) :   0.9177 B(  1-C , 22-H ) :   0.9180
B(  1-C , 23-H ) :   0.9347 B(  2-O ,  3-P ) :   1.0586 B(  3-P ,  4-S ) :   1.6071
B(  3-P ,  5-O ) :   1.1493 B(  3-P ,  8-S ) :   0.9465 B(  4-S ,  8-S ) :   0.1161
B(  4-S , 30-H ) :   0.1147 B(  5-O ,  6-C ) :   0.9003 B(  6-C ,  7-C ) :   1.1706
B(  6-C , 24-H ) :   0.9267 B(  6-C , 25-H ) :   0.9323 B(  7-C , 26-H ) :   0.9326
B(  7-C , 27-H ) :   0.9354 B(  7-C , 28-H ) :   0.9389 B(  8-S ,  9-C ) :   1.0041
B(  9-C , 10-S ) :   0.9970 B(  9-C , 29-H ) :   0.9090 B(  9-C , 30-H ) :   0.8422
B( 10-S , 11-P ) :   0.9649 B( 10-S , 12-S ) :   0.1096 B( 11-P , 12-S ) :   1.6739
B( 11-P , 13-O ) :   1.1080 B( 11-P , 16-O ) :   1.0694 B( 13-O , 14-C ) :   0.8984
B( 14-C , 15-C ) :   1.1668 B( 14-C , 31-H ) :   0.9324 B( 14-C , 32-H ) :   0.9143
B( 15-C , 33-H ) :   0.9370 B( 15-C , 34-H ) :   0.9455 B( 15-C , 35-H ) :   0.9391
B( 16-O , 17-C ) :   0.9047 B( 17-C , 18-C ) :   1.1562 B( 17-C , 36-H ) :   0.9046
B( 17-C , 37-H ) :   0.9357 B( 18-C , 38-H ) :   0.9408 B( 18-C , 39-H ) :   0.9456
B( 18-C , 40-H ) :   0.9374

Dispersion correction           -0.067630107
FINAL SINGLE POINT ENERGY     -2929.513048276176

DIPOLE MOMENT
-------------

Method             : SCF
Type of density    : Electron Density
Multiplicity       :   1
Irrep              :   0
Energy             : -2929.6314432327903887 Eh
Relativity type    :
Basis              : AO
                                X                 Y                 Z
Electronic contribution:      2.748240043       1.314367164       2.851339685
Nuclear contribution   :     -2.516562188      -1.937843320      -3.471039453
                        -----------------------------------------
Total Dipole Moment    :      0.231677855      -0.623476155      -0.619699768
                        -----------------------------------------
Magnitude (a.u.)       :      0.909079175
Magnitude (Debye)      :      2.310695630

Rotational constants in cm-1:             0.012919             0.005034             0.004934
Rotational constants in MHz :           387.294201           150.903620           147.929640

                             ****ORCA TERMINATED NORMALLY****
TOTAL RUN TIME: 0 days 0 hours 0 minutes 21 seconds 458 msec
