                         Program Version 6.0.0  -   RELEASE  -
|  1> ! pbe def2-sv(p) def2/J RI DEFGRID1 loosescf d4 GCP(DFT/SV(P)) printgap
|  2> %output
|  3>     printlevel normal
|  4> end
|  5> * xyz 0 1
|  6> C 4.5128587841 -1.2112524846 0.8015330486
|  7> C 4.7682700076 -0.4676635185 -0.4923103024
|  8> O 3.5859587247 -0.3676314632 -1.3252620802
|  9> P 2.2487757721 0.3782796013 -0.9508025372
| 10> S 1.2683637485 0.8230692409 -2.5892752669
| 11> O 2.788497329 1.5881301164 -0.0799401486
| 12> C 1.9382871919 2.5136688411 0.6269067805
| 13> C 2.0099192369 2.2367416646 2.1160816707
| 14> S 1.1742205844 -0.8617841656 0.4123833915
| 15> C 0.005258461 -1.599703932 -0.7727666746
| 16> S -1.5160081636 -2.1536193347 0.0238916297
| 17> P -2.4325250848 -0.2823306198 0.4949589791
| 18> S -1.5505664646 1.33576425 -0.194296577
| 19> O -2.6866221739 -0.3778894898 2.0519253078
| 20> C -1.6094432512 -0.3838973823 3.0121140884
| 21> C -1.3276240978 1.0210179949 3.5085237886
| 22> O -3.9503857289 -0.4434749924 0.0843108812
| 23> C -4.4378313726 -0.0437913741 -1.2068181385
| 24> C -3.8850804728 -0.9119087736 -2.3203319601
| 25> H 3.8188546414 -0.6555106946 1.4288630901
| 26> H 4.0927047388 -2.1932951337 0.6006029347
| 27> H 5.4532496712 -1.3272807312 1.3313531373
| 28> H 5.4737701348 -1.0015190241 -1.1309970316
| 29> H 5.1330283811 0.5425049335 -0.2991421622
| 30> H 2.3283681643 3.5043368566 0.3857802368
| 31> H 0.9143833185 2.4339923885 0.2501132839
| 32> H 1.6305050136 1.2405418464 2.3320461079
| 33> H 3.0388091775 2.3074624513 2.4571764423
| 34> H 1.4066394734 2.9697687277 2.6416523481
| 35> H 0.4515255367 -2.4882998712 -1.2124551187
| 36> H -0.2108803422 -0.8479457521 -1.5372520516
| 37> H -1.9660434356 -1.0277843413 3.8181252312
| 38> H -0.7158241458 -0.829079967 2.5601608661
| 39> H -0.5349261735 0.9889096536 4.2487531046
| 40> H -1.0205094431 1.655085756 2.6800062297
| 41> H -2.2230300086 1.4439930382 3.9549915942
| 42> H -5.5205693543 -0.1436816184 -1.1197963682
| 43> H -4.1750348455 1.0064214861 -1.3724320005
| 44> H -2.8170524805 -0.7297913046 -2.4421389268
| 45> H -4.0407131624 -1.9634203513 -2.0920625297
| 46> H -4.385581654 -0.6661318617 -3.2515491457
| 47> *
| 48>
| 49>                          ****END OF INPUT****

CARTESIAN COORDINATES (ANGSTROEM)
---------------------------------
  C      4.512859   -1.211252    0.801533
  C      4.768270   -0.467664   -0.492310
  O      3.585959   -0.367631   -1.325262
  P      2.248776    0.378280   -0.950803
  S      1.268364    0.823069   -2.589275
  O      2.788497    1.588130   -0.079940
  C      1.938287    2.513669    0.626907
  C      2.009919    2.236742    2.116082
  S      1.174221   -0.861784    0.412383
  C      0.005258   -1.599704   -0.772767
  S     -1.516008   -2.153619    0.023892
  P     -2.432525   -0.282331    0.494959
  S     -1.550566    1.335764   -0.194297
  O     -2.686622   -0.377889    2.051925
  C     -1.609443   -0.383897    3.012114
  C     -1.327624    1.021018    3.508524
  O     -3.950386   -0.443475    0.084311
  C     -4.437831   -0.043791   -1.206818
  C     -3.885080   -0.911909   -2.320332
  H      3.818855   -0.655511    1.428863
  H      4.092705   -2.193295    0.600603
  H      5.453250   -1.327281    1.331353
  H      5.473770   -1.001519   -1.130997
  H      5.133028    0.542505   -0.299142
  H      2.328368    3.504337    0.385780
  H      0.914383    2.433992    0.250113
  H      1.630505    1.240542    2.332046
  H      3.038809    2.307462    2.457176
  H      1.406639    2.969769    2.641652
  H      0.451526   -2.488300   -1.212455
  H     -0.210880   -0.847946   -1.537252
  H     -1.966043   -1.027784    3.818125
  H     -0.715824   -0.829080    2.560161
  H     -0.534926    0.988910    4.248753
  H     -1.020509    1.655086    2.680006
  H     -2.223030    1.443993    3.954992
  H     -5.520569   -0.143682   -1.119796
  H     -4.175035    1.006421   -1.372432
  H     -2.817052   -0.729791   -2.442139
  H     -4.040713   -1.963420   -2.092063
  H     -4.385582   -0.666132   -3.251549

 Total Charge           Charge          ....    0
 Multiplicity           Mult            ....    1
 Number of Electrons    NEL             ....  202
 Basis Dimension        Dim             ....  334

ORBITAL ENERGIES
----------------

  NO   OCC          E(Eh)            E(eV)
   0   2.0000     -88.047683     -2395.8993
   1   2.0000     -88.041611     -2395.7340
   2   2.0000     -87.988467     -2394.2879
   3   2.0000     -87.977915     -2394.0008
   4   2.0000     -76.427287     -2079.6922
   5   2.0000     -76.424224     -2079.6089
   6   2.0000     -18.796062      -511.4668
   7   2.0000     -18.789288      -511.2825
   8   2.0000     -18.789038      -511.2757
   9   2.0000     -18.787965      -511.2465
  10   2.0000      -9.956647      -270.9341
  11   2.0000      -9.954393      -270.8728
  12   2.0000      -9.953536      -270.8495
  13   2.0000      -9.952252      -270.8145
  14   2.0000      -9.950827      -270.7758
  15   2.0000      -9.890968      -269.1469
  16   2.0000      -9.889679      -269.1118
  17   2.0000      -9.882934      -268.9283
  18   2.0000      -9.882442      -268.9149
  19   2.0000      -7.692456      -209.3224
  20   2.0000      -7.685829      -209.1420
  21   2.0000      -7.632930      -207.7026
  22   2.0000      -7.623183      -207.4374
  23   2.0000      -6.424545      -174.8208
  24   2.0000      -6.421520      -174.7385
  25   2.0000      -5.720380      -155.6594
  26   2.0000      -5.716755      -155.5608
  27   2.0000      -5.713606      -155.4751
  28   2.0000      -5.710539      -155.3917
  29   2.0000      -5.709663      -155.3678
  30   2.0000      -5.702878      -155.1832
  31   2.0000      -5.661787      -154.0651
  32   2.0000      -5.653531      -153.8404
  33   2.0000      -5.653237      -153.8324
  34   2.0000      -5.652247      -153.8055
  35   2.0000      -5.643776      -153.5749
  36   2.0000      -5.643181      -153.5587
  37   2.0000      -4.646791      -126.4456
  38   2.0000      -4.646634      -126.4414
  39   2.0000      -4.644986      -126.3965
  40   2.0000      -4.644576      -126.3853
  41   2.0000      -4.643226      -126.3486
  42   2.0000      -4.641615      -126.3048
  43   2.0000      -0.989186       -26.9171
  44   2.0000      -0.988344       -26.8942
  45   2.0000      -0.944704       -25.7067
  46   2.0000      -0.943309       -25.6687
  47   2.0000      -0.761368       -20.7179
  48   2.0000      -0.721419       -19.6308
  49   2.0000      -0.712563       -19.3898
  50   2.0000      -0.693502       -18.8711
  51   2.0000      -0.682593       -18.5743
  52   2.0000      -0.678752       -18.4698
  53   2.0000      -0.651766       -17.7355
  54   2.0000      -0.632368       -17.2076
  55   2.0000      -0.599639       -16.3170
  56   2.0000      -0.592396       -16.1199
  57   2.0000      -0.578416       -15.7395
  58   2.0000      -0.569069       -15.4851
  59   2.0000      -0.560260       -15.2454
  60   2.0000      -0.504860       -13.7379
  61   2.0000      -0.496523       -13.5111
  62   2.0000      -0.475101       -12.9282
  63   2.0000      -0.469634       -12.7794
  64   2.0000      -0.453076       -12.3288
  65   2.0000      -0.448915       -12.2156
  66   2.0000      -0.441724       -12.0199
  67   2.0000      -0.437851       -11.9145
  68   2.0000      -0.426905       -11.6167
  69   2.0000      -0.421471       -11.4688
  70   2.0000      -0.411886       -11.2080
  71   2.0000      -0.400334       -10.8937
  72   2.0000      -0.394811       -10.7434
  73   2.0000      -0.392022       -10.6675
  74   2.0000      -0.385325       -10.4852
  75   2.0000      -0.371897       -10.1198
  76   2.0000      -0.366952        -9.9853
  77   2.0000      -0.360388        -9.8066
  78   2.0000      -0.353587        -9.6216
  79   2.0000      -0.352270        -9.5858
  80   2.0000      -0.349218        -9.5027
  81   2.0000      -0.345954        -9.4139
  82   2.0000      -0.340458        -9.2643
  83   2.0000      -0.337622        -9.1872
  84   2.0000      -0.334075        -9.0907
  85   2.0000      -0.319108        -8.6834
  86   2.0000      -0.314307        -8.5527
  87   2.0000      -0.298697        -8.1280
  88   2.0000      -0.297935        -8.1072
  89   2.0000      -0.291742        -7.9387
  90   2.0000      -0.289553        -7.8791
  91   2.0000      -0.277357        -7.5473
  92   2.0000      -0.270189        -7.3522
  93   2.0000      -0.262200        -7.1348
  94   2.0000      -0.257524        -7.0076
  95   2.0000      -0.240315        -6.5393
  96   2.0000      -0.221530        -6.0281
  97   2.0000      -0.210397        -5.7252
  98   2.0000      -0.198808        -5.4099
  99   2.0000      -0.195202        -5.3117
 100   2.0000      -0.186624        -5.0783
 101   0.0000      -0.047948        -1.3047
 102   0.0000      -0.034898        -0.9496
 103   0.0000      -0.015505        -0.4219
 104   0.0000       0.006809         0.1853
 105   0.0000       0.012419         0.3379

MULLIKEN ATOMIC CHARGES
-----------------------
   0 C :   -0.320665
   1 C :    0.006335
   2 O :   -0.362896
   3 P :    0.615174
   4 S :   -0.302593
   5 O :   -0.385235
   6 C :   -0.025053
   7 C :   -0.313221
   8 S :   -0.143900
   9 C :   -0.345855
  10 S :   -0.107925
  11 P :    0.590725
  12 S :   -0.316967
  13 O :   -0.352390
  14 C :   -0.020972
  15 C :   -0.300236
  16 O :   -0.355647
  17 C :   -0.000687
  18 C :   -0.327027
  19 H :    0.122969
  20 H :    0.123504
  21 H :    0.113667
  22 H :    0.110165
  23 H :    0.110201
  24 H :    0.109655
  25 H :    0.139402
  26 H :    0.133767
  27 H :    0.113638
  28 H :    0.119341
  29 H :    0.181015
  30 H :    0.224611
  31 H :    0.107778
  32 H :    0.111840
  33 H :    0.106828
  34 H :    0.132950
  35 H :    0.115880
  36 H :    0.107105
  37 H :    0.115050
  38 H :    0.136374
  39 H :    0.119117
  40 H :    0.114177
Sum of atomic charges:   -0.0000000

LOEWDIN ATOMIC CHARGES
----------------------
   0 C :   -0.368605
   1 C :   -0.108476
   2 O :   -0.241676
   3 P :    0.566505
   4 S :   -0.297073
   5 O :   -0.244347
   6 C :   -0.116262
   7 C :   -0.361000
   8 S :    0.059524
   9 C :   -0.483051
  10 S :    0.080098
  11 P :    0.566290
  12 S :   -0.295769
  13 O :   -0.235071
  14 C :   -0.117236
  15 C :   -0.363134
  16 O :   -0.233297
  17 C :   -0.117638
  18 C :   -0.369278
  19 H :    0.115698
  20 H :    0.127246
  21 H :    0.131215
  22 H :    0.122403
  23 H :    0.114642
  24 H :    0.121221
  25 H :    0.110013
  26 H :    0.118817
  27 H :    0.123864
  28 H :    0.132179
  29 H :    0.135456
  30 H :    0.121135
  31 H :    0.119410
  32 H :    0.097334
  33 H :    0.126636
  34 H :    0.122944
  35 H :    0.127222
  36 H :    0.119984
  37 H :    0.111956
  38 H :    0.123653
  39 H :    0.124768
  40 H :    0.131699

  Mayer bond orders larger than 0.100000
B(  0-C ,  1-C ) :   1.1686 B(  0-C , 19-H ) :   0.9378 B(  0-C , 20-H ) :   0.9426
B(  0-C , 21-H ) :   0.9356 B(  1-C ,  2-O ) :   0.9040 B(  1-C , 22-H ) :   0.9349
B(  1-C , 23-H ) :   0.9278 B(  2-O ,  3-P ) :   1.1311 B(  3-P ,  4-S ) :   1.6691
B(  3-P ,  5-O ) :   1.0885 B(  3-P ,  8-S ) :   0.9291 B(  4-S ,  8-S ) :   0.1199
B(  4-S , 30-H ) :   0.1027 B(  5-O ,  6-C ) :   0.8937 B(  6-C ,  7-C ) :   1.1702
B(  6-C , 24-H ) :   0.9326 B(  6-C , 25-H ) :   0.8999 B(  7-C , 26-H ) :   0.9320
B(  7-C , 27-H ) :   0.9435 B(  7-C , 28-H ) :   0.9365 B(  8-S ,  9-C ) :   0.9835
B(  9-C , 10-S ) :   1.0102 B(  9-C , 29-H ) :   0.9070 B(  9-C , 30-H ) :   0.8378
B( 10-S , 11-P ) :   0.9296 B( 10-S , 12-S ) :   0.1241 B( 11-P , 12-S ) :   1.6180
B( 11-P , 13-O ) :   1.1340 B( 11-P , 16-O ) :   1.1323 B( 13-O , 14-C ) :   0.9084
B( 14-C , 15-C ) :   1.1688 B( 14-C , 31-H ) :   0.9352 B( 14-C , 32-H ) :   0.9031
B( 15-C , 33-H ) :   0.9377 B( 15-C , 34-H ) :   0.9270 B( 15-C , 35-H ) :   0.9446
B( 16-O , 17-C ) :   0.9121 B( 17-C , 18-C ) :   1.1620 B( 17-C , 36-H ) :   0.9339
B( 17-C , 37-H ) :   0.9167 B( 18-C , 38-H ) :   0.9345 B( 18-C , 39-H ) :   0.9436
B( 18-C , 40-H ) :   0.9375

Dispersion correction           -0.066357857
FINAL SINGLE POINT ENERGY     -2929.515814099942

DIPOLE MOMENT
-------------

Method             : SCF
Type of density    : Electron Density
Multiplicity       :   1
Irrep              :   0
Energy             : -2929.6340673174986478 Eh
Relativity type    :
Basis              : AO
                                X                 Y                 Z
Electronic contribution:     -5.360623750      -4.229891465     -12.576185551
Nuclear contribution   :      5.930918223       3.903381905      13.837945917
                        -----------------------------------------
Total Dipole Moment    :      0.570294472      -0.326509559       1.261760367
                        -----------------------------------------
Magnitude (a.u.)       :      1.422632595
Magnitude (Debye)      :      3.616044685

Rotational constants in cm-1:             0.011884             0.005297             0.004767
Rotational constants in MHz :           356.282097           158.796778           142.909619

                             ****ORCA TERMINATED NORMALLY****
TOTAL RUN TIME: 0 days 0 hours 0 minutes 21 seconds 485 msec
