                         Program Version 6.0.0  -   RELEASE  -
|  1> ! pbe def2-sv(p) def2/J RI DEFGRID1 loosescf d4 GCP(DFT/SV(P)) printgap
|  2> %output
|  3>     printlevel normal
|  4> end
|  5> * xyz 0 1
|  6> C 4.4550840228 -1.0822049412 -2.4429865115
|  7> C 3.984503196 -1.9842066328 -1.3218846563
|  8> O 3.7375608685 -1.2662567903 -0.0981782214
|  9> P 2.7553812379 -0.0306666525 0.0559642574
| 10> S 3.336511627 1.7405540548 -0.5532000573
| 11> O 2.5482206962 0.0319442139 1.6147882974
| 12> C 2.4410450053 -1.0862791405 2.5311958024
| 13> C 1.0361156958 -1.6518789486 2.5639242578
| 14> S 0.9601311906 -0.7111550822 -0.8935338303
| 15> C 0.0871216509 0.8635752546 -0.8106126701
| 16> S -0.9170322643 1.029742339 0.6829061775
| 17> P -2.7425227163 0.3727361304 -0.2190057884
| 18> S -3.1355111778 1.1606493682 -1.9677456145
| 19> O -3.7984774977 0.5269199519 0.9567424178
| 20> C -3.997116621 1.7109071021 1.7514514899
| 21> C -4.2674840742 2.9412214647 0.9113856246
| 22> O -2.6531243487 -1.1887528175 -0.3737728651
| 23> C -2.4151966478 -2.1012497438 0.7307225137
| 24> C -1.7039824438 -3.319309108 0.1790022352
| 25> H 4.7054247973 -1.6841302639 -3.3105883192
| 26> H 3.6699213155 -0.3779706764 -2.7152411532
| 27> H 5.3297770844 -0.5152306124 -2.1330012522
| 28> H 4.7526151229 -2.7078433666 -1.0434544623
| 29> H 3.0655347556 -2.5046382206 -1.6044236222
| 30> H 3.1718988055 -1.8442982464 2.2460063986
| 31> H 2.7156596959 -0.6476834879 3.4919042693
| 32> H 0.3227578737 -0.8517370894 2.748533306
| 33> H 0.796771989 -2.1348684568 1.6199461693
| 34> H 0.9683449743 -2.3833208247 3.3629736928
| 35> H -0.569774114 0.9357864674 -1.6799850731
| 36> H 0.8261391173 1.6683009951 -0.8146715457
| 37> H -4.8547159833 1.4581284433 2.3773729129
| 38> H -3.1101696599 1.8558668553 2.3744733671
| 39> H -4.4897868832 3.781646038 1.5610359715
| 40> H -3.3947648888 3.1828929347 0.3057097094
| 41> H -5.1089041621 2.7684296739 0.2444089933
| 42> H -1.812742112 -1.5900680467 1.4864809198
| 43> H -3.3869691599 -2.3575737119 1.1556133494
| 44> H -1.5108041557 -4.0167140283 0.9875742558
| 45> H -2.3216605713 -3.8006534739 -0.5734145121
| 46> H -0.7646293686 -3.0260440182 -0.2838556999
| 47> *
| 48>
| 49>                          ****END OF INPUT****

CARTESIAN COORDINATES (ANGSTROEM)
---------------------------------
  C      4.455084   -1.082205   -2.442987
  C      3.984503   -1.984207   -1.321885
  O      3.737561   -1.266257   -0.098178
  P      2.755381   -0.030667    0.055964
  S      3.336512    1.740554   -0.553200
  O      2.548221    0.031944    1.614788
  C      2.441045   -1.086279    2.531196
  C      1.036116   -1.651879    2.563924
  S      0.960131   -0.711155   -0.893534
  C      0.087122    0.863575   -0.810613
  S     -0.917032    1.029742    0.682906
  P     -2.742523    0.372736   -0.219006
  S     -3.135511    1.160649   -1.967746
  O     -3.798477    0.526920    0.956742
  C     -3.997117    1.710907    1.751451
  C     -4.267484    2.941221    0.911386
  O     -2.653124   -1.188753   -0.373773
  C     -2.415197   -2.101250    0.730723
  C     -1.703982   -3.319309    0.179002
  H      4.705425   -1.684130   -3.310588
  H      3.669921   -0.377971   -2.715241
  H      5.329777   -0.515231   -2.133001
  H      4.752615   -2.707843   -1.043454
  H      3.065535   -2.504638   -1.604424
  H      3.171899   -1.844298    2.246006
  H      2.715660   -0.647683    3.491904
  H      0.322758   -0.851737    2.748533
  H      0.796772   -2.134868    1.619946
  H      0.968345   -2.383321    3.362974
  H     -0.569774    0.935786   -1.679985
  H      0.826139    1.668301   -0.814672
  H     -4.854716    1.458128    2.377373
  H     -3.110170    1.855867    2.374473
  H     -4.489787    3.781646    1.561036
  H     -3.394765    3.182893    0.305710
  H     -5.108904    2.768430    0.244409
  H     -1.812742   -1.590068    1.486481
  H     -3.386969   -2.357574    1.155613
  H     -1.510804   -4.016714    0.987574
  H     -2.321661   -3.800653   -0.573415
  H     -0.764629   -3.026044   -0.283856

 Total Charge           Charge          ....    0
 Multiplicity           Mult            ....    1
 Number of Electrons    NEL             ....  202
 Basis Dimension        Dim             ....  334

ORBITAL ENERGIES
----------------

  NO   OCC          E(Eh)            E(eV)
   0   2.0000     -88.047193     -2395.8859
   1   2.0000     -88.045138     -2395.8300
   2   2.0000     -87.983393     -2394.1498
   3   2.0000     -87.982601     -2394.1283
   4   2.0000     -76.430764     -2079.7868
   5   2.0000     -76.427764     -2079.7052
   6   2.0000     -18.803218      -511.6616
   7   2.0000     -18.798589      -511.5356
   8   2.0000     -18.794350      -511.4203
   9   2.0000     -18.793245      -511.3902
  10   2.0000      -9.965647      -271.1790
  11   2.0000      -9.962689      -271.0985
  12   2.0000      -9.960330      -271.0343
  13   2.0000      -9.957660      -270.9617
  14   2.0000      -9.950832      -270.7759
  15   2.0000      -9.891734      -269.1678
  16   2.0000      -9.889904      -269.1180
  17   2.0000      -9.886681      -269.0303
  18   2.0000      -9.884918      -268.9823
  19   2.0000      -7.691758      -209.3034
  20   2.0000      -7.689888      -209.2525
  21   2.0000      -7.628680      -207.5869
  22   2.0000      -7.627924      -207.5664
  23   2.0000      -6.427978      -174.9142
  24   2.0000      -6.425160      -174.8375
  25   2.0000      -5.719328      -155.6308
  26   2.0000      -5.717415      -155.5788
  27   2.0000      -5.716365      -155.5502
  28   2.0000      -5.714432      -155.4976
  29   2.0000      -5.709032      -155.3507
  30   2.0000      -5.707249      -155.3021
  31   2.0000      -5.657854      -153.9580
  32   2.0000      -5.657076      -153.9369
  33   2.0000      -5.649391      -153.7277
  34   2.0000      -5.648558      -153.7051
  35   2.0000      -5.648464      -153.7025
  36   2.0000      -5.647800      -153.6845
  37   2.0000      -4.651100      -126.5629
  38   2.0000      -4.649814      -126.5279
  39   2.0000      -4.648134      -126.4822
  40   2.0000      -4.647890      -126.4755
  41   2.0000      -4.647159      -126.4556
  42   2.0000      -4.645039      -126.3979
  43   2.0000      -0.995057       -27.0769
  44   2.0000      -0.992138       -26.9974
  45   2.0000      -0.950509       -25.8647
  46   2.0000      -0.948507       -25.8102
  47   2.0000      -0.765864       -20.8402
  48   2.0000      -0.726945       -19.7812
  49   2.0000      -0.717981       -19.5373
  50   2.0000      -0.696726       -18.9589
  51   2.0000      -0.693609       -18.8740
  52   2.0000      -0.681644       -18.5485
  53   2.0000      -0.652183       -17.7468
  54   2.0000      -0.638390       -17.3715
  55   2.0000      -0.595172       -16.1954
  56   2.0000      -0.591710       -16.1013
  57   2.0000      -0.586300       -15.9540
  58   2.0000      -0.575022       -15.6471
  59   2.0000      -0.565073       -15.3764
  60   2.0000      -0.512268       -13.9395
  61   2.0000      -0.504403       -13.7255
  62   2.0000      -0.479498       -13.0478
  63   2.0000      -0.476733       -12.9726
  64   2.0000      -0.465446       -12.6654
  65   2.0000      -0.452571       -12.3151
  66   2.0000      -0.444362       -12.0917
  67   2.0000      -0.439891       -11.9700
  68   2.0000      -0.436715       -11.8836
  69   2.0000      -0.422788       -11.5047
  70   2.0000      -0.417541       -11.3619
  71   2.0000      -0.413377       -11.2486
  72   2.0000      -0.400179       -10.8894
  73   2.0000      -0.390362       -10.6223
  74   2.0000      -0.385623       -10.4933
  75   2.0000      -0.363587        -9.8937
  76   2.0000      -0.361658        -9.8412
  77   2.0000      -0.360788        -9.8175
  78   2.0000      -0.359614        -9.7856
  79   2.0000      -0.350604        -9.5404
  80   2.0000      -0.349870        -9.5205
  81   2.0000      -0.348189        -9.4747
  82   2.0000      -0.347061        -9.4440
  83   2.0000      -0.341725        -9.2988
  84   2.0000      -0.341158        -9.2834
  85   2.0000      -0.326903        -8.8955
  86   2.0000      -0.320360        -8.7174
  87   2.0000      -0.304193        -8.2775
  88   2.0000      -0.299971        -8.1626
  89   2.0000      -0.297727        -8.1016
  90   2.0000      -0.296509        -8.0684
  91   2.0000      -0.282123        -7.6769
  92   2.0000      -0.279647        -7.6096
  93   2.0000      -0.267964        -7.2917
  94   2.0000      -0.259254        -7.0547
  95   2.0000      -0.240543        -6.5455
  96   2.0000      -0.226969        -6.1761
  97   2.0000      -0.205779        -5.5995
  98   2.0000      -0.200406        -5.4533
  99   2.0000      -0.197689        -5.3794
 100   2.0000      -0.193004        -5.2519
 101   0.0000      -0.042629        -1.1600
 102   0.0000      -0.034303        -0.9334
 103   0.0000      -0.017755        -0.4831
 104   0.0000      -0.000179        -0.0049
 105   0.0000       0.014775         0.4020

MULLIKEN ATOMIC CHARGES
-----------------------
   0 C :   -0.309686
   1 C :   -0.014622
   2 O :   -0.384032
   3 P :    0.608527
   4 S :   -0.303353
   5 O :   -0.352676
   6 C :    0.003276
   7 C :   -0.345413
   8 S :   -0.117701
   9 C :   -0.351523
  10 S :   -0.107185
  11 P :    0.583980
  12 S :   -0.298608
  13 O :   -0.382909
  14 C :   -0.012614
  15 C :   -0.311245
  16 O :   -0.355188
  17 C :   -0.017781
  18 C :   -0.293368
  19 H :    0.113701
  20 H :    0.131227
  21 H :    0.128253
  22 H :    0.110590
  23 H :    0.115788
  24 H :    0.108833
  25 H :    0.111122
  26 H :    0.138311
  27 H :    0.132857
  28 H :    0.109264
  29 H :    0.192241
  30 H :    0.195133
  31 H :    0.110134
  32 H :    0.114145
  33 H :    0.112952
  34 H :    0.131097
  35 H :    0.128180
  36 H :    0.108749
  37 H :    0.108716
  38 H :    0.106508
  39 H :    0.121936
  40 H :    0.132387
Sum of atomic charges:   -0.0000000

LOEWDIN ATOMIC CHARGES
----------------------
   0 C :   -0.368413
   1 C :   -0.113994
   2 O :   -0.243009
   3 P :    0.570636
   4 S :   -0.303816
   5 O :   -0.234806
   6 C :   -0.108270
   7 C :   -0.373435
   8 S :    0.071886
   9 C :   -0.491087
  10 S :    0.067701
  11 P :    0.568613
  12 S :   -0.305276
  13 O :   -0.246268
  14 C :   -0.113707
  15 C :   -0.368741
  16 O :   -0.235966
  17 C :   -0.114395
  18 C :   -0.356076
  19 H :    0.131487
  20 H :    0.124310
  21 H :    0.131603
  22 H :    0.121744
  23 H :    0.108704
  24 H :    0.112629
  25 H :    0.122907
  26 H :    0.123969
  27 H :    0.118385
  28 H :    0.128861
  29 H :    0.128540
  30 H :    0.127725
  31 H :    0.121698
  32 H :    0.108698
  33 H :    0.131005
  34 H :    0.124172
  35 H :    0.131323
  36 H :    0.104778
  37 H :    0.117225
  38 H :    0.128143
  39 H :    0.130394
  40 H :    0.120125

  Mayer bond orders larger than 0.100000
B(  0-C ,  1-C ) :   1.1677 B(  0-C , 19-H ) :   0.9347 B(  0-C , 20-H ) :   0.9310
B(  0-C , 21-H ) :   0.9435 B(  1-C ,  2-O ) :   0.9070 B(  1-C , 22-H ) :   0.9329
B(  1-C , 23-H ) :   0.9259 B(  2-O ,  3-P ) :   1.0880 B(  3-P ,  4-S ) :   1.6431
B(  3-P ,  5-O ) :   1.1422 B(  3-P ,  8-S ) :   0.9310 B(  4-S ,  8-S ) :   0.1127
B(  4-S , 30-H ) :   0.1179 B(  5-O ,  6-C ) :   0.9006 B(  6-C ,  7-C ) :   1.1663
B(  6-C , 24-H ) :   0.9232 B(  6-C , 25-H ) :   0.9344 B(  7-C , 26-H ) :   0.9317
B(  7-C , 27-H ) :   0.9336 B(  7-C , 28-H ) :   0.9356 B(  8-S ,  9-C ) :   1.0041
B(  9-C , 10-S ) :   0.9969 B(  9-C , 29-H ) :   0.8537 B(  9-C , 30-H ) :   0.8508
B( 10-S , 11-P ) :   0.9442 B( 10-S , 12-S ) :   0.1104 B( 11-P , 12-S ) :   1.6454
B( 11-P , 13-O ) :   1.0897 B( 11-P , 16-O ) :   1.1394 B( 12-S , 29-H ) :   0.1115
B( 13-O , 14-C ) :   0.9113 B( 14-C , 15-C ) :   1.1669 B( 14-C , 31-H ) :   0.9333
B( 14-C , 32-H ) :   0.9270 B( 15-C , 33-H ) :   0.9348 B( 15-C , 34-H ) :   0.9317
B( 15-C , 35-H ) :   0.9433 B( 16-O , 17-C ) :   0.8855 B( 17-C , 18-C ) :   1.1690
B( 17-C , 36-H ) :   0.9071 B( 17-C , 37-H ) :   0.9312 B( 18-C , 38-H ) :   0.9400
B( 18-C , 39-H ) :   0.9461 B( 18-C , 40-H ) :   0.9336

Dispersion correction           -0.063917575
FINAL SINGLE POINT ENERGY     -2929.511436537237

DIPOLE MOMENT
-------------

Method             : SCF
Type of density    : Electron Density
Multiplicity       :   1
Irrep              :   0
Energy             : -2929.6326804319019175 Eh
Relativity type    :
Basis              : AO
                                X                 Y                 Z
Electronic contribution:      0.986928778      12.514587662      -7.844154268
Nuclear contribution   :     -0.959253651     -14.304104769       9.453116495
                        -----------------------------------------
Total Dipole Moment    :      0.027675126      -1.789517108       1.608962226
                        -----------------------------------------
Magnitude (a.u.)       :      2.406636000
Magnitude (Debye)      :      6.117182572

Rotational constants in cm-1:             0.012498             0.004416             0.004236
Rotational constants in MHz :           374.683172           132.381863           126.992571

                             ****ORCA TERMINATED NORMALLY****
TOTAL RUN TIME: 0 days 0 hours 0 minutes 21 seconds 232 msec
