                         Program Version 6.0.0  -   RELEASE  -
|  1> ! wb97x-v def2-tzvp def2/J RIJCOSX DEFGRID2 scfconv7 GCP(DFT/TZ) printgap
|  2> %output
|  3>     printlevel normal
|  4> end
|  5> * xyz 0 1
|  6> C -0.6047617462889195 -0.4410845917949031 1.281601214437953
|  7> C 0.6051042294113314 0.4400291727229004 1.282111482381958
|  8> Br 1.8329871248945278 0.06713934103107227 -0.22791159877151282
|  9> Br -1.8329597166788916 -0.06676590169303115 -0.227844852199869
| 10> H -1.1857935074397834 -0.24484362650502792 2.1854772827548525
| 11> H -0.3615624094892727 -1.500827978257674 1.2197591954519333
| 12> H 0.3618805330413056 1.499821031880273 1.221271800577175
| 13> H 1.1861301745800101 0.24290981800981296 2.1858030979497296
| 14> *
| 15>
| 16>                          ****END OF INPUT****

CARTESIAN COORDINATES (ANGSTROEM)
---------------------------------
  C     -0.604762   -0.441085    1.281601
  C      0.605104    0.440029    1.282111
  Br     1.832987    0.067139   -0.227912
  Br    -1.832960   -0.066766   -0.227845
  H     -1.185794   -0.244844    2.185477
  H     -0.361562   -1.500828    1.219759
  H      0.361881    1.499821    1.221272
  H      1.186130    0.242910    2.185803

 Total Charge           Charge          ....    0
 Multiplicity           Mult            ....    1
 Number of Electrons    NEL             ....   86
 Basis Dimension        Dim             ....  182

ORBITAL ENERGIES
----------------

  NO   OCC          E(Eh)            E(eV)
   0   2.0000    -494.719781    -13462.0096
   1   2.0000    -494.719776    -13462.0095
   2   2.0000     -66.889339     -1820.1515
   3   2.0000     -66.889320     -1820.1509
   4   2.0000     -60.946195     -1658.4303
   5   2.0000     -60.946149     -1658.4290
   6   2.0000     -60.944625     -1658.3875
   7   2.0000     -60.944610     -1658.3872
   8   2.0000     -60.944528     -1658.3849
   9   2.0000     -60.944495     -1658.3840
  10   2.0000     -12.128309      -330.0281
  11   2.0000     -12.126966      -329.9915
  12   2.0000     -10.641111      -289.5593
  13   2.0000     -10.641033      -289.5572
  14   2.0000      -8.421208      -229.1527
  15   2.0000      -8.420674      -229.1382
  16   2.0000      -8.414359      -228.9663
  17   2.0000      -8.414091      -228.9591
  18   2.0000      -8.413985      -228.9562
  19   2.0000      -8.413582      -228.9452
  20   2.0000      -4.406065      -119.8951
  21   2.0000      -4.406044      -119.8946
  22   2.0000      -4.403442      -119.8238
  23   2.0000      -4.403365      -119.8217
  24   2.0000      -4.403310      -119.8201
  25   2.0000      -4.403262      -119.8188
  26   2.0000      -4.395732      -119.6139
  27   2.0000      -4.395719      -119.6136
  28   2.0000      -4.395709      -119.6133
  29   2.0000      -4.395701      -119.6131
  30   2.0000      -1.368696       -37.2441
  31   2.0000      -1.327796       -36.1312
  32   2.0000      -1.255991       -34.1773
  33   2.0000      -1.111328       -30.2408
  34   2.0000      -0.925090       -25.1730
  35   2.0000      -0.913466       -24.8567
  36   2.0000      -0.889823       -24.2133
  37   2.0000      -0.823320       -22.4037
  38   2.0000      -0.810837       -22.0640
  39   2.0000      -0.727084       -19.7850
  40   2.0000      -0.724129       -19.7046
  41   2.0000      -0.721433       -19.6312
  42   2.0000      -0.720067       -19.5940
  43   0.0000      -0.309900        -8.4328
  44   0.0000      -0.283350        -7.7103
  45   0.0000      -0.040482        -1.1016
  46   0.0000      -0.035480        -0.9654
  47   0.0000       0.005676         0.1545

MULLIKEN ATOMIC CHARGES
-----------------------
   0 C :   -0.184345
   1 C :   -0.184334
   2 Br:   -0.110293
   3 Br:   -0.110282
   4 H :    0.143784
   5 H :    0.150843
   6 H :    0.150835
   7 H :    0.143791
Sum of atomic charges:    0.0000000

LOEWDIN ATOMIC CHARGES
----------------------
   0 C :   -0.469872
   1 C :   -0.469852
   2 Br:    0.207827
   3 Br:    0.207809
   4 H :    0.132581
   5 H :    0.129461
   6 H :    0.129462
   7 H :    0.132583

  Mayer bond orders larger than 0.100000
B(  0-C ,  1-C ) :   1.0162 B(  0-C ,  3-Br) :   1.0528 B(  0-C ,  4-H ) :   0.9532
B(  0-C ,  5-H ) :   0.9608 B(  1-C ,  2-Br) :   1.0528 B(  1-C ,  6-H ) :   0.9608
B(  1-C ,  7-H ) :   0.9532

FINAL SINGLE POINT ENERGY     -5226.458976001913

DIPOLE MOMENT
-------------

Method             : SCF
Type of density    : Electron Density
Multiplicity       :   1
Irrep              :   0
Energy             : -5226.4690718374122298 Eh
Relativity type    :
Basis              : AO
                                X                 Y                 Z
Electronic contribution:     -0.000842074       0.004590208      -9.621863321
Nuclear contribution   :      0.000909082      -0.005106529      10.721022248
                        -----------------------------------------
Total Dipole Moment    :      0.000067009      -0.000516321       1.099158927
                        -----------------------------------------
Magnitude (a.u.)       :      1.099159050
Magnitude (Debye)      :      2.793840275

Rotational constants in cm-1:             0.244269             0.030166             0.027608
Rotational constants in MHz :          7323.000431           904.366846           827.677369

                             ****ORCA TERMINATED NORMALLY****
TOTAL RUN TIME: 0 days 0 hours 1 minutes 10 seconds 295 msec
