                         Program Version 6.0.0  -   RELEASE  -
|  1> ! wb97x-v def2-tzvp def2/J RIJCOSX DEFGRID2 scfconv7 GCP(DFT/TZ) printgap
|  2> %output
|  3>     printlevel normal
|  4> end
|  5> %cpcm
|  6>     smd true
|  7>     smdsolvent "water"
|  8> end
|  9> * xyz 0 1
| 10> C -0.6047617462889195 -0.4410845917949031 1.281601214437953
| 11> C 0.6051042294113314 0.4400291727229004 1.282111482381958
| 12> Br 1.8329871248945278 0.06713934103107227 -0.22791159877151282
| 13> Br -1.8329597166788916 -0.06676590169303115 -0.227844852199869
| 14> H -1.1857935074397834 -0.24484362650502792 2.1854772827548525
| 15> H -0.3615624094892727 -1.500827978257674 1.2197591954519333
| 16> H 0.3618805330413056 1.499821031880273 1.221271800577175
| 17> H 1.1861301745800101 0.24290981800981296 2.1858030979497296
| 18> *
| 19>
| 20>                          ****END OF INPUT****

CARTESIAN COORDINATES (ANGSTROEM)
---------------------------------
  C     -0.604762   -0.441085    1.281601
  C      0.605104    0.440029    1.282111
  Br     1.832987    0.067139   -0.227912
  Br    -1.832960   -0.066766   -0.227845
  H     -1.185794   -0.244844    2.185477
  H     -0.361562   -1.500828    1.219759
  H      0.361881    1.499821    1.221272
  H      1.186130    0.242910    2.185803

 Total Charge           Charge          ....    0
 Multiplicity           Mult            ....    1
 Number of Electrons    NEL             ....   86
 Basis Dimension        Dim             ....  182

ORBITAL ENERGIES
----------------

  NO   OCC          E(Eh)            E(eV)
   0   2.0000    -494.711990    -13461.7976
   1   2.0000    -494.711985    -13461.7975
   2   2.0000     -66.881692     -1819.9434
   3   2.0000     -66.881672     -1819.9428
   4   2.0000     -60.938489     -1658.2206
   5   2.0000     -60.938444     -1658.2194
   6   2.0000     -60.937020     -1658.1806
   7   2.0000     -60.937006     -1658.1802
   8   2.0000     -60.936923     -1658.1780
   9   2.0000     -60.936890     -1658.1771
  10   2.0000     -12.110692      -329.5487
  11   2.0000     -12.109350      -329.5122
  12   2.0000     -10.633566      -289.3540
  13   2.0000     -10.633484      -289.3518
  14   2.0000      -8.413413      -228.9406
  15   2.0000      -8.412892      -228.9264
  16   2.0000      -8.407055      -228.7676
  17   2.0000      -8.406778      -228.7600
  18   2.0000      -8.406667      -228.7570
  19   2.0000      -8.406276      -228.7464
  20   2.0000      -4.398206      -119.6813
  21   2.0000      -4.398186      -119.6807
  22   2.0000      -4.395777      -119.6152
  23   2.0000      -4.395697      -119.6130
  24   2.0000      -4.395654      -119.6118
  25   2.0000      -4.395606      -119.6105
  26   2.0000      -4.388551      -119.4185
  27   2.0000      -4.388537      -119.4182
  28   2.0000      -4.388528      -119.4179
  29   2.0000      -4.388520      -119.4177
  30   2.0000      -1.356332       -36.9077
  31   2.0000      -1.319885       -35.9159
  32   2.0000      -1.242386       -33.8070
  33   2.0000      -1.093325       -29.7509
  34   2.0000      -0.906722       -24.6732
  35   2.0000      -0.894865       -24.3505
  36   2.0000      -0.873572       -23.7711
  37   2.0000      -0.809279       -22.0216
  38   2.0000      -0.797880       -21.7114
  39   2.0000      -0.720418       -19.6036
  40   2.0000      -0.716761       -19.5041
  41   2.0000      -0.714181       -19.4338
  42   2.0000      -0.712937       -19.4000
  43   0.0000      -0.296217        -8.0605
  44   0.0000      -0.269577        -7.3356
  45   0.0000      -0.023647        -0.6435
  46   0.0000      -0.011715        -0.3188
  47   0.0000       0.027657         0.7526

MULLIKEN ATOMIC CHARGES
-----------------------
   0 C :   -0.190166
   1 C :   -0.190162
   2 Br:   -0.158499
   3 Br:   -0.158487
   4 H :    0.178940
   5 H :    0.169716
   6 H :    0.169701
   7 H :    0.178957
Sum of atomic charges:    0.0000000

LOEWDIN ATOMIC CHARGES
----------------------
   0 C :   -0.454453
   1 C :   -0.454431
   2 Br:    0.174379
   3 Br:    0.174361
   4 H :    0.144817
   5 H :    0.135253
   6 H :    0.135253
   7 H :    0.144822

  Mayer bond orders larger than 0.100000
B(  0-C ,  1-C ) :   1.0294 B(  0-C ,  3-Br) :   1.0178 B(  0-C ,  4-H ) :   0.9463
B(  0-C ,  5-H ) :   0.9529 B(  1-C ,  2-Br) :   1.0178 B(  1-C ,  6-H ) :   0.9529
B(  1-C ,  7-H ) :   0.9463

FINAL SINGLE POINT ENERGY     -5226.466130346538

DIPOLE MOMENT
-------------

Method             : SCF
Type of density    : Electron Density
Multiplicity       :   1
Irrep              :   0
Energy             : -5226.4762261820378626 Eh
Relativity type    :
Basis              : AO
                                X                 Y                 Z
Electronic contribution:     -0.000808829       0.004366061      -9.164755525
Nuclear contribution   :      0.000909082      -0.005106529      10.721022248
                        -----------------------------------------
Total Dipole Moment    :      0.000100254      -0.000740468       1.556266723
                        -----------------------------------------
Magnitude (a.u.)       :      1.556266902
Magnitude (Debye)      :      3.955716100

Rotational constants in cm-1:             0.244269             0.030166             0.027608
Rotational constants in MHz :          7323.000431           904.366846           827.677369

                             ****ORCA TERMINATED NORMALLY****
TOTAL RUN TIME: 0 days 0 hours 1 minutes 9 seconds 207 msec
