                         Program Version 6.0.1  -  RELEASE   -
|  1> ! pbe def2-sv(p) def2/J RI DEFGRID1 loosescf d4 GCP(DFT/SV(P)) printgap
|  2> %output
|  3>     printlevel normal
|  4> end
|  5> * xyz 0 1
|  6> C 1.6441753987 -3.673076014 0.259450425
|  7> C 2.5807956435 -2.481024822 0.3401508308
|  8> O 2.3601832278 -1.6454973648 -0.8114416749
|  9> C 2.1623719852 -0.3569968945 -0.6605486581
| 10> O 2.1945149929 0.2441475491 0.3935803058
| 11> C 1.843982829 0.3259298188 -1.9776004764
| 12> C 0.4501367292 0.9491088817 -1.870414154
| 13> H 0.2403572813 1.546629567 -2.7608606843
| 14> C 0.3277668462 1.8323407361 -0.6455228688
| 15> O -0.5198608337 1.6315813593 0.2117375761
| 16> O 1.1495299561 2.8336442494 -0.6640179726
| 17> C 1.1547052505 3.763733483 0.4446604629
| 18> C 2.1386781243 3.3208267682 1.5130059152
| 19> S -0.8602624785 -0.3261288408 -1.801516079
| 20> P -1.4671921707 -0.5080959124 0.2230960735
| 21> S -0.4135412713 -0.7878090802 1.8658550493
| 22> O -2.8290488918 0.3097719326 0.4462164282
| 23> C -3.0090421283 1.3891108704 1.3597713759
| 24> O -2.1273180274 -1.9137516186 -0.2319441472
| 25> C -2.8635274125 -2.7306747737 0.6772602549
| 26> H 1.7954966562 -4.2043568826 -0.6752907142
| 27> H 1.8364804417 -4.3379193522 1.094598693
| 28> H 0.6101125564 -3.3367118897 0.3100508455
| 29> H 3.6267905294 -2.7941239316 0.3053417821
| 30> H 2.3986041524 -1.8912431773 1.2438903078
| 31> H 1.8674452822 -0.4008954405 -2.7866973071
| 32> H 2.5741773625 1.1186895419 -2.1470665681
| 33> H 1.4514007571 4.7111638197 -0.0058020498
| 34> H 0.1424043558 3.8287409902 0.8511867033
| 35> H 2.1100416169 4.0213622803 2.3407819146
| 36> H 1.876731196 2.3285579195 1.8752986292
| 37> H 3.1450396222 3.2800417789 1.1070960259
| 38> H -2.9082371432 2.3340433246 0.8290667296
| 39> H -2.2687038059 1.3327197735 2.1597762934
| 40> H -4.013685975 1.2790311651 1.7629503802
| 41> H -2.3377356432 -2.7956615598 1.6331059738
| 42> H -2.9274154078 -3.7107339353 0.2106679
| 43> H -3.8581700517 -2.3133422122 0.8315727478
| 44> *
| 45>
| 46>                          ****END OF INPUT****

CARTESIAN COORDINATES (ANGSTROEM)
---------------------------------
  C      1.644175   -3.673076    0.259450
  C      2.580796   -2.481025    0.340151
  O      2.360183   -1.645497   -0.811442
  C      2.162372   -0.356997   -0.660549
  O      2.194515    0.244148    0.393580
  C      1.843983    0.325930   -1.977600
  C      0.450137    0.949109   -1.870414
  H      0.240357    1.546630   -2.760861
  C      0.327767    1.832341   -0.645523
  O     -0.519861    1.631581    0.211738
  O      1.149530    2.833644   -0.664018
  C      1.154705    3.763733    0.444660
  C      2.138678    3.320827    1.513006
  S     -0.860262   -0.326129   -1.801516
  P     -1.467192   -0.508096    0.223096
  S     -0.413541   -0.787809    1.865855
  O     -2.829049    0.309772    0.446216
  C     -3.009042    1.389111    1.359771
  O     -2.127318   -1.913752   -0.231944
  C     -2.863527   -2.730675    0.677260
  H      1.795497   -4.204357   -0.675291
  H      1.836480   -4.337919    1.094599
  H      0.610113   -3.336712    0.310051
  H      3.626791   -2.794124    0.305342
  H      2.398604   -1.891243    1.243890
  H      1.867445   -0.400895   -2.786697
  H      2.574177    1.118690   -2.147067
  H      1.451401    4.711164   -0.005802
  H      0.142404    3.828741    0.851187
  H      2.110042    4.021362    2.340782
  H      1.876731    2.328558    1.875299
  H      3.145040    3.280042    1.107096
  H     -2.908237    2.334043    0.829067
  H     -2.268704    1.332720    2.159776
  H     -4.013686    1.279031    1.762950
  H     -2.337736   -2.795662    1.633106
  H     -2.927415   -3.710734    0.210668
  H     -3.858170   -2.313342    0.831573

 Total Charge           Charge          ....    0
 Multiplicity           Mult            ....    1
 Number of Electrons    NEL             ....  174
 Basis Dimension        Dim             ....  316

ORBITAL ENERGIES
----------------

  NO   OCC          E(Eh)            E(eV)
   0   2.0000     -88.031827     -2395.4678
   1   2.0000     -87.961893     -2393.5648
   2   2.0000     -76.415043     -2079.3590
   3   2.0000     -18.825279      -512.2619
   4   2.0000     -18.803386      -511.6661
   5   2.0000     -18.772826      -510.8346
   6   2.0000     -18.770888      -510.7818
   7   2.0000     -18.764234      -510.6008
   8   2.0000     -18.737981      -509.8864
   9   2.0000     -10.037236      -273.1271
  10   2.0000     -10.011730      -272.4330
  11   2.0000      -9.958987      -270.9978
  12   2.0000      -9.955734      -270.9093
  13   2.0000      -9.936769      -270.3932
  14   2.0000      -9.927918      -270.1524
  15   2.0000      -9.924245      -270.0524
  16   2.0000      -9.916127      -269.8315
  17   2.0000      -9.883603      -268.9465
  18   2.0000      -9.873055      -268.6595
  19   2.0000      -7.676800      -208.8963
  20   2.0000      -7.607041      -206.9981
  21   2.0000      -6.409480      -174.4108
  22   2.0000      -5.705314      -155.2495
  23   2.0000      -5.701109      -155.1351
  24   2.0000      -5.693307      -154.9228
  25   2.0000      -5.636242      -153.3699
  26   2.0000      -5.627772      -153.1395
  27   2.0000      -5.626717      -153.1108
  28   2.0000      -4.632424      -126.0547
  29   2.0000      -4.631524      -126.0302
  30   2.0000      -4.630023      -125.9893
  31   2.0000      -1.038133       -28.2490
  32   2.0000      -1.009458       -27.4687
  33   2.0000      -0.962359       -26.1871
  34   2.0000      -0.944472       -25.7004
  35   2.0000      -0.917358       -24.9626
  36   2.0000      -0.916917       -24.9506
  37   2.0000      -0.768892       -20.9226
  38   2.0000      -0.714279       -19.4365
  39   2.0000      -0.704794       -19.1784
  40   2.0000      -0.684344       -18.6219
  41   2.0000      -0.647465       -17.6184
  42   2.0000      -0.623856       -16.9760
  43   2.0000      -0.613038       -16.6816
  44   2.0000      -0.609716       -16.5912
  45   2.0000      -0.587115       -15.9762
  46   2.0000      -0.562393       -15.3035
  47   2.0000      -0.511623       -13.9220
  48   2.0000      -0.504109       -13.7175
  49   2.0000      -0.499651       -13.5962
  50   2.0000      -0.490966       -13.3599
  51   2.0000      -0.467458       -12.7202
  52   2.0000      -0.460155       -12.5215
  53   2.0000      -0.450001       -12.2451
  54   2.0000      -0.435185       -11.8420
  55   2.0000      -0.431147       -11.7321
  56   2.0000      -0.423585       -11.5263
  57   2.0000      -0.415933       -11.3181
  58   2.0000      -0.405979       -11.0472
  59   2.0000      -0.399915       -10.8822
  60   2.0000      -0.396536       -10.7903
  61   2.0000      -0.395682       -10.7671
  62   2.0000      -0.384075       -10.4512
  63   2.0000      -0.377718       -10.2782
  64   2.0000      -0.370931       -10.0935
  65   2.0000      -0.365025        -9.9328
  66   2.0000      -0.360860        -9.8195
  67   2.0000      -0.348223        -9.4756
  68   2.0000      -0.340385        -9.2624
  69   2.0000      -0.336776        -9.1641
  70   2.0000      -0.335086        -9.1182
  71   2.0000      -0.332777        -9.0553
  72   2.0000      -0.314374        -8.5546
  73   2.0000      -0.307038        -8.3549
  74   2.0000      -0.296555        -8.0697
  75   2.0000      -0.288029        -7.8377
  76   2.0000      -0.287314        -7.8182
  77   2.0000      -0.284068        -7.7299
  78   2.0000      -0.270379        -7.3574
  79   2.0000      -0.259395        -7.0585
  80   2.0000      -0.256479        -6.9792
  81   2.0000      -0.252513        -6.8712
  82   2.0000      -0.242300        -6.5933
  83   2.0000      -0.226336        -6.1589
  84   2.0000      -0.210684        -5.7330
  85   2.0000      -0.180813        -4.9202
  86   2.0000      -0.174273        -4.7422
  87   0.0000      -0.047693        -1.2978
  88   0.0000      -0.038620        -1.0509
  89   0.0000      -0.025869        -0.7039
  90   0.0000       0.008705         0.2369
  91   0.0000       0.036674         0.9979

MULLIKEN ATOMIC CHARGES
-----------------------
   0 C :   -0.290585
   1 C :   -0.031612
   2 O :   -0.216947
   3 C :    0.095936
   4 O :   -0.186892
   5 C :   -0.032041
   6 C :   -0.319824
   7 H :    0.151634
   8 C :    0.248144
   9 O :   -0.217554
  10 O :   -0.212263
  11 C :   -0.023960
  12 C :   -0.302537
  13 S :   -0.077676
  14 P :    0.663014
  15 S :   -0.336148
  16 O :   -0.394199
  17 C :   -0.085304
  18 O :   -0.410092
  19 C :   -0.092604
  20 H :    0.105569
  21 H :    0.105483
  22 H :    0.128760
  23 H :    0.098252
  24 H :    0.131936
  25 H :    0.116037
  26 H :    0.123127
  27 H :    0.107068
  28 H :    0.114274
  29 H :    0.110283
  30 H :    0.159161
  31 H :    0.112593
  32 H :    0.103757
  33 H :    0.114831
  34 H :    0.112381
  35 H :    0.107744
  36 H :    0.115014
  37 H :    0.105242
Sum of atomic charges:    0.0000000

LOEWDIN ATOMIC CHARGES
----------------------
   0 C :   -0.354645
   1 C :   -0.111812
   2 O :   -0.042695
   3 C :    0.025993
   4 O :   -0.153364
   5 C :   -0.245921
   6 C :   -0.261942
   7 H :    0.148495
   8 C :    0.037773
   9 O :   -0.147620
  10 O :   -0.027853
  11 C :   -0.102816
  12 C :   -0.355756
  13 S :    0.118783
  14 P :    0.584855
  15 S :   -0.327234
  16 O :   -0.259002
  17 C :   -0.214819
  18 O :   -0.280164
  19 C :   -0.218562
  20 H :    0.121467
  21 H :    0.128275
  22 H :    0.126011
  23 H :    0.113816
  24 H :    0.123327
  25 H :    0.136313
  26 H :    0.144119
  27 H :    0.119570
  28 H :    0.121398
  29 H :    0.129673
  30 H :    0.142587
  31 H :    0.126022
  32 H :    0.106714
  33 H :    0.107540
  34 H :    0.113993
  35 H :    0.103349
  36 H :    0.116753
  37 H :    0.107381

  Mayer bond orders larger than 0.100000
B(  0-C ,  1-C ) :   1.1733 B(  0-C , 20-H ) :   0.9481 B(  0-C , 21-H ) :   0.9434
B(  0-C , 22-H ) :   0.9341 B(  1-C ,  2-O ) :   0.8964 B(  1-C , 23-H ) :   0.9337
B(  1-C , 24-H ) :   0.9024 B(  2-O ,  3-C ) :   1.2668 B(  2-O ,  4-O ) :   0.1051
B(  3-C ,  4-O ) :   1.9844 B(  3-C ,  5-C ) :   0.9844 B(  5-C ,  6-C ) :   1.0266
B(  5-C , 25-H ) :   0.9042 B(  5-C , 26-H ) :   0.8807 B(  6-C ,  7-H ) :   0.8755
B(  6-C ,  8-C ) :   0.9110 B(  6-C , 13-S ) :   1.0437 B(  8-C ,  9-O ) :   1.8325
B(  8-C , 10-O ) :   1.2920 B(  9-O , 14-P ) :   0.1830 B( 10-O , 11-C ) :   0.8934
B( 11-C , 12-C ) :   1.1821 B( 11-C , 27-H ) :   0.9366 B( 11-C , 28-H ) :   0.9158
B( 12-C , 29-H ) :   0.9402 B( 12-C , 30-H ) :   0.9301 B( 12-C , 31-H ) :   0.9483
B( 13-S , 14-P ) :   0.9264 B( 13-S , 15-S ) :   0.1109 B( 14-P , 15-S ) :   1.5559
B( 14-P , 16-O ) :   1.0757 B( 14-P , 18-O ) :   1.0252 B( 16-O , 17-C ) :   0.9392
B( 17-C , 32-H ) :   0.9547 B( 17-C , 33-H ) :   0.9304 B( 17-C , 34-H ) :   0.9549
B( 18-O , 19-C ) :   0.9440 B( 19-C , 35-H ) :   0.9281 B( 19-C , 36-H ) :   0.9607
B( 19-C , 37-H ) :   0.9532

Dispersion correction           -0.055360352
FINAL SINGLE POINT ENERGY     -1979.009016225205

DIPOLE MOMENT
-------------

Method             : SCF
Type of density    : Electron Density
Multiplicity       :   1
Irrep              :   0
Energy             : -1979.1386502254877087 Eh
Relativity type    :
Basis              : AO
                                X                 Y                 Z
Electronic contribution:     -5.919944717       0.503631116      -7.947645486
Nuclear contribution   :      6.380859354       0.504094947       7.463015631
                        -----------------------------------------
Total Dipole Moment    :      0.460914638       1.007726063      -0.484629855
                        -----------------------------------------
Magnitude (a.u.)       :      1.209471049
Magnitude (Debye)      :      3.074231093

Rotational constants in cm-1:             0.011714             0.009881             0.007322
Rotational constants in MHz :           351.181570           296.228716           219.498928

                             ****ORCA TERMINATED NORMALLY****
TOTAL RUN TIME: 0 days 0 hours 0 minutes 38 seconds 502 msec
