                         Program Version 6.0.0  -   RELEASE  -
|  1> ! pbe def2-sv(p) def2/J RI DEFGRID1 loosescf d4 GCP(DFT/SV(P)) printgap
|  2> %output
|  3>     printlevel normal
|  4> end
|  5> * xyz 0 1
|  6> C 5.777694193 -0.3521841241 -0.4346631124
|  7> C 4.3286661794 -0.736836765 -0.654921119
|  8> O 3.5058481329 0.3569801356 -0.2081792247
|  9> P 1.9789185022 0.4727902797 -0.6445674148
| 10> S 1.7177503874 0.3409866182 -2.5800906475
| 11> O 1.5963167937 1.8774671942 -0.0549380646
| 12> C 1.3007966304 2.195823791 1.3265710466
| 13> C 2.3684245049 1.7193534157 2.2866349968
| 14> S 1.0641561645 -1.0563465229 0.5173970654
| 15> C -0.0427161862 -1.8219664683 -0.7081999637
| 16> S -1.7331135612 -2.0050027251 -0.1002861363
| 17> P -2.1606927755 0.0534054611 0.2206512007
| 18> S -1.4375091818 1.3240146569 -1.0854646433
| 19> O -1.6628321349 0.3690383119 1.6834495654
| 20> C -2.1004433924 -0.3935514671 2.8438161363
| 21> C -0.8883492411 -0.7592938431 3.6752199503
| 22> O -3.7388696153 0.0775363987 0.4114719313
| 23> C -4.6651999654 0.2070233593 -0.6815368421
| 24> C -4.6098767985 -0.9719823723 -1.6310405832
| 25> H 6.0160175762 0.5410161273 -1.0053729533
| 26> H 5.9541676726 -0.1552047071 0.6185888216
| 27> H 6.4154493242 -1.1668643887 -0.7612764958
| 28> H 4.0589256981 -1.6242298818 -0.0753561498
| 29> H 4.1184115122 -0.9216317075 -1.7140953589
| 30> H 1.2212173803 3.2841724083 1.313633588
| 31> H 0.3246427527 1.7648440282 1.5684740005
| 32> H 3.3398313919 2.1021440667 1.9846986154
| 33> H 2.1321210654 2.0807085612 3.2828601613
| 34> H 2.4058335597 0.6311781136 2.303001646
| 35> H 0.3113926808 -2.8286339445 -0.9157294301
| 36> H -0.0262593907 -1.2051040429 -1.6115220618
| 37> H -2.7873285127 0.2536898647 3.3908304301
| 38> H -2.6329791275 -1.2842980167 2.5011805084
| 39> H -0.2133304551 -1.3901894145 3.1018091036
| 40> H -0.356225721 0.1381376707 3.9770221342
| 41> H -1.2168280336 -1.2963221253 4.5590289353
| 42> H -5.6351737715 0.2822063175 -0.188075779
| 43> H -4.4432884163 1.1384369262 -1.2112989547
| 44> H -3.6603604882 -0.9766203226 -2.1647655077
| 45> H -4.7112842267 -1.905894238 -1.0837833415
| 46> H -5.4152568509 -0.8871441987 -2.3536000294
| 47> *
| 48>
| 49>                          ****END OF INPUT****

CARTESIAN COORDINATES (ANGSTROEM)
---------------------------------
  C      5.777694   -0.352184   -0.434663
  C      4.328666   -0.736837   -0.654921
  O      3.505848    0.356980   -0.208179
  P      1.978919    0.472790   -0.644567
  S      1.717750    0.340987   -2.580091
  O      1.596317    1.877467   -0.054938
  C      1.300797    2.195824    1.326571
  C      2.368425    1.719353    2.286635
  S      1.064156   -1.056347    0.517397
  C     -0.042716   -1.821966   -0.708200
  S     -1.733114   -2.005003   -0.100286
  P     -2.160693    0.053405    0.220651
  S     -1.437509    1.324015   -1.085465
  O     -1.662832    0.369038    1.683450
  C     -2.100443   -0.393551    2.843816
  C     -0.888349   -0.759294    3.675220
  O     -3.738870    0.077536    0.411472
  C     -4.665200    0.207023   -0.681537
  C     -4.609877   -0.971982   -1.631041
  H      6.016018    0.541016   -1.005373
  H      5.954168   -0.155205    0.618589
  H      6.415449   -1.166864   -0.761276
  H      4.058926   -1.624230   -0.075356
  H      4.118412   -0.921632   -1.714095
  H      1.221217    3.284172    1.313634
  H      0.324643    1.764844    1.568474
  H      3.339831    2.102144    1.984699
  H      2.132121    2.080709    3.282860
  H      2.405834    0.631178    2.303002
  H      0.311393   -2.828634   -0.915729
  H     -0.026259   -1.205104   -1.611522
  H     -2.787329    0.253690    3.390830
  H     -2.632979   -1.284298    2.501181
  H     -0.213330   -1.390189    3.101809
  H     -0.356226    0.138138    3.977022
  H     -1.216828   -1.296322    4.559029
  H     -5.635174    0.282206   -0.188076
  H     -4.443288    1.138437   -1.211299
  H     -3.660360   -0.976620   -2.164766
  H     -4.711284   -1.905894   -1.083783
  H     -5.415257   -0.887144   -2.353600

 Total Charge           Charge          ....    0
 Multiplicity           Mult            ....    1
 Number of Electrons    NEL             ....  202
 Basis Dimension        Dim             ....  334

ORBITAL ENERGIES
----------------

  NO   OCC          E(Eh)            E(eV)
   0   2.0000     -88.046036     -2395.8544
   1   2.0000     -88.041834     -2395.7401
   2   2.0000     -87.983220     -2394.1451
   3   2.0000     -87.974981     -2393.9209
   4   2.0000     -76.425965     -2079.6562
   5   2.0000     -76.419414     -2079.4780
   6   2.0000     -18.793605      -511.4000
   7   2.0000     -18.793097      -511.3862
   8   2.0000     -18.783493      -511.1248
   9   2.0000     -18.783118      -511.1146
  10   2.0000      -9.959382      -271.0086
  11   2.0000      -9.954642      -270.8796
  12   2.0000      -9.953743      -270.8551
  13   2.0000      -9.946051      -270.6458
  14   2.0000      -9.945540      -270.6319
  15   2.0000      -9.890558      -269.1358
  16   2.0000      -9.884987      -268.9842
  17   2.0000      -9.884969      -268.9837
  18   2.0000      -9.883972      -268.9565
  19   2.0000      -7.690969      -209.2819
  20   2.0000      -7.686018      -209.1472
  21   2.0000      -7.627897      -207.5656
  22   2.0000      -7.620236      -207.3572
  23   2.0000      -6.423255      -174.7857
  24   2.0000      -6.416556      -174.6034
  25   2.0000      -5.718840      -155.6176
  26   2.0000      -5.715311      -155.5215
  27   2.0000      -5.713859      -155.4820
  28   2.0000      -5.710433      -155.3888
  29   2.0000      -5.708145      -155.3265
  30   2.0000      -5.703233      -155.1928
  31   2.0000      -5.657027      -153.9355
  32   2.0000      -5.649314      -153.7257
  33   2.0000      -5.648351      -153.6994
  34   2.0000      -5.648077      -153.6920
  35   2.0000      -5.640857      -153.4955
  36   2.0000      -5.640172      -153.4769
  37   2.0000      -4.646098      -126.4267
  38   2.0000      -4.645050      -126.3982
  39   2.0000      -4.643456      -126.3549
  40   2.0000      -4.639192      -126.2388
  41   2.0000      -4.638467      -126.2191
  42   2.0000      -4.636877      -126.1758
  43   2.0000      -0.989641       -26.9295
  44   2.0000      -0.979195       -26.6452
  45   2.0000      -0.945905       -25.7394
  46   2.0000      -0.936547       -25.4847
  47   2.0000      -0.762104       -20.7379
  48   2.0000      -0.719807       -19.5869
  49   2.0000      -0.710448       -19.3323
  50   2.0000      -0.691225       -18.8092
  51   2.0000      -0.686814       -18.6892
  52   2.0000      -0.676507       -18.4087
  53   2.0000      -0.648349       -17.6425
  54   2.0000      -0.630582       -17.1590
  55   2.0000      -0.595831       -16.2134
  56   2.0000      -0.588414       -16.0116
  57   2.0000      -0.576283       -15.6815
  58   2.0000      -0.564599       -15.3635
  59   2.0000      -0.560615       -15.2551
  60   2.0000      -0.508028       -13.8241
  61   2.0000      -0.497355       -13.5337
  62   2.0000      -0.474402       -12.9091
  63   2.0000      -0.468025       -12.7356
  64   2.0000      -0.451704       -12.2915
  65   2.0000      -0.448373       -12.2008
  66   2.0000      -0.441347       -12.0097
  67   2.0000      -0.435319       -11.8456
  68   2.0000      -0.429398       -11.6845
  69   2.0000      -0.420393       -11.4395
  70   2.0000      -0.411927       -11.2091
  71   2.0000      -0.401108       -10.9147
  72   2.0000      -0.392123       -10.6702
  73   2.0000      -0.380936       -10.3658
  74   2.0000      -0.376364       -10.2414
  75   2.0000      -0.366805        -9.9813
  76   2.0000      -0.362174        -9.8552
  77   2.0000      -0.359973        -9.7954
  78   2.0000      -0.354525        -9.6471
  79   2.0000      -0.352815        -9.6006
  80   2.0000      -0.349051        -9.4982
  81   2.0000      -0.345596        -9.4041
  82   2.0000      -0.343830        -9.3561
  83   2.0000      -0.339251        -9.2315
  84   2.0000      -0.331761        -9.0277
  85   2.0000      -0.317310        -8.6344
  86   2.0000      -0.308297        -8.3892
  87   2.0000      -0.302479        -8.2309
  88   2.0000      -0.294407        -8.0112
  89   2.0000      -0.292760        -7.9664
  90   2.0000      -0.281893        -7.6707
  91   2.0000      -0.273974        -7.4552
  92   2.0000      -0.266519        -7.2524
  93   2.0000      -0.263129        -7.1601
  94   2.0000      -0.253912        -6.9093
  95   2.0000      -0.235511        -6.4086
  96   2.0000      -0.220182        -5.9915
  97   2.0000      -0.209041        -5.6883
  98   2.0000      -0.200449        -5.4545
  99   2.0000      -0.192135        -5.2283
 100   2.0000      -0.181777        -4.9464
 101   0.0000      -0.042375        -1.1531
 102   0.0000      -0.032952        -0.8967
 103   0.0000      -0.008368        -0.2277
 104   0.0000       0.007466         0.2031
 105   0.0000       0.019276         0.5245

MULLIKEN ATOMIC CHARGES
-----------------------
   0 C :   -0.279319
   1 C :   -0.006686
   2 O :   -0.377058
   3 P :    0.609926
   4 S :   -0.299984
   5 O :   -0.349773
   6 C :   -0.024024
   7 C :   -0.318636
   8 S :   -0.145600
   9 C :   -0.331298
  10 S :   -0.111202
  11 P :    0.580089
  12 S :   -0.277750
  13 O :   -0.354386
  14 C :   -0.008698
  15 C :   -0.291836
  16 O :   -0.380701
  17 C :    0.003310
  18 C :   -0.322909
  19 H :    0.121247
  20 H :    0.112532
  21 H :    0.109377
  22 H :    0.093001
  23 H :    0.101591
  24 H :    0.107949
  25 H :    0.140689
  26 H :    0.123892
  27 H :    0.112435
  28 H :    0.121279
  29 H :    0.177931
  30 H :    0.207772
  31 H :    0.111125
  32 H :    0.104876
  33 H :    0.127914
  34 H :    0.118712
  35 H :    0.110191
  36 H :    0.104379
  37 H :    0.113382
  38 H :    0.134164
  39 H :    0.116770
  40 H :    0.115327
Sum of atomic charges:    0.0000000

LOEWDIN ATOMIC CHARGES
----------------------
   0 C :   -0.350371
   1 C :   -0.125115
   2 O :   -0.249056
   3 P :    0.571539
   4 S :   -0.300583
   5 O :   -0.223567
   6 C :   -0.117192
   7 C :   -0.368189
   8 S :    0.061663
   9 C :   -0.480008
  10 S :    0.071865
  11 P :    0.559301
  12 S :   -0.283697
  13 O :   -0.236611
  14 C :   -0.112570
  15 C :   -0.355914
  16 O :   -0.251179
  17 C :   -0.115165
  18 C :   -0.371866
  19 H :    0.129282
  20 H :    0.124573
  21 H :    0.129513
  22 H :    0.103895
  23 H :    0.106235
  24 H :    0.123287
  25 H :    0.113328
  26 H :    0.128640
  27 H :    0.129795
  28 H :    0.114315
  29 H :    0.135423
  30 H :    0.125726
  31 H :    0.119156
  32 H :    0.105380
  33 H :    0.120837
  34 H :    0.126393
  35 H :    0.129722
  36 H :    0.118529
  37 H :    0.114203
  38 H :    0.123919
  39 H :    0.122333
  40 H :    0.132231

  Mayer bond orders larger than 0.100000
B(  0-C ,  1-C ) :   1.1597 B(  0-C , 19-H ) :   0.9510 B(  0-C , 20-H ) :   0.9517
B(  0-C , 21-H ) :   0.9425 B(  1-C ,  2-O ) :   0.9112 B(  1-C , 22-H ) :   0.9251
B(  1-C , 23-H ) :   0.9063 B(  2-O ,  3-P ) :   1.0782 B(  3-P ,  4-S ) :   1.6330
B(  3-P ,  5-O ) :   1.1596 B(  3-P ,  8-S ) :   0.9328 B(  4-S ,  8-S ) :   0.1139
B(  4-S , 30-H ) :   0.1041 B(  5-O ,  6-C ) :   0.8924 B(  6-C ,  7-C ) :   1.1662
B(  6-C , 24-H ) :   0.9333 B(  6-C , 25-H ) :   0.9053 B(  7-C , 26-H ) :   0.9405
B(  7-C , 27-H ) :   0.9344 B(  7-C , 28-H ) :   0.9373 B(  8-S ,  9-C ) :   0.9952
B(  9-C , 10-S ) :   0.9985 B(  9-C , 29-H ) :   0.9109 B(  9-C , 30-H ) :   0.8435
B( 10-S , 11-P ) :   0.9371 B( 10-S , 12-S ) :   0.1082 B( 11-P , 12-S ) :   1.6647
B( 11-P , 13-O ) :   1.1080 B( 11-P , 16-O ) :   1.0880 B( 13-O , 14-C ) :   0.8855
B( 14-C , 15-C ) :   1.1645 B( 14-C , 31-H ) :   0.9340 B( 14-C , 32-H ) :   0.9126
B( 15-C , 33-H ) :   0.9384 B( 15-C , 34-H ) :   0.9469 B( 15-C , 35-H ) :   0.9396
B( 16-O , 17-C ) :   0.9058 B( 17-C , 18-C ) :   1.1667 B( 17-C , 36-H ) :   0.9347
B( 17-C , 37-H ) :   0.9190 B( 18-C , 38-H ) :   0.9345 B( 18-C , 39-H ) :   0.9432
B( 18-C , 40-H ) :   0.9367

Dispersion correction           -0.067428760
FINAL SINGLE POINT ENERGY     -2929.517556053097

DIPOLE MOMENT
-------------

Method             : SCF
Type of density    : Electron Density
Multiplicity       :   1
Irrep              :   0
Energy             : -2929.6359988865110608 Eh
Relativity type    :
Basis              : AO
                                X                 Y                 Z
Electronic contribution:     -5.492456811       2.674054709     -13.314704689
Nuclear contribution   :      5.047439961      -3.603835835      15.056844228
                        -----------------------------------------
Total Dipole Moment    :     -0.445016850      -0.929781125       1.742139539
                        -----------------------------------------
Magnitude (a.u.)       :      2.024248777
Magnitude (Debye)      :      5.145231494

Rotational constants in cm-1:             0.012967             0.005306             0.004800
Rotational constants in MHz :           388.751491           159.073191           143.910529

                             ****ORCA TERMINATED NORMALLY****
TOTAL RUN TIME: 0 days 0 hours 0 minutes 21 seconds 407 msec
