                         Program Version 6.0.0  -   RELEASE  -
|  1> ! pbe def2-sv(p) def2/J RI DEFGRID1 loosescf d4 GCP(DFT/SV(P)) printgap
|  2> %output
|  3>     printlevel normal
|  4> end
|  5> * xyz 0 1
|  6> C 4.4993163026 -0.5126739632 -2.3561318924
|  7> C 3.1298723646 -1.1580197174 -2.3469274526
|  8> O 2.621116768 -1.3061264845 -1.0041039731
|  9> P 2.1407391395 -0.0676327174 -0.1437146978
| 10> S 1.3854434125 1.4233070993 -1.1776074818
| 11> O 3.4484378906 0.3392262175 0.6662135895
| 12> C 3.5696832039 1.5942809624 1.3521088925
| 13> C 2.6744032906 1.6577844059 2.5730731465
| 14> S 1.0473516555 -1.1417092123 1.3146676723
| 15> C -0.0656851151 -2.1013259752 0.2410435608
| 16> S -1.0101045483 -1.1137974916 -0.9510935563
| 17> P -2.1011738332 0.1280414744 0.4114773107
| 18> S -1.1945835347 1.5109988551 1.45303997
| 19> O -2.8140399898 -0.9130945912 1.3561114128
| 20> C -3.7233002958 -1.9455529224 0.8948581934
| 21> C -5.1605158708 -1.475851844 0.9871818516
| 22> O -3.279246123 0.6661343698 -0.5105023627
| 23> C -3.1748836349 1.8703328798 -1.2879782888
| 24> C -2.2933426838 1.6832612712 -2.5057857465
| 25> H 5.175975099 -1.0577218169 -1.703299983
| 26> H 4.891341977 -0.5129531971 -3.3682826761
| 27> H 4.4251115487 0.5157732284 -2.0052069177
| 28> H 3.1597707636 -2.1789364374 -2.729466683
| 29> H 2.4159646259 -0.5612675475 -2.9237433498
| 30> H 4.625184967 1.6468498619 1.6224614752
| 31> H 3.3212799378 2.4002407937 0.6530206115
| 32> H 2.8708640307 2.5738900004 3.1205764494
| 33> H 1.6253371484 1.6523888607 2.2725689548
| 34> H 2.8548712019 0.8026565025 3.2199682182
| 35> H -0.7412913316 -2.6210758954 0.9173302068
| 36> H 0.5171242881 -2.8047583667 -0.3493451026
| 37> H -3.4631385079 -2.218921673 -0.1312284513
| 38> H -3.5407191821 -2.7868054963 1.5664089477
| 39> H -5.3812726398 -1.1521677238 2.0006712737
| 40> H -5.3303819722 -0.6440687158 0.3091809758
| 41> H -5.8192965193 -2.2965510171 0.7207751173
| 42> H -4.2058964864 2.0904123169 -1.5693041005
| 43> H -2.7854731878 2.6676306899 -0.6465680765
| 44> H -2.607751193 0.8089107564 -3.0699802281
| 45> H -2.3604839795 2.5638191224 -3.1363719325
| 46> H -1.2539158787 1.5542605078 -2.2051619635
| 47> *
| 48>
| 49>                          ****END OF INPUT****

CARTESIAN COORDINATES (ANGSTROEM)
---------------------------------
  C      4.499316   -0.512674   -2.356132
  C      3.129872   -1.158020   -2.346927
  O      2.621117   -1.306126   -1.004104
  P      2.140739   -0.067633   -0.143715
  S      1.385443    1.423307   -1.177607
  O      3.448438    0.339226    0.666214
  C      3.569683    1.594281    1.352109
  C      2.674403    1.657784    2.573073
  S      1.047352   -1.141709    1.314668
  C     -0.065685   -2.101326    0.241044
  S     -1.010105   -1.113797   -0.951094
  P     -2.101174    0.128041    0.411477
  S     -1.194584    1.510999    1.453040
  O     -2.814040   -0.913095    1.356111
  C     -3.723300   -1.945553    0.894858
  C     -5.160516   -1.475852    0.987182
  O     -3.279246    0.666134   -0.510502
  C     -3.174884    1.870333   -1.287978
  C     -2.293343    1.683261   -2.505786
  H      5.175975   -1.057722   -1.703300
  H      4.891342   -0.512953   -3.368283
  H      4.425112    0.515773   -2.005207
  H      3.159771   -2.178936   -2.729467
  H      2.415965   -0.561268   -2.923743
  H      4.625185    1.646850    1.622461
  H      3.321280    2.400241    0.653021
  H      2.870864    2.573890    3.120576
  H      1.625337    1.652389    2.272569
  H      2.854871    0.802657    3.219968
  H     -0.741291   -2.621076    0.917330
  H      0.517124   -2.804758   -0.349345
  H     -3.463139   -2.218922   -0.131228
  H     -3.540719   -2.786805    1.566409
  H     -5.381273   -1.152168    2.000671
  H     -5.330382   -0.644069    0.309181
  H     -5.819297   -2.296551    0.720775
  H     -4.205896    2.090412   -1.569304
  H     -2.785473    2.667631   -0.646568
  H     -2.607751    0.808911   -3.069980
  H     -2.360484    2.563819   -3.136372
  H     -1.253916    1.554261   -2.205162

 Total Charge           Charge          ....    0
 Multiplicity           Mult            ....    1
 Number of Electrons    NEL             ....  202
 Basis Dimension        Dim             ....  334

ORBITAL ENERGIES
----------------

  NO   OCC          E(Eh)            E(eV)
   0   2.0000     -88.039876     -2395.6868
   1   2.0000     -88.035255     -2395.5611
   2   2.0000     -87.979780     -2394.0515
   3   2.0000     -87.975425     -2393.9330
   4   2.0000     -76.422131     -2079.5519
   5   2.0000     -76.421411     -2079.5323
   6   2.0000     -18.792114      -511.3594
   7   2.0000     -18.791367      -511.3391
   8   2.0000     -18.789291      -511.2826
   9   2.0000     -18.786886      -511.2172
  10   2.0000      -9.959120      -271.0014
  11   2.0000      -9.957030      -270.9446
  12   2.0000      -9.949508      -270.7399
  13   2.0000      -9.948421      -270.7103
  14   2.0000      -9.945046      -270.6185
  15   2.0000      -9.886352      -269.0213
  16   2.0000      -9.881768      -268.8966
  17   2.0000      -9.877609      -268.7834
  18   2.0000      -9.874907      -268.7099
  19   2.0000      -7.684291      -209.1002
  20   2.0000      -7.680482      -208.9965
  21   2.0000      -7.624365      -207.4695
  22   2.0000      -7.620408      -207.3618
  23   2.0000      -6.419457      -174.6823
  24   2.0000      -6.418839      -174.6655
  25   2.0000      -5.712167      -155.4360
  26   2.0000      -5.708833      -155.3452
  27   2.0000      -5.708642      -155.3401
  28   2.0000      -5.705105      -155.2438
  29   2.0000      -5.701297      -155.1402
  30   2.0000      -5.696991      -155.0230
  31   2.0000      -5.653155      -153.8302
  32   2.0000      -5.649502      -153.7308
  33   2.0000      -5.644956      -153.6071
  34   2.0000      -5.644719      -153.6006
  35   2.0000      -5.640923      -153.4973
  36   2.0000      -5.640481      -153.4853
  37   2.0000      -4.642624      -126.3322
  38   2.0000      -4.641487      -126.3013
  39   2.0000      -4.641232      -126.2944
  40   2.0000      -4.640652      -126.2786
  41   2.0000      -4.639366      -126.2436
  42   2.0000      -4.639192      -126.2388
  43   2.0000      -0.986765       -26.8512
  44   2.0000      -0.982929       -26.7469
  45   2.0000      -0.945062       -25.7165
  46   2.0000      -0.943510       -25.6742
  47   2.0000      -0.760047       -20.6819
  48   2.0000      -0.716860       -19.5068
  49   2.0000      -0.706431       -19.2230
  50   2.0000      -0.687715       -18.7137
  51   2.0000      -0.681952       -18.5569
  52   2.0000      -0.667003       -18.1501
  53   2.0000      -0.648935       -17.6584
  54   2.0000      -0.633931       -17.2501
  55   2.0000      -0.595262       -16.1979
  56   2.0000      -0.586458       -15.9583
  57   2.0000      -0.575455       -15.6589
  58   2.0000      -0.568460       -15.4686
  59   2.0000      -0.559296       -15.2192
  60   2.0000      -0.500896       -13.6301
  61   2.0000      -0.489480       -13.3194
  62   2.0000      -0.474577       -12.9139
  63   2.0000      -0.469602       -12.7785
  64   2.0000      -0.456761       -12.4291
  65   2.0000      -0.446409       -12.1474
  66   2.0000      -0.434916       -11.8347
  67   2.0000      -0.432035       -11.7563
  68   2.0000      -0.425986       -11.5917
  69   2.0000      -0.412077       -11.2132
  70   2.0000      -0.409828       -11.1520
  71   2.0000      -0.392478       -10.6799
  72   2.0000      -0.390429       -10.6241
  73   2.0000      -0.385653       -10.4941
  74   2.0000      -0.377611       -10.2753
  75   2.0000      -0.371282       -10.1031
  76   2.0000      -0.361717        -9.8428
  77   2.0000      -0.359437        -9.7808
  78   2.0000      -0.351380        -9.5615
  79   2.0000      -0.350232        -9.5303
  80   2.0000      -0.347900        -9.4669
  81   2.0000      -0.343462        -9.3461
  82   2.0000      -0.341307        -9.2874
  83   2.0000      -0.335726        -9.1356
  84   2.0000      -0.327187        -8.9032
  85   2.0000      -0.315554        -8.5867
  86   2.0000      -0.308257        -8.3881
  87   2.0000      -0.296448        -8.0668
  88   2.0000      -0.289828        -7.8866
  89   2.0000      -0.287935        -7.8351
  90   2.0000      -0.279079        -7.5941
  91   2.0000      -0.272442        -7.4135
  92   2.0000      -0.266569        -7.2537
  93   2.0000      -0.257557        -7.0085
  94   2.0000      -0.256811        -6.9882
  95   2.0000      -0.246460        -6.7065
  96   2.0000      -0.219085        -5.9616
  97   2.0000      -0.206339        -5.6148
  98   2.0000      -0.188471        -5.1286
  99   2.0000      -0.183097        -4.9823
 100   2.0000      -0.180845        -4.9210
 101   0.0000      -0.048165        -1.3106
 102   0.0000      -0.023966        -0.6522
 103   0.0000      -0.006384        -0.1737
 104   0.0000      -0.002660        -0.0724
 105   0.0000       0.022600         0.6150

MULLIKEN ATOMIC CHARGES
-----------------------
   0 C :   -0.303688
   1 C :   -0.005125
   2 O :   -0.375216
   3 P :    0.619690
   4 S :   -0.309267
   5 O :   -0.371311
   6 C :   -0.003505
   7 C :   -0.343057
   8 S :   -0.082607
   9 C :   -0.335342
  10 S :   -0.111992
  11 P :    0.606859
  12 S :   -0.283048
  13 O :   -0.363800
  14 C :   -0.023930
  15 C :   -0.283682
  16 O :   -0.382581
  17 C :    0.000394
  18 C :   -0.344460
  19 H :    0.117003
  20 H :    0.110564
  21 H :    0.123035
  22 H :    0.100190
  23 H :    0.110983
  24 H :    0.101962
  25 H :    0.109790
  26 H :    0.112212
  27 H :    0.158799
  28 H :    0.117302
  29 H :    0.183722
  30 H :    0.187744
  31 H :    0.102379
  32 H :    0.106916
  33 H :    0.120703
  34 H :    0.124744
  35 H :    0.107866
  36 H :    0.101244
  37 H :    0.112749
  38 H :    0.112007
  39 H :    0.112621
  40 H :    0.161131
Sum of atomic charges:   -0.0000000

LOEWDIN ATOMIC CHARGES
----------------------
   0 C :   -0.363772
   1 C :   -0.119592
   2 O :   -0.244392
   3 P :    0.570975
   4 S :   -0.303348
   5 O :   -0.243390
   6 C :   -0.121849
   7 C :   -0.373687
   8 S :    0.092871
   9 C :   -0.474107
  10 S :    0.072109
  11 P :    0.566269
  12 S :   -0.291280
  13 O :   -0.239753
  14 C :   -0.119134
  15 C :   -0.357967
  16 O :   -0.247012
  17 C :   -0.117964
  18 C :   -0.375332
  19 H :    0.126720
  20 H :    0.129664
  21 H :    0.123723
  22 H :    0.115962
  23 H :    0.110125
  24 H :    0.116947
  25 H :    0.108796
  26 H :    0.131656
  27 H :    0.124754
  28 H :    0.123924
  29 H :    0.130938
  30 H :    0.134552
  31 H :    0.103874
  32 H :    0.117463
  33 H :    0.129276
  34 H :    0.127576
  35 H :    0.128977
  36 H :    0.116212
  37 H :    0.112323
  38 H :    0.122097
  39 H :    0.131992
  40 H :    0.122800

  Mayer bond orders larger than 0.100000
B(  0-C ,  1-C ) :   1.1663 B(  0-C , 19-H ) :   0.9463 B(  0-C , 20-H ) :   0.9393
B(  0-C , 21-H ) :   0.9366 B(  1-C ,  2-O ) :   0.9050 B(  1-C , 22-H ) :   0.9342
B(  1-C , 23-H ) :   0.9127 B(  2-O ,  3-P ) :   1.1085 B(  3-P ,  4-S ) :   1.6121
B(  3-P ,  5-O ) :   1.1054 B(  3-P ,  8-S ) :   0.9630 B(  4-S ,  8-S ) :   0.1155
B(  5-O ,  6-C ) :   0.9080 B(  6-C ,  7-C ) :   1.1644 B(  6-C , 24-H ) :   0.9327
B(  6-C , 25-H ) :   0.9118 B(  7-C , 26-H ) :   0.9379 B(  7-C , 27-H ) :   0.9230
B(  7-C , 28-H ) :   0.9441 B(  8-S ,  9-C ) :   1.0008 B(  9-C , 10-S ) :   0.9984
B(  9-C , 29-H ) :   0.9052 B(  9-C , 30-H ) :   0.9044 B( 10-S , 11-P ) :   0.9373
B( 10-S , 12-S ) :   0.1138 B( 11-P , 12-S ) :   1.6928 B( 11-P , 13-O ) :   1.1169
B( 11-P , 16-O ) :   1.0778 B( 13-O , 14-C ) :   0.8940 B( 14-C , 15-C ) :   1.1697
B( 14-C , 31-H ) :   0.9066 B( 14-C , 32-H ) :   0.9334 B( 15-C , 33-H ) :   0.9471
B( 15-C , 34-H ) :   0.9414 B( 15-C , 35-H ) :   0.9393 B( 16-O , 17-C ) :   0.9059
B( 17-C , 18-C ) :   1.1659 B( 17-C , 36-H ) :   0.9334 B( 17-C , 37-H ) :   0.9119
B( 18-C , 38-H ) :   0.9440 B( 18-C , 39-H ) :   0.9377 B( 18-C , 40-H ) :   0.9197

Dispersion correction           -0.067757610
FINAL SINGLE POINT ENERGY     -2929.513456056313

DIPOLE MOMENT
-------------

Method             : SCF
Type of density    : Electron Density
Multiplicity       :   1
Irrep              :   0
Energy             : -2929.6304116165820233 Eh
Relativity type    :
Basis              : AO
                                X                 Y                 Z
Electronic contribution:      1.293802069      -1.350651273       6.514127891
Nuclear contribution   :     -1.549756379       0.322698823      -7.225530142
                        -----------------------------------------
Total Dipole Moment    :     -0.255954310      -1.027952450      -0.711402251
                        -----------------------------------------
Magnitude (a.u.)       :      1.276045458
Magnitude (Debye)      :      3.243449792

Rotational constants in cm-1:             0.012752             0.005158             0.005053
Rotational constants in MHz :           382.285473           154.633934           151.473319

                             ****ORCA TERMINATED NORMALLY****
TOTAL RUN TIME: 0 days 0 hours 0 minutes 21 seconds 115 msec
