                         Program Version 6.0.0  -   RELEASE  -
|  1> ! pbe def2-sv(p) def2/J RI DEFGRID1 loosescf d4 GCP(DFT/SV(P)) printgap
|  2> %output
|  3>     printlevel normal
|  4> end
|  5> * xyz 0 1
|  6> C 4.1835023678 2.2938171696 -0.3950236965
|  7> C 2.999471641 1.5206865085 -0.9385577918
|  8> O 2.007497702 1.3220711008 0.0960726288
|  9> P 1.8217808291 -0.054080371 0.8454101862
| 10> S 0.4267949726 0.0734720029 2.2118824423
| 11> O 3.3110659026 -0.31338933 1.3486025557
| 12> C 3.8377799223 -1.5763099971 1.7930260155
| 13> C 3.0138820553 -2.2062210328 2.8963091558
| 14> S 1.5822228618 -1.5695002094 -0.639966525
| 15> C -0.1490905157 -2.0162113717 -0.3832313137
| 16> S -1.2488530162 -1.4617184916 -1.7312660601
| 17> P -2.0866367352 0.2579695953 -0.8782838642
| 18> S -3.5269932329 1.1202212114 -1.8853054311
| 19> O -0.7645513162 1.1145497855 -0.6419237136
| 20> C -0.8897272786 2.4804147338 -0.1804762969
| 21> C -0.7304441082 3.4461710168 -1.3357643235
| 22> O -2.4871335105 -0.1134469108 0.6214141189
| 23> C -3.8073440544 -0.5635709247 0.9665319107
| 24> C -4.0579479815 -1.9826078882 0.4971612543
| 25> H 3.8516743168 3.2441838729 0.0137857199
| 26> H 4.672719806 1.7262393081 0.3919894905
| 27> H 4.8888766547 2.4756703748 -1.1997916999
| 28> H 3.3067340403 0.5480033685 -1.3334934817
| 29> H 2.4831090827 2.0810976175 -1.7206726281
| 30> H 3.9007724493 -2.2426417674 0.9283344636
| 31> H 4.8414586891 -1.3266760112 2.1418576833
| 32> H 2.8916827332 -1.5108755663 3.7234991234
| 33> H 2.0256278213 -2.4727805853 2.5249312628
| 34> H 3.5126757867 -3.102543697 3.2506033367
| 35> H -0.4867683692 -1.5884630767 0.5648818141
| 36> H -0.2035022373 -3.1012791649 -0.3824526515
| 37> H -1.8611757294 2.6035072437 0.3066721699
| 38> H -0.0992735912 2.6019879794 0.5625786461
| 39> H 0.2202952593 3.2794769458 -1.8340535096
| 40> H -1.5348441764 3.3047470079 -2.0548496424
| 41> H -0.7658335496 4.4624546748 -0.9567303515
| 42> H -3.8355290668 -0.4834206478 2.0541446032
| 43> H -4.5340500803 0.1236870891 0.5207157621
| 44> H -4.0254574223 -2.0243417036 -0.5913795781
| 45> H -3.3055311375 -2.6548502582 0.9013288918
| 46> H -5.0399045099 -2.3008312522 0.8320786351
| 47> *
| 48>
| 49>                          ****END OF INPUT****

CARTESIAN COORDINATES (ANGSTROEM)
---------------------------------
  C      4.183502    2.293817   -0.395024
  C      2.999472    1.520687   -0.938558
  O      2.007498    1.322071    0.096073
  P      1.821781   -0.054080    0.845410
  S      0.426795    0.073472    2.211882
  O      3.311066   -0.313389    1.348603
  C      3.837780   -1.576310    1.793026
  C      3.013882   -2.206221    2.896309
  S      1.582223   -1.569500   -0.639967
  C     -0.149091   -2.016211   -0.383231
  S     -1.248853   -1.461718   -1.731266
  P     -2.086637    0.257970   -0.878284
  S     -3.526993    1.120221   -1.885305
  O     -0.764551    1.114550   -0.641924
  C     -0.889727    2.480415   -0.180476
  C     -0.730444    3.446171   -1.335764
  O     -2.487134   -0.113447    0.621414
  C     -3.807344   -0.563571    0.966532
  C     -4.057948   -1.982608    0.497161
  H      3.851674    3.244184    0.013786
  H      4.672720    1.726239    0.391989
  H      4.888877    2.475670   -1.199792
  H      3.306734    0.548003   -1.333493
  H      2.483109    2.081098   -1.720673
  H      3.900772   -2.242642    0.928334
  H      4.841459   -1.326676    2.141858
  H      2.891683   -1.510876    3.723499
  H      2.025628   -2.472781    2.524931
  H      3.512676   -3.102544    3.250603
  H     -0.486768   -1.588463    0.564882
  H     -0.203502   -3.101279   -0.382453
  H     -1.861176    2.603507    0.306672
  H     -0.099274    2.601988    0.562579
  H      0.220295    3.279477   -1.834054
  H     -1.534844    3.304747   -2.054850
  H     -0.765834    4.462455   -0.956730
  H     -3.835529   -0.483421    2.054145
  H     -4.534050    0.123687    0.520716
  H     -4.025457   -2.024342   -0.591380
  H     -3.305531   -2.654850    0.901329
  H     -5.039905   -2.300831    0.832079

 Total Charge           Charge          ....    0
 Multiplicity           Mult            ....    1
 Number of Electrons    NEL             ....  202
 Basis Dimension        Dim             ....  334

ORBITAL ENERGIES
----------------

  NO   OCC          E(Eh)            E(eV)
   0   2.0000     -88.049099     -2395.9378
   1   2.0000     -88.041822     -2395.7398
   2   2.0000     -87.988960     -2394.3013
   3   2.0000     -87.982153     -2394.1161
   4   2.0000     -76.431148     -2079.7973
   5   2.0000     -76.419590     -2079.4828
   6   2.0000     -18.799123      -511.5501
   7   2.0000     -18.794519      -511.4249
   8   2.0000     -18.786116      -511.1962
   9   2.0000     -18.779087      -511.0049
  10   2.0000      -9.961565      -271.0680
  11   2.0000      -9.960647      -271.0430
  12   2.0000      -9.959151      -271.0023
  13   2.0000      -9.946055      -270.6459
  14   2.0000      -9.936827      -270.3948
  15   2.0000      -9.890333      -269.1296
  16   2.0000      -9.887625      -269.0560
  17   2.0000      -9.881640      -268.8931
  18   2.0000      -9.872738      -268.6508
  19   2.0000      -7.694031      -209.3652
  20   2.0000      -7.687413      -209.1852
  21   2.0000      -7.634018      -207.7322
  22   2.0000      -7.627335      -207.5503
  23   2.0000      -6.428230      -174.9210
  24   2.0000      -6.417623      -174.6324
  25   2.0000      -5.721819      -155.6986
  26   2.0000      -5.718331      -155.6037
  27   2.0000      -5.715675      -155.5314
  28   2.0000      -5.711556      -155.4193
  29   2.0000      -5.711341      -155.4135
  30   2.0000      -5.704255      -155.2207
  31   2.0000      -5.663156      -154.1023
  32   2.0000      -5.656311      -153.9161
  33   2.0000      -5.654762      -153.8739
  34   2.0000      -5.653770      -153.8469
  35   2.0000      -5.648008      -153.6901
  36   2.0000      -5.647367      -153.6727
  37   2.0000      -4.650936      -126.5584
  38   2.0000      -4.650196      -126.5383
  39   2.0000      -4.648445      -126.4906
  40   2.0000      -4.640015      -126.2612
  41   2.0000      -4.639586      -126.2496
  42   2.0000      -4.638036      -126.2074
  43   2.0000      -0.993640       -27.0383
  44   2.0000      -0.977907       -26.6102
  45   2.0000      -0.948970       -25.8228
  46   2.0000      -0.935414       -25.4539
  47   2.0000      -0.763904       -20.7869
  48   2.0000      -0.723560       -19.6891
  49   2.0000      -0.707034       -19.2394
  50   2.0000      -0.695137       -18.9156
  51   2.0000      -0.681688       -18.5497
  52   2.0000      -0.673473       -18.3261
  53   2.0000      -0.653352       -17.7786
  54   2.0000      -0.639701       -17.4072
  55   2.0000      -0.595076       -16.1928
  56   2.0000      -0.587351       -15.9826
  57   2.0000      -0.579166       -15.7599
  58   2.0000      -0.571922       -15.5628
  59   2.0000      -0.558826       -15.2064
  60   2.0000      -0.508602       -13.8398
  61   2.0000      -0.493280       -13.4228
  62   2.0000      -0.478297       -13.0151
  63   2.0000      -0.462623       -12.5886
  64   2.0000      -0.460964       -12.5435
  65   2.0000      -0.447464       -12.1761
  66   2.0000      -0.444548       -12.0968
  67   2.0000      -0.434592       -11.8259
  68   2.0000      -0.427534       -11.6338
  69   2.0000      -0.415837       -11.3155
  70   2.0000      -0.412492       -11.2245
  71   2.0000      -0.407700       -11.0941
  72   2.0000      -0.391121       -10.6430
  73   2.0000      -0.390103       -10.6152
  74   2.0000      -0.375376       -10.2145
  75   2.0000      -0.368375       -10.0240
  76   2.0000      -0.363234        -9.8841
  77   2.0000      -0.361271        -9.8307
  78   2.0000      -0.352327        -9.5873
  79   2.0000      -0.350207        -9.5296
  80   2.0000      -0.346675        -9.4335
  81   2.0000      -0.344654        -9.3785
  82   2.0000      -0.342380        -9.3166
  83   2.0000      -0.334233        -9.0949
  84   2.0000      -0.327240        -8.9047
  85   2.0000      -0.324782        -8.8378
  86   2.0000      -0.310636        -8.4528
  87   2.0000      -0.302090        -8.2203
  88   2.0000      -0.290159        -7.8956
  89   2.0000      -0.287497        -7.8232
  90   2.0000      -0.284980        -7.7547
  91   2.0000      -0.277659        -7.5555
  92   2.0000      -0.267903        -7.2900
  93   2.0000      -0.263728        -7.1764
  94   2.0000      -0.260773        -7.0960
  95   2.0000      -0.237672        -6.4674
  96   2.0000      -0.220927        -6.0117
  97   2.0000      -0.208552        -5.6750
  98   2.0000      -0.203806        -5.5458
  99   2.0000      -0.200027        -5.4430
 100   2.0000      -0.196477        -5.3464
 101   0.0000      -0.040922        -1.1135
 102   0.0000      -0.030256        -0.8233
 103   0.0000      -0.017255        -0.4695
 104   0.0000       0.001748         0.0476
 105   0.0000       0.011140         0.3031

MULLIKEN ATOMIC CHARGES
-----------------------
   0 C :   -0.285528
   1 C :   -0.021895
   2 O :   -0.353064
   3 P :    0.606299
   4 S :   -0.292360
   5 O :   -0.380861
   6 C :   -0.004789
   7 C :   -0.307501
   8 S :   -0.104377
   9 C :   -0.369150
  10 S :   -0.067352
  11 P :    0.603433
  12 S :   -0.325218
  13 O :   -0.377178
  14 C :   -0.003722
  15 C :   -0.295243
  16 O :   -0.367557
  17 C :   -0.004896
  18 C :   -0.316623
  19 H :    0.119785
  20 H :    0.120696
  21 H :    0.110990
  22 H :    0.101495
  23 H :    0.122983
  24 H :    0.108984
  25 H :    0.107660
  26 H :    0.127894
  27 H :    0.118385
  28 H :    0.111722
  29 H :    0.212161
  30 H :    0.183162
  31 H :    0.099064
  32 H :    0.115551
  33 H :    0.111405
  34 H :    0.122802
  35 H :    0.103883
  36 H :    0.105613
  37 H :    0.111308
  38 H :    0.126786
  39 H :    0.112922
  40 H :    0.112331
Sum of atomic charges:   -0.0000000

LOEWDIN ATOMIC CHARGES
----------------------
   0 C :   -0.357308
   1 C :   -0.113387
   2 O :   -0.226305
   3 P :    0.575070
   4 S :   -0.280923
   5 O :   -0.247303
   6 C :   -0.117673
   7 C :   -0.368826
   8 S :    0.070016
   9 C :   -0.483403
  10 S :    0.092423
  11 P :    0.565574
  12 S :   -0.321104
  13 O :   -0.248185
  14 C :   -0.122437
  15 C :   -0.360324
  16 O :   -0.239702
  17 C :   -0.122440
  18 C :   -0.367587
  19 H :    0.128852
  20 H :    0.126823
  21 H :    0.129928
  22 H :    0.104032
  23 H :    0.120734
  24 H :    0.106303
  25 H :    0.120260
  26 H :    0.130631
  27 H :    0.118631
  28 H :    0.130154
  29 H :    0.126287
  30 H :    0.137206
  31 H :    0.107092
  32 H :    0.113553
  33 H :    0.119954
  34 H :    0.123845
  35 H :    0.127348
  36 H :    0.118824
  37 H :    0.108653
  38 H :    0.121737
  39 H :    0.122286
  40 H :    0.130692

  Mayer bond orders larger than 0.100000
B(  0-C ,  1-C ) :   1.1645 B(  0-C , 19-H ) :   0.9472 B(  0-C , 20-H ) :   0.9430
B(  0-C , 21-H ) :   0.9402 B(  1-C ,  2-O ) :   0.8957 B(  1-C , 22-H ) :   0.9147
B(  1-C , 23-H ) :   0.9250 B(  2-O ,  3-P ) :   1.1205 B(  3-P ,  4-S ) :   1.6409
B(  3-P ,  5-O ) :   1.0731 B(  3-P ,  8-S ) :   0.9497 B(  4-S ,  8-S ) :   0.1151
B(  4-S , 29-H ) :   0.1033 B(  5-O ,  6-C ) :   0.9140 B(  6-C ,  7-C ) :   1.1680
B(  6-C , 24-H ) :   0.9235 B(  6-C , 25-H ) :   0.9325 B(  7-C , 26-H ) :   0.9429
B(  7-C , 27-H ) :   0.9349 B(  7-C , 28-H ) :   0.9349 B(  8-S ,  9-C ) :   1.0019
B(  9-C , 10-S ) :   0.9791 B(  9-C , 29-H ) :   0.8394 B(  9-C , 30-H ) :   0.9095
B( 10-S , 11-P ) :   0.9917 B( 11-P , 12-S ) :   1.6332 B( 11-P , 13-O ) :   1.1169
B( 11-P , 16-O ) :   1.0755 B( 13-O , 14-C ) :   0.8789 B( 14-C , 15-C ) :   1.1736
B( 14-C , 31-H ) :   0.9127 B( 14-C , 32-H ) :   0.9138 B( 15-C , 33-H ) :   0.9437
B( 15-C , 34-H ) :   0.9333 B( 15-C , 35-H ) :   0.9408 B( 16-O , 17-C ) :   0.9121
B( 17-C , 18-C ) :   1.1621 B( 17-C , 36-H ) :   0.9325 B( 17-C , 37-H ) :   0.9104
B( 18-C , 38-H ) :   0.9357 B( 18-C , 39-H ) :   0.9478 B( 18-C , 40-H ) :   0.9397

Dispersion correction           -0.067029100
FINAL SINGLE POINT ENERGY     -2929.518156623451

DIPOLE MOMENT
-------------

Method             : SCF
Type of density    : Electron Density
Multiplicity       :   1
Irrep              :   0
Energy             : -2929.6394525371383679 Eh
Relativity type    :
Basis              : AO
                                X                 Y                 Z
Electronic contribution:     -8.994041917      -3.973919288      -7.618291616
Nuclear contribution   :     10.576950127       3.317932162       8.219188447
                        -----------------------------------------
Total Dipole Moment    :      1.582908210      -0.655987126       0.600896832
                        -----------------------------------------
Magnitude (a.u.)       :      1.815762791
Magnitude (Debye)      :      4.615302230

Rotational constants in cm-1:             0.011893             0.005687             0.004828
Rotational constants in MHz :           356.546232           170.483485           144.752774

                             ****ORCA TERMINATED NORMALLY****
TOTAL RUN TIME: 0 days 0 hours 0 minutes 21 seconds 791 msec
