                         Program Version 6.0.0  -   RELEASE  -
|  1> ! r2scan-3c def2/J RI DEFGRID2 scfconv6 printgap
|  2> %output
|  3>     printlevel normal
|  4> end
|  5> * xyz 0 1
|  6> C -1.8548925448 -0.8329057878 0.4634549284
|  7> S -0.9010602141 0.4150274936 -0.4708935116
|  8> S 0.8955192429 0.4085912451 0.4726942757
|  9> C 1.8682165804 -0.8325320613 -0.465614718
| 10> H -1.3831815426 -1.8033251511 0.3542851009
| 11> H -2.8438280135 -0.8369245565 0.0199616418
| 12> H -1.9021876913 -0.5334425464 1.5045648154
| 13> H 2.2481818627 -1.558555824 0.2439261389
| 14> H 2.682542289 -0.3184583382 -0.9636614486
| 15> H 1.2159727255 -1.3048512892 -1.1906261718
| 16> *
| 17>
| 18>                          ****END OF INPUT****

CARTESIAN COORDINATES (ANGSTROEM)
---------------------------------
  C     -1.854893   -0.832906    0.463455
  S     -0.901060    0.415027   -0.470894
  S      0.895519    0.408591    0.472694
  C      1.868217   -0.832532   -0.465615
  H     -1.383182   -1.803325    0.354285
  H     -2.843828   -0.836925    0.019962
  H     -1.902188   -0.533443    1.504565
  H      2.248182   -1.558556    0.243926
  H      2.682542   -0.318458   -0.963661
  H      1.215973   -1.304851   -1.190626

 Total Charge           Charge          ....    0
 Multiplicity           Mult            ....    1
 Number of Electrons    NEL             ....   50
 Basis Dimension        Dim             ....  122

ORBITAL ENERGIES
----------------

  NO   OCC          E(Eh)            E(eV)
   0   2.0000     -88.576371     -2410.2856
   1   2.0000     -88.575711     -2410.2676
   2   2.0000     -10.058541      -273.7068
   3   2.0000     -10.057970      -273.6913
   4   2.0000      -7.868182      -214.1041
   5   2.0000      -7.867584      -214.0878
   6   2.0000      -5.816447      -158.2736
   7   2.0000      -5.815869      -158.2578
   8   2.0000      -5.811758      -158.1460
   9   2.0000      -5.811175      -158.1301
  10   2.0000      -5.804588      -157.9509
  11   2.0000      -5.803876      -157.9315
  12   2.0000      -0.786763       -21.4089
  13   2.0000      -0.720069       -19.5941
  14   2.0000      -0.642305       -17.4780
  15   2.0000      -0.549014       -14.9394
  16   2.0000      -0.422534       -11.4977
  17   2.0000      -0.408716       -11.1217
  18   2.0000      -0.406202       -11.0533
  19   2.0000      -0.394301       -10.7295
  20   2.0000      -0.370803       -10.0901
  21   2.0000      -0.333793        -9.0830
  22   2.0000      -0.295613        -8.0440
  23   2.0000      -0.213015        -5.7964
  24   2.0000      -0.211208        -5.7473
  25   0.0000      -0.035120        -0.9557
  26   0.0000       0.019071         0.5189
  27   0.0000       0.024379         0.6634
  28   0.0000       0.081348         2.2136
  29   0.0000       0.135919         3.6985

MULLIKEN ATOMIC CHARGES
-----------------------
   0 C :   -0.367377
   1 S :   -0.113180
   2 S :   -0.107116
   3 C :   -0.383489
   4 H :    0.157503
   5 H :    0.150365
   6 H :    0.169327
   7 H :    0.157808
   8 H :    0.164427
   9 H :    0.171734
Sum of atomic charges:    0.0000000

LOEWDIN ATOMIC CHARGES
----------------------
   0 C :   -0.470332
   1 S :   -0.019660
   2 S :   -0.005528
   3 C :   -0.471774
   4 H :    0.155683
   5 H :    0.164005
   6 H :    0.161524
   7 H :    0.157781
   8 H :    0.159671
   9 H :    0.168630

  Mayer bond orders larger than 0.100000
B(  0-C ,  1-S ) :   0.9138 B(  0-C ,  4-H ) :   0.9548 B(  0-C ,  5-H ) :   0.9458
B(  0-C ,  6-H ) :   0.9571 B(  1-S ,  2-S ) :   1.1961 B(  2-S ,  3-C ) :   0.8965
B(  3-C ,  7-H ) :   0.9516 B(  3-C ,  8-H ) :   0.9554 B(  3-C ,  9-H ) :   0.9539

Dispersion correction           -0.002437782
FINAL SINGLE POINT ENERGY      -876.132533886841

DIPOLE MOMENT
-------------

Method             : SCF
Type of density    : Electron Density
Multiplicity       :   1
Irrep              :   0
Energy             :  -876.1402637026459388 Eh
Relativity type    :
Basis              : AO
                                X                 Y                 Z
Electronic contribution:     -0.020241095       5.155828272       0.014161266
Nuclear contribution   :      0.016576309      -5.986195998      -0.029650871
                        -----------------------------------------
Total Dipole Moment    :     -0.003664786      -0.830367726      -0.015489605
                        -----------------------------------------
Magnitude (a.u.)       :      0.830520270
Magnitude (Debye)      :      2.111014760

Rotational constants in cm-1:             0.279303             0.090223             0.084871
Rotational constants in MHz :          8373.288572          2704.804820          2544.380766

                             ****ORCA TERMINATED NORMALLY****
TOTAL RUN TIME: 0 days 0 hours 0 minutes 9 seconds 878 msec
