                         Program Version 6.0.0  -   RELEASE  -
|  1> ! r2scan-3c def2/J RI DEFGRID2 scfconv6 printgap
|  2> %output
|  3>     printlevel normal
|  4> end
|  5> %cpcm
|  6>     smd true
|  7>     smdsolvent "water"
|  8> end
|  9> * xyz 0 1
| 10> C -1.8548925448 -0.8329057878 0.4634549284
| 11> S -0.9010602141 0.4150274936 -0.4708935116
| 12> S 0.8955192429 0.4085912451 0.4726942757
| 13> C 1.8682165804 -0.8325320613 -0.465614718
| 14> H -1.3831815426 -1.8033251511 0.3542851009
| 15> H -2.8438280135 -0.8369245565 0.0199616418
| 16> H -1.9021876913 -0.5334425464 1.5045648154
| 17> H 2.2481818627 -1.558555824 0.2439261389
| 18> H 2.682542289 -0.3184583382 -0.9636614486
| 19> H 1.2159727255 -1.3048512892 -1.1906261718
| 20> *
| 21>
| 22>                          ****END OF INPUT****

CARTESIAN COORDINATES (ANGSTROEM)
---------------------------------
  C     -1.854893   -0.832906    0.463455
  S     -0.901060    0.415027   -0.470894
  S      0.895519    0.408591    0.472694
  C      1.868217   -0.832532   -0.465615
  H     -1.383182   -1.803325    0.354285
  H     -2.843828   -0.836925    0.019962
  H     -1.902188   -0.533443    1.504565
  H      2.248182   -1.558556    0.243926
  H      2.682542   -0.318458   -0.963661
  H      1.215973   -1.304851   -1.190626

 Total Charge           Charge          ....    0
 Multiplicity           Mult            ....    1
 Number of Electrons    NEL             ....   50
 Basis Dimension        Dim             ....  122

ORBITAL ENERGIES
----------------

  NO   OCC          E(Eh)            E(eV)
   0   2.0000     -88.574911     -2410.2459
   1   2.0000     -88.574251     -2410.2279
   2   2.0000     -10.046715      -273.3850
   3   2.0000     -10.046080      -273.3677
   4   2.0000      -7.866816      -214.0669
   5   2.0000      -7.866230      -214.0510
   6   2.0000      -5.815051      -158.2356
   7   2.0000      -5.814474      -158.2199
   8   2.0000      -5.810238      -158.1046
   9   2.0000      -5.809665      -158.0890
  10   2.0000      -5.803446      -157.9198
  11   2.0000      -5.802754      -157.9010
  12   2.0000      -0.782923       -21.3044
  13   2.0000      -0.711201       -19.3528
  14   2.0000      -0.633093       -17.2273
  15   2.0000      -0.543341       -14.7851
  16   2.0000      -0.412941       -11.2367
  17   2.0000      -0.397851       -10.8261
  18   2.0000      -0.394870       -10.7450
  19   2.0000      -0.381092       -10.3700
  20   2.0000      -0.362457        -9.8630
  21   2.0000      -0.329586        -8.9685
  22   2.0000      -0.293415        -7.9842
  23   2.0000      -0.211776        -5.7627
  24   2.0000      -0.210096        -5.7170
  25   0.0000      -0.033744        -0.9182
  26   0.0000       0.023198         0.6313
  27   0.0000       0.027477         0.7477
  28   0.0000       0.090779         2.4702
  29   0.0000       0.146542         3.9876

MULLIKEN ATOMIC CHARGES
-----------------------
   0 C :   -0.390655
   1 S :   -0.150037
   2 S :   -0.148626
   3 C :   -0.396603
   4 H :    0.180853
   5 H :    0.175135
   6 H :    0.182590
   7 H :    0.178796
   8 H :    0.181389
   9 H :    0.187157
Sum of atomic charges:   -0.0000000

LOEWDIN ATOMIC CHARGES
----------------------
   0 C :   -0.466688
   1 S :   -0.046278
   2 S :   -0.033775
   3 C :   -0.466081
   4 H :    0.164576
   5 H :    0.174038
   6 H :    0.166324
   7 H :    0.167018
   8 H :    0.166296
   9 H :    0.174570

  Mayer bond orders larger than 0.100000
B(  0-C ,  1-S ) :   0.9152 B(  0-C ,  4-H ) :   0.9483 B(  0-C ,  5-H ) :   0.9362
B(  0-C ,  6-H ) :   0.9519 B(  1-S ,  2-S ) :   1.1880 B(  2-S ,  3-C ) :   0.8974
B(  3-C ,  7-H ) :   0.9446 B(  3-C ,  8-H ) :   0.9487 B(  3-C ,  9-H ) :   0.9482

Dispersion correction           -0.002437782
FINAL SINGLE POINT ENERGY      -876.134597084926

DIPOLE MOMENT
-------------

Method             : SCF
Type of density    : Electron Density
Multiplicity       :   1
Irrep              :   0
Energy             :  -876.1423269007310637 Eh
Relativity type    :
Basis              : AO
                                X                 Y                 Z
Electronic contribution:     -0.024980422       4.826713749       0.005149840
Nuclear contribution   :      0.016576309      -5.986195998      -0.029650871
                        -----------------------------------------
Total Dipole Moment    :     -0.008404113      -1.159482249      -0.024501031
                        -----------------------------------------
Magnitude (a.u.)       :      1.159771535
Magnitude (Debye)      :      2.947904969

Rotational constants in cm-1:             0.279303             0.090223             0.084871
Rotational constants in MHz :          8373.288572          2704.804820          2544.380766

                             ****ORCA TERMINATED NORMALLY****
TOTAL RUN TIME: 0 days 0 hours 0 minutes 11 seconds 731 msec
