                         Program Version 6.0.0  -   RELEASE  -
|  1> ! pbe def2-sv(p) def2/J RI DEFGRID1 loosescf d4 GCP(DFT/SV(P)) printgap
|  2> %output
|  3>     printlevel normal
|  4> end
|  5> * xyz 0 1
|  6> C 1.3415006807 1.6241185042 2.7972809037
|  7> C 1.7779091779 2.0737578449 1.4165723752
|  8> O 2.8727359247 1.295483766 0.9049225165
|  9> P 2.7595937115 -0.2137681428 0.439015697
| 10> S 2.7178598909 -1.6095456701 1.8226762019
| 11> O 4.0733352144 -0.1966353748 -0.4400657058
| 12> C 4.7688992164 -1.4073142798 -0.7829820214
| 13> C 3.9934429186 -2.2452269698 -1.7803738955
| 14> S 1.1400012691 -0.2448659982 -0.9606276955
| 15> C -0.0058436106 -1.3135750443 -0.046718962
| 16> S -1.2012797581 -0.3889459394 0.9396258751
| 17> P -2.4351043566 0.2326026309 -0.6920235374
| 18> S -2.5084047874 -0.9868283268 -2.2197206626
| 19> O -1.8888143066 1.633302184 -1.1684454837
| 20> C -1.798062775 2.7956796374 -0.3091123998
| 21> C -2.9927006554 3.7060207716 -0.5093183861
| 22> O -3.7921904401 0.6350452824 0.0298058778
| 23> C -4.5204950766 -0.1972355129 0.9523491212
| 24> C -4.8412418038 -1.563607008 0.3845913539
| 25> H 2.1960677612 1.5964959917 3.468325773
| 26> H 0.6030194829 2.3185994308 3.1846030911
| 27> H 0.9007589501 0.6291302494 2.7551707582
| 28> H 2.173035049 3.0910016448 1.4360232205
| 29> H 0.9455042113 2.0177823999 0.7073481356
| 30> H 5.714020355 -1.0576876894 -1.2004176621
| 31> H 4.9559323617 -1.9761039526 0.1339365196
| 32> H 4.6075453778 -3.0790308328 -2.1051251229
| 33> H 3.0881772901 -2.6352672616 -1.3163863239
| 34> H 3.7149590624 -1.644667039 -2.64290137
| 35> H 0.5616241135 -1.9413186113 0.6441275765
| 36> H -0.5453078887 -1.9064772352 -0.786115944
| 37> H -1.7219633498 2.4649886095 0.730942988
| 38> H -0.8724969775 3.2890486907 -0.6130294166
| 39> H -3.9082464005 3.1956227787 -0.2233127823
| 40> H -2.8689341689 4.5939708862 0.1026547907
| 41> H -3.0671379651 3.9964683916 -1.5536065942
| 42> H -3.9306289264 -0.2877057945 1.8686029805
| 43> H -5.4293461039 0.373613965 1.1505539007
| 44> H -5.361534121 -1.467736119 -0.5655304916
| 45> H -3.924758767 -2.1275247091 0.2168745786
| 46> H -5.4673121225 -2.1074972516 1.0845767194
| 47> *
| 48>
| 49>                          ****END OF INPUT****

CARTESIAN COORDINATES (ANGSTROEM)
---------------------------------
  C      1.341501    1.624119    2.797281
  C      1.777909    2.073758    1.416572
  O      2.872736    1.295484    0.904923
  P      2.759594   -0.213768    0.439016
  S      2.717860   -1.609546    1.822676
  O      4.073335   -0.196635   -0.440066
  C      4.768899   -1.407314   -0.782982
  C      3.993443   -2.245227   -1.780374
  S      1.140001   -0.244866   -0.960628
  C     -0.005844   -1.313575   -0.046719
  S     -1.201280   -0.388946    0.939626
  P     -2.435104    0.232603   -0.692024
  S     -2.508405   -0.986828   -2.219721
  O     -1.888814    1.633302   -1.168445
  C     -1.798063    2.795680   -0.309112
  C     -2.992701    3.706021   -0.509318
  O     -3.792190    0.635045    0.029806
  C     -4.520495   -0.197236    0.952349
  C     -4.841242   -1.563607    0.384591
  H      2.196068    1.596496    3.468326
  H      0.603019    2.318599    3.184603
  H      0.900759    0.629130    2.755171
  H      2.173035    3.091002    1.436023
  H      0.945504    2.017782    0.707348
  H      5.714020   -1.057688   -1.200418
  H      4.955932   -1.976104    0.133937
  H      4.607545   -3.079031   -2.105125
  H      3.088177   -2.635267   -1.316386
  H      3.714959   -1.644667   -2.642901
  H      0.561624   -1.941319    0.644128
  H     -0.545308   -1.906477   -0.786116
  H     -1.721963    2.464989    0.730943
  H     -0.872497    3.289049   -0.613029
  H     -3.908246    3.195623   -0.223313
  H     -2.868934    4.593971    0.102655
  H     -3.067138    3.996468   -1.553607
  H     -3.930629   -0.287706    1.868603
  H     -5.429346    0.373614    1.150554
  H     -5.361534   -1.467736   -0.565530
  H     -3.924759   -2.127525    0.216875
  H     -5.467312   -2.107497    1.084577

 Total Charge           Charge          ....    0
 Multiplicity           Mult            ....    1
 Number of Electrons    NEL             ....  202
 Basis Dimension        Dim             ....  334

ORBITAL ENERGIES
----------------

  NO   OCC          E(Eh)            E(eV)
   0   2.0000     -88.049199     -2395.9405
   1   2.0000     -88.045269     -2395.8336
   2   2.0000     -87.992932     -2394.4094
   3   2.0000     -87.988294     -2394.2832
   4   2.0000     -76.431060     -2079.7949
   5   2.0000     -76.428695     -2079.7305
   6   2.0000     -18.802381      -511.6388
   7   2.0000     -18.795038      -511.4390
   8   2.0000     -18.791332      -511.3381
   9   2.0000     -18.791062      -511.3308
  10   2.0000      -9.964266      -271.1415
  11   2.0000      -9.961690      -271.0714
  12   2.0000      -9.955995      -270.9164
  13   2.0000      -9.952382      -270.8181
  14   2.0000      -9.950961      -270.7794
  15   2.0000      -9.890777      -269.1417
  16   2.0000      -9.887419      -269.0503
  17   2.0000      -9.882969      -268.9293
  18   2.0000      -9.882205      -268.9085
  19   2.0000      -7.693744      -209.3574
  20   2.0000      -7.689690      -209.2471
  21   2.0000      -7.637784      -207.8347
  22   2.0000      -7.633569      -207.7200
  23   2.0000      -6.428423      -174.9263
  24   2.0000      -6.426078      -174.8625
  25   2.0000      -5.721311      -155.6848
  26   2.0000      -5.718236      -155.6011
  27   2.0000      -5.717487      -155.5807
  28   2.0000      -5.714193      -155.4911
  29   2.0000      -5.711163      -155.4086
  30   2.0000      -5.706864      -155.2917
  31   2.0000      -5.666590      -154.1958
  32   2.0000      -5.662677      -154.0893
  33   2.0000      -5.658392      -153.9727
  34   2.0000      -5.658088      -153.9644
  35   2.0000      -5.654083      -153.8554
  36   2.0000      -5.653602      -153.8423
  37   2.0000      -4.651302      -126.5684
  38   2.0000      -4.650392      -126.5436
  39   2.0000      -4.648425      -126.4901
  40   2.0000      -4.648302      -126.4867
  41   2.0000      -4.648152      -126.4827
  42   2.0000      -4.646530      -126.4385
  43   2.0000      -0.994783       -27.0694
  44   2.0000      -0.990335       -26.9484
  45   2.0000      -0.950917       -25.8758
  46   2.0000      -0.946041       -25.7431
  47   2.0000      -0.765296       -20.8248
  48   2.0000      -0.724429       -19.7127
  49   2.0000      -0.714775       -19.4500
  50   2.0000      -0.696763       -18.9599
  51   2.0000      -0.682931       -18.5835
  52   2.0000      -0.681088       -18.5333
  53   2.0000      -0.654702       -17.8153
  54   2.0000      -0.642773       -17.4907
  55   2.0000      -0.601006       -16.3542
  56   2.0000      -0.594952       -16.1895
  57   2.0000      -0.580870       -15.8063
  58   2.0000      -0.573112       -15.5952
  59   2.0000      -0.565117       -15.3776
  60   2.0000      -0.508685       -13.8420
  61   2.0000      -0.497028       -13.5248
  62   2.0000      -0.480066       -13.0633
  63   2.0000      -0.470478       -12.8024
  64   2.0000      -0.461634       -12.5617
  65   2.0000      -0.451563       -12.2876
  66   2.0000      -0.443203       -12.0602
  67   2.0000      -0.438278       -11.9262
  68   2.0000      -0.424111       -11.5406
  69   2.0000      -0.423081       -11.5126
  70   2.0000      -0.415307       -11.3011
  71   2.0000      -0.410491       -11.1700
  72   2.0000      -0.403159       -10.9705
  73   2.0000      -0.391418       -10.6510
  74   2.0000      -0.381515       -10.3815
  75   2.0000      -0.373896       -10.1742
  76   2.0000      -0.367613       -10.0033
  77   2.0000      -0.360500        -9.8097
  78   2.0000      -0.357476        -9.7274
  79   2.0000      -0.351612        -9.5678
  80   2.0000      -0.349509        -9.5106
  81   2.0000      -0.346799        -9.4369
  82   2.0000      -0.343845        -9.3565
  83   2.0000      -0.339165        -9.2292
  84   2.0000      -0.337829        -9.1928
  85   2.0000      -0.326557        -8.8861
  86   2.0000      -0.312644        -8.5075
  87   2.0000      -0.302911        -8.2426
  88   2.0000      -0.300362        -8.1733
  89   2.0000      -0.294910        -8.0249
  90   2.0000      -0.290188        -7.8964
  91   2.0000      -0.283420        -7.7123
  92   2.0000      -0.271699        -7.3933
  93   2.0000      -0.267841        -7.2883
  94   2.0000      -0.259077        -7.0498
  95   2.0000      -0.241156        -6.5622
  96   2.0000      -0.221811        -6.0358
  97   2.0000      -0.215456        -5.8629
  98   2.0000      -0.207231        -5.6390
  99   2.0000      -0.204270        -5.5585
 100   2.0000      -0.202819        -5.5190
 101   0.0000      -0.047859        -1.3023
 102   0.0000      -0.034298        -0.9333
 103   0.0000      -0.013657        -0.3716
 104   0.0000      -0.002385        -0.0649
 105   0.0000       0.009800         0.2667

MULLIKEN ATOMIC CHARGES
-----------------------
   0 C :   -0.305011
   1 C :   -0.042039
   2 O :   -0.350539
   3 P :    0.598329
   4 S :   -0.327201
   5 O :   -0.355057
   6 C :   -0.005423
   7 C :   -0.310092
   8 S :   -0.084879
   9 C :   -0.363353
  10 S :   -0.117237
  11 P :    0.597198
  12 S :   -0.299235
  13 O :   -0.349033
  14 C :   -0.038473
  15 C :   -0.269802
  16 O :   -0.382336
  17 C :   -0.010488
  18 C :   -0.309522
  19 H :    0.121358
  20 H :    0.104105
  21 H :    0.128416
  22 H :    0.107032
  23 H :    0.131498
  24 H :    0.107633
  25 H :    0.114564
  26 H :    0.112479
  27 H :    0.120424
  28 H :    0.120653
  29 H :    0.193405
  30 H :    0.197375
  31 H :    0.100280
  32 H :    0.121877
  33 H :    0.121621
  34 H :    0.108033
  35 H :    0.121996
  36 H :    0.113900
  37 H :    0.109602
  38 H :    0.128457
  39 H :    0.125900
  40 H :    0.113587
Sum of atomic charges:    0.0000000

LOEWDIN ATOMIC CHARGES
----------------------
   0 C :   -0.367340
   1 C :   -0.122389
   2 O :   -0.231380
   3 P :    0.572032
   4 S :   -0.306728
   5 O :   -0.232591
   6 C :   -0.119416
   7 C :   -0.367301
   8 S :    0.088784
   9 C :   -0.493047
  10 S :    0.070503
  11 P :    0.566881
  12 S :   -0.295236
  13 O :   -0.233083
  14 C :   -0.117777
  15 C :   -0.357703
  16 O :   -0.244663
  17 C :   -0.115343
  18 C :   -0.368671
  19 H :    0.129242
  20 H :    0.126442
  21 H :    0.114387
  22 H :    0.120169
  23 H :    0.101964
  24 H :    0.120057
  25 H :    0.110484
  26 H :    0.130587
  27 H :    0.119532
  28 H :    0.126405
  29 H :    0.124080
  30 H :    0.127833
  31 H :    0.101765
  32 H :    0.121215
  33 H :    0.126802
  34 H :    0.128999
  35 H :    0.130551
  36 H :    0.108582
  37 H :    0.121169
  38 H :    0.131214
  39 H :    0.121656
  40 H :    0.131332

  Mayer bond orders larger than 0.100000
B(  0-C ,  1-C ) :   1.1607 B(  0-C , 19-H ) :   0.9438 B(  0-C , 20-H ) :   0.9377
B(  0-C , 21-H ) :   0.9294 B(  1-C ,  2-O ) :   0.9214 B(  1-C , 22-H ) :   0.9342
B(  1-C , 23-H ) :   0.8999 B(  2-O ,  3-P ) :   1.1306 B(  3-P ,  4-S ) :   1.5921
B(  3-P ,  5-O ) :   1.1366 B(  3-P ,  8-S ) :   0.9379 B(  4-S ,  8-S ) :   0.1238
B(  4-S , 29-H ) :   0.1116 B(  5-O ,  6-C ) :   0.9102 B(  6-C ,  7-C ) :   1.1627
B(  6-C , 24-H ) :   0.9336 B(  6-C , 25-H ) :   0.9148 B(  7-C , 26-H ) :   0.9387
B(  7-C , 27-H ) :   0.9388 B(  7-C , 28-H ) :   0.9447 B(  8-S ,  9-C ) :   1.0087
B(  9-C , 10-S ) :   1.0067 B(  9-C , 29-H ) :   0.8527 B(  9-C , 30-H ) :   0.8636
B( 10-S , 11-P ) :   0.9362 B( 10-S , 12-S ) :   0.1113 B( 11-P , 12-S ) :   1.6519
B( 11-P , 13-O ) :   1.1382 B( 11-P , 16-O ) :   1.0797 B( 13-O , 14-C ) :   0.8960
B( 14-C , 15-C ) :   1.1585 B( 14-C , 31-H ) :   0.9119 B( 14-C , 32-H ) :   0.9272
B( 15-C , 33-H ) :   0.9410 B( 15-C , 34-H ) :   0.9400 B( 15-C , 35-H ) :   0.9458
B( 16-O , 17-C ) :   0.9088 B( 17-C , 18-C ) :   1.1682 B( 17-C , 36-H ) :   0.9257
B( 17-C , 37-H ) :   0.9326 B( 18-C , 38-H ) :   0.9430 B( 18-C , 39-H ) :   0.9327
B( 18-C , 40-H ) :   0.9346

Dispersion correction           -0.064666577
FINAL SINGLE POINT ENERGY     -2929.521027095170

DIPOLE MOMENT
-------------

Method             : SCF
Type of density    : Electron Density
Multiplicity       :   1
Irrep              :   0
Energy             : -2929.6410332724085492 Eh
Relativity type    :
Basis              : AO
                                X                 Y                 Z
Electronic contribution:      6.857886634      -6.070938044      -5.551551894
Nuclear contribution   :     -7.440325795       7.008698107       6.305020912
                        -----------------------------------------
Total Dipole Moment    :     -0.582439161       0.937760063       0.753469018
                        -----------------------------------------
Magnitude (a.u.)       :      1.336542133
Magnitude (Debye)      :      3.397220120

Rotational constants in cm-1:             0.012599             0.004549             0.004202
Rotational constants in MHz :           377.709759           136.363661           125.981615

                             ****ORCA TERMINATED NORMALLY****
TOTAL RUN TIME: 0 days 0 hours 0 minutes 21 seconds 194 msec
