                         Program Version 6.0.0  -   RELEASE  -
|  1> ! pbe def2-sv(p) def2/J RI DEFGRID1 loosescf d4 GCP(DFT/SV(P)) printgap
|  2> %output
|  3>     printlevel normal
|  4> end
|  5> * xyz 0 1
|  6> C 2.8551162932 -0.08139095 -2.7580978951
|  7> C 3.0632394057 0.9388585151 -1.6556170277
|  8> O 3.5827501663 0.3093802263 -0.4703992337
|  9> P 2.7135546622 -0.0423444831 0.8044121677
| 10> S 1.7063255298 1.4417574821 1.6043541617
| 11> O 3.9247968205 -0.5959774935 1.6527164497
| 12> C 3.8720693598 -0.7034106683 3.0872327178
| 13> C 2.894795319 -1.7651951377 3.5511139294
| 14> S 1.5558967069 -1.7737861528 0.3254758223
| 15> C -0.0812983697 -1.0264081409 0.3555513668
| 16> S -0.3946998155 -0.0838073435 -1.1912020303
| 17> P -2.4733230371 0.1481904837 -0.9648782826
| 18> S -3.4337262129 1.119121363 -2.3685091196
| 19> O -2.6793391636 0.7110470628 0.5170727154
| 20> C -2.8611226094 2.1113254317 0.7763235466
| 21> C -1.6195471889 2.9190082532 0.4577361596
| 22> O -2.860031676 -1.3813149612 -0.7772333303
| 23> C -4.2034833475 -1.8566798005 -1.0013408513
| 24> C -5.16879933 -1.3369647193 0.0430443507
| 25> H 2.5659721713 0.4345137743 -3.6678167456
| 26> H 3.7755896295 -0.6318244465 -2.9302037451
| 27> H 2.0672834632 -0.7813067532 -2.4895642582
| 28> H 2.1301324604 1.4601525494 -1.4175030994
| 29> H 3.8232345556 1.6708220057 -1.9366986042
| 30> H 4.8970368003 -0.9524206939 3.3655277132
| 31> H 3.6042924183 0.2745419982 3.5004830181
| 32> H 3.0926550474 -2.7065033648 3.0448538187
| 33> H 2.9988263695 -1.9024789362 4.6227586811
| 34> H 1.8738705662 -1.4555250131 3.332966747
| 35> H -0.1515135 -0.3376442054 1.1985120101
| 36> H -0.8013291167 -1.8361460568 0.4244151722
| 37> H -3.7056659704 2.4661135763 0.176745477
| 38> H -3.1099199802 2.1554396139 1.8372690953
| 39> H -1.7908963532 3.9598249548 0.7122736304
| 40> H -0.7614184805 2.554958023 1.019204645
| 41> H -1.3980030443 2.8499783522 -0.6077064458
| 42> H -4.5163623321 -1.5478008267 -2.0035729528
| 43> H -4.1054268322 -2.9422997651 -0.9605958706
| 44> H -6.1381730941 -1.8039912822 -0.1000711751
| 45> H -4.8022732879 -1.5606907679 1.0414738647
| 46> H -5.2785550443 -0.2580910834 -0.0592627179
| 47> *
| 48>
| 49>                          ****END OF INPUT****

CARTESIAN COORDINATES (ANGSTROEM)
---------------------------------
  C      2.855116   -0.081391   -2.758098
  C      3.063239    0.938859   -1.655617
  O      3.582750    0.309380   -0.470399
  P      2.713555   -0.042344    0.804412
  S      1.706326    1.441757    1.604354
  O      3.924797   -0.595977    1.652716
  C      3.872069   -0.703411    3.087233
  C      2.894795   -1.765195    3.551114
  S      1.555897   -1.773786    0.325476
  C     -0.081298   -1.026408    0.355551
  S     -0.394700   -0.083807   -1.191202
  P     -2.473323    0.148190   -0.964878
  S     -3.433726    1.119121   -2.368509
  O     -2.679339    0.711047    0.517073
  C     -2.861123    2.111325    0.776324
  C     -1.619547    2.919008    0.457736
  O     -2.860032   -1.381315   -0.777233
  C     -4.203483   -1.856680   -1.001341
  C     -5.168799   -1.336965    0.043044
  H      2.565972    0.434514   -3.667817
  H      3.775590   -0.631824   -2.930204
  H      2.067283   -0.781307   -2.489564
  H      2.130132    1.460153   -1.417503
  H      3.823235    1.670822   -1.936699
  H      4.897037   -0.952421    3.365528
  H      3.604292    0.274542    3.500483
  H      3.092655   -2.706503    3.044854
  H      2.998826   -1.902479    4.622759
  H      1.873871   -1.455525    3.332967
  H     -0.151513   -0.337644    1.198512
  H     -0.801329   -1.836146    0.424415
  H     -3.705666    2.466114    0.176745
  H     -3.109920    2.155440    1.837269
  H     -1.790896    3.959825    0.712274
  H     -0.761418    2.554958    1.019205
  H     -1.398003    2.849978   -0.607706
  H     -4.516362   -1.547801   -2.003573
  H     -4.105427   -2.942300   -0.960596
  H     -6.138173   -1.803991   -0.100071
  H     -4.802273   -1.560691    1.041474
  H     -5.278555   -0.258091   -0.059263

 Total Charge           Charge          ....    0
 Multiplicity           Mult            ....    1
 Number of Electrons    NEL             ....  202
 Basis Dimension        Dim             ....  334

ORBITAL ENERGIES
----------------

  NO   OCC          E(Eh)            E(eV)
   0   2.0000     -88.054329     -2396.0801
   1   2.0000     -88.042140     -2395.7484
   2   2.0000     -87.996423     -2394.5044
   3   2.0000     -87.989942     -2394.3280
   4   2.0000     -76.432610     -2079.8370
   5   2.0000     -76.427318     -2079.6931
   6   2.0000     -18.795406      -511.4490
   7   2.0000     -18.792827      -511.3788
   8   2.0000     -18.791994      -511.3561
   9   2.0000     -18.790987      -511.3287
  10   2.0000      -9.957339      -270.9530
  11   2.0000      -9.957150      -270.9478
  12   2.0000      -9.954662      -270.8801
  13   2.0000      -9.952005      -270.8078
  14   2.0000      -9.948767      -270.7197
  15   2.0000      -9.888723      -269.0858
  16   2.0000      -9.886439      -269.0237
  17   2.0000      -9.880691      -268.8673
  18   2.0000      -9.874860      -268.7086
  19   2.0000      -7.698989      -209.5001
  20   2.0000      -7.687246      -209.1806
  21   2.0000      -7.641026      -207.9229
  22   2.0000      -7.635058      -207.7605
  23   2.0000      -6.430028      -174.9700
  24   2.0000      -6.425054      -174.8346
  25   2.0000      -5.726798      -155.8341
  26   2.0000      -5.723465      -155.7434
  27   2.0000      -5.716128      -155.5438
  28   2.0000      -5.715558      -155.5282
  29   2.0000      -5.711680      -155.4227
  30   2.0000      -5.703864      -155.2100
  31   2.0000      -5.669759      -154.2820
  32   2.0000      -5.664023      -154.1259
  33   2.0000      -5.661671      -154.0619
  34   2.0000      -5.661398      -154.0545
  35   2.0000      -5.655696      -153.8993
  36   2.0000      -5.655173      -153.8851
  37   2.0000      -4.652199      -126.5928
  38   2.0000      -4.652007      -126.5875
  39   2.0000      -4.650599      -126.5492
  40   2.0000      -4.647401      -126.4622
  41   2.0000      -4.646947      -126.4499
  42   2.0000      -4.645617      -126.4137
  43   2.0000      -0.993039       -27.0220
  44   2.0000      -0.987025       -26.8583
  45   2.0000      -0.947717       -25.7887
  46   2.0000      -0.946161       -25.7464
  47   2.0000      -0.766474       -20.8568
  48   2.0000      -0.724955       -19.7270
  49   2.0000      -0.712253       -19.3814
  50   2.0000      -0.686152       -18.6712
  51   2.0000      -0.684499       -18.6262
  52   2.0000      -0.676824       -18.4173
  53   2.0000      -0.657436       -17.8897
  54   2.0000      -0.642617       -17.4865
  55   2.0000      -0.606192       -16.4953
  56   2.0000      -0.595636       -16.2081
  57   2.0000      -0.571248       -15.5444
  58   2.0000      -0.568414       -15.4673
  59   2.0000      -0.564237       -15.3537
  60   2.0000      -0.500873       -13.6294
  61   2.0000      -0.493916       -13.4401
  62   2.0000      -0.473949       -12.8968
  63   2.0000      -0.471259       -12.8236
  64   2.0000      -0.457207       -12.4412
  65   2.0000      -0.453065       -12.3285
  66   2.0000      -0.441955       -12.0262
  67   2.0000      -0.437693       -11.9102
  68   2.0000      -0.427829       -11.6418
  69   2.0000      -0.419648       -11.4192
  70   2.0000      -0.415803       -11.3146
  71   2.0000      -0.397045       -10.8042
  72   2.0000      -0.395948       -10.7743
  73   2.0000      -0.391939       -10.6652
  74   2.0000      -0.391230       -10.6459
  75   2.0000      -0.381039       -10.3686
  76   2.0000      -0.366435        -9.9712
  77   2.0000      -0.357489        -9.7278
  78   2.0000      -0.353376        -9.6158
  79   2.0000      -0.351621        -9.5681
  80   2.0000      -0.347744        -9.4626
  81   2.0000      -0.344245        -9.3674
  82   2.0000      -0.338725        -9.2172
  83   2.0000      -0.337683        -9.1888
  84   2.0000      -0.329372        -8.9627
  85   2.0000      -0.322007        -8.7623
  86   2.0000      -0.316596        -8.6150
  87   2.0000      -0.301050        -8.1920
  88   2.0000      -0.296180        -8.0595
  89   2.0000      -0.291290        -7.9264
  90   2.0000      -0.288237        -7.8433
  91   2.0000      -0.274950        -7.4818
  92   2.0000      -0.273350        -7.4382
  93   2.0000      -0.266109        -7.2412
  94   2.0000      -0.262184        -7.1344
  95   2.0000      -0.233450        -6.3525
  96   2.0000      -0.224332        -6.1044
  97   2.0000      -0.213980        -5.8227
  98   2.0000      -0.212719        -5.7884
  99   2.0000      -0.207758        -5.6534
 100   2.0000      -0.204259        -5.5582
 101   0.0000      -0.049715        -1.3528
 102   0.0000      -0.031685        -0.8622
 103   0.0000      -0.024304        -0.6613
 104   0.0000       0.001912         0.0520
 105   0.0000       0.008468         0.2304

MULLIKEN ATOMIC CHARGES
-----------------------
   0 C :   -0.299322
   1 C :   -0.017948
   2 O :   -0.351427
   3 P :    0.599004
   4 S :   -0.320569
   5 O :   -0.357222
   6 C :   -0.002023
   7 C :   -0.314996
   8 S :   -0.092246
   9 C :   -0.353026
  10 S :   -0.082260
  11 P :    0.617138
  12 S :   -0.315466
  13 O :   -0.384634
  14 C :   -0.006263
  15 C :   -0.329494
  16 O :   -0.386049
  17 C :   -0.003986
  18 C :   -0.308006
  19 H :    0.112177
  20 H :    0.114212
  21 H :    0.130276
  22 H :    0.116165
  23 H :    0.109736
  24 H :    0.110103
  25 H :    0.114196
  26 H :    0.120348
  27 H :    0.114739
  28 H :    0.122779
  29 H :    0.193359
  30 H :    0.190611
  31 H :    0.108980
  32 H :    0.103398
  33 H :    0.108433
  34 H :    0.143148
  35 H :    0.121679
  36 H :    0.114955
  37 H :    0.105406
  38 H :    0.113236
  39 H :    0.115802
  40 H :    0.125058
Sum of atomic charges:   -0.0000000

LOEWDIN ATOMIC CHARGES
----------------------
   0 C :   -0.363468
   1 C :   -0.118558
   2 O :   -0.233313
   3 P :    0.570202
   4 S :   -0.297168
   5 O :   -0.232616
   6 C :   -0.115837
   7 C :   -0.369098
   8 S :    0.095732
   9 C :   -0.477727
  10 S :    0.088518
  11 P :    0.571132
  12 S :   -0.316640
  13 O :   -0.248886
  14 C :   -0.120983
  15 C :   -0.373611
  16 O :   -0.248632
  17 C :   -0.115720
  18 C :   -0.365321
  19 H :    0.131698
  20 H :    0.126163
  21 H :    0.113814
  22 H :    0.105555
  23 H :    0.120908
  24 H :    0.121446
  25 H :    0.112171
  26 H :    0.125437
  27 H :    0.131679
  28 H :    0.119550
  29 H :    0.120208
  30 H :    0.134811
  31 H :    0.108103
  32 H :    0.118095
  33 H :    0.130035
  34 H :    0.120167
  35 H :    0.119901
  36 H :    0.112835
  37 H :    0.118777
  38 H :    0.131021
  39 H :    0.126061
  40 H :    0.123557

  Mayer bond orders larger than 0.100000
B(  0-C ,  1-C ) :   1.1681 B(  0-C , 19-H ) :   0.9398 B(  0-C , 20-H ) :   0.9461
B(  0-C , 21-H ) :   0.9310 B(  1-C ,  2-O ) :   0.9036 B(  1-C , 22-H ) :   0.9053
B(  1-C , 23-H ) :   0.9346 B(  2-O ,  3-P ) :   1.1414 B(  3-P ,  4-S ) :   1.6076
B(  3-P ,  5-O ) :   1.1352 B(  3-P ,  8-S ) :   0.9215 B(  4-S ,  8-S ) :   0.1231
B(  5-O ,  6-C ) :   0.9095 B(  6-C ,  7-C ) :   1.1644 B(  6-C , 24-H ) :   0.9341
B(  6-C , 25-H ) :   0.9177 B(  7-C , 26-H ) :   0.9438 B(  7-C , 27-H ) :   0.9377
B(  7-C , 28-H ) :   0.9382 B(  8-S ,  9-C ) :   1.0256 B(  9-C , 10-S ) :   0.9622
B(  9-C , 29-H ) :   0.8660 B(  9-C , 30-H ) :   0.8889 B( 10-S , 11-P ) :   0.9850
B( 11-P , 12-S ) :   1.6325 B( 11-P , 13-O ) :   1.0714 B( 11-P , 16-O ) :   1.0933
B( 13-O , 14-C ) :   0.9064 B( 14-C , 15-C ) :   1.1653 B( 14-C , 31-H ) :   0.9167
B( 14-C , 32-H ) :   0.9329 B( 15-C , 33-H ) :   0.9368 B( 15-C , 34-H ) :   0.9281
B( 15-C , 35-H ) :   0.9346 B( 16-O , 17-C ) :   0.9063 B( 17-C , 18-C ) :   1.1628
B( 17-C , 36-H ) :   0.9178 B( 17-C , 37-H ) :   0.9356 B( 18-C , 38-H ) :   0.9381
B( 18-C , 39-H ) :   0.9461 B( 18-C , 40-H ) :   0.9361

Dispersion correction           -0.063947139
FINAL SINGLE POINT ENERGY     -2929.521222833535

DIPOLE MOMENT
-------------

Method             : SCF
Type of density    : Electron Density
Multiplicity       :   1
Irrep              :   0
Energy             : -2929.6425363941489195 Eh
Relativity type    :
Basis              : AO
                                X                 Y                 Z
Electronic contribution:      5.523017481       0.215298387      -6.840810790
Nuclear contribution   :     -5.545437300      -0.964431277       7.806679269
                        -----------------------------------------
Total Dipole Moment    :     -0.022419819      -0.749132890       0.965868479
                        -----------------------------------------
Magnitude (a.u.)       :      1.222540246
Magnitude (Debye)      :      3.107450353

Rotational constants in cm-1:             0.012801             0.004298             0.004142
Rotational constants in MHz :           383.774695           128.842753           124.174110

                             ****ORCA TERMINATED NORMALLY****
TOTAL RUN TIME: 0 days 0 hours 0 minutes 20 seconds 305 msec
