                         Program Version 6.0.0  -   RELEASE  -
|  1> ! r2scan-3c def2/J RI DEFGRID2 scfconv6 printgap
|  2> %output
|  3>     printlevel normal
|  4> end
|  5> * xyz 0 1
|  6> C 5.3838612048 -0.1022747426 -0.9800038993
|  7> C 4.4684272458 -0.8792011905 -0.0533656503
|  8> O 3.4524461658 -0.0249690221 0.5069408358
|  9> P 2.0118298257 0.1325292222 -0.149933501
| 10> S 1.9652969266 0.6531968199 -2.0435202879
| 11> O 1.3368376661 1.1198284228 0.8885574181
| 12> C 1.3971080155 2.5518045935 0.7174913808
| 13> C 2.8169591654 3.0715211061 0.7693116028
| 14> S 1.1393129278 -1.7293668886 0.3179180593
| 15> C -0.0113415057 -1.927360096 -1.083858156
| 16> S -1.7298910415 -2.1480232802 -0.5633875006
| 17> P -2.0999499164 -0.2175518653 0.1701417243
| 18> S -1.4590201334 1.3199016131 -0.8775470853
| 19> O -1.4846714511 -0.3664972694 1.6215705402
| 20> C -1.4285659615 0.7334855048 2.5531701513
| 21> C -2.6032516469 0.6878064769 3.5083902215
| 22> O -3.6611529874 -0.1830641388 0.4630108094
| 23> C -4.6231448367 0.2240682919 -0.5264018883
| 24> C -4.7026942345 -0.7539021143 -1.680166833
| 25> H 4.8227739176 0.2805444142 -1.829696967
| 26> H 5.8326053539 0.7328387429 -0.4494322471
| 27> H 6.1671278544 -0.7603401908 -1.341843021
| 28> H 5.0112630388 -1.2621607444 0.8127717194
| 29> H 3.9908275807 -1.7105385076 -0.5799900021
| 30> H 0.9191344738 2.8051182214 -0.2349725121
| 31> H 0.7938235642 2.9377964222 1.5405242261
| 32> H 3.3770778659 2.6990133222 -0.0875572408
| 33> H 2.8021650609 4.1564623533 0.7368340385
| 34> H 3.3045597827 2.7387281349 1.6819435999
| 35> H 0.2558219129 -2.8380285914 -1.6138122062
| 36> H 0.0795101791 -1.053395174 -1.7358026538
| 37> H -0.4778635855 0.6056998556 3.075428904
| 38> H -1.4090443281 1.671406873 1.9873031439
| 39> H -2.6222073144 -0.2682636792 4.0236940478
| 40> H -2.5023447483 1.4878315004 4.2351527945
| 41> H -3.5362645166 0.811453458 2.9642283404
| 42> H -5.5620557884 0.2725259334 0.0266417126
| 43> H -4.3479095825 1.2212168768 -0.8848655007
| 44> H -3.7761586677 -0.7306138356 -2.2526288605
| 45> H -4.8589403211 -1.7638117971 -1.3095808729
| 46> H -5.5249530532 -0.4752100393 -2.3313742576
| 47> *
| 48>
| 49>                          ****END OF INPUT****

CARTESIAN COORDINATES (ANGSTROEM)
---------------------------------
  C      5.383861   -0.102275   -0.980004
  C      4.468427   -0.879201   -0.053366
  O      3.452446   -0.024969    0.506941
  P      2.011830    0.132529   -0.149934
  S      1.965297    0.653197   -2.043520
  O      1.336838    1.119828    0.888557
  C      1.397108    2.551805    0.717491
  C      2.816959    3.071521    0.769312
  S      1.139313   -1.729367    0.317918
  C     -0.011342   -1.927360   -1.083858
  S     -1.729891   -2.148023   -0.563388
  P     -2.099950   -0.217552    0.170142
  S     -1.459020    1.319902   -0.877547
  O     -1.484671   -0.366497    1.621571
  C     -1.428566    0.733486    2.553170
  C     -2.603252    0.687806    3.508390
  O     -3.661153   -0.183064    0.463011
  C     -4.623145    0.224068   -0.526402
  C     -4.702694   -0.753902   -1.680167
  H      4.822774    0.280544   -1.829697
  H      5.832605    0.732839   -0.449432
  H      6.167128   -0.760340   -1.341843
  H      5.011263   -1.262161    0.812772
  H      3.990828   -1.710539   -0.579990
  H      0.919134    2.805118   -0.234973
  H      0.793824    2.937796    1.540524
  H      3.377078    2.699013   -0.087557
  H      2.802165    4.156462    0.736834
  H      3.304560    2.738728    1.681944
  H      0.255822   -2.838029   -1.613812
  H      0.079510   -1.053395   -1.735803
  H     -0.477864    0.605700    3.075429
  H     -1.409044    1.671407    1.987303
  H     -2.622207   -0.268264    4.023694
  H     -2.502345    1.487832    4.235153
  H     -3.536265    0.811453    2.964228
  H     -5.562056    0.272526    0.026642
  H     -4.347910    1.221217   -0.884866
  H     -3.776159   -0.730614   -2.252629
  H     -4.858940   -1.763812   -1.309581
  H     -5.524953   -0.475210   -2.331374

 Total Charge           Charge          ....    0
 Multiplicity           Mult            ....    1
 Number of Electrons    NEL             ....  202
 Basis Dimension        Dim             ....  539

ORBITAL ENERGIES
----------------

  NO   OCC          E(Eh)            E(eV)
   0   2.0000     -88.576400     -2410.2864
   1   2.0000     -88.572511     -2410.1805
   2   2.0000     -88.515372     -2408.6257
   3   2.0000     -88.514349     -2408.5979
   4   2.0000     -76.911100     -2092.8574
   5   2.0000     -76.910435     -2092.8393
   6   2.0000     -18.992422      -516.8101
   7   2.0000     -18.987731      -516.6824
   8   2.0000     -18.984684      -516.5995
   9   2.0000     -18.983828      -516.5762
  10   2.0000     -10.105113      -274.9741
  11   2.0000     -10.097783      -274.7747
  12   2.0000     -10.097120      -274.7566
  13   2.0000     -10.093140      -274.6483
  14   2.0000     -10.091453      -274.6024
  15   2.0000     -10.028352      -272.8853
  16   2.0000     -10.026994      -272.8484
  17   2.0000     -10.023863      -272.7632
  18   2.0000     -10.023400      -272.7506
  19   2.0000      -7.871062      -214.1825
  20   2.0000      -7.866868      -214.0684
  21   2.0000      -7.810187      -212.5260
  22   2.0000      -7.809106      -212.4966
  23   2.0000      -6.589610      -179.3124
  24   2.0000      -6.588732      -179.2885
  25   2.0000      -5.818119      -158.3191
  26   2.0000      -5.814742      -158.2272
  27   2.0000      -5.813706      -158.1990
  28   2.0000      -5.810708      -158.1174
  29   2.0000      -5.808088      -158.0461
  30   2.0000      -5.804003      -157.9350
  31   2.0000      -5.757844      -156.6789
  32   2.0000      -5.756744      -156.6490
  33   2.0000      -5.750646      -156.4830
  34   2.0000      -5.750001      -156.4655
  35   2.0000      -5.749510      -156.4521
  36   2.0000      -5.749007      -156.4384
  37   2.0000      -4.735197      -128.8512
  38   2.0000      -4.734547      -128.8336
  39   2.0000      -4.734132      -128.8223
  40   2.0000      -4.733619      -128.8083
  41   2.0000      -4.733228      -128.7977
  42   2.0000      -4.732615      -128.7810
  43   2.0000      -1.047636       -28.5076
  44   2.0000      -1.045500       -28.4495
  45   2.0000      -1.007985       -27.4287
  46   2.0000      -1.005219       -27.3534
  47   2.0000      -0.799262       -21.7490
  48   2.0000      -0.755623       -20.5615
  49   2.0000      -0.745408       -20.2836
  50   2.0000      -0.730734       -19.8843
  51   2.0000      -0.727131       -19.7863
  52   2.0000      -0.709869       -19.3165
  53   2.0000      -0.684084       -18.6149
  54   2.0000      -0.662872       -18.0377
  55   2.0000      -0.631813       -17.1925
  56   2.0000      -0.621893       -16.9226
  57   2.0000      -0.604116       -16.4388
  58   2.0000      -0.598436       -16.2843
  59   2.0000      -0.590188       -16.0598
  60   2.0000      -0.523252       -14.2384
  61   2.0000      -0.516975       -14.0676
  62   2.0000      -0.491349       -13.3703
  63   2.0000      -0.488336       -13.2883
  64   2.0000      -0.469870       -12.7858
  65   2.0000      -0.461697       -12.5634
  66   2.0000      -0.453950       -12.3526
  67   2.0000      -0.452894       -12.3239
  68   2.0000      -0.444566       -12.0973
  69   2.0000      -0.429117       -11.6769
  70   2.0000      -0.423369       -11.5204
  71   2.0000      -0.415652       -11.3105
  72   2.0000      -0.406154       -11.0520
  73   2.0000      -0.403962       -10.9924
  74   2.0000      -0.395221       -10.7545
  75   2.0000      -0.388139       -10.5618
  76   2.0000      -0.383262       -10.4291
  77   2.0000      -0.370750       -10.0886
  78   2.0000      -0.369870       -10.0647
  79   2.0000      -0.363539        -9.8924
  80   2.0000      -0.359397        -9.7797
  81   2.0000      -0.356265        -9.6945
  82   2.0000      -0.351634        -9.5684
  83   2.0000      -0.349112        -9.4998
  84   2.0000      -0.345048        -9.3892
  85   2.0000      -0.324836        -8.8392
  86   2.0000      -0.320938        -8.7332
  87   2.0000      -0.309966        -8.4346
  88   2.0000      -0.306808        -8.3487
  89   2.0000      -0.299283        -8.1439
  90   2.0000      -0.295973        -8.0538
  91   2.0000      -0.290326        -7.9002
  92   2.0000      -0.281222        -7.6524
  93   2.0000      -0.276682        -7.5289
  94   2.0000      -0.273826        -7.4512
  95   2.0000      -0.246524        -6.7083
  96   2.0000      -0.233553        -6.3553
  97   2.0000      -0.225922        -6.1476
  98   2.0000      -0.215304        -5.8587
  99   2.0000      -0.206875        -5.6293
 100   2.0000      -0.198487        -5.4011
 101   0.0000      -0.040131        -1.0920
 102   0.0000      -0.030251        -0.8232
 103   0.0000      -0.008896        -0.2421
 104   0.0000       0.014907         0.4056
 105   0.0000       0.022097         0.6013

MULLIKEN ATOMIC CHARGES
-----------------------
   0 C :   -0.459110
   1 C :   -0.134004
   2 O :   -0.286703
   3 P :    0.641061
   4 S :   -0.462108
   5 O :   -0.264429
   6 C :   -0.146872
   7 C :   -0.460659
   8 S :   -0.126160
   9 C :   -0.226767
  10 S :   -0.100422
  11 P :    0.695178
  12 S :   -0.446479
  13 O :   -0.277931
  14 C :   -0.156203
  15 C :   -0.464949
  16 O :   -0.312545
  17 C :   -0.154013
  18 C :   -0.462678
  19 H :    0.184585
  20 H :    0.150462
  21 H :    0.144044
  22 H :    0.149628
  23 H :    0.153371
  24 H :    0.185519
  25 H :    0.146111
  26 H :    0.173097
  27 H :    0.146850
  28 H :    0.157118
  29 H :    0.193225
  30 H :    0.216062
  31 H :    0.166485
  32 H :    0.168810
  33 H :    0.157264
  34 H :    0.144481
  35 H :    0.160854
  36 H :    0.146545
  37 H :    0.175044
  38 H :    0.181403
  39 H :    0.156330
  40 H :    0.148503
Sum of atomic charges:    0.0000000

LOEWDIN ATOMIC CHARGES
----------------------
   0 C :   -0.403875
   1 C :    0.019269
   2 O :   -0.668003
   3 P :    0.372512
   4 S :   -0.127856
   5 O :   -0.668961
   6 C :    0.008763
   7 C :   -0.401637
   8 S :    0.175705
   9 C :   -0.412987
  10 S :    0.171439
  11 P :    0.374198
  12 S :   -0.101668
  13 O :   -0.669220
  14 C :    0.017891
  15 C :   -0.393664
  16 O :   -0.665985
  17 C :    0.018157
  18 C :   -0.407396
  19 H :    0.169345
  20 H :    0.157154
  21 H :    0.157549
  22 H :    0.178327
  23 H :    0.175895
  24 H :    0.185036
  25 H :    0.178537
  26 H :    0.166960
  27 H :    0.159186
  28 H :    0.161068
  29 H :    0.180582
  30 H :    0.201869
  31 H :    0.183471
  32 H :    0.179924
  33 H :    0.161278
  34 H :    0.157682
  35 H :    0.163688
  36 H :    0.178746
  37 H :    0.180507
  38 H :    0.166735
  39 H :    0.159948
  40 H :    0.159830

  Mayer bond orders larger than 0.100000
B(  0-C ,  1-C ) :   0.9478 B(  0-C , 19-H ) :   0.9575 B(  0-C , 20-H ) :   0.9742
B(  0-C , 21-H ) :   0.9645 B(  1-C ,  2-O ) :   0.7876 B(  1-C , 22-H ) :   0.9649
B(  1-C , 23-H ) :   0.9643 B(  2-O ,  3-P ) :   1.0526 B(  3-P ,  4-S ) :   1.7472
B(  3-P ,  5-O ) :   1.1709 B(  3-P ,  8-S ) :   1.1403 B(  5-O ,  6-C ) :   0.7891
B(  6-C ,  7-C ) :   0.9146 B(  6-C , 24-H ) :   0.9603 B(  6-C , 25-H ) :   0.9584
B(  7-C , 26-H ) :   0.9603 B(  7-C , 27-H ) :   0.9596 B(  7-C , 28-H ) :   0.9721
B(  8-S ,  9-C ) :   0.8953 B(  9-C , 10-S ) :   0.9170 B(  9-C , 29-H ) :   0.9127
B(  9-C , 30-H ) :   0.9020 B( 10-S , 11-P ) :   1.1145 B( 11-P , 12-S ) :   1.7737
B( 11-P , 13-O ) :   1.1610 B( 11-P , 16-O ) :   1.0400 B( 13-O , 14-C ) :   0.7534
B( 14-C , 15-C ) :   0.9372 B( 14-C , 31-H ) :   0.9613 B( 14-C , 32-H ) :   0.9639
B( 15-C , 33-H ) :   0.9769 B( 15-C , 34-H ) :   0.9672 B( 15-C , 35-H ) :   0.9662
B( 16-O , 17-C ) :   0.8201 B( 17-C , 18-C ) :   0.9173 B( 17-C , 36-H ) :   0.9588
B( 17-C , 37-H ) :   0.9658 B( 18-C , 38-H ) :   0.9616 B( 18-C , 39-H ) :   0.9687
B( 18-C , 40-H ) :   0.9582

Dispersion correction           -0.022190284
FINAL SINGLE POINT ENERGY     -2932.459936719908

DIPOLE MOMENT
-------------

Method             : SCF
Type of density    : Electron Density
Multiplicity       :   1
Irrep              :   0
Energy             : -2932.4844654906182768 Eh
Relativity type    :
Basis              : AO
                                X                 Y                 Z
Electronic contribution:     -2.777421569     -11.006403700      -5.320035679
Nuclear contribution   :      2.645499962      10.982814438       6.160374451
                        -----------------------------------------
Total Dipole Moment    :     -0.131921607      -0.023589262       0.840338772
                        -----------------------------------------
Magnitude (a.u.)       :      0.850957704
Magnitude (Debye)      :      2.162962591

Rotational constants in cm-1:             0.013235             0.005200             0.004791
Rotational constants in MHz :           396.769679           155.886348           143.640766

                             ****ORCA TERMINATED NORMALLY****
TOTAL RUN TIME: 0 days 0 hours 1 minutes 21 seconds 1 msec
