                         Program Version 6.0.0  -   RELEASE  -
|  1> ! r2scan-3c def2/J RI DEFGRID2 scfconv6 printgap
|  2> %output
|  3>     printlevel normal
|  4> end
|  5> %cpcm
|  6>     smd true
|  7>     smdsolvent "water"
|  8> end
|  9> * xyz 0 1
| 10> C 5.3838612048 -0.1022747426 -0.9800038993
| 11> C 4.4684272458 -0.8792011905 -0.0533656503
| 12> O 3.4524461658 -0.0249690221 0.5069408358
| 13> P 2.0118298257 0.1325292222 -0.149933501
| 14> S 1.9652969266 0.6531968199 -2.0435202879
| 15> O 1.3368376661 1.1198284228 0.8885574181
| 16> C 1.3971080155 2.5518045935 0.7174913808
| 17> C 2.8169591654 3.0715211061 0.7693116028
| 18> S 1.1393129278 -1.7293668886 0.3179180593
| 19> C -0.0113415057 -1.927360096 -1.083858156
| 20> S -1.7298910415 -2.1480232802 -0.5633875006
| 21> P -2.0999499164 -0.2175518653 0.1701417243
| 22> S -1.4590201334 1.3199016131 -0.8775470853
| 23> O -1.4846714511 -0.3664972694 1.6215705402
| 24> C -1.4285659615 0.7334855048 2.5531701513
| 25> C -2.6032516469 0.6878064769 3.5083902215
| 26> O -3.6611529874 -0.1830641388 0.4630108094
| 27> C -4.6231448367 0.2240682919 -0.5264018883
| 28> C -4.7026942345 -0.7539021143 -1.680166833
| 29> H 4.8227739176 0.2805444142 -1.829696967
| 30> H 5.8326053539 0.7328387429 -0.4494322471
| 31> H 6.1671278544 -0.7603401908 -1.341843021
| 32> H 5.0112630388 -1.2621607444 0.8127717194
| 33> H 3.9908275807 -1.7105385076 -0.5799900021
| 34> H 0.9191344738 2.8051182214 -0.2349725121
| 35> H 0.7938235642 2.9377964222 1.5405242261
| 36> H 3.3770778659 2.6990133222 -0.0875572408
| 37> H 2.8021650609 4.1564623533 0.7368340385
| 38> H 3.3045597827 2.7387281349 1.6819435999
| 39> H 0.2558219129 -2.8380285914 -1.6138122062
| 40> H 0.0795101791 -1.053395174 -1.7358026538
| 41> H -0.4778635855 0.6056998556 3.075428904
| 42> H -1.4090443281 1.671406873 1.9873031439
| 43> H -2.6222073144 -0.2682636792 4.0236940478
| 44> H -2.5023447483 1.4878315004 4.2351527945
| 45> H -3.5362645166 0.811453458 2.9642283404
| 46> H -5.5620557884 0.2725259334 0.0266417126
| 47> H -4.3479095825 1.2212168768 -0.8848655007
| 48> H -3.7761586677 -0.7306138356 -2.2526288605
| 49> H -4.8589403211 -1.7638117971 -1.3095808729
| 50> H -5.5249530532 -0.4752100393 -2.3313742576
| 51> *
| 52>
| 53>                          ****END OF INPUT****

CARTESIAN COORDINATES (ANGSTROEM)
---------------------------------
  C      5.383861   -0.102275   -0.980004
  C      4.468427   -0.879201   -0.053366
  O      3.452446   -0.024969    0.506941
  P      2.011830    0.132529   -0.149934
  S      1.965297    0.653197   -2.043520
  O      1.336838    1.119828    0.888557
  C      1.397108    2.551805    0.717491
  C      2.816959    3.071521    0.769312
  S      1.139313   -1.729367    0.317918
  C     -0.011342   -1.927360   -1.083858
  S     -1.729891   -2.148023   -0.563388
  P     -2.099950   -0.217552    0.170142
  S     -1.459020    1.319902   -0.877547
  O     -1.484671   -0.366497    1.621571
  C     -1.428566    0.733486    2.553170
  C     -2.603252    0.687806    3.508390
  O     -3.661153   -0.183064    0.463011
  C     -4.623145    0.224068   -0.526402
  C     -4.702694   -0.753902   -1.680167
  H      4.822774    0.280544   -1.829697
  H      5.832605    0.732839   -0.449432
  H      6.167128   -0.760340   -1.341843
  H      5.011263   -1.262161    0.812772
  H      3.990828   -1.710539   -0.579990
  H      0.919134    2.805118   -0.234973
  H      0.793824    2.937796    1.540524
  H      3.377078    2.699013   -0.087557
  H      2.802165    4.156462    0.736834
  H      3.304560    2.738728    1.681944
  H      0.255822   -2.838029   -1.613812
  H      0.079510   -1.053395   -1.735803
  H     -0.477864    0.605700    3.075429
  H     -1.409044    1.671407    1.987303
  H     -2.622207   -0.268264    4.023694
  H     -2.502345    1.487832    4.235153
  H     -3.536265    0.811453    2.964228
  H     -5.562056    0.272526    0.026642
  H     -4.347910    1.221217   -0.884866
  H     -3.776159   -0.730614   -2.252629
  H     -4.858940   -1.763812   -1.309581
  H     -5.524953   -0.475210   -2.331374

 Total Charge           Charge          ....    0
 Multiplicity           Mult            ....    1
 Number of Electrons    NEL             ....  202
 Basis Dimension        Dim             ....  539

ORBITAL ENERGIES
----------------

  NO   OCC          E(Eh)            E(eV)
   0   2.0000     -88.581478     -2410.4246
   1   2.0000     -88.578561     -2410.3452
   2   2.0000     -88.524967     -2408.8868
   3   2.0000     -88.522073     -2408.8081
   4   2.0000     -76.917977     -2093.0446
   5   2.0000     -76.916965     -2093.0170
   6   2.0000     -18.994781      -516.8743
   7   2.0000     -18.992531      -516.8130
   8   2.0000     -18.990592      -516.7603
   9   2.0000     -18.989465      -516.7296
  10   2.0000     -10.105658      -274.9889
  11   2.0000     -10.089730      -274.5555
  12   2.0000     -10.089045      -274.5369
  13   2.0000     -10.087446      -274.4934
  14   2.0000     -10.087137      -274.4849
  15   2.0000     -10.018805      -272.6255
  16   2.0000     -10.017628      -272.5935
  17   2.0000     -10.017242      -272.5830
  18   2.0000     -10.015850      -272.5451
  19   2.0000      -7.876101      -214.3196
  20   2.0000      -7.872937      -214.2335
  21   2.0000      -7.820091      -212.7955
  22   2.0000      -7.817098      -212.7141
  23   2.0000      -6.596321      -179.4950
  24   2.0000      -6.595534      -179.4736
  25   2.0000      -5.823132      -158.4555
  26   2.0000      -5.819758      -158.3637
  27   2.0000      -5.819751      -158.3635
  28   2.0000      -5.816787      -158.2828
  29   2.0000      -5.813197      -158.1851
  30   2.0000      -5.810095      -158.1007
  31   2.0000      -5.767686      -156.9467
  32   2.0000      -5.764689      -156.8652
  33   2.0000      -5.760547      -156.7525
  34   2.0000      -5.759910      -156.7351
  35   2.0000      -5.757514      -156.6699
  36   2.0000      -5.756983      -156.6555
  37   2.0000      -4.741680      -129.0277
  38   2.0000      -4.741207      -129.0148
  39   2.0000      -4.741065      -129.0109
  40   2.0000      -4.740479      -128.9950
  41   2.0000      -4.740274      -128.9894
  42   2.0000      -4.739220      -128.9607
  43   2.0000      -1.051352       -28.6088
  44   2.0000      -1.050375       -28.5821
  45   2.0000      -1.011421       -27.5222
  46   2.0000      -1.009568       -27.4717
  47   2.0000      -0.802681       -21.8421
  48   2.0000      -0.755372       -20.5547
  49   2.0000      -0.741801       -20.1854
  50   2.0000      -0.723647       -19.6914
  51   2.0000      -0.722071       -19.6485
  52   2.0000      -0.710437       -19.3320
  53   2.0000      -0.688757       -18.7420
  54   2.0000      -0.670014       -18.2320
  55   2.0000      -0.632701       -17.2167
  56   2.0000      -0.620866       -16.8946
  57   2.0000      -0.599230       -16.3059
  58   2.0000      -0.594913       -16.1884
  59   2.0000      -0.590002       -16.0548
  60   2.0000      -0.522150       -14.2084
  61   2.0000      -0.515486       -14.0271
  62   2.0000      -0.489925       -13.3315
  63   2.0000      -0.487713       -13.2713
  64   2.0000      -0.471082       -12.8188
  65   2.0000      -0.462297       -12.5797
  66   2.0000      -0.452521       -12.3137
  67   2.0000      -0.448921       -12.2158
  68   2.0000      -0.443087       -12.0570
  69   2.0000      -0.426249       -11.5988
  70   2.0000      -0.422549       -11.4981
  71   2.0000      -0.415301       -11.3009
  72   2.0000      -0.406561       -11.0631
  73   2.0000      -0.403069       -10.9681
  74   2.0000      -0.392343       -10.6762
  75   2.0000      -0.386728       -10.5234
  76   2.0000      -0.382629       -10.4119
  77   2.0000      -0.367583       -10.0024
  78   2.0000      -0.364247        -9.9117
  79   2.0000      -0.359852        -9.7921
  80   2.0000      -0.352709        -9.5977
  81   2.0000      -0.351467        -9.5639
  82   2.0000      -0.348696        -9.4885
  83   2.0000      -0.345112        -9.3910
  84   2.0000      -0.342909        -9.3310
  85   2.0000      -0.326325        -8.8797
  86   2.0000      -0.319880        -8.7044
  87   2.0000      -0.305590        -8.3155
  88   2.0000      -0.304070        -8.2742
  89   2.0000      -0.300418        -8.1748
  90   2.0000      -0.296410        -8.0657
  91   2.0000      -0.291313        -7.9270
  92   2.0000      -0.283667        -7.7190
  93   2.0000      -0.279111        -7.5950
  94   2.0000      -0.277001        -7.5376
  95   2.0000      -0.252094        -6.8598
  96   2.0000      -0.240962        -6.5569
  97   2.0000      -0.234728        -6.3873
  98   2.0000      -0.224249        -6.1021
  99   2.0000      -0.215246        -5.8571
 100   2.0000      -0.207745        -5.6530
 101   0.0000      -0.045520        -1.2387
 102   0.0000      -0.037573        -1.0224
 103   0.0000      -0.013345        -0.3631
 104   0.0000       0.008564         0.2331
 105   0.0000       0.016238         0.4419

MULLIKEN ATOMIC CHARGES
-----------------------
   0 C :   -0.494132
   1 C :   -0.131519
   2 O :   -0.314529
   3 P :    0.679868
   4 S :   -0.512704
   5 O :   -0.291745
   6 C :   -0.142983
   7 C :   -0.502161
   8 S :   -0.141749
   9 C :   -0.224583
  10 S :   -0.113557
  11 P :    0.720736
  12 S :   -0.494743
  13 O :   -0.313261
  14 C :   -0.136298
  15 C :   -0.513296
  16 O :   -0.333536
  17 C :   -0.152800
  18 C :   -0.495693
  19 H :    0.173171
  20 H :    0.166195
  21 H :    0.168836
  22 H :    0.175731
  23 H :    0.164453
  24 H :    0.180948
  25 H :    0.179809
  26 H :    0.171151
  27 H :    0.172369
  28 H :    0.171183
  29 H :    0.235941
  30 H :    0.212199
  31 H :    0.180584
  32 H :    0.178318
  33 H :    0.168428
  34 H :    0.169870
  35 H :    0.167678
  36 H :    0.174674
  37 H :    0.178552
  38 H :    0.174419
  39 H :    0.170613
  40 H :    0.173563
Sum of atomic charges:    0.0000000

LOEWDIN ATOMIC CHARGES
----------------------
   0 C :   -0.407347
   1 C :    0.024403
   2 O :   -0.680757
   3 P :    0.377119
   4 S :   -0.158910
   5 O :   -0.681830
   6 C :    0.012443
   7 C :   -0.404367
   8 S :    0.169437
   9 C :   -0.406425
  10 S :    0.168343
  11 P :    0.376908
  12 S :   -0.129201
  13 O :   -0.689463
  14 C :    0.022913
  15 C :   -0.396691
  16 O :   -0.675283
  17 C :    0.023713
  18 C :   -0.410296
  19 H :    0.163046
  20 H :    0.161676
  21 H :    0.166820
  22 H :    0.189483
  23 H :    0.179992
  24 H :    0.183190
  25 H :    0.191167
  26 H :    0.163648
  27 H :    0.168741
  28 H :    0.164597
  29 H :    0.197462
  30 H :    0.200017
  31 H :    0.189054
  32 H :    0.184453
  33 H :    0.163515
  34 H :    0.167822
  35 H :    0.164195
  36 H :    0.190585
  37 H :    0.181483
  38 H :    0.161762
  39 H :    0.163684
  40 H :    0.168896

  Mayer bond orders larger than 0.100000
B(  0-C ,  1-C ) :   0.9398 B(  0-C , 19-H ) :   0.9619 B(  0-C , 20-H ) :   0.9712
B(  0-C , 21-H ) :   0.9593 B(  1-C ,  2-O ) :   0.7746 B(  1-C , 22-H ) :   0.9545
B(  1-C , 23-H ) :   0.9577 B(  2-O ,  3-P ) :   1.0605 B(  3-P ,  4-S ) :   1.7024
B(  3-P ,  5-O ) :   1.1733 B(  3-P ,  8-S ) :   1.1534 B(  5-O ,  6-C ) :   0.7747
B(  6-C ,  7-C ) :   0.9040 B(  6-C , 24-H ) :   0.9585 B(  6-C , 25-H ) :   0.9475
B(  7-C , 26-H ) :   0.9606 B(  7-C , 27-H ) :   0.9534 B(  7-C , 28-H ) :   0.9705
B(  8-S ,  9-C ) :   0.8884 B(  9-C , 10-S ) :   0.9102 B(  9-C , 29-H ) :   0.8967
B(  9-C , 30-H ) :   0.9064 B( 10-S , 11-P ) :   1.1267 B( 11-P , 12-S ) :   1.7344
B( 11-P , 13-O ) :   1.1625 B( 11-P , 16-O ) :   1.0510 B( 13-O , 14-C ) :   0.7448
B( 14-C , 15-C ) :   0.9318 B( 14-C , 31-H ) :   0.9523 B( 14-C , 32-H ) :   0.9542
B( 15-C , 33-H ) :   0.9749 B( 15-C , 34-H ) :   0.9603 B( 15-C , 35-H ) :   0.9659
B( 16-O , 17-C ) :   0.8084 B( 17-C , 18-C ) :   0.9038 B( 17-C , 36-H ) :   0.9493
B( 17-C , 37-H ) :   0.9647 B( 18-C , 38-H ) :   0.9634 B( 18-C , 39-H ) :   0.9656
B( 18-C , 40-H ) :   0.9529

Dispersion correction           -0.022190284
FINAL SINGLE POINT ENERGY     -2932.468306198078

DIPOLE MOMENT
-------------

Method             : SCF
Type of density    : Electron Density
Multiplicity       :   1
Irrep              :   0
Energy             : -2932.4928349687884293 Eh
Relativity type    :
Basis              : AO
                                X                 Y                 Z
Electronic contribution:     -2.809179703     -11.042793268      -5.062737938
Nuclear contribution   :      2.645499962      10.982814438       6.160374451
                        -----------------------------------------
Total Dipole Moment    :     -0.163679740      -0.059978830       1.097636513
                        -----------------------------------------
Magnitude (a.u.)       :      1.111393014
Magnitude (Debye)      :      2.824936540

Rotational constants in cm-1:             0.013235             0.005200             0.004791
Rotational constants in MHz :           396.769679           155.886348           143.640766

                             ****ORCA TERMINATED NORMALLY****
TOTAL RUN TIME: 0 days 0 hours 1 minutes 51 seconds 84 msec
