                         Program Version 6.0.0  -   RELEASE  -
|  1> ! pbe def2-sv(p) def2/J RI DEFGRID1 loosescf d4 GCP(DFT/SV(P)) printgap
|  2> %output
|  3>     printlevel normal
|  4> end
|  5> * xyz 0 1
|  6> C 3.0738840023 2.4764563426 -1.2076448257
|  7> C 3.4236647354 1.0572529772 -1.6043272942
|  8> O 2.4106626948 0.1156376953 -1.1892643718
|  9> P 2.0832543093 -0.2518848225 0.3068930423
| 10> S 1.1534234028 1.0051070247 1.5001273557
| 11> O 3.538167196 -0.6272445953 0.8396193454
| 12> C 3.8151748328 -0.8966618395 2.2267965791
| 13> C 5.2709186891 -0.5669824473 2.490926352
| 14> S 1.1152610579 -2.1024981039 0.0147328528
| 15> C -0.4191363768 -1.857799468 0.9721210416
| 16> S -1.9228538671 -1.9140184911 -0.0334583302
| 17> P -2.0344428904 0.0817088471 -0.6994127235
| 18> S -0.5937593703 0.8822640599 -1.7551215809
| 19> O -2.3083647871 0.8039760484 0.7009342182
| 20> C -2.0860522469 2.2098928103 0.8915284127
| 21> C -3.1620002188 3.0358421324 0.2186748872
| 22> O -3.3611887187 0.093842501 -1.565138086
| 23> C -4.5464822658 -0.7033861472 -1.332763839
| 24> C -5.2418795952 -0.3503297986 -0.0350407301
| 25> H 3.7983727356 3.1621423618 -1.6350398667
| 26> H 2.0794837699 2.7250609814 -1.5739138209
| 27> H 3.0794582355 2.5799926948 -0.1234623202
| 28> H 4.3804086514 0.747462647 -1.1774147803
| 29> H 3.4410379529 0.9414123578 -2.6892628821
| 30> H 3.1485563848 -0.2830621712 2.8425881133
| 31> H 3.6062970959 -1.9535068001 2.4101490672
| 32> H 5.4559456584 0.4887217518 2.3123539135
| 33> H 5.5051858507 -0.8002751533 3.5242862815
| 34> H 5.9089990346 -1.1532040492 1.8358497019
| 35> H -0.3597698196 -0.9001843183 1.4977586834
| 36> H -0.5043862461 -2.6888953819 1.6668831829
| 37> H -2.082949667 2.336468585 1.9750901704
| 38> H -1.097406483 2.4665750919 0.4974121963
| 39> H -2.9668228291 4.0893230015 0.3922561092
| 40> H -3.1506669261 2.8436957117 -0.854252217
| 41> H -4.1397377629 2.7795970525 0.617274148
| 42> H -5.1711576724 -0.4782387132 -2.1989215949
| 43> H -4.2597564209 -1.7576996819 -1.348064994
| 44> H -6.1397239755 -0.9532640527 0.0581008908
| 45> H -4.5886581464 -0.5542657997 0.8103558496
| 46> H -5.5161183626 0.7012433438 -0.0275959422
| 47> *
| 48>
| 49>                          ****END OF INPUT****

CARTESIAN COORDINATES (ANGSTROEM)
---------------------------------
  C      3.073884    2.476456   -1.207645
  C      3.423665    1.057253   -1.604327
  O      2.410663    0.115638   -1.189264
  P      2.083254   -0.251885    0.306893
  S      1.153423    1.005107    1.500127
  O      3.538167   -0.627245    0.839619
  C      3.815175   -0.896662    2.226797
  C      5.270919   -0.566982    2.490926
  S      1.115261   -2.102498    0.014733
  C     -0.419136   -1.857799    0.972121
  S     -1.922854   -1.914018   -0.033458
  P     -2.034443    0.081709   -0.699413
  S     -0.593759    0.882264   -1.755122
  O     -2.308365    0.803976    0.700934
  C     -2.086052    2.209893    0.891528
  C     -3.162000    3.035842    0.218675
  O     -3.361189    0.093843   -1.565138
  C     -4.546482   -0.703386   -1.332764
  C     -5.241880   -0.350330   -0.035041
  H      3.798373    3.162142   -1.635040
  H      2.079484    2.725061   -1.573914
  H      3.079458    2.579993   -0.123462
  H      4.380409    0.747463   -1.177415
  H      3.441038    0.941412   -2.689263
  H      3.148556   -0.283062    2.842588
  H      3.606297   -1.953507    2.410149
  H      5.455946    0.488722    2.312354
  H      5.505186   -0.800275    3.524286
  H      5.908999   -1.153204    1.835850
  H     -0.359770   -0.900184    1.497759
  H     -0.504386   -2.688895    1.666883
  H     -2.082950    2.336469    1.975090
  H     -1.097406    2.466575    0.497412
  H     -2.966823    4.089323    0.392256
  H     -3.150667    2.843696   -0.854252
  H     -4.139738    2.779597    0.617274
  H     -5.171158   -0.478239   -2.198922
  H     -4.259756   -1.757700   -1.348065
  H     -6.139724   -0.953264    0.058101
  H     -4.588658   -0.554266    0.810356
  H     -5.516118    0.701243   -0.027596

 Total Charge           Charge          ....    0
 Multiplicity           Mult            ....    1
 Number of Electrons    NEL             ....  202
 Basis Dimension        Dim             ....  334

ORBITAL ENERGIES
----------------

  NO   OCC          E(Eh)            E(eV)
   0   2.0000     -88.040750     -2395.7106
   1   2.0000     -88.037819     -2395.6309
   2   2.0000     -87.985866     -2394.2171
   3   2.0000     -87.969839     -2393.7810
   4   2.0000     -76.424258     -2079.6098
   5   2.0000     -76.417062     -2079.4140
   6   2.0000     -18.787925      -511.2454
   7   2.0000     -18.787319      -511.2289
   8   2.0000     -18.786123      -511.1964
   9   2.0000     -18.782092      -511.0867
  10   2.0000      -9.956535      -270.9311
  11   2.0000      -9.954648      -270.8798
  12   2.0000      -9.950614      -270.7700
  13   2.0000      -9.949957      -270.7521
  14   2.0000      -9.937676      -270.4179
  15   2.0000      -9.888023      -269.0668
  16   2.0000      -9.886983      -269.0385
  17   2.0000      -9.877203      -268.7724
  18   2.0000      -9.876856      -268.7629
  19   2.0000      -7.686264      -209.1539
  20   2.0000      -7.683395      -209.0758
  21   2.0000      -7.630529      -207.6373
  22   2.0000      -7.614975      -207.2140
  23   2.0000      -6.421525      -174.7386
  24   2.0000      -6.414779      -174.5550
  25   2.0000      -5.714171      -155.4905
  26   2.0000      -5.711282      -155.4119
  27   2.0000      -5.710607      -155.3935
  28   2.0000      -5.707862      -155.3188
  29   2.0000      -5.703268      -155.1938
  30   2.0000      -5.700329      -155.1138
  31   2.0000      -5.659186      -153.9943
  32   2.0000      -5.651614      -153.7882
  33   2.0000      -5.650438      -153.7562
  34   2.0000      -5.644046      -153.5823
  35   2.0000      -5.635777      -153.3573
  36   2.0000      -5.634732      -153.3288
  37   2.0000      -4.644201      -126.3751
  38   2.0000      -4.643019      -126.3430
  39   2.0000      -4.642168      -126.3198
  40   2.0000      -4.637687      -126.1979
  41   2.0000      -4.636523      -126.1662
  42   2.0000      -4.634949      -126.1234
  43   2.0000      -0.984428       -26.7877
  44   2.0000      -0.976508       -26.5721
  45   2.0000      -0.939620       -25.5684
  46   2.0000      -0.938864       -25.5478
  47   2.0000      -0.759154       -20.6576
  48   2.0000      -0.719714       -19.5844
  49   2.0000      -0.707383       -19.2489
  50   2.0000      -0.688134       -18.7251
  51   2.0000      -0.685477       -18.6528
  52   2.0000      -0.669395       -18.2152
  53   2.0000      -0.647689       -17.6245
  54   2.0000      -0.631548       -17.1853
  55   2.0000      -0.594072       -16.1655
  56   2.0000      -0.585230       -15.9249
  57   2.0000      -0.572439       -15.5768
  58   2.0000      -0.569474       -15.4962
  59   2.0000      -0.559161       -15.2155
  60   2.0000      -0.503182       -13.6923
  61   2.0000      -0.489775       -13.3274
  62   2.0000      -0.471322       -12.8253
  63   2.0000      -0.469048       -12.7634
  64   2.0000      -0.451552       -12.2874
  65   2.0000      -0.445995       -12.1361
  66   2.0000      -0.435928       -11.8622
  67   2.0000      -0.434574       -11.8254
  68   2.0000      -0.421726       -11.4758
  69   2.0000      -0.411026       -11.1846
  70   2.0000      -0.406223       -11.0539
  71   2.0000      -0.400455       -10.8969
  72   2.0000      -0.393438       -10.7060
  73   2.0000      -0.381977       -10.3941
  74   2.0000      -0.381791       -10.3891
  75   2.0000      -0.368539       -10.0285
  76   2.0000      -0.361503        -9.8370
  77   2.0000      -0.353576        -9.6213
  78   2.0000      -0.350682        -9.5425
  79   2.0000      -0.345714        -9.4074
  80   2.0000      -0.341246        -9.2858
  81   2.0000      -0.340739        -9.2720
  82   2.0000      -0.338146        -9.2014
  83   2.0000      -0.335325        -9.1247
  84   2.0000      -0.331866        -9.0305
  85   2.0000      -0.312670        -8.5082
  86   2.0000      -0.308369        -8.3911
  87   2.0000      -0.301945        -8.2164
  88   2.0000      -0.298333        -8.1180
  89   2.0000      -0.286467        -7.7952
  90   2.0000      -0.273486        -7.4419
  91   2.0000      -0.268598        -7.3089
  92   2.0000      -0.265039        -7.2121
  93   2.0000      -0.259451        -7.0600
  94   2.0000      -0.256331        -6.9751
  95   2.0000      -0.236458        -6.4343
  96   2.0000      -0.218256        -5.9391
  97   2.0000      -0.206827        -5.6281
  98   2.0000      -0.201975        -5.4960
  99   2.0000      -0.187504        -5.1023
 100   2.0000      -0.177402        -4.8273
 101   0.0000      -0.033644        -0.9155
 102   0.0000      -0.027471        -0.7475
 103   0.0000      -0.010850        -0.2952
 104   0.0000       0.009607         0.2614
 105   0.0000       0.019215         0.5229

MULLIKEN ATOMIC CHARGES
-----------------------
   0 C :   -0.318791
   1 C :   -0.001419
   2 O :   -0.354670
   3 P :    0.645444
   4 S :   -0.330555
   5 O :   -0.385799
   6 C :   -0.004350
   7 C :   -0.284974
   8 S :   -0.076236
   9 C :   -0.351089
  10 S :   -0.112410
  11 P :    0.618851
  12 S :   -0.308263
  13 O :   -0.385361
  14 C :   -0.020040
  15 C :   -0.310625
  16 O :   -0.371234
  17 C :   -0.027417
  18 C :   -0.314371
  19 H :    0.107091
  20 H :    0.134805
  21 H :    0.123936
  22 H :    0.106366
  23 H :    0.110652
  24 H :    0.102277
  25 H :    0.096245
  26 H :    0.116432
  27 H :    0.111234
  28 H :    0.116644
  29 H :    0.203333
  30 H :    0.180878
  31 H :    0.099365
  32 H :    0.131332
  33 H :    0.109406
  34 H :    0.126399
  35 H :    0.113818
  36 H :    0.113646
  37 H :    0.124198
  38 H :    0.111589
  39 H :    0.128574
  40 H :    0.125092
Sum of atomic charges:   -0.0000000

LOEWDIN ATOMIC CHARGES
----------------------
   0 C :   -0.367954
   1 C :   -0.107912
   2 O :   -0.225837
   3 P :    0.572440
   4 S :   -0.295614
   5 O :   -0.253564
   6 C :   -0.122933
   7 C :   -0.351521
   8 S :    0.085718
   9 C :   -0.479226
  10 S :    0.079593
  11 P :    0.563368
  12 S :   -0.307109
  13 O :   -0.250566
  14 C :   -0.127962
  15 C :   -0.365251
  16 O :   -0.243150
  17 C :   -0.116957
  18 C :   -0.367955
  19 H :    0.127706
  20 H :    0.131999
  21 H :    0.120225
  22 H :    0.110640
  23 H :    0.122736
  24 H :    0.103612
  25 H :    0.109570
  26 H :    0.126432
  27 H :    0.130417
  28 H :    0.126214
  29 H :    0.123724
  30 H :    0.136696
  31 H :    0.115655
  32 H :    0.107977
  33 H :    0.129816
  34 H :    0.125082
  35 H :    0.119732
  36 H :    0.123667
  37 H :    0.109243
  38 H :    0.130896
  39 H :    0.123798
  40 H :    0.126557

  Mayer bond orders larger than 0.100000
B(  0-C ,  1-C ) :   1.1656 B(  0-C , 19-H ) :   0.9368 B(  0-C , 20-H ) :   0.9416
B(  0-C , 21-H ) :   0.9357 B(  1-C ,  2-O ) :   0.9033 B(  1-C , 22-H ) :   0.9277
B(  1-C , 23-H ) :   0.9344 B(  2-O ,  3-P ) :   1.1517 B(  3-P ,  4-S ) :   1.5853
B(  3-P ,  5-O ) :   1.0755 B(  3-P ,  8-S ) :   0.9716 B(  4-S ,  8-S ) :   0.1223
B(  4-S , 29-H ) :   0.1113 B(  5-O ,  6-C ) :   0.9115 B(  6-C ,  7-C ) :   1.1607
B(  6-C , 24-H ) :   0.9019 B(  6-C , 25-H ) :   0.9291 B(  7-C , 26-H ) :   0.9513
B(  7-C , 27-H ) :   0.9422 B(  7-C , 28-H ) :   0.9511 B(  8-S ,  9-C ) :   1.0060
B(  9-C , 10-S ) :   1.0003 B(  9-C , 29-H ) :   0.8431 B(  9-C , 30-H ) :   0.9127
B( 10-S , 11-P ) :   0.9574 B( 10-S , 12-S ) :   0.1061 B( 11-P , 12-S ) :   1.6620
B( 11-P , 13-O ) :   1.0680 B( 11-P , 16-O ) :   1.1100 B( 13-O , 14-C ) :   0.9033
B( 14-C , 15-C ) :   1.1586 B( 14-C , 31-H ) :   0.9354 B( 14-C , 32-H ) :   0.9012
B( 15-C , 33-H ) :   0.9397 B( 15-C , 34-H ) :   0.9368 B( 15-C , 35-H ) :   0.9404
B( 16-O , 17-C ) :   0.9077 B( 17-C , 18-C ) :   1.1636 B( 17-C , 36-H ) :   0.9343
B( 17-C , 37-H ) :   0.9199 B( 18-C , 38-H ) :   0.9358 B( 18-C , 39-H ) :   0.9348
B( 18-C , 40-H ) :   0.9399

Dispersion correction           -0.066141566
FINAL SINGLE POINT ENERGY     -2929.514751802448

DIPOLE MOMENT
-------------

Method             : SCF
Type of density    : Electron Density
Multiplicity       :   1
Irrep              :   0
Energy             : -2929.6336952475426187 Eh
Relativity type    :
Basis              : AO
                                X                 Y                 Z
Electronic contribution:     -0.377311710     -13.799354108      -7.729626522
Nuclear contribution   :      0.367915428      13.671944573       8.608237611
                        -----------------------------------------
Total Dipole Moment    :     -0.009396282      -0.127409535       0.878611089
                        -----------------------------------------
Magnitude (a.u.)       :      0.887850734
Magnitude (Debye)      :      2.256737219

Rotational constants in cm-1:             0.013814             0.004893             0.004485
Rotational constants in MHz :           414.132714           146.694978           134.454838

                             ****ORCA TERMINATED NORMALLY****
TOTAL RUN TIME: 0 days 0 hours 0 minutes 20 seconds 955 msec
