                         Program Version 6.0.0  -   RELEASE  -
|  1> ! r2scan-3c def2/J RI DEFGRID2 scfconv6 printgap
|  2> %output
|  3>     printlevel normal
|  4> end
|  5> * xyz 0 1
|  6> C 2.9642166476 2.3509028794 -1.9087867396
|  7> C 3.745605734 2.1198409825 -0.6308330595
|  8> O 3.6540540177 0.75538895 -0.1908577804
|  9> P 2.3208833771 0.1566765502 0.4388861127
| 10> S 1.4358209186 1.3997749534 1.6719768143
| 11> O 2.8558535177 -1.1901705637 1.0710659554
| 12> C 2.9854402984 -1.411974117 2.4942412984
| 13> C 1.9450675659 -2.4097425769 2.9633219258
| 14> S 1.3022091296 -0.6058730194 -1.2608462427
| 15> C 0.3009957553 -1.8781685505 -0.4428497822
| 16> S -0.9110121293 -1.2046675457 0.7197374797
| 17> P -2.1258453945 -0.2223133743 -0.734688303
| 18> S -2.2085520182 -1.1176308188 -2.4703826771
| 19> O -1.6349942415 1.2677069129 -0.8441894453
| 20> C -1.7603062594 2.2306661242 0.2373282205
| 21> C -1.0444127726 3.4923515016 -0.1921356638
| 22> O -3.5087632645 -0.0639152195 0.0301383156
| 23> C -4.362724926 -1.2049889148 0.2627637766
| 24> C -5.734400882 -0.6876814541 0.6445247326
| 25> H 3.1060517103 3.3742331111 -2.2412681716
| 26> H 3.2984117051 1.6676407022 -2.685378716
| 27> H 1.9015139711 2.1782899555 -1.7349631326
| 28> H 3.378197903 2.7682571716 0.172163783
| 29> H 4.8141520705 2.2814826853 -0.7779017465
| 30> H 3.9987007315 -1.7905784797 2.6354631258
| 31> H 2.8714059001 -0.457646049 3.0175406715
| 32> H 2.0774016774 -2.5850979168 4.025987725
| 33> H 0.9431530464 -2.0181517048 2.7914911278
| 34> H 2.054886965 -3.350655451 2.4310479459
| 35> H 0.9444559953 -2.5535421815 0.1146521753
| 36> H -0.2254536371 -2.3965472777 -1.2453744312
| 37> H -2.8230544774 2.4062619739 0.4089436541
| 38> H -1.3090213047 1.8070154548 1.1391506036
| 39> H -1.4333099648 3.8372661261 -1.1458022177
| 40> H -1.1948007715 4.2566989683 0.5630440026
| 41> H 0.0210931687 3.3023854191 -0.2900869564
| 42> H -4.3980855781 -1.8039555164 -0.6530778265
| 43> H -3.9214141275 -1.8012974715 1.0657965247
| 44> H -6.39153742 -1.5302579043 0.8325083678
| 45> H -5.6658466114 -0.0775843394 1.540462861
| 46> H -6.1443961932 -0.0862728641 -0.1619664948
| 47> *
| 48>
| 49>                          ****END OF INPUT****

CARTESIAN COORDINATES (ANGSTROEM)
---------------------------------
  C      2.964217    2.350903   -1.908787
  C      3.745606    2.119841   -0.630833
  O      3.654054    0.755389   -0.190858
  P      2.320883    0.156677    0.438886
  S      1.435821    1.399775    1.671977
  O      2.855854   -1.190171    1.071066
  C      2.985440   -1.411974    2.494241
  C      1.945068   -2.409743    2.963322
  S      1.302209   -0.605873   -1.260846
  C      0.300996   -1.878169   -0.442850
  S     -0.911012   -1.204668    0.719737
  P     -2.125845   -0.222313   -0.734688
  S     -2.208552   -1.117631   -2.470383
  O     -1.634994    1.267707   -0.844189
  C     -1.760306    2.230666    0.237328
  C     -1.044413    3.492352   -0.192136
  O     -3.508763   -0.063915    0.030138
  C     -4.362725   -1.204989    0.262764
  C     -5.734401   -0.687681    0.644525
  H      3.106052    3.374233   -2.241268
  H      3.298412    1.667641   -2.685379
  H      1.901514    2.178290   -1.734963
  H      3.378198    2.768257    0.172164
  H      4.814152    2.281483   -0.777902
  H      3.998701   -1.790578    2.635463
  H      2.871406   -0.457646    3.017541
  H      2.077402   -2.585098    4.025988
  H      0.943153   -2.018152    2.791491
  H      2.054887   -3.350655    2.431048
  H      0.944456   -2.553542    0.114652
  H     -0.225454   -2.396547   -1.245374
  H     -2.823054    2.406262    0.408944
  H     -1.309021    1.807015    1.139151
  H     -1.433310    3.837266   -1.145802
  H     -1.194801    4.256699    0.563044
  H      0.021093    3.302385   -0.290087
  H     -4.398086   -1.803956   -0.653078
  H     -3.921414   -1.801297    1.065797
  H     -6.391537   -1.530258    0.832508
  H     -5.665847   -0.077584    1.540463
  H     -6.144396   -0.086273   -0.161966

 Total Charge           Charge          ....    0
 Multiplicity           Mult            ....    1
 Number of Electrons    NEL             ....  202
 Basis Dimension        Dim             ....  539

ORBITAL ENERGIES
----------------

  NO   OCC          E(Eh)            E(eV)
   0   2.0000     -88.573578     -2410.2096
   1   2.0000     -88.572526     -2410.1810
   2   2.0000     -88.520341     -2408.7609
   3   2.0000     -88.516616     -2408.6596
   4   2.0000     -76.915381     -2092.9739
   5   2.0000     -76.911048     -2092.8560
   6   2.0000     -18.995189      -516.8854
   7   2.0000     -18.993370      -516.8359
   8   2.0000     -18.990361      -516.7540
   9   2.0000     -18.987010      -516.6628
  10   2.0000     -10.105406      -274.9821
  11   2.0000     -10.101636      -274.8795
  12   2.0000     -10.099436      -274.8196
  13   2.0000     -10.097478      -274.7663
  14   2.0000     -10.092317      -274.6259
  15   2.0000     -10.035599      -273.0825
  16   2.0000     -10.034062      -273.0407
  17   2.0000     -10.030098      -272.9329
  18   2.0000     -10.023781      -272.7609
  19   2.0000      -7.867636      -214.0893
  20   2.0000      -7.866903      -214.0693
  21   2.0000      -7.815433      -212.6687
  22   2.0000      -7.811481      -212.5612
  23   2.0000      -6.593785      -179.4260
  24   2.0000      -6.589598      -179.3121
  25   2.0000      -5.814808      -158.2290
  26   2.0000      -5.813693      -158.1986
  27   2.0000      -5.811445      -158.1375
  28   2.0000      -5.810708      -158.1174
  29   2.0000      -5.804536      -157.9495
  30   2.0000      -5.804145      -157.9388
  31   2.0000      -5.763003      -156.8193
  32   2.0000      -5.759175      -156.7151
  33   2.0000      -5.755773      -156.6226
  34   2.0000      -5.755393      -156.6122
  35   2.0000      -5.751704      -156.5118
  36   2.0000      -5.751470      -156.5054
  37   2.0000      -4.739405      -128.9658
  38   2.0000      -4.738830      -128.9501
  39   2.0000      -4.737277      -128.9079
  40   2.0000      -4.735448      -128.8581
  41   2.0000      -4.734526      -128.8330
  42   2.0000      -4.733029      -128.7923
  43   2.0000      -1.051052       -28.6006
  44   2.0000      -1.049621       -28.5616
  45   2.0000      -1.012999       -27.5651
  46   2.0000      -1.007131       -27.4054
  47   2.0000      -0.800095       -21.7717
  48   2.0000      -0.760136       -20.6843
  49   2.0000      -0.751575       -20.4514
  50   2.0000      -0.733332       -19.9550
  51   2.0000      -0.732499       -19.9323
  52   2.0000      -0.707417       -19.2498
  53   2.0000      -0.685453       -18.6521
  54   2.0000      -0.668183       -18.1822
  55   2.0000      -0.631115       -17.1735
  56   2.0000      -0.614467       -16.7205
  57   2.0000      -0.608337       -16.5537
  58   2.0000      -0.598689       -16.2911
  59   2.0000      -0.593110       -16.1393
  60   2.0000      -0.534829       -14.5534
  61   2.0000      -0.526064       -14.3149
  62   2.0000      -0.498937       -13.5768
  63   2.0000      -0.493496       -13.4287
  64   2.0000      -0.479045       -13.0355
  65   2.0000      -0.461847       -12.5675
  66   2.0000      -0.458869       -12.4865
  67   2.0000      -0.453273       -12.3342
  68   2.0000      -0.446708       -12.1556
  69   2.0000      -0.433461       -11.7951
  70   2.0000      -0.423388       -11.5210
  71   2.0000      -0.412719       -11.2306
  72   2.0000      -0.410198       -11.1620
  73   2.0000      -0.403698       -10.9852
  74   2.0000      -0.390343       -10.6218
  75   2.0000      -0.387981       -10.5575
  76   2.0000      -0.382203       -10.4003
  77   2.0000      -0.377939       -10.2842
  78   2.0000      -0.372796       -10.1443
  79   2.0000      -0.367464        -9.9992
  80   2.0000      -0.361458        -9.8358
  81   2.0000      -0.360511        -9.8100
  82   2.0000      -0.357593        -9.7306
  83   2.0000      -0.349985        -9.5236
  84   2.0000      -0.347720        -9.4619
  85   2.0000      -0.332230        -9.0404
  86   2.0000      -0.321332        -8.7439
  87   2.0000      -0.318689        -8.6720
  88   2.0000      -0.312742        -8.5102
  89   2.0000      -0.311401        -8.4737
  90   2.0000      -0.302814        -8.2400
  91   2.0000      -0.290627        -7.9084
  92   2.0000      -0.283095        -7.7034
  93   2.0000      -0.278355        -7.5744
  94   2.0000      -0.270567        -7.3625
  95   2.0000      -0.254646        -6.9293
  96   2.0000      -0.231338        -6.2950
  97   2.0000      -0.220749        -6.0069
  98   2.0000      -0.217935        -5.9303
  99   2.0000      -0.212679        -5.7873
 100   2.0000      -0.204932        -5.5765
 101   0.0000      -0.048139        -1.3099
 102   0.0000      -0.025287        -0.6881
 103   0.0000      -0.011794        -0.3209
 104   0.0000       0.004962         0.1350
 105   0.0000       0.011828         0.3219

MULLIKEN ATOMIC CHARGES
-----------------------
   0 C :   -0.462425
   1 C :   -0.155682
   2 O :   -0.288511
   3 P :    0.706132
   4 S :   -0.473436
   5 O :   -0.325433
   6 C :   -0.114135
   7 C :   -0.489244
   8 S :   -0.104422
   9 C :   -0.228743
  10 S :   -0.189044
  11 P :    0.687976
  12 S :   -0.455811
  13 O :   -0.252011
  14 C :   -0.117067
  15 C :   -0.459285
  16 O :   -0.291015
  17 C :   -0.154197
  18 C :   -0.440989
  19 H :    0.151453
  20 H :    0.163512
  21 H :    0.170151
  22 H :    0.175484
  23 H :    0.148696
  24 H :    0.150633
  25 H :    0.172742
  26 H :    0.150606
  27 H :    0.173787
  28 H :    0.157694
  29 H :    0.197942
  30 H :    0.223643
  31 H :    0.152864
  32 H :    0.173882
  33 H :    0.154927
  34 H :    0.144216
  35 H :    0.164979
  36 H :    0.170832
  37 H :    0.151790
  38 H :    0.146823
  39 H :    0.151646
  40 H :    0.159038
Sum of atomic charges:   -0.0000000

LOEWDIN ATOMIC CHARGES
----------------------
   0 C :   -0.405216
   1 C :    0.016929
   2 O :   -0.658681
   3 P :    0.387701
   4 S :   -0.125581
   5 O :   -0.672334
   6 C :    0.023882
   7 C :   -0.398991
   8 S :    0.173862
   9 C :   -0.419308
  10 S :    0.120749
  11 P :    0.376584
  12 S :   -0.106807
  13 O :   -0.644654
  14 C :    0.020496
  15 C :   -0.392595
  16 O :   -0.674401
  17 C :    0.019202
  18 C :   -0.386087
  19 H :    0.160852
  20 H :    0.161904
  21 H :    0.164459
  22 H :    0.179479
  23 H :    0.179996
  24 H :    0.177250
  25 H :    0.182796
  26 H :    0.162091
  27 H :    0.165088
  28 H :    0.156996
  29 H :    0.185228
  30 H :    0.194723
  31 H :    0.173299
  32 H :    0.181176
  33 H :    0.160979
  34 H :    0.160691
  35 H :    0.163629
  36 H :    0.181153
  37 H :    0.172278
  38 H :    0.160358
  39 H :    0.158895
  40 H :    0.161930

  Mayer bond orders larger than 0.100000
B(  0-C ,  1-C ) :   0.9111 B(  0-C , 19-H ) :   0.9598 B(  0-C , 20-H ) :   0.9680
B(  0-C , 21-H ) :   0.9609 B(  1-C ,  2-O ) :   0.8135 B(  1-C , 22-H ) :   0.9679
B(  1-C , 23-H ) :   0.9567 B(  2-O ,  3-P ) :   1.0899 B(  3-P ,  4-S ) :   1.7298
B(  3-P ,  5-O ) :   1.1618 B(  3-P ,  8-S ) :   1.0736 B(  5-O ,  6-C ) :   0.7717
B(  6-C ,  7-C ) :   0.9295 B(  6-C , 24-H ) :   0.9557 B(  6-C , 25-H ) :   0.9594
B(  7-C , 26-H ) :   0.9608 B(  7-C , 27-H ) :   0.9665 B(  7-C , 28-H ) :   0.9744
B(  8-S ,  9-C ) :   0.8994 B(  9-C , 10-S ) :   0.9118 B(  9-C , 29-H ) :   0.9118
B(  9-C , 30-H ) :   0.9088 B( 10-S , 11-P ) :   0.9535 B( 11-P , 12-S ) :   1.8097
B( 11-P , 13-O ) :   1.2069 B( 11-P , 16-O ) :   1.0561 B( 13-O , 14-C ) :   0.7282
B( 14-C , 15-C ) :   0.9434 B( 14-C , 31-H ) :   0.9445 B( 14-C , 32-H ) :   0.9386
B( 15-C , 33-H ) :   0.9737 B( 15-C , 34-H ) :   0.9657 B( 15-C , 35-H ) :   0.9648
B( 16-O , 17-C ) :   0.7868 B( 17-C , 18-C ) :   0.9538 B( 17-C , 36-H ) :   0.9510
B( 17-C , 37-H ) :   0.9418 B( 18-C , 38-H ) :   0.9638 B( 18-C , 39-H ) :   0.9714
B( 18-C , 40-H ) :   0.9715

Dispersion correction           -0.021518965
FINAL SINGLE POINT ENERGY     -2932.462035512513

DIPOLE MOMENT
-------------

Method             : SCF
Type of density    : Electron Density
Multiplicity       :   1
Irrep              :   0
Energy             : -2932.4869827006427840 Eh
Relativity type    :
Basis              : AO
                                X                 Y                 Z
Electronic contribution:      4.124877944      -7.060798226      -8.272701780
Nuclear contribution   :     -3.987144649       7.082966932       9.500422005
                        -----------------------------------------
Total Dipole Moment    :      0.137733295       0.022168706       1.227720225
                        -----------------------------------------
Magnitude (a.u.)       :      1.235620841
Magnitude (Debye)      :      3.140698583

Rotational constants in cm-1:             0.011434             0.005277             0.004762
Rotational constants in MHz :           342.772593           158.203922           142.775746

                             ****ORCA TERMINATED NORMALLY****
TOTAL RUN TIME: 0 days 0 hours 1 minutes 23 seconds 409 msec
