                         Program Version 6.0.0  -   RELEASE  -
|  1> ! r2scan-3c def2/J RI DEFGRID2 scfconv6 printgap
|  2> %output
|  3>     printlevel normal
|  4> end
|  5> %cpcm
|  6>     smd true
|  7>     smdsolvent "water"
|  8> end
|  9> * xyz 0 1
| 10> C 2.9642166476 2.3509028794 -1.9087867396
| 11> C 3.745605734 2.1198409825 -0.6308330595
| 12> O 3.6540540177 0.75538895 -0.1908577804
| 13> P 2.3208833771 0.1566765502 0.4388861127
| 14> S 1.4358209186 1.3997749534 1.6719768143
| 15> O 2.8558535177 -1.1901705637 1.0710659554
| 16> C 2.9854402984 -1.411974117 2.4942412984
| 17> C 1.9450675659 -2.4097425769 2.9633219258
| 18> S 1.3022091296 -0.6058730194 -1.2608462427
| 19> C 0.3009957553 -1.8781685505 -0.4428497822
| 20> S -0.9110121293 -1.2046675457 0.7197374797
| 21> P -2.1258453945 -0.2223133743 -0.734688303
| 22> S -2.2085520182 -1.1176308188 -2.4703826771
| 23> O -1.6349942415 1.2677069129 -0.8441894453
| 24> C -1.7603062594 2.2306661242 0.2373282205
| 25> C -1.0444127726 3.4923515016 -0.1921356638
| 26> O -3.5087632645 -0.0639152195 0.0301383156
| 27> C -4.362724926 -1.2049889148 0.2627637766
| 28> C -5.734400882 -0.6876814541 0.6445247326
| 29> H 3.1060517103 3.3742331111 -2.2412681716
| 30> H 3.2984117051 1.6676407022 -2.685378716
| 31> H 1.9015139711 2.1782899555 -1.7349631326
| 32> H 3.378197903 2.7682571716 0.172163783
| 33> H 4.8141520705 2.2814826853 -0.7779017465
| 34> H 3.9987007315 -1.7905784797 2.6354631258
| 35> H 2.8714059001 -0.457646049 3.0175406715
| 36> H 2.0774016774 -2.5850979168 4.025987725
| 37> H 0.9431530464 -2.0181517048 2.7914911278
| 38> H 2.054886965 -3.350655451 2.4310479459
| 39> H 0.9444559953 -2.5535421815 0.1146521753
| 40> H -0.2254536371 -2.3965472777 -1.2453744312
| 41> H -2.8230544774 2.4062619739 0.4089436541
| 42> H -1.3090213047 1.8070154548 1.1391506036
| 43> H -1.4333099648 3.8372661261 -1.1458022177
| 44> H -1.1948007715 4.2566989683 0.5630440026
| 45> H 0.0210931687 3.3023854191 -0.2900869564
| 46> H -4.3980855781 -1.8039555164 -0.6530778265
| 47> H -3.9214141275 -1.8012974715 1.0657965247
| 48> H -6.39153742 -1.5302579043 0.8325083678
| 49> H -5.6658466114 -0.0775843394 1.540462861
| 50> H -6.1443961932 -0.0862728641 -0.1619664948
| 51> *
| 52>
| 53>                          ****END OF INPUT****

CARTESIAN COORDINATES (ANGSTROEM)
---------------------------------
  C      2.964217    2.350903   -1.908787
  C      3.745606    2.119841   -0.630833
  O      3.654054    0.755389   -0.190858
  P      2.320883    0.156677    0.438886
  S      1.435821    1.399775    1.671977
  O      2.855854   -1.190171    1.071066
  C      2.985440   -1.411974    2.494241
  C      1.945068   -2.409743    2.963322
  S      1.302209   -0.605873   -1.260846
  C      0.300996   -1.878169   -0.442850
  S     -0.911012   -1.204668    0.719737
  P     -2.125845   -0.222313   -0.734688
  S     -2.208552   -1.117631   -2.470383
  O     -1.634994    1.267707   -0.844189
  C     -1.760306    2.230666    0.237328
  C     -1.044413    3.492352   -0.192136
  O     -3.508763   -0.063915    0.030138
  C     -4.362725   -1.204989    0.262764
  C     -5.734401   -0.687681    0.644525
  H      3.106052    3.374233   -2.241268
  H      3.298412    1.667641   -2.685379
  H      1.901514    2.178290   -1.734963
  H      3.378198    2.768257    0.172164
  H      4.814152    2.281483   -0.777902
  H      3.998701   -1.790578    2.635463
  H      2.871406   -0.457646    3.017541
  H      2.077402   -2.585098    4.025988
  H      0.943153   -2.018152    2.791491
  H      2.054887   -3.350655    2.431048
  H      0.944456   -2.553542    0.114652
  H     -0.225454   -2.396547   -1.245374
  H     -2.823054    2.406262    0.408944
  H     -1.309021    1.807015    1.139151
  H     -1.433310    3.837266   -1.145802
  H     -1.194801    4.256699    0.563044
  H      0.021093    3.302385   -0.290087
  H     -4.398086   -1.803956   -0.653078
  H     -3.921414   -1.801297    1.065797
  H     -6.391537   -1.530258    0.832508
  H     -5.665847   -0.077584    1.540463
  H     -6.144396   -0.086273   -0.161966

 Total Charge           Charge          ....    0
 Multiplicity           Mult            ....    1
 Number of Electrons    NEL             ....  202
 Basis Dimension        Dim             ....  539

ORBITAL ENERGIES
----------------

  NO   OCC          E(Eh)            E(eV)
   0   2.0000     -88.579061     -2410.3588
   1   2.0000     -88.577197     -2410.3081
   2   2.0000     -88.529491     -2409.0099
   3   2.0000     -88.524760     -2408.8812
   4   2.0000     -76.919782     -2093.0937
   5   2.0000     -76.919192     -2093.0776
   6   2.0000     -18.996778      -516.9286
   7   2.0000     -18.995819      -516.9025
   8   2.0000     -18.995297      -516.8883
   9   2.0000     -18.993712      -516.8452
  10   2.0000     -10.104373      -274.9540
  11   2.0000     -10.091116      -274.5932
  12   2.0000     -10.089909      -274.5604
  13   2.0000     -10.089870      -274.5593
  14   2.0000     -10.089218      -274.5416
  15   2.0000     -10.020521      -272.6723
  16   2.0000     -10.019962      -272.6570
  17   2.0000     -10.019863      -272.6543
  18   2.0000     -10.018272      -272.6110
  19   2.0000      -7.873212      -214.2410
  20   2.0000      -7.871462      -214.1934
  21   2.0000      -7.824704      -212.9210
  22   2.0000      -7.820012      -212.7933
  23   2.0000      -6.598412      -179.5519
  24   2.0000      -6.597638      -179.5308
  25   2.0000      -5.820300      -158.3784
  26   2.0000      -5.818265      -158.3230
  27   2.0000      -5.816940      -158.2870
  28   2.0000      -5.815285      -158.2420
  29   2.0000      -5.810284      -158.1059
  30   2.0000      -5.808696      -158.0626
  31   2.0000      -5.772276      -157.0716
  32   2.0000      -5.767568      -156.9435
  33   2.0000      -5.764895      -156.8708
  34   2.0000      -5.764779      -156.8676
  35   2.0000      -5.760287      -156.7454
  36   2.0000      -5.760020      -156.7381
  37   2.0000      -4.744223      -129.0969
  38   2.0000      -4.743281      -129.0713
  39   2.0000      -4.743181      -129.0685
  40   2.0000      -4.742698      -129.0554
  41   2.0000      -4.741965      -129.0354
  42   2.0000      -4.741200      -129.0146
  43   2.0000      -1.055380       -28.7183
  44   2.0000      -1.052463       -28.6390
  45   2.0000      -1.013766       -27.5860
  46   2.0000      -1.012765       -27.5587
  47   2.0000      -0.802689       -21.8423
  48   2.0000      -0.757422       -20.6105
  49   2.0000      -0.746541       -20.3144
  50   2.0000      -0.727184       -19.7877
  51   2.0000      -0.722936       -19.6721
  52   2.0000      -0.707667       -19.2566
  53   2.0000      -0.689529       -18.7630
  54   2.0000      -0.675539       -18.3823
  55   2.0000      -0.627834       -17.0842
  56   2.0000      -0.610738       -16.6190
  57   2.0000      -0.599909       -16.3243
  58   2.0000      -0.597089       -16.2476
  59   2.0000      -0.592230       -16.1154
  60   2.0000      -0.533915       -14.5286
  61   2.0000      -0.520591       -14.1660
  62   2.0000      -0.499806       -13.6004
  63   2.0000      -0.489672       -13.3246
  64   2.0000      -0.480200       -13.0669
  65   2.0000      -0.456709       -12.4277
  66   2.0000      -0.454615       -12.3707
  67   2.0000      -0.450754       -12.2657
  68   2.0000      -0.442054       -12.0289
  69   2.0000      -0.431754       -11.7486
  70   2.0000      -0.422649       -11.5009
  71   2.0000      -0.410124       -11.1600
  72   2.0000      -0.408637       -11.1196
  73   2.0000      -0.399490       -10.8707
  74   2.0000      -0.389439       -10.5972
  75   2.0000      -0.385260       -10.4834
  76   2.0000      -0.380973       -10.3668
  77   2.0000      -0.369555       -10.0561
  78   2.0000      -0.366546        -9.9742
  79   2.0000      -0.359117        -9.7721
  80   2.0000      -0.354759        -9.6535
  81   2.0000      -0.352335        -9.5875
  82   2.0000      -0.349195        -9.5021
  83   2.0000      -0.346933        -9.4405
  84   2.0000      -0.343827        -9.3560
  85   2.0000      -0.330083        -8.9820
  86   2.0000      -0.321796        -8.7565
  87   2.0000      -0.317696        -8.6450
  88   2.0000      -0.312848        -8.5130
  89   2.0000      -0.305666        -8.3176
  90   2.0000      -0.300137        -8.1671
  91   2.0000      -0.288189        -7.8420
  92   2.0000      -0.283558        -7.7160
  93   2.0000      -0.279296        -7.6000
  94   2.0000      -0.274232        -7.4622
  95   2.0000      -0.260372        -7.0851
  96   2.0000      -0.236648        -6.4395
  97   2.0000      -0.232025        -6.3137
  98   2.0000      -0.230946        -6.2844
  99   2.0000      -0.218829        -5.9546
 100   2.0000      -0.212190        -5.7740
 101   0.0000      -0.053290        -1.4501
 102   0.0000      -0.031963        -0.8697
 103   0.0000      -0.015269        -0.4155
 104   0.0000      -0.000672        -0.0183
 105   0.0000       0.008550         0.2327

MULLIKEN ATOMIC CHARGES
-----------------------
   0 C :   -0.492341
   1 C :   -0.150808
   2 O :   -0.320715
   3 P :    0.727424
   4 S :   -0.499316
   5 O :   -0.341935
   6 C :   -0.120814
   7 C :   -0.499435
   8 S :   -0.146183
   9 C :   -0.232225
  10 S :   -0.185300
  11 P :    0.693000
  12 S :   -0.509244
  13 O :   -0.284787
  14 C :   -0.106935
  15 C :   -0.503026
  16 O :   -0.311561
  17 C :   -0.140823
  18 C :   -0.481368
  19 H :    0.176521
  20 H :    0.175364
  21 H :    0.164888
  22 H :    0.178729
  23 H :    0.174948
  24 H :    0.174531
  25 H :    0.173080
  26 H :    0.172679
  27 H :    0.162772
  28 H :    0.173398
  29 H :    0.237787
  30 H :    0.237663
  31 H :    0.173834
  32 H :    0.177370
  33 H :    0.166948
  34 H :    0.171787
  35 H :    0.168634
  36 H :    0.172746
  37 H :    0.170391
  38 H :    0.169715
  39 H :    0.166031
  40 H :    0.166574
Sum of atomic charges:   -0.0000000

LOEWDIN ATOMIC CHARGES
----------------------
   0 C :   -0.407512
   1 C :    0.022104
   2 O :   -0.676545
   3 P :    0.389032
   4 S :   -0.140067
   5 O :   -0.681518
   6 C :    0.029658
   7 C :   -0.398680
   8 S :    0.151260
   9 C :   -0.411328
  10 S :    0.130560
  11 P :    0.376560
  12 S :   -0.149429
  13 O :   -0.668585
  14 C :    0.025419
  15 C :   -0.397394
  16 O :   -0.682412
  17 C :    0.024743
  18 C :   -0.388977
  19 H :    0.170358
  20 H :    0.164067
  21 H :    0.160966
  22 H :    0.181399
  23 H :    0.190893
  24 H :    0.187567
  25 H :    0.183173
  26 H :    0.169773
  27 H :    0.161072
  28 H :    0.163766
  29 H :    0.199559
  30 H :    0.199002
  31 H :    0.182452
  32 H :    0.183193
  33 H :    0.164414
  34 H :    0.170695
  35 H :    0.162784
  36 H :    0.181898
  37 H :    0.180104
  38 H :    0.169369
  39 H :    0.163327
  40 H :    0.163281

  Mayer bond orders larger than 0.100000
B(  0-C ,  1-C ) :   0.9033 B(  0-C , 19-H ) :   0.9536 B(  0-C , 20-H ) :   0.9665
B(  0-C , 21-H ) :   0.9590 B(  1-C ,  2-O ) :   0.8052 B(  1-C , 22-H ) :   0.9638
B(  1-C , 23-H ) :   0.9484 B(  2-O ,  3-P ) :   1.0899 B(  3-P ,  4-S ) :   1.7175
B(  3-P ,  5-O ) :   1.1722 B(  3-P ,  8-S ) :   1.0773 B(  5-O ,  6-C ) :   0.7602
B(  6-C ,  7-C ) :   0.9373 B(  6-C , 24-H ) :   0.9462 B(  6-C , 25-H ) :   0.9568
B(  7-C , 26-H ) :   0.9572 B(  7-C , 27-H ) :   0.9655 B(  7-C , 28-H ) :   0.9678
B(  8-S ,  9-C ) :   0.8855 B(  9-C , 10-S ) :   0.9067 B(  9-C , 29-H ) :   0.9014
B(  9-C , 30-H ) :   0.9050 B( 10-S , 11-P ) :   0.9741 B( 11-P , 12-S ) :   1.7892
B( 11-P , 13-O ) :   1.2031 B( 11-P , 16-O ) :   1.0658 B( 13-O , 14-C ) :   0.7223
B( 14-C , 15-C ) :   0.9296 B( 14-C , 31-H ) :   0.9368 B( 14-C , 32-H ) :   0.9343
B( 15-C , 33-H ) :   0.9706 B( 15-C , 34-H ) :   0.9605 B( 15-C , 35-H ) :   0.9646
B( 16-O , 17-C ) :   0.7774 B( 17-C , 18-C ) :   0.9525 B( 17-C , 36-H ) :   0.9479
B( 17-C , 37-H ) :   0.9323 B( 18-C , 38-H ) :   0.9578 B( 18-C , 39-H ) :   0.9679
B( 18-C , 40-H ) :   0.9695

Dispersion correction           -0.021518965
FINAL SINGLE POINT ENERGY     -2932.471225801847

DIPOLE MOMENT
-------------

Method             : SCF
Type of density    : Electron Density
Multiplicity       :   1
Irrep              :   0
Energy             : -2932.4961729899769125 Eh
Relativity type    :
Basis              : AO
                                X                 Y                 Z
Electronic contribution:      4.173217237      -7.202587706      -7.632006707
Nuclear contribution   :     -3.987144649       7.082966932       9.500422005
                        -----------------------------------------
Total Dipole Moment    :      0.186072588      -0.119620774       1.868415298
                        -----------------------------------------
Magnitude (a.u.)       :      1.881464287
Magnitude (Debye)      :      4.782302162

Rotational constants in cm-1:             0.011434             0.005277             0.004762
Rotational constants in MHz :           342.772593           158.203922           142.775746

                             ****ORCA TERMINATED NORMALLY****
TOTAL RUN TIME: 0 days 0 hours 1 minutes 55 seconds 155 msec
