                         Program Version 6.0.0  -   RELEASE  -
|  1> ! pbe def2-sv(p) def2/J RI DEFGRID1 loosescf d4 GCP(DFT/SV(P)) printgap
|  2> %output
|  3>     printlevel normal
|  4> end
|  5> * xyz 0 1
|  6> C 2.1802638685 3.2534406834 1.6680429404
|  7> C 1.3563609259 2.0236581985 1.3444959261
|  8> O 2.2641825233 0.922559644 1.174571858
|  9> P 1.7949225161 -0.5998950192 1.1378231889
| 10> S 0.5703830604 -1.1628009267 2.5511857258
| 11> O 3.1784679414 -1.3410852925 1.2687706841
| 12> C 4.2673564764 -1.1696040158 0.3241239632
| 13> C 4.4850035332 -2.4555142101 -0.4474618358
| 14> S 1.1874674584 -0.9154149139 -0.8825763608
| 15> C -0.2977320179 -1.9223979304 -0.6059674728
| 16> S -1.7597851884 -1.3535225715 -1.5216644382
| 17> P -1.9753665763 0.633535319 -0.7980176428
| 18> S -3.6989116749 1.4784685207 -1.177761456
| 19> O -0.7076170128 1.445903944 -1.3152900265
| 20> C -0.6968354501 2.0880041624 -2.6035641137
| 21> C -0.5780753107 1.0900251326 -3.7384757164
| 22> O -1.531105621 0.5676055971 0.7288123379
| 23> C -2.5188034484 0.4654444203 1.7714243138
| 24> C -3.1658639502 -0.9039162037 1.8176697022
| 25> H 2.8771659028 3.4570073385 0.8602443354
| 26> H 1.5169874346 4.1028908832 1.7941422089
| 27> H 2.740570725 3.0953816921 2.5854359956
| 28> H 0.7851416376 2.1527528892 0.4217310985
| 29> H 0.6606653248 1.7798950884 2.153958753
| 30> H 4.0365167454 -0.3371397028 -0.3440599378
| 31> H 5.1356389403 -0.9189110414 0.9352491829
| 32> H 5.3663721999 -2.3495081752 -1.0718232862
| 33> H 4.6316996088 -3.2813220916 0.2430359681
| 34> H 3.6262310674 -2.6707103863 -1.078251166
| 35> H -0.505012767 -1.9329319889 0.4668492889
| 36> H -0.1168833642 -2.9262665748 -0.9821903685
| 37> H -1.6113744337 2.6822504124 -2.7010838696
| 38> H 0.1705127992 2.7485717122 -2.5603433685
| 39> H -1.4838179756 0.4889076749 -3.8071132716
| 40> H -0.4404845829 1.6267315725 -4.6716526607
| 41> H 0.2710930126 0.4308481293 -3.5719672707
| 42> H -1.9610920019 0.6674934766 2.6870881562
| 43> H -3.271754628 1.2425564523 1.6086491222
| 44> H -2.4175425546 -1.6697967825 2.0079126355
| 45> H -3.8979560986 -0.9225919221 2.6184951034
| 46> H -3.6691826569 -1.1120681134 0.87370933
| 47> *
| 48>
| 49>                          ****END OF INPUT****

CARTESIAN COORDINATES (ANGSTROEM)
---------------------------------
  C      2.180264    3.253441    1.668043
  C      1.356361    2.023658    1.344496
  O      2.264183    0.922560    1.174572
  P      1.794923   -0.599895    1.137823
  S      0.570383   -1.162801    2.551186
  O      3.178468   -1.341085    1.268771
  C      4.267356   -1.169604    0.324124
  C      4.485004   -2.455514   -0.447462
  S      1.187467   -0.915415   -0.882576
  C     -0.297732   -1.922398   -0.605967
  S     -1.759785   -1.353523   -1.521664
  P     -1.975367    0.633535   -0.798018
  S     -3.698912    1.478469   -1.177761
  O     -0.707617    1.445904   -1.315290
  C     -0.696835    2.088004   -2.603564
  C     -0.578075    1.090025   -3.738476
  O     -1.531106    0.567606    0.728812
  C     -2.518803    0.465444    1.771424
  C     -3.165864   -0.903916    1.817670
  H      2.877166    3.457007    0.860244
  H      1.516987    4.102891    1.794142
  H      2.740571    3.095382    2.585436
  H      0.785142    2.152753    0.421731
  H      0.660665    1.779895    2.153959
  H      4.036517   -0.337140   -0.344060
  H      5.135639   -0.918911    0.935249
  H      5.366372   -2.349508   -1.071823
  H      4.631700   -3.281322    0.243036
  H      3.626231   -2.670710   -1.078251
  H     -0.505013   -1.932932    0.466849
  H     -0.116883   -2.926267   -0.982190
  H     -1.611374    2.682250   -2.701084
  H      0.170513    2.748572   -2.560343
  H     -1.483818    0.488908   -3.807113
  H     -0.440485    1.626732   -4.671653
  H      0.271093    0.430848   -3.571967
  H     -1.961092    0.667493    2.687088
  H     -3.271755    1.242556    1.608649
  H     -2.417543   -1.669797    2.007913
  H     -3.897956   -0.922592    2.618495
  H     -3.669183   -1.112068    0.873709

 Total Charge           Charge          ....    0
 Multiplicity           Mult            ....    1
 Number of Electrons    NEL             ....  202
 Basis Dimension        Dim             ....  334

ORBITAL ENERGIES
----------------

  NO   OCC          E(Eh)            E(eV)
   0   2.0000     -88.046856     -2395.8768
   1   2.0000     -88.046622     -2395.8704
   2   2.0000     -87.991567     -2394.3723
   3   2.0000     -87.990280     -2394.3372
   4   2.0000     -76.429162     -2079.7432
   5   2.0000     -76.427894     -2079.7087
   6   2.0000     -18.793989      -511.4104
   7   2.0000     -18.793564      -511.3989
   8   2.0000     -18.790751      -511.3223
   9   2.0000     -18.790373      -511.3120
  10   2.0000      -9.961492      -271.0660
  11   2.0000      -9.958532      -270.9854
  12   2.0000      -9.953377      -270.8452
  13   2.0000      -9.946612      -270.6611
  14   2.0000      -9.946571      -270.6600
  15   2.0000      -9.889852      -269.1166
  16   2.0000      -9.886878      -269.0356
  17   2.0000      -9.884370      -268.9674
  18   2.0000      -9.877515      -268.7809
  19   2.0000      -7.691698      -209.3017
  20   2.0000      -7.691268      -209.2900
  21   2.0000      -7.636755      -207.8067
  22   2.0000      -7.635419      -207.7703
  23   2.0000      -6.426959      -174.8864
  24   2.0000      -6.425416      -174.8444
  25   2.0000      -5.719961      -155.6480
  26   2.0000      -5.719120      -155.6252
  27   2.0000      -5.715849      -155.5362
  28   2.0000      -5.715848      -155.5361
  29   2.0000      -5.708713      -155.3420
  30   2.0000      -5.708207      -155.3282
  31   2.0000      -5.665730      -154.1724
  32   2.0000      -5.664372      -154.1354
  33   2.0000      -5.657403      -153.9458
  34   2.0000      -5.656715      -153.9270
  35   2.0000      -5.656055      -153.9091
  36   2.0000      -5.655540      -153.8951
  37   2.0000      -4.649593      -126.5219
  38   2.0000      -4.648611      -126.4951
  39   2.0000      -4.647726      -126.4711
  40   2.0000      -4.647595      -126.4675
  41   2.0000      -4.647466      -126.4640
  42   2.0000      -4.645706      -126.4161
  43   2.0000      -0.989840       -26.9349
  44   2.0000      -0.987642       -26.8751
  45   2.0000      -0.945454       -25.7271
  46   2.0000      -0.944957       -25.7136
  47   2.0000      -0.763455       -20.7747
  48   2.0000      -0.723907       -19.6985
  49   2.0000      -0.711370       -19.3573
  50   2.0000      -0.691910       -18.8278
  51   2.0000      -0.682820       -18.5805
  52   2.0000      -0.679323       -18.4853
  53   2.0000      -0.655421       -17.8349
  54   2.0000      -0.640760       -17.4360
  55   2.0000      -0.600486       -16.3401
  56   2.0000      -0.589056       -16.0290
  57   2.0000      -0.574669       -15.6375
  58   2.0000      -0.567212       -15.4346
  59   2.0000      -0.564658       -15.3651
  60   2.0000      -0.511454       -13.9174
  61   2.0000      -0.493553       -13.4303
  62   2.0000      -0.482100       -13.1186
  63   2.0000      -0.466877       -12.7044
  64   2.0000      -0.457059       -12.4372
  65   2.0000      -0.451789       -12.2938
  66   2.0000      -0.443137       -12.0584
  67   2.0000      -0.436286       -11.8719
  68   2.0000      -0.429747       -11.6940
  69   2.0000      -0.420882       -11.4528
  70   2.0000      -0.410610       -11.1733
  71   2.0000      -0.398947       -10.8559
  72   2.0000      -0.394233       -10.7276
  73   2.0000      -0.390022       -10.6130
  74   2.0000      -0.384073       -10.4512
  75   2.0000      -0.372263       -10.1298
  76   2.0000      -0.368228       -10.0200
  77   2.0000      -0.356274        -9.6947
  78   2.0000      -0.353806        -9.6276
  79   2.0000      -0.352734        -9.5984
  80   2.0000      -0.350580        -9.5398
  81   2.0000      -0.346575        -9.4308
  82   2.0000      -0.341565        -9.2945
  83   2.0000      -0.335246        -9.1225
  84   2.0000      -0.330871        -9.0035
  85   2.0000      -0.324157        -8.8207
  86   2.0000      -0.315452        -8.5839
  87   2.0000      -0.303556        -8.2602
  88   2.0000      -0.300108        -8.1664
  89   2.0000      -0.296840        -8.0774
  90   2.0000      -0.287744        -7.8299
  91   2.0000      -0.277120        -7.5408
  92   2.0000      -0.269606        -7.3364
  93   2.0000      -0.261855        -7.1254
  94   2.0000      -0.260256        -7.0819
  95   2.0000      -0.230703        -6.2777
  96   2.0000      -0.220102        -5.9893
  97   2.0000      -0.215006        -5.8506
  98   2.0000      -0.210003        -5.7145
  99   2.0000      -0.204544        -5.5659
 100   2.0000      -0.203679        -5.5424
 101   0.0000      -0.044965        -1.2236
 102   0.0000      -0.034503        -0.9389
 103   0.0000      -0.026134        -0.7112
 104   0.0000      -0.003114        -0.0847
 105   0.0000       0.012301         0.3347

MULLIKEN ATOMIC CHARGES
-----------------------
   0 C :   -0.276053
   1 C :   -0.042812
   2 O :   -0.384568
   3 P :    0.616994
   4 S :   -0.309327
   5 O :   -0.357857
   6 C :   -0.014863
   7 C :   -0.283596
   8 S :   -0.122145
   9 C :   -0.348831
  10 S :   -0.092016
  11 P :    0.600947
  12 S :   -0.316345
  13 O :   -0.355438
  14 C :   -0.003013
  15 C :   -0.315751
  16 O :   -0.369043
  17 C :   -0.001878
  18 C :   -0.330221
  19 H :    0.109474
  20 H :    0.112518
  21 H :    0.115890
  22 H :    0.131402
  23 H :    0.109880
  24 H :    0.106018
  25 H :    0.114398
  26 H :    0.109657
  27 H :    0.121705
  28 H :    0.116552
  29 H :    0.210705
  30 H :    0.181354
  31 H :    0.112627
  32 H :    0.101494
  33 H :    0.126631
  34 H :    0.111681
  35 H :    0.119740
  36 H :    0.111344
  37 H :    0.112233
  38 H :    0.134543
  39 H :    0.110729
  40 H :    0.125240
Sum of atomic charges:    0.0000000

LOEWDIN ATOMIC CHARGES
----------------------
   0 C :   -0.350924
   1 C :   -0.124506
   2 O :   -0.249090
   3 P :    0.572200
   4 S :   -0.285506
   5 O :   -0.240109
   6 C :   -0.112339
   7 C :   -0.358853
   8 S :    0.070777
   9 C :   -0.479953
  10 S :    0.086299
  11 P :    0.568902
  12 S :   -0.313770
  13 O :   -0.235745
  14 C :   -0.119538
  15 C :   -0.369634
  16 O :   -0.236697
  17 C :   -0.123386
  18 C :   -0.370043
  19 H :    0.123645
  20 H :    0.131194
  21 H :    0.126532
  22 H :    0.113406
  23 H :    0.109593
  24 H :    0.106743
  25 H :    0.123132
  26 H :    0.129628
  27 H :    0.130184
  28 H :    0.120449
  29 H :    0.121479
  30 H :    0.137340
  31 H :    0.109907
  32 H :    0.116354
  33 H :    0.120735
  34 H :    0.129992
  35 H :    0.121197
  36 H :    0.116389
  37 H :    0.108810
  38 H :    0.123482
  39 H :    0.131560
  40 H :    0.120164

  Mayer bond orders larger than 0.100000
B(  0-C ,  1-C ) :   1.1522 B(  0-C , 19-H ) :   0.9510 B(  0-C , 20-H ) :   0.9427
B(  0-C , 21-H ) :   0.9501 B(  1-C ,  2-O ) :   0.8976 B(  1-C , 22-H ) :   0.9119
B(  1-C , 23-H ) :   0.9174 B(  2-O ,  3-P ) :   1.1008 B(  3-P ,  4-S ) :   1.6339
B(  3-P ,  5-O ) :   1.1425 B(  3-P ,  8-S ) :   0.9433 B(  4-S ,  8-S ) :   0.1165
B(  4-S , 29-H ) :   0.1059 B(  5-O ,  6-C ) :   0.8880 B(  6-C ,  7-C ) :   1.1630
B(  6-C , 24-H ) :   0.9185 B(  6-C , 25-H ) :   0.9338 B(  7-C , 26-H ) :   0.9400
B(  7-C , 27-H ) :   0.9460 B(  7-C , 28-H ) :   0.9405 B(  8-S ,  9-C ) :   1.0089
B(  9-C , 10-S ) :   0.9914 B(  9-C , 29-H ) :   0.8436 B(  9-C , 30-H ) :   0.9088
B( 10-S , 11-P ) :   0.9632 B( 11-P , 12-S ) :   1.6458 B( 11-P , 13-O ) :   1.0780
B( 11-P , 16-O ) :   1.0981 B( 13-O , 14-C ) :   0.9128 B( 14-C , 15-C ) :   1.1640
B( 14-C , 31-H ) :   0.9146 B( 14-C , 32-H ) :   0.9331 B( 15-C , 33-H ) :   0.9381
B( 15-C , 34-H ) :   0.9380 B( 15-C , 35-H ) :   0.9423 B( 16-O , 17-C ) :   0.8988
B( 17-C , 18-C ) :   1.1692 B( 17-C , 36-H ) :   0.9202 B( 17-C , 37-H ) :   0.9162
B( 18-C , 38-H ) :   0.9343 B( 18-C , 39-H ) :   0.9378 B( 18-C , 40-H ) :   0.9349

Dispersion correction           -0.067027940
FINAL SINGLE POINT ENERGY     -2929.519524958936

DIPOLE MOMENT
-------------

Method             : SCF
Type of density    : Electron Density
Multiplicity       :   1
Irrep              :   0
Energy             : -2929.6398380600689961 Eh
Relativity type    :
Basis              : AO
                                X                 Y                 Z
Electronic contribution:    -10.563284019      -5.710429858       1.155409737
Nuclear contribution   :     11.989943139       6.011287734      -1.683542524
                        -----------------------------------------
Total Dipole Moment    :      1.426659120       0.300857876      -0.528132787
                        -----------------------------------------
Magnitude (a.u.)       :      1.550740451
Magnitude (Debye)      :      3.941668977

Rotational constants in cm-1:             0.011022             0.005643             0.005386
Rotational constants in MHz :           330.444357           169.185429           161.455092

                             ****ORCA TERMINATED NORMALLY****
TOTAL RUN TIME: 0 days 0 hours 0 minutes 22 seconds 288 msec
