                         Program Version 6.0.0  -   RELEASE  -
|  1> ! wb97x-v def2-tzvp def2/J RIJCOSX DEFGRID2 scfconv7 GCP(DFT/TZ) printgap
|  2> %output
|  3>     printlevel normal
|  4> end
|  5> * xyz 0 1
|  6> C 3.562157734030979e-05 -2.5732753775000345 2.179345311216584e-05
|  7> C 1.2070206166801456 -1.8863677091512336 1.7303147016649373e-05
|  8> C 1.2017870015164753 -0.49718172446363684 4.723383944240863e-06
|  9> C -3.858465415581576e-07 0.21989813666405994 -1.3495571848445154e-06
| 10> C -1.2017686900955538 -0.49721258155990306 4.910675121111402e-06
| 11> C -1.2069668066747221 -1.8863984645791272 1.6098394063652847e-05
| 12> Cl -2.7284911258678184 0.34873438444888916 -5.4432084794869124e-06
| 13> Cl -2.5150630707656293e-05 1.9543615721394327 -1.7256804512928744e-05
| 14> Cl 2.7284892182868936 0.34880227785637374 8.191484359274394e-08
| 15> H 4.9377701711878225e-05 -3.657399787110706 3.2550858111832105e-05
| 16> H 2.149985047450543 -2.4200797146235353 2.340830420560705e-05
| 17> H -2.149917530137626 -2.420134586263665 1.9677050795385118e-05
| 18> *
| 19>
| 20>                          ****END OF INPUT****

CARTESIAN COORDINATES (ANGSTROEM)
---------------------------------
  C      0.000036   -2.573275    0.000022
  C      1.207021   -1.886368    0.000017
  C      1.201787   -0.497182    0.000005
  C     -0.000000    0.219898   -0.000001
  C     -1.201769   -0.497213    0.000005
  C     -1.206967   -1.886398    0.000016
  Cl    -2.728491    0.348734   -0.000005
  Cl    -0.000025    1.954362   -0.000017
  Cl     2.728489    0.348802    0.000000
  H      0.000049   -3.657400    0.000033
  H      2.149985   -2.420080    0.000023
  H     -2.149918   -2.420135    0.000020

 Total Charge           Charge          ....    0
 Multiplicity           Mult            ....    1
 Number of Electrons    NEL             ....   90
 Basis Dimension        Dim             ....  315

ORBITAL ENERGIES
----------------

  NO   OCC          E(Eh)            E(eV)
   0   2.0000    -107.160036     -2915.9728
   1   2.0000    -107.158676     -2915.9358
   2   2.0000    -107.158667     -2915.9356
   3   2.0000     -12.145534      -330.4968
   4   2.0000     -12.142834      -330.4233
   5   2.0000     -12.141671      -330.3917
   6   2.0000     -12.085863      -328.8731
   7   2.0000     -12.084840      -328.8452
   8   2.0000     -12.082972      -328.7944
   9   2.0000     -11.313014      -307.8428
  10   2.0000     -11.311735      -307.8080
  11   2.0000     -11.311729      -307.8078
  12   2.0000      -9.104847      -247.7555
  13   2.0000      -9.103555      -247.7203
  14   2.0000      -9.102947      -247.7038
  15   2.0000      -9.102018      -247.6785
  16   2.0000      -9.101806      -247.6727
  17   2.0000      -9.100564      -247.6389
  18   2.0000      -9.100537      -247.6382
  19   2.0000      -9.100439      -247.6355
  20   2.0000      -9.100313      -247.6321
  21   2.0000      -1.477703       -40.2103
  22   2.0000      -1.439335       -39.1663
  23   2.0000      -1.422387       -38.7051
  24   2.0000      -1.386473       -37.7279
  25   2.0000      -1.294292       -35.2195
  26   2.0000      -1.293405       -35.1953
  27   2.0000      -1.141979       -31.0748
  28   2.0000      -1.140784       -31.0423
  29   2.0000      -1.013254       -27.5720
  30   2.0000      -1.003596       -27.3092
  31   2.0000      -0.968725       -26.3603
  32   2.0000      -0.937097       -25.4997
  33   2.0000      -0.931574       -25.3494
  34   2.0000      -0.873342       -23.7649
  35   2.0000      -0.870982       -23.7006
  36   2.0000      -0.869266       -23.6539
  37   2.0000      -0.829035       -22.5592
  38   2.0000      -0.816233       -22.2108
  39   2.0000      -0.812716       -22.1151
  40   2.0000      -0.807495       -21.9731
  41   2.0000      -0.799461       -21.7544
  42   2.0000      -0.777473       -21.1561
  43   2.0000      -0.676140       -18.3987
  44   2.0000      -0.675276       -18.3752
  45   0.0000      -0.324012        -8.8168
  46   0.0000      -0.291925        -7.9437
  47   0.0000      -0.287079        -7.8118
  48   0.0000      -0.253515        -6.8985
  49   0.0000      -0.248650        -6.7661

MULLIKEN ATOMIC CHARGES
-----------------------
   0 C :   -0.111498
   1 C :   -0.178535
   2 C :    0.081367
   3 C :    0.035864
   4 C :    0.081238
   5 C :   -0.178483
   6 Cl:   -0.058442
   7 Cl:   -0.031159
   8 Cl:   -0.058452
   9 H :    0.133442
  10 H :    0.142329
  11 H :    0.142330
Sum of atomic charges:    0.0000000

LOEWDIN ATOMIC CHARGES
----------------------
   0 C :   -0.126044
   1 C :   -0.137741
   2 C :   -0.421504
   3 C :   -0.441597
   4 C :   -0.421506
   5 C :   -0.137741
   6 Cl:    0.404460
   7 Cl:    0.425489
   8 Cl:    0.404460
   9 H :    0.149349
  10 H :    0.151188
  11 H :    0.151188

  Mayer bond orders larger than 0.100000
B(  0-C ,  1-C ) :   1.4234 B(  0-C ,  5-C ) :   1.4234 B(  0-C ,  9-H ) :   0.9664
B(  1-C ,  2-C ) :   1.4120 B(  1-C , 10-H ) :   0.9581 B(  2-C ,  3-C ) :   1.3100
B(  2-C ,  8-Cl) :   1.0861 B(  3-C ,  4-C ) :   1.3100 B(  3-C ,  7-Cl) :   1.2001
B(  4-C ,  5-C ) :   1.4119 B(  4-C ,  6-Cl) :   1.0862 B(  5-C , 11-H ) :   0.9581

FINAL SINGLE POINT ENERGY     -1610.888808212637

DIPOLE MOMENT
-------------

Method             : SCF
Type of density    : Electron Density
Multiplicity       :   1
Irrep              :   0
Energy             : -1610.8946620651370267 Eh
Relativity type    :
Basis              : AO
                                X                 Y                 Z
Electronic contribution:     -0.000135433      10.477680941      -0.000091242
Nuclear contribution   :      0.000148979     -11.532143836       0.000101564
                        -----------------------------------------
Total Dipole Moment    :      0.000013546      -1.054462894       0.000010323
                        -----------------------------------------
Magnitude (a.u.)       :      1.054462895
Magnitude (Debye)      :      2.680231676

Rotational constants in cm-1:             0.049456             0.027778             0.017787
Rotational constants in MHz :          1482.644096           832.750513           533.245015

                             ****ORCA TERMINATED NORMALLY****
TOTAL RUN TIME: 0 days 0 hours 2 minutes 38 seconds 729 msec
