                         Program Version 6.0.0  -   RELEASE  -
|  1> ! wb97x-v def2-tzvp def2/J RIJCOSX DEFGRID2 scfconv7 GCP(DFT/TZ) printgap
|  2> %output
|  3>     printlevel normal
|  4> end
|  5> %cpcm
|  6>     smd true
|  7>     smdsolvent "water"
|  8> end
|  9> * xyz 0 1
| 10> C 3.562157734030979e-05 -2.5732753775000345 2.179345311216584e-05
| 11> C 1.2070206166801456 -1.8863677091512336 1.7303147016649373e-05
| 12> C 1.2017870015164753 -0.49718172446363684 4.723383944240863e-06
| 13> C -3.858465415581576e-07 0.21989813666405994 -1.3495571848445154e-06
| 14> C -1.2017686900955538 -0.49721258155990306 4.910675121111402e-06
| 15> C -1.2069668066747221 -1.8863984645791272 1.6098394063652847e-05
| 16> Cl -2.7284911258678184 0.34873438444888916 -5.4432084794869124e-06
| 17> Cl -2.5150630707656293e-05 1.9543615721394327 -1.7256804512928744e-05
| 18> Cl 2.7284892182868936 0.34880227785637374 8.191484359274394e-08
| 19> H 4.9377701711878225e-05 -3.657399787110706 3.2550858111832105e-05
| 20> H 2.149985047450543 -2.4200797146235353 2.340830420560705e-05
| 21> H -2.149917530137626 -2.420134586263665 1.9677050795385118e-05
| 22> *
| 23>
| 24>                          ****END OF INPUT****

CARTESIAN COORDINATES (ANGSTROEM)
---------------------------------
  C      0.000036   -2.573275    0.000022
  C      1.207021   -1.886368    0.000017
  C      1.201787   -0.497182    0.000005
  C     -0.000000    0.219898   -0.000001
  C     -1.201769   -0.497213    0.000005
  C     -1.206967   -1.886398    0.000016
  Cl    -2.728491    0.348734   -0.000005
  Cl    -0.000025    1.954362   -0.000017
  Cl     2.728489    0.348802    0.000000
  H      0.000049   -3.657400    0.000033
  H      2.149985   -2.420080    0.000023
  H     -2.149918   -2.420135    0.000020

 Total Charge           Charge          ....    0
 Multiplicity           Mult            ....    1
 Number of Electrons    NEL             ....   90
 Basis Dimension        Dim             ....  315

ORBITAL ENERGIES
----------------

  NO   OCC          E(Eh)            E(eV)
   0   2.0000    -107.161967     -2916.0254
   1   2.0000    -107.157962     -2915.9164
   2   2.0000    -107.157953     -2915.9161
   3   2.0000     -12.140784      -330.3675
   4   2.0000     -12.136420      -330.2488
   5   2.0000     -12.135515      -330.2242
   6   2.0000     -12.073735      -328.5430
   7   2.0000     -12.073383      -328.5334
   8   2.0000     -12.069839      -328.4370
   9   2.0000     -11.315034      -307.8977
  10   2.0000     -11.311107      -307.7909
  11   2.0000     -11.311101      -307.7907
  12   2.0000      -9.106770      -247.8078
  13   2.0000      -9.103913      -247.7301
  14   2.0000      -9.103861      -247.7287
  15   2.0000      -9.102910      -247.7028
  16   2.0000      -9.102380      -247.6884
  17   2.0000      -9.099968      -247.6227
  18   2.0000      -9.099956      -247.6224
  19   2.0000      -9.099915      -247.6213
  20   2.0000      -9.099855      -247.6196
  21   2.0000      -1.474915       -40.1345
  22   2.0000      -1.437649       -39.1204
  23   2.0000      -1.422585       -38.7105
  24   2.0000      -1.379900       -37.5490
  25   2.0000      -1.286423       -35.0053
  26   2.0000      -1.286382       -35.0042
  27   2.0000      -1.133288       -30.8383
  28   2.0000      -1.133259       -30.8375
  29   2.0000      -1.004599       -27.3365
  30   2.0000      -0.997500       -27.1434
  31   2.0000      -0.964017       -26.2322
  32   2.0000      -0.932403       -25.3720
  33   2.0000      -0.921822       -25.0841
  34   2.0000      -0.866793       -23.5866
  35   2.0000      -0.860649       -23.4194
  36   2.0000      -0.859302       -23.3828
  37   2.0000      -0.828431       -22.5428
  38   2.0000      -0.817760       -22.2524
  39   2.0000      -0.813424       -22.1344
  40   2.0000      -0.806365       -21.9423
  41   2.0000      -0.800174       -21.7739
  42   2.0000      -0.772468       -21.0199
  43   2.0000      -0.669168       -18.2090
  44   2.0000      -0.667840       -18.1729
  45   0.0000      -0.321439        -8.7468
  46   0.0000      -0.284561        -7.7433
  47   0.0000      -0.278107        -7.5677
  48   0.0000      -0.249948        -6.8014
  49   0.0000      -0.247073        -6.7232

MULLIKEN ATOMIC CHARGES
-----------------------
   0 C :   -0.153497
   1 C :   -0.197512
   2 C :    0.089763
   3 C :    0.043519
   4 C :    0.089638
   5 C :   -0.197462
   6 Cl:   -0.078372
   7 Cl:   -0.055014
   8 Cl:   -0.078383
   9 H :    0.176946
  10 H :    0.180187
  11 H :    0.180187
Sum of atomic charges:    0.0000000

LOEWDIN ATOMIC CHARGES
----------------------
   0 C :   -0.115377
   1 C :   -0.129864
   2 C :   -0.426075
   3 C :   -0.446371
   4 C :   -0.426076
   5 C :   -0.129863
   6 Cl:    0.389333
   7 Cl:    0.407893
   8 Cl:    0.389333
   9 H :    0.162410
  10 H :    0.162328
  11 H :    0.162328

  Mayer bond orders larger than 0.100000
B(  0-C ,  1-C ) :   1.4137 B(  0-C ,  5-C ) :   1.4137 B(  0-C ,  9-H ) :   0.9668
B(  1-C ,  2-C ) :   1.3820 B(  1-C , 10-H ) :   0.9599 B(  2-C ,  3-C ) :   1.3081
B(  2-C ,  8-Cl) :   1.0706 B(  3-C ,  4-C ) :   1.3081 B(  3-C ,  7-Cl) :   1.1718
B(  4-C ,  5-C ) :   1.3819 B(  4-C ,  6-Cl) :   1.0708 B(  5-C , 11-H ) :   0.9599

FINAL SINGLE POINT ENERGY     -1610.890426057200

DIPOLE MOMENT
-------------

Method             : SCF
Type of density    : Electron Density
Multiplicity       :   1
Irrep              :   0
Energy             : -1610.8962799096996150 Eh
Relativity type    :
Basis              : AO
                                X                 Y                 Z
Electronic contribution:     -0.000128510       9.930575314      -0.000086217
Nuclear contribution   :      0.000148979     -11.532143836       0.000101564
                        -----------------------------------------
Total Dipole Moment    :      0.000020469      -1.601568521       0.000015347
                        -----------------------------------------
Magnitude (a.u.)       :      1.601568521
Magnitude (Debye)      :      4.070863664

Rotational constants in cm-1:             0.049456             0.027778             0.017787
Rotational constants in MHz :          1482.644096           832.750513           533.245015

                             ****ORCA TERMINATED NORMALLY****
TOTAL RUN TIME: 0 days 0 hours 3 minutes 0 seconds 546 msec
