                         Program Version 6.0.1  -  RELEASE   -
|  1> ! pbe def2-sv(p) def2/J RI DEFGRID1 loosescf d4 GCP(DFT/SV(P)) printgap
|  2> %output
|  3>     printlevel normal
|  4> end
|  5> * xyz 0 1
|  6> C 3.8664468515 -1.4130409727 1.7176971628
|  7> C 2.7895870729 -2.2249064014 1.0164729777
|  8> O 2.4287716085 -1.6272182414 -0.243049057
|  9> C 1.5522951082 -0.657192182 -0.2497036102
| 10> O 1.0305431679 -0.1740181172 0.7428198002
| 11> C 1.2732534239 -0.1358559243 -1.6410960522
| 12> C 0.2872675862 1.0193423152 -1.5583020282
| 13> H 0.3041516145 1.6028277169 -2.483145115
| 14> C 0.6078531299 1.9569152988 -0.3993307005
| 15> O -0.2264190581 2.431157557 0.3360142327
| 16> O 1.8940743872 2.2448355859 -0.3739029567
| 17> C 2.3599526769 3.1558632955 0.6423468935
| 18> C 2.1523580908 4.6020146454 0.2231661912
| 19> S -1.4608003914 0.5125632376 -1.4445711118
| 20> P -1.6678400487 -0.9281248305 0.1022878298
| 21> S -0.7151962191 -2.6337296955 -0.0559293606
| 22> O -1.5875976727 -0.29387444 1.5446535703
| 23> C -2.3886098672 0.8245852261 1.9739398696
| 24> O -3.2542110953 -1.1283444068 -0.0230914385
| 25> C -3.8369477479 -1.8201211326 -1.1324954306
| 26> H 3.4810679969 -0.4300560401 1.9801515822
| 27> H 4.16637295 -1.926677535 2.62495924
| 28> H 4.7286827475 -1.2972058753 1.0670691471
| 29> H 1.8887545563 -2.3032669561 1.6327968741
| 30> H 3.1439522586 -3.2197198366 0.7476125573
| 31> H 0.8886929411 -0.9486343531 -2.2597801283
| 32> H 2.2179560702 0.2035212087 -2.0692756499
| 33> H 1.8274760068 2.9358121976 1.5721948585
| 34> H 3.4190033796 2.919199078 0.747741544
| 35> H 1.0904647387 4.8147914536 0.1247066369
| 36> H 2.5738578276 5.255513322 0.9797087777
| 37> H 2.6431553177 4.789589778 -0.727719189
| 38> H -1.972654639 1.7434685961 1.561286954
| 39> H -2.3110320983 0.823612416 3.0579902762
| 40> H -3.42108307 0.6917192356 1.6575061758
| 41> H -4.8484990827 -2.0702750775 -0.8227552437
| 42> H -3.268906208 -2.7269294106 -1.346662075
| 43> H -3.849216171 -1.1710678231 -2.0070549734
| 44> *
| 45>
| 46>                          ****END OF INPUT****

CARTESIAN COORDINATES (ANGSTROEM)
---------------------------------
  C      3.866447   -1.413041    1.717697
  C      2.789587   -2.224906    1.016473
  O      2.428772   -1.627218   -0.243049
  C      1.552295   -0.657192   -0.249704
  O      1.030543   -0.174018    0.742820
  C      1.273253   -0.135856   -1.641096
  C      0.287268    1.019342   -1.558302
  H      0.304152    1.602828   -2.483145
  C      0.607853    1.956915   -0.399331
  O     -0.226419    2.431158    0.336014
  O      1.894074    2.244836   -0.373903
  C      2.359953    3.155863    0.642347
  C      2.152358    4.602015    0.223166
  S     -1.460800    0.512563   -1.444571
  P     -1.667840   -0.928125    0.102288
  S     -0.715196   -2.633730   -0.055929
  O     -1.587598   -0.293874    1.544654
  C     -2.388610    0.824585    1.973940
  O     -3.254211   -1.128344   -0.023091
  C     -3.836948   -1.820121   -1.132495
  H      3.481068   -0.430056    1.980152
  H      4.166373   -1.926678    2.624959
  H      4.728683   -1.297206    1.067069
  H      1.888755   -2.303267    1.632797
  H      3.143952   -3.219720    0.747613
  H      0.888693   -0.948634   -2.259780
  H      2.217956    0.203521   -2.069276
  H      1.827476    2.935812    1.572195
  H      3.419003    2.919199    0.747742
  H      1.090465    4.814791    0.124707
  H      2.573858    5.255513    0.979709
  H      2.643155    4.789590   -0.727719
  H     -1.972655    1.743469    1.561287
  H     -2.311032    0.823612    3.057990
  H     -3.421083    0.691719    1.657506
  H     -4.848499   -2.070275   -0.822755
  H     -3.268906   -2.726929   -1.346662
  H     -3.849216   -1.171068   -2.007055

 Total Charge           Charge          ....    0
 Multiplicity           Mult            ....    1
 Number of Electrons    NEL             ....  174
 Basis Dimension        Dim             ....  316

ORBITAL ENERGIES
----------------

  NO   OCC          E(Eh)            E(eV)
   0   2.0000     -88.032343     -2395.4818
   1   2.0000     -87.971143     -2393.8165
   2   2.0000     -76.418106     -2079.4424
   3   2.0000     -18.804932      -511.7082
   4   2.0000     -18.802514      -511.6424
   5   2.0000     -18.784170      -511.1433
   6   2.0000     -18.779010      -511.0029
   7   2.0000     -18.739662      -509.9321
   8   2.0000     -18.736758      -509.8531
   9   2.0000     -10.014922      -272.5199
  10   2.0000     -10.013204      -272.4731
  11   2.0000      -9.950458      -270.7657
  12   2.0000      -9.948818      -270.7211
  13   2.0000      -9.942348      -270.5451
  14   2.0000      -9.937611      -270.4161
  15   2.0000      -9.927125      -270.1308
  16   2.0000      -9.911081      -269.6942
  17   2.0000      -9.888738      -269.0862
  18   2.0000      -9.884834      -268.9800
  19   2.0000      -7.677194      -208.9071
  20   2.0000      -7.616526      -207.2562
  21   2.0000      -6.414714      -174.5532
  22   2.0000      -5.705339      -155.2502
  23   2.0000      -5.701611      -155.1487
  24   2.0000      -5.693975      -154.9409
  25   2.0000      -5.645645      -153.6258
  26   2.0000      -5.636819      -153.3856
  27   2.0000      -5.636673      -153.3817
  28   2.0000      -4.637745      -126.1994
  29   2.0000      -4.636661      -126.1700
  30   2.0000      -4.634816      -126.1198
  31   2.0000      -1.015376       -27.6298
  32   2.0000      -1.009307       -27.4646
  33   2.0000      -0.975502       -26.5448
  34   2.0000      -0.930796       -25.3282
  35   2.0000      -0.918208       -24.9857
  36   2.0000      -0.916158       -24.9299
  37   2.0000      -0.761799       -20.7296
  38   2.0000      -0.708267       -19.2729
  39   2.0000      -0.705033       -19.1849
  40   2.0000      -0.686103       -18.6698
  41   2.0000      -0.654011       -17.7965
  42   2.0000      -0.627632       -17.0787
  43   2.0000      -0.622410       -16.9366
  44   2.0000      -0.607498       -16.5308
  45   2.0000      -0.594542       -16.1783
  46   2.0000      -0.565393       -15.3851
  47   2.0000      -0.510473       -13.8907
  48   2.0000      -0.499344       -13.5878
  49   2.0000      -0.492920       -13.4130
  50   2.0000      -0.481259       -13.0957
  51   2.0000      -0.464052       -12.6275
  52   2.0000      -0.451354       -12.2820
  53   2.0000      -0.435630       -11.8541
  54   2.0000      -0.433706       -11.8017
  55   2.0000      -0.426816       -11.6143
  56   2.0000      -0.425364       -11.5748
  57   2.0000      -0.419434       -11.4134
  58   2.0000      -0.417387       -11.3577
  59   2.0000      -0.404718       -11.0130
  60   2.0000      -0.394279       -10.7289
  61   2.0000      -0.391957       -10.6657
  62   2.0000      -0.389541       -10.5999
  63   2.0000      -0.382991       -10.4217
  64   2.0000      -0.378309       -10.2943
  65   2.0000      -0.371179       -10.1003
  66   2.0000      -0.358192        -9.7469
  67   2.0000      -0.352172        -9.5831
  68   2.0000      -0.338078        -9.1996
  69   2.0000      -0.336266        -9.1503
  70   2.0000      -0.329239        -8.9590
  71   2.0000      -0.328451        -8.9376
  72   2.0000      -0.319602        -8.6968
  73   2.0000      -0.308366        -8.3911
  74   2.0000      -0.299690        -8.1550
  75   2.0000      -0.294878        -8.0240
  76   2.0000      -0.290641        -7.9087
  77   2.0000      -0.284722        -7.7477
  78   2.0000      -0.263913        -7.1814
  79   2.0000      -0.259790        -7.0693
  80   2.0000      -0.252594        -6.8734
  81   2.0000      -0.248772        -6.7694
  82   2.0000      -0.230837        -6.2814
  83   2.0000      -0.226765        -6.1706
  84   2.0000      -0.218035        -5.9330
  85   2.0000      -0.190839        -5.1930
  86   2.0000      -0.184509        -5.0207
  87   0.0000      -0.034640        -0.9426
  88   0.0000      -0.021503        -0.5851
  89   0.0000      -0.018991        -0.5168
  90   0.0000      -0.004251        -0.1157
  91   0.0000       0.032882         0.8948

MULLIKEN ATOMIC CHARGES
-----------------------
   0 C :   -0.308620
   1 C :   -0.009142
   2 O :   -0.211704
   3 C :    0.125699
   4 O :   -0.215078
   5 C :   -0.073052
   6 C :   -0.296871
   7 H :    0.143486
   8 C :    0.217658
   9 O :   -0.181298
  10 O :   -0.246966
  11 C :   -0.006535
  12 C :   -0.305735
  13 S :   -0.100681
  14 P :    0.631086
  15 S :   -0.341436
  16 O :   -0.350017
  17 C :   -0.124486
  18 O :   -0.393277
  19 C :   -0.103129
  20 H :    0.124766
  21 H :    0.113895
  22 H :    0.109860
  23 H :    0.123308
  24 H :    0.103466
  25 H :    0.139097
  26 H :    0.122402
  27 H :    0.115101
  28 H :    0.101295
  29 H :    0.129593
  30 H :    0.113445
  31 H :    0.110770
  32 H :    0.151580
  33 H :    0.119422
  34 H :    0.114549
  35 H :    0.122654
  36 H :    0.117664
  37 H :    0.117231
Sum of atomic charges:    0.0000000

LOEWDIN ATOMIC CHARGES
----------------------
   0 C :   -0.357922
   1 C :   -0.109032
   2 O :   -0.038137
   3 C :    0.022271
   4 O :   -0.163260
   5 C :   -0.257201
   6 C :   -0.262606
   7 H :    0.150823
   8 C :    0.016667
   9 O :   -0.159086
  10 O :   -0.062588
  11 C :   -0.106662
  12 C :   -0.357568
  13 S :    0.101971
  14 P :    0.578011
  15 S :   -0.318388
  16 O :   -0.225219
  17 C :   -0.214962
  18 O :   -0.261107
  19 C :   -0.217763
  20 H :    0.128185
  21 H :    0.131245
  22 H :    0.122612
  23 H :    0.123558
  24 H :    0.119137
  25 H :    0.148289
  26 H :    0.148000
  27 H :    0.123774
  28 H :    0.116898
  29 H :    0.131216
  30 H :    0.131090
  31 H :    0.123557
  32 H :    0.122811
  33 H :    0.121552
  34 H :    0.110175
  35 H :    0.121140
  36 H :    0.109794
  37 H :    0.108725

  Mayer bond orders larger than 0.100000
B(  0-C ,  1-C ) :   1.1686 B(  0-C , 20-H ) :   0.9448 B(  0-C , 21-H ) :   0.9444
B(  0-C , 22-H ) :   0.9480 B(  1-C ,  2-O ) :   0.9079 B(  1-C , 23-H ) :   0.9111
B(  1-C , 24-H ) :   0.9389 B(  2-O ,  3-C ) :   1.2751 B(  3-C ,  4-O ) :   1.9011
B(  3-C ,  5-C ) :   1.0073 B(  5-C ,  6-C ) :   1.0360 B(  5-C , 25-H ) :   0.8846
B(  5-C , 26-H ) :   0.8737 B(  6-C ,  7-H ) :   0.8664 B(  6-C ,  8-C ) :   0.8680
B(  6-C , 13-S ) :   1.0558 B(  8-C ,  9-O ) :   2.0379 B(  8-C , 10-O ) :   1.2206
B( 10-O , 11-C ) :   0.9118 B( 11-C , 12-C ) :   1.1743 B( 11-C , 27-H ) :   0.9158
B( 11-C , 28-H ) :   0.9371 B( 12-C , 29-H ) :   0.9443 B( 12-C , 30-H ) :   0.9440
B( 12-C , 31-H ) :   0.9481 B( 13-S , 14-P ) :   0.9708 B( 13-S , 15-S ) :   0.1139
B( 14-P , 15-S ) :   1.5997 B( 14-P , 16-O ) :   1.1528 B( 14-P , 18-O ) :   1.0491
B( 16-O , 17-C ) :   0.9104 B( 17-C , 32-H ) :   0.9240 B( 17-C , 33-H ) :   0.9590
B( 17-C , 34-H ) :   0.9427 B( 18-O , 19-C ) :   0.9348 B( 19-C , 35-H ) :   0.9586
B( 19-C , 36-H ) :   0.9302 B( 19-C , 37-H ) :   0.9494

Dispersion correction           -0.054552586
FINAL SINGLE POINT ENERGY     -1979.012981362114

DIPOLE MOMENT
-------------

Method             : SCF
Type of density    : Electron Density
Multiplicity       :   1
Irrep              :   0
Energy             : -1979.1433019754799716 Eh
Relativity type    :
Basis              : AO
                                X                 Y                 Z
Electronic contribution:    -12.681718050      -9.125897010      -5.964945193
Nuclear contribution   :     13.474278651       9.999538726       5.645469794
                        -----------------------------------------
Total Dipole Moment    :      0.792560601       0.873641716      -0.319475399
                        -----------------------------------------
Magnitude (a.u.)       :      1.222074746
Magnitude (Debye)      :      3.106267144

Rotational constants in cm-1:             0.012680             0.008521             0.006386
Rotational constants in MHz :           380.125179           255.463652           191.454461

                             ****ORCA TERMINATED NORMALLY****
TOTAL RUN TIME: 0 days 0 hours 0 minutes 44 seconds 970 msec
