                         Program Version 6.0.0  -   RELEASE  -
|  1> ! pbe def2-sv(p) def2/J RI DEFGRID1 loosescf d4 GCP(DFT/SV(P)) printgap
|  2> %output
|  3>     printlevel normal
|  4> end
|  5> * xyz 0 1
|  6> C 2.5173024129 2.4097001432 0.1493047806
|  7> C 2.023222187 2.0965043475 1.5455644788
|  8> O 1.1536965504 0.9410864633 1.5891320779
|  9> P 1.5311258775 -0.5033512261 1.0715191627
| 10> S 0.6107958312 -1.9450146835 2.0279442364
| 11> O 3.1111130881 -0.5029875628 1.2997661296
| 12> C 3.8819521474 -1.7112153243 1.4049684429
| 13> C 3.9113646318 -2.5019262018 0.112771564
| 14> S 1.3390598693 -0.5248731113 -1.0518451976
| 15> C -0.0286850134 -1.6899743825 -1.2474488234
| 16> S -1.5562914973 -0.9760401997 -1.9437972693
| 17> P -1.8985146823 0.6656971494 -0.6504714802
| 18> S -3.6994247442 1.4266082851 -0.7359870223
| 19> O -0.7360495607 1.7179541624 -0.9187805661
| 20> C -0.8444795766 2.6926029985 -1.9749744832
| 21> C -0.4363257714 2.1168222125 -3.3172923732
| 22> O -1.3941670958 0.1640441689 0.7743737199
| 23> C -2.3504154382 -0.2266873099 1.7781796282
| 24> C -2.9945482761 -1.5609091388 1.4597749585
| 25> H 3.0763059325 3.3401365973 0.1705221749
| 26> H 3.1654287148 1.612967886 -0.2108991614
| 27> H 1.6756530968 2.5096851114 -0.5297893339
| 28> H 1.390086994 2.8954023872 1.935714883
| 29> H 2.8591093951 1.9183316306 2.2258128644
| 30> H 4.8764386698 -1.3586644942 1.6825425304
| 31> H 3.4642397171 -2.3175677282 2.2148328324
| 32> H 2.9256264116 -2.9152446468 -0.0941621463
| 33> H 4.2099524356 -1.8663029365 -0.7167794939
| 34> H 4.6184352047 -3.3190853333 0.2135771646
| 35> H -0.2391484695 -2.1412448993 -0.2742906838
| 36> H 0.2672557724 -2.4429741432 -1.9738411127
| 37> H -1.8748211866 3.0637987584 -2.0018006962
| 38> H -0.1779375591 3.5001872971 -1.666855958
| 39> H 0.5394622592 1.6424495616 -3.2417055319
| 40> H -1.1621882868 1.3766743965 -3.6490977651
| 41> H -0.391761841 2.91835901 -4.0475948341
| 42> H -1.7657958259 -0.2740710348 2.6983107895
| 43> H -3.1079238907 0.558796685 1.8569853579
| 44> H -2.2410272366 -2.3435692354 1.4086441143
| 45> H -3.7056362555 -1.8070027635 2.2417013143
| 46> H -3.5213356062 -1.501275082 0.507360949
| 47> *
| 48>
| 49>                          ****END OF INPUT****

CARTESIAN COORDINATES (ANGSTROEM)
---------------------------------
  C      2.517302    2.409700    0.149305
  C      2.023222    2.096504    1.545564
  O      1.153697    0.941086    1.589132
  P      1.531126   -0.503351    1.071519
  S      0.610796   -1.945015    2.027944
  O      3.111113   -0.502988    1.299766
  C      3.881952   -1.711215    1.404968
  C      3.911365   -2.501926    0.112772
  S      1.339060   -0.524873   -1.051845
  C     -0.028685   -1.689974   -1.247449
  S     -1.556291   -0.976040   -1.943797
  P     -1.898515    0.665697   -0.650471
  S     -3.699425    1.426608   -0.735987
  O     -0.736050    1.717954   -0.918781
  C     -0.844480    2.692603   -1.974974
  C     -0.436326    2.116822   -3.317292
  O     -1.394167    0.164044    0.774374
  C     -2.350415   -0.226687    1.778180
  C     -2.994548   -1.560909    1.459775
  H      3.076306    3.340137    0.170522
  H      3.165429    1.612968   -0.210899
  H      1.675653    2.509685   -0.529789
  H      1.390087    2.895402    1.935715
  H      2.859109    1.918332    2.225813
  H      4.876439   -1.358664    1.682543
  H      3.464240   -2.317568    2.214833
  H      2.925626   -2.915245   -0.094162
  H      4.209952   -1.866303   -0.716779
  H      4.618435   -3.319085    0.213577
  H     -0.239148   -2.141245   -0.274291
  H      0.267256   -2.442974   -1.973841
  H     -1.874821    3.063799   -2.001801
  H     -0.177938    3.500187   -1.666856
  H      0.539462    1.642450   -3.241706
  H     -1.162188    1.376674   -3.649098
  H     -0.391762    2.918359   -4.047595
  H     -1.765796   -0.274071    2.698311
  H     -3.107924    0.558797    1.856985
  H     -2.241027   -2.343569    1.408644
  H     -3.705636   -1.807003    2.241701
  H     -3.521336   -1.501275    0.507361

 Total Charge           Charge          ....    0
 Multiplicity           Mult            ....    1
 Number of Electrons    NEL             ....  202
 Basis Dimension        Dim             ....  334

ORBITAL ENERGIES
----------------

  NO   OCC          E(Eh)            E(eV)
   0   2.0000     -88.046646     -2395.8710
   1   2.0000     -88.041439     -2395.7294
   2   2.0000     -87.992022     -2394.3847
   3   2.0000     -87.985311     -2394.2020
   4   2.0000     -76.432337     -2079.8296
   5   2.0000     -76.423070     -2079.5775
   6   2.0000     -18.798858      -511.5429
   7   2.0000     -18.790948      -511.3277
   8   2.0000     -18.786260      -511.2001
   9   2.0000     -18.785319      -511.1745
  10   2.0000      -9.958428      -270.9826
  11   2.0000      -9.956936      -270.9420
  12   2.0000      -9.956752      -270.9370
  13   2.0000      -9.949985      -270.7529
  14   2.0000      -9.939163      -270.4584
  15   2.0000      -9.890878      -269.1445
  16   2.0000      -9.887912      -269.0638
  17   2.0000      -9.881828      -268.8982
  18   2.0000      -9.870811      -268.5984
  19   2.0000      -7.691034      -209.2837
  20   2.0000      -7.686523      -209.1609
  21   2.0000      -7.636928      -207.8114
  22   2.0000      -7.630490      -207.6362
  23   2.0000      -6.429210      -174.9477
  24   2.0000      -6.420740      -174.7172
  25   2.0000      -5.718962      -155.6209
  26   2.0000      -5.715677      -155.5315
  27   2.0000      -5.714744      -155.5061
  28   2.0000      -5.710686      -155.3957
  29   2.0000      -5.707845      -155.3184
  30   2.0000      -5.703521      -155.2007
  31   2.0000      -5.665922      -154.1776
  32   2.0000      -5.659457      -154.0017
  33   2.0000      -5.657436      -153.9467
  34   2.0000      -5.657035      -153.9357
  35   2.0000      -5.651147      -153.7755
  36   2.0000      -5.650557      -153.7595
  37   2.0000      -4.652219      -126.5933
  38   2.0000      -4.650601      -126.5493
  39   2.0000      -4.649757      -126.5263
  40   2.0000      -4.643018      -126.3429
  41   2.0000      -4.642896      -126.3396
  42   2.0000      -4.641057      -126.2896
  43   2.0000      -0.991386       -26.9770
  44   2.0000      -0.982276       -26.7291
  45   2.0000      -0.945651       -25.7325
  46   2.0000      -0.940250       -25.5855
  47   2.0000      -0.761990       -20.7348
  48   2.0000      -0.720655       -19.6100
  49   2.0000      -0.707494       -19.2519
  50   2.0000      -0.694409       -18.8958
  51   2.0000      -0.681670       -18.5492
  52   2.0000      -0.674470       -18.3533
  53   2.0000      -0.654962       -17.8224
  54   2.0000      -0.638266       -17.3681
  55   2.0000      -0.603325       -16.4173
  56   2.0000      -0.593703       -16.1555
  57   2.0000      -0.582898       -15.8615
  58   2.0000      -0.561988       -15.2925
  59   2.0000      -0.561263       -15.2727
  60   2.0000      -0.498419       -13.5627
  61   2.0000      -0.490679       -13.3520
  62   2.0000      -0.473582       -12.8868
  63   2.0000      -0.462688       -12.5904
  64   2.0000      -0.458140       -12.4666
  65   2.0000      -0.450216       -12.2510
  66   2.0000      -0.446228       -12.1425
  67   2.0000      -0.436405       -11.8752
  68   2.0000      -0.426323       -11.6008
  69   2.0000      -0.417524       -11.3614
  70   2.0000      -0.409966       -11.1557
  71   2.0000      -0.404626       -11.0104
  72   2.0000      -0.393238       -10.7005
  73   2.0000      -0.388494       -10.5714
  74   2.0000      -0.382598       -10.4110
  75   2.0000      -0.375392       -10.2149
  76   2.0000      -0.366956        -9.9854
  77   2.0000      -0.359240        -9.7754
  78   2.0000      -0.356650        -9.7049
  79   2.0000      -0.348689        -9.4883
  80   2.0000      -0.346325        -9.4240
  81   2.0000      -0.345006        -9.3881
  82   2.0000      -0.340954        -9.2778
  83   2.0000      -0.330502        -8.9934
  84   2.0000      -0.329390        -8.9631
  85   2.0000      -0.319791        -8.7019
  86   2.0000      -0.315522        -8.5858
  87   2.0000      -0.299277        -8.1437
  88   2.0000      -0.298097        -8.1116
  89   2.0000      -0.295053        -8.0288
  90   2.0000      -0.286569        -7.7980
  91   2.0000      -0.270778        -7.3683
  92   2.0000      -0.265131        -7.2146
  93   2.0000      -0.263091        -7.1591
  94   2.0000      -0.256539        -6.9808
  95   2.0000      -0.227023        -6.1776
  96   2.0000      -0.221854        -6.0369
  97   2.0000      -0.212625        -5.7858
  98   2.0000      -0.206261        -5.6127
  99   2.0000      -0.202497        -5.5102
 100   2.0000      -0.198219        -5.3938
 101   0.0000      -0.044255        -1.2042
 102   0.0000      -0.034382        -0.9356
 103   0.0000      -0.021250        -0.5782
 104   0.0000       0.000884         0.0241
 105   0.0000       0.009230         0.2512

MULLIKEN ATOMIC CHARGES
-----------------------
   0 C :   -0.372016
   1 C :    0.018974
   2 O :   -0.358921
   3 P :    0.642951
   4 S :   -0.316261
   5 O :   -0.388086
   6 C :    0.000282
   7 C :   -0.311220
   8 S :   -0.108205
   9 C :   -0.349206
  10 S :   -0.092210
  11 P :    0.599604
  12 S :   -0.319647
  13 O :   -0.358746
  14 C :   -0.014710
  15 C :   -0.308862
  16 O :   -0.369462
  17 C :    0.004517
  18 C :   -0.322765
  19 H :    0.114908
  20 H :    0.124538
  21 H :    0.161384
  22 H :    0.111343
  23 H :    0.107204
  24 H :    0.103662
  25 H :    0.114103
  26 H :    0.120046
  27 H :    0.117623
  28 H :    0.113473
  29 H :    0.206621
  30 H :    0.179094
  31 H :    0.114241
  32 H :    0.106211
  33 H :    0.116371
  34 H :    0.125520
  35 H :    0.109118
  36 H :    0.110093
  37 H :    0.112013
  38 H :    0.127500
  39 H :    0.107560
  40 H :    0.121365
Sum of atomic charges:    0.0000000

LOEWDIN ATOMIC CHARGES
----------------------
   0 C :   -0.377494
   1 C :   -0.104858
   2 O :   -0.230194
   3 P :    0.590697
   4 S :   -0.287116
   5 O :   -0.250028
   6 C :   -0.118116
   7 C :   -0.370418
   8 S :    0.093416
   9 C :   -0.484126
  10 S :    0.077188
  11 P :    0.569126
  12 S :   -0.313966
  13 O :   -0.239639
  14 C :   -0.122935
  15 C :   -0.368203
  16 O :   -0.236835
  17 C :   -0.125041
  18 C :   -0.370488
  19 H :    0.132715
  20 H :    0.118091
  21 H :    0.130802
  22 H :    0.124156
  23 H :    0.113845
  24 H :    0.117975
  25 H :    0.111901
  26 H :    0.119258
  27 H :    0.123148
  28 H :    0.131050
  29 H :    0.122553
  30 H :    0.137803
  31 H :    0.108142
  32 H :    0.112858
  33 H :    0.121098
  34 H :    0.120763
  35 H :    0.128785
  36 H :    0.116715
  37 H :    0.108438
  38 H :    0.119963
  39 H :    0.129908
  40 H :    0.119060

  Mayer bond orders larger than 0.100000
B(  0-C ,  1-C ) :   1.1701 B(  0-C , 19-H ) :   0.9339 B(  0-C , 20-H ) :   0.9332
B(  0-C , 21-H ) :   0.9219 B(  1-C ,  2-O ) :   0.9025 B(  1-C , 22-H ) :   0.9321
B(  1-C , 23-H ) :   0.9292 B(  2-O ,  3-P ) :   1.1365 B(  3-P ,  4-S ) :   1.5914
B(  3-P ,  5-O ) :   1.0627 B(  3-P ,  8-S ) :   0.9508 B(  4-S ,  8-S ) :   0.1165
B(  4-S , 29-H ) :   0.1084 B(  5-O ,  6-C ) :   0.9097 B(  6-C ,  7-C ) :   1.1673
B(  6-C , 24-H ) :   0.9341 B(  6-C , 25-H ) :   0.9161 B(  7-C , 26-H ) :   0.9377
B(  7-C , 27-H ) :   0.9433 B(  7-C , 28-H ) :   0.9368 B(  8-S ,  9-C ) :   1.0180
B(  9-C , 10-S ) :   0.9770 B(  9-C , 29-H ) :   0.8463 B(  9-C , 30-H ) :   0.9088
B( 10-S , 11-P ) :   0.9754 B( 11-P , 12-S ) :   1.6399 B( 11-P , 13-O ) :   1.0931
B( 11-P , 16-O ) :   1.0986 B( 13-O , 14-C ) :   0.9082 B( 14-C , 15-C ) :   1.1701
B( 14-C , 31-H ) :   0.9077 B( 14-C , 32-H ) :   0.9233 B( 15-C , 33-H ) :   0.9453
B( 15-C , 34-H ) :   0.9369 B( 15-C , 35-H ) :   0.9387 B( 16-O , 17-C ) :   0.8918
B( 17-C , 18-C ) :   1.1695 B( 17-C , 36-H ) :   0.9177 B( 17-C , 37-H ) :   0.9157
B( 18-C , 38-H ) :   0.9353 B( 18-C , 39-H ) :   0.9392 B( 18-C , 40-H ) :   0.9344

Dispersion correction           -0.071108083
FINAL SINGLE POINT ENERGY     -2929.514480455416

DIPOLE MOMENT
-------------

Method             : SCF
Type of density    : Electron Density
Multiplicity       :   1
Irrep              :   0
Energy             : -2929.6333559342983790 Eh
Relativity type    :
Basis              : AO
                                X                 Y                 Z
Electronic contribution:    -12.479356616      -2.531301204       1.308495680
Nuclear contribution   :     14.415961956       2.808982160      -1.459721216
                        -----------------------------------------
Total Dipole Moment    :      1.936605340       0.277680957      -0.151225536
                        -----------------------------------------
Magnitude (a.u.)       :      1.962247722
Magnitude (Debye)      :      4.987637334

Rotational constants in cm-1:             0.011806             0.006313             0.005635
Rotational constants in MHz :           353.944140           189.249068           168.932261

                             ****ORCA TERMINATED NORMALLY****
TOTAL RUN TIME: 0 days 0 hours 0 minutes 23 seconds 707 msec
