                         Program Version 6.0.0  -   RELEASE  -
|  1> ! pbe def2-sv(p) def2/J RI DEFGRID1 loosescf d4 GCP(DFT/SV(P)) printgap
|  2> %output
|  3>     printlevel normal
|  4> end
|  5> * xyz 0 1
|  6> C 3.2763179337 -1.3178491746 -3.054113208
|  7> C 3.9517883832 -0.3717528025 -2.0830670081
|  8> O 3.4941513824 -0.5857952858 -0.7397398673
|  9> P 2.0308594637 -0.1606252055 -0.2737093775
| 10> S 1.4756464124 1.5438767307 -1.0843724026
| 11> O 2.1545263527 -0.3050694604 1.298150017
| 12> C 3.1994788563 0.2967062984 2.0926347269
| 13> C 3.0950502055 1.8066851418 2.1306195101
| 14> S 0.8768325531 -1.8966080259 -0.6716015335
| 15> C -0.2388734272 -2.0475440663 0.7619594025
| 16> S -1.9721893539 -1.7116020862 0.3686114597
| 17> P -1.9100818124 0.4106072445 0.4687977014
| 18> S -0.7201934094 1.1340888722 1.8402885574
| 19> O -3.4458181944 0.7802818157 0.6455630577
| 20> C -4.1452910488 0.510077268 1.8782360017
| 21> C -5.4316504136 1.3101812053 1.8670723359
| 22> O -1.6137536331 0.9581064875 -0.972308484
| 23> C -2.3695239554 0.5693522341 -2.1517009131
| 24> C -1.4904188932 -0.2445280784 -3.0789980698
| 25> H 3.68732509 -1.1730289183 -4.0477740482
| 26> H 3.4242071472 -2.3488890146 -2.7445353051
| 27> H 2.2057434399 -1.1126284455 -3.0784466073
| 28> H 3.7501317286 0.6700784774 -2.3548245153
| 29> H 5.0275787463 -0.5428286459 -2.0293377128
| 30> H 3.0404807964 -0.1353973368 3.0821895087
| 31> H 4.1632991557 -0.0245125152 1.6915190238
| 32> H 2.0954200786 2.1019776975 2.4452244982
| 33> H 3.824493314 2.2020483024 2.8301254889
| 34> H 3.2816317188 2.2260728451 1.143202482
| 35> H 0.0878095586 -1.3664540432 1.5476113645
| 36> H -0.194699186 -3.0843165051 1.0837390356
| 37> H -4.3410332486 -0.5643097845 1.92847025
| 38> H -3.4992057342 0.7974682311 2.7142486804
| 39> H -5.2099164132 2.3717148756 1.8006801559
| 40> H -6.0399522311 1.0238032173 1.0142170916
| 41> H -5.9794810049 1.1146355619 2.7828912401
| 42> H -3.255236491 0.0106733538 -1.8410475703
| 43> H -2.6679995791 1.5120926453 -2.6120179745
| 44> H -2.0164814161 -0.4102802011 -4.0133903921
| 45> H -0.568771055 0.2984781489 -3.2764842527
| 46> H -1.2417861513 -1.2057213223 -2.6338049032
| 47> *
| 48>
| 49>                          ****END OF INPUT****

CARTESIAN COORDINATES (ANGSTROEM)
---------------------------------
  C      3.276318   -1.317849   -3.054113
  C      3.951788   -0.371753   -2.083067
  O      3.494151   -0.585795   -0.739740
  P      2.030859   -0.160625   -0.273709
  S      1.475646    1.543877   -1.084372
  O      2.154526   -0.305069    1.298150
  C      3.199479    0.296706    2.092635
  C      3.095050    1.806685    2.130620
  S      0.876833   -1.896608   -0.671602
  C     -0.238873   -2.047544    0.761959
  S     -1.972189   -1.711602    0.368611
  P     -1.910082    0.410607    0.468798
  S     -0.720193    1.134089    1.840289
  O     -3.445818    0.780282    0.645563
  C     -4.145291    0.510077    1.878236
  C     -5.431650    1.310181    1.867072
  O     -1.613754    0.958106   -0.972308
  C     -2.369524    0.569352   -2.151701
  C     -1.490419   -0.244528   -3.078998
  H      3.687325   -1.173029   -4.047774
  H      3.424207   -2.348889   -2.744535
  H      2.205743   -1.112628   -3.078447
  H      3.750132    0.670078   -2.354825
  H      5.027579   -0.542829   -2.029338
  H      3.040481   -0.135397    3.082190
  H      4.163299   -0.024513    1.691519
  H      2.095420    2.101978    2.445224
  H      3.824493    2.202048    2.830125
  H      3.281632    2.226073    1.143202
  H      0.087810   -1.366454    1.547611
  H     -0.194699   -3.084317    1.083739
  H     -4.341033   -0.564310    1.928470
  H     -3.499206    0.797468    2.714249
  H     -5.209916    2.371715    1.800680
  H     -6.039952    1.023803    1.014217
  H     -5.979481    1.114636    2.782891
  H     -3.255236    0.010673   -1.841048
  H     -2.668000    1.512093   -2.612018
  H     -2.016481   -0.410280   -4.013390
  H     -0.568771    0.298478   -3.276484
  H     -1.241786   -1.205721   -2.633805

 Total Charge           Charge          ....    0
 Multiplicity           Mult            ....    1
 Number of Electrons    NEL             ....  202
 Basis Dimension        Dim             ....  334

ORBITAL ENERGIES
----------------

  NO   OCC          E(Eh)            E(eV)
   0   2.0000     -88.040648     -2395.7078
   1   2.0000     -88.035250     -2395.5609
   2   2.0000     -87.980037     -2394.0585
   3   2.0000     -87.974610     -2393.9108
   4   2.0000     -76.420771     -2079.5149
   5   2.0000     -76.420204     -2079.4995
   6   2.0000     -18.790306      -511.3102
   7   2.0000     -18.786274      -511.2005
   8   2.0000     -18.784424      -511.1502
   9   2.0000     -18.783985      -511.1382
  10   2.0000      -9.954484      -270.8753
  11   2.0000      -9.951374      -270.7906
  12   2.0000      -9.950022      -270.7539
  13   2.0000      -9.949907      -270.7507
  14   2.0000      -9.947156      -270.6759
  15   2.0000      -9.887583      -269.0548
  16   2.0000      -9.883738      -268.9502
  17   2.0000      -9.873771      -268.6790
  18   2.0000      -9.872787      -268.6522
  19   2.0000      -7.685918      -209.1445
  20   2.0000      -7.680493      -208.9968
  21   2.0000      -7.625169      -207.4914
  22   2.0000      -7.619475      -207.3365
  23   2.0000      -6.418502      -174.6563
  24   2.0000      -6.417444      -174.6275
  25   2.0000      -5.713590      -155.4747
  26   2.0000      -5.710329      -155.3860
  27   2.0000      -5.708709      -155.3419
  28   2.0000      -5.704870      -155.2374
  29   2.0000      -5.703173      -155.1912
  30   2.0000      -5.697185      -155.0283
  31   2.0000      -5.654099      -153.8559
  32   2.0000      -5.648398      -153.7007
  33   2.0000      -5.645690      -153.6270
  34   2.0000      -5.645326      -153.6171
  35   2.0000      -5.640177      -153.4770
  36   2.0000      -5.639569      -153.4605
  37   2.0000      -4.641238      -126.2945
  38   2.0000      -4.640438      -126.2727
  39   2.0000      -4.640336      -126.2700
  40   2.0000      -4.639282      -126.2413
  41   2.0000      -4.638708      -126.2257
  42   2.0000      -4.637475      -126.1921
  43   2.0000      -0.984261       -26.7831
  44   2.0000      -0.982261       -26.7287
  45   2.0000      -0.939957       -25.5775
  46   2.0000      -0.939274       -25.5589
  47   2.0000      -0.758050       -20.6276
  48   2.0000      -0.717179       -19.5154
  49   2.0000      -0.706335       -19.2203
  50   2.0000      -0.686497       -18.6805
  51   2.0000      -0.684076       -18.6147
  52   2.0000      -0.668949       -18.2030
  53   2.0000      -0.646868       -17.6022
  54   2.0000      -0.628786       -17.1101
  55   2.0000      -0.589948       -16.0533
  56   2.0000      -0.581410       -15.8210
  57   2.0000      -0.572406       -15.5760
  58   2.0000      -0.566285       -15.4094
  59   2.0000      -0.560469       -15.2511
  60   2.0000      -0.506125       -13.7724
  61   2.0000      -0.492087       -13.3904
  62   2.0000      -0.474148       -12.9022
  63   2.0000      -0.465585       -12.6692
  64   2.0000      -0.455066       -12.3830
  65   2.0000      -0.446777       -12.1574
  66   2.0000      -0.434223       -11.8158
  67   2.0000      -0.430521       -11.7151
  68   2.0000      -0.426404       -11.6031
  69   2.0000      -0.413865       -11.2618
  70   2.0000      -0.408513       -11.1162
  71   2.0000      -0.402067       -10.9408
  72   2.0000      -0.383421       -10.4334
  73   2.0000      -0.381961       -10.3937
  74   2.0000      -0.376610       -10.2481
  75   2.0000      -0.366431        -9.9711
  76   2.0000      -0.361825        -9.8458
  77   2.0000      -0.351942        -9.5768
  78   2.0000      -0.349453        -9.5091
  79   2.0000      -0.346421        -9.4266
  80   2.0000      -0.340834        -9.2746
  81   2.0000      -0.338692        -9.2163
  82   2.0000      -0.335551        -9.1308
  83   2.0000      -0.331354        -9.0166
  84   2.0000      -0.327415        -8.9094
  85   2.0000      -0.310951        -8.4614
  86   2.0000      -0.308374        -8.3913
  87   2.0000      -0.299585        -8.1521
  88   2.0000      -0.292284        -7.9534
  89   2.0000      -0.290891        -7.9155
  90   2.0000      -0.285996        -7.7823
  91   2.0000      -0.269231        -7.3261
  92   2.0000      -0.268045        -7.2939
  93   2.0000      -0.257706        -7.0125
  94   2.0000      -0.254021        -6.9123
  95   2.0000      -0.232708        -6.3323
  96   2.0000      -0.218180        -5.9370
  97   2.0000      -0.206132        -5.6091
  98   2.0000      -0.197652        -5.3784
  99   2.0000      -0.185454        -5.0464
 100   2.0000      -0.178671        -4.8619
 101   0.0000      -0.039407        -1.0723
 102   0.0000      -0.029573        -0.8047
 103   0.0000      -0.018969        -0.5162
 104   0.0000       0.007216         0.1964
 105   0.0000       0.019512         0.5309

MULLIKEN ATOMIC CHARGES
-----------------------
   0 C :   -0.327671
   1 C :   -0.003601
   2 O :   -0.378855
   3 P :    0.627740
   4 S :   -0.294929
   5 O :   -0.374774
   6 C :    0.001213
   7 C :   -0.315927
   8 S :   -0.115017
   9 C :   -0.351110
  10 S :   -0.117189
  11 P :    0.596357
  12 S :   -0.303415
  13 O :   -0.382265
  14 C :   -0.010012
  15 C :   -0.279872
  16 O :   -0.334040
  17 C :   -0.006558
  18 C :   -0.302366
  19 H :    0.114460
  20 H :    0.120395
  21 H :    0.133297
  22 H :    0.107818
  23 H :    0.101577
  24 H :    0.104122
  25 H :    0.106673
  26 H :    0.136229
  27 H :    0.104415
  28 H :    0.125679
  29 H :    0.214382
  30 H :    0.181671
  31 H :    0.101723
  32 H :    0.103551
  33 H :    0.122700
  34 H :    0.113929
  35 H :    0.111693
  36 H :    0.098637
  37 H :    0.110222
  38 H :    0.100552
  39 H :    0.131911
  40 H :    0.126653
Sum of atomic charges:    0.0000000

LOEWDIN ATOMIC CHARGES
----------------------
   0 C :   -0.369643
   1 C :   -0.125541
   2 O :   -0.246726
   3 P :    0.567578
   4 S :   -0.291791
   5 O :   -0.240620
   6 C :   -0.106939
   7 C :   -0.368471
   8 S :    0.074160
   9 C :   -0.477708
  10 S :    0.056970
  11 P :    0.563752
  12 S :   -0.295315
  13 O :   -0.251647
  14 C :   -0.121086
  15 C :   -0.350437
  16 O :   -0.221826
  17 C :   -0.108003
  18 C :   -0.365168
  19 H :    0.131916
  20 H :    0.125761
  21 H :    0.120219
  22 H :    0.106647
  23 H :    0.116887
  24 H :    0.119240
  25 H :    0.111526
  26 H :    0.129909
  27 H :    0.126528
  28 H :    0.121763
  29 H :    0.131779
  30 H :    0.138130
  31 H :    0.107188
  32 H :    0.108631
  33 H :    0.130039
  34 H :    0.125686
  35 H :    0.130749
  36 H :    0.104790
  37 H :    0.121983
  38 H :    0.125212
  39 H :    0.127797
  40 H :    0.116081

  Mayer bond orders larger than 0.100000
B(  0-C ,  1-C ) :   1.1635 B(  0-C , 19-H ) :   0.9389 B(  0-C , 20-H ) :   0.9442
B(  0-C , 21-H ) :   0.9301 B(  1-C ,  2-O ) :   0.9165 B(  1-C , 22-H ) :   0.9059
B(  1-C , 23-H ) :   0.9310 B(  2-O ,  3-P ) :   1.0669 B(  3-P ,  4-S ) :   1.6546
B(  3-P ,  5-O ) :   1.1093 B(  3-P ,  8-S ) :   0.9436 B(  4-S ,  8-S ) :   0.1096
B(  5-O ,  6-C ) :   0.9031 B(  6-C ,  7-C ) :   1.1673 B(  6-C , 24-H ) :   0.9355
B(  6-C , 25-H ) :   0.9282 B(  7-C , 26-H ) :   0.9399 B(  7-C , 27-H ) :   0.9362
B(  7-C , 28-H ) :   0.9334 B(  8-S ,  9-C ) :   0.9979 B(  9-C , 10-S ) :   1.0089
B(  9-C , 29-H ) :   0.8548 B(  9-C , 30-H ) :   0.9108 B( 10-S , 11-P ) :   0.9343
B( 10-S , 12-S ) :   0.1080 B( 11-P , 12-S ) :   1.6489 B( 11-P , 13-O ) :   1.0851
B( 11-P , 16-O ) :   1.1683 B( 13-O , 14-C ) :   0.9053 B( 14-C , 15-C ) :   1.1599
B( 14-C , 31-H ) :   0.9280 B( 14-C , 32-H ) :   0.9097 B( 15-C , 33-H ) :   0.9506
B( 15-C , 34-H ) :   0.9512 B( 15-C , 35-H ) :   0.9420 B( 16-O , 17-C ) :   0.8855
B( 17-C , 18-C ) :   1.1668 B( 17-C , 36-H ) :   0.9185 B( 17-C , 37-H ) :   0.9333
B( 18-C , 38-H ) :   0.9368 B( 18-C , 39-H ) :   0.9367 B( 18-C , 40-H ) :   0.9331

Dispersion correction           -0.067260451
FINAL SINGLE POINT ENERGY     -2929.511548194842

DIPOLE MOMENT
-------------

Method             : SCF
Type of density    : Electron Density
Multiplicity       :   1
Irrep              :   0
Energy             : -2929.6295854969666834 Eh
Relativity type    :
Basis              : AO
                                X                 Y                 Z
Electronic contribution:      0.304377558      -2.874039746       4.422596085
Nuclear contribution   :     -0.489427054       2.030839991      -4.469133859
                        -----------------------------------------
Total Dipole Moment    :     -0.185049495      -0.843199756      -0.046537775
                        -----------------------------------------
Magnitude (a.u.)       :      0.864520045
Magnitude (Debye)      :      2.197435321

Rotational constants in cm-1:             0.012518             0.005526             0.004869
Rotational constants in MHz :           375.284102           165.666309           145.956559

                             ****ORCA TERMINATED NORMALLY****
TOTAL RUN TIME: 0 days 0 hours 0 minutes 21 seconds 672 msec
