                         Program Version 6.0.0  -   RELEASE  -
|  1> ! pbe def2-sv(p) def2/J RI DEFGRID1 loosescf d4 GCP(DFT/SV(P)) printgap
|  2> %output
|  3>     printlevel normal
|  4> end
|  5> * xyz 0 1
|  6> C 4.3692337717 -2.4293255956 -0.333222345
|  7> C 4.5150284306 -0.9697631655 0.0483333229
|  8> O 3.8286167487 -0.1299404148 -0.9187642142
|  9> P 2.4855572128 0.6293293884 -0.608627091
| 10> S 1.8859746985 1.6004887231 -2.1984147141
| 11> O 2.9025202001 1.4957030199 0.65581428
| 12> C 1.9689536034 2.2385401471 1.4669664139
| 13> C 1.8372513643 1.5747532288 2.8246057394
| 14> S 1.1347658437 -0.812784878 0.1825835484
| 15> C 0.1454956019 -1.0937682845 -1.3223346526
| 16> S -1.5012661111 -1.7028248505 -0.9356603857
| 17> P -2.377508916 0.0509386208 -0.0755995794
| 18> S -1.3490419785 1.7047964216 -0.3084153043
| 19> O -2.6896288533 -0.3449182494 1.4312654956
| 20> C -1.6516279431 -0.3988636405 2.4306640722
| 21> C -2.3186725551 -0.5597459076 3.781117648
| 22> O -3.8171237619 0.17275704 -0.6943537622
| 23> C -4.959243207 -0.6435596367 -0.3269374569
| 24> C -4.7442477367 -2.1107962595 -0.6279292711
| 25> H 4.9827071672 -3.0307422974 0.3299942718
| 26> H 3.3334114713 -2.746568281 -0.2421828831
| 27> H 4.696729392 -2.5790821199 -1.3582994664
| 28> H 5.5564020535 -0.6480647291 0.004531341
| 29> H 4.1110171687 -0.7748213064 1.0436743545
| 30> H 2.3912347227 3.2415205375 1.5518579878
| 31> H 1.0055520529 2.303696989 0.9521847918
| 32> H 1.4557439469 0.5619867866 2.7133226043
| 33> H 2.8068246794 1.5364214522 3.3127524721
| 34> H 1.1505737297 2.1520701747 3.4350728608
| 35> H 0.617319626 -1.8626305188 -1.9297027427
| 36> H 0.0831594319 -0.1458984645 -1.8641441797
| 37> H -0.9942274717 -1.2435184759 2.2028474153
| 38> H -1.0725629946 0.5280570757 2.3743846333
| 39> H -2.9722781402 0.2852318917 3.9779560742
| 40> H -2.9059887225 -1.4728501448 3.8004048639
| 41> H -1.5546334155 -0.6083287213 4.5497296331
| 42> H -5.1616397315 -0.484987678 0.7333747744
| 43> H -5.765820578 -0.221854663 -0.9284823075
| 44> H -5.6583366445 -2.6541163597 -0.4093326282
| 45> H -4.4855183288 -2.251394567 -1.6742263854
| 46> H -3.9389282648 -2.5100724839 -0.0138894216
| 47> *
| 48>
| 49>                          ****END OF INPUT****

CARTESIAN COORDINATES (ANGSTROEM)
---------------------------------
  C      4.369234   -2.429326   -0.333222
  C      4.515028   -0.969763    0.048333
  O      3.828617   -0.129940   -0.918764
  P      2.485557    0.629329   -0.608627
  S      1.885975    1.600489   -2.198415
  O      2.902520    1.495703    0.655814
  C      1.968954    2.238540    1.466966
  C      1.837251    1.574753    2.824606
  S      1.134766   -0.812785    0.182584
  C      0.145496   -1.093768   -1.322335
  S     -1.501266   -1.702825   -0.935660
  P     -2.377509    0.050939   -0.075600
  S     -1.349042    1.704796   -0.308415
  O     -2.689629   -0.344918    1.431265
  C     -1.651628   -0.398864    2.430664
  C     -2.318673   -0.559746    3.781118
  O     -3.817124    0.172757   -0.694354
  C     -4.959243   -0.643560   -0.326937
  C     -4.744248   -2.110796   -0.627929
  H      4.982707   -3.030742    0.329994
  H      3.333411   -2.746568   -0.242183
  H      4.696729   -2.579082   -1.358299
  H      5.556402   -0.648065    0.004531
  H      4.111017   -0.774821    1.043674
  H      2.391235    3.241521    1.551858
  H      1.005552    2.303697    0.952185
  H      1.455744    0.561987    2.713323
  H      2.806825    1.536421    3.312752
  H      1.150574    2.152070    3.435073
  H      0.617320   -1.862631   -1.929703
  H      0.083159   -0.145898   -1.864144
  H     -0.994227   -1.243518    2.202847
  H     -1.072563    0.528057    2.374385
  H     -2.972278    0.285232    3.977956
  H     -2.905989   -1.472850    3.800405
  H     -1.554633   -0.608329    4.549730
  H     -5.161640   -0.484988    0.733375
  H     -5.765821   -0.221855   -0.928482
  H     -5.658337   -2.654116   -0.409333
  H     -4.485518   -2.251395   -1.674226
  H     -3.938928   -2.510072   -0.013889

 Total Charge           Charge          ....    0
 Multiplicity           Mult            ....    1
 Number of Electrons    NEL             ....  202
 Basis Dimension        Dim             ....  334

ORBITAL ENERGIES
----------------

  NO   OCC          E(Eh)            E(eV)
   0   2.0000     -88.046522     -2395.8677
   1   2.0000     -88.041160     -2395.7217
   2   2.0000     -87.982176     -2394.1167
   3   2.0000     -87.975846     -2393.9445
   4   2.0000     -76.426973     -2079.6837
   5   2.0000     -76.420357     -2079.5036
   6   2.0000     -18.795559      -511.4532
   7   2.0000     -18.794968      -511.4371
   8   2.0000     -18.788947      -511.2732
   9   2.0000     -18.785469      -511.1786
  10   2.0000      -9.961613      -271.0693
  11   2.0000      -9.956065      -270.9183
  12   2.0000      -9.955228      -270.8955
  13   2.0000      -9.950884      -270.7773
  14   2.0000      -9.949566      -270.7415
  15   2.0000      -9.895195      -269.2619
  16   2.0000      -9.893264      -269.2094
  17   2.0000      -9.889220      -269.0994
  18   2.0000      -9.886011      -269.0120
  19   2.0000      -7.691223      -209.2888
  20   2.0000      -7.685502      -209.1331
  21   2.0000      -7.626897      -207.5384
  22   2.0000      -7.621187      -207.3830
  23   2.0000      -6.424510      -174.8198
  24   2.0000      -6.417856      -174.6387
  25   2.0000      -5.719214      -155.6277
  26   2.0000      -5.715505      -155.5268
  27   2.0000      -5.713212      -155.4644
  28   2.0000      -5.710163      -155.3814
  29   2.0000      -5.708428      -155.3342
  30   2.0000      -5.702615      -155.1760
  31   2.0000      -5.656045      -153.9088
  32   2.0000      -5.650279      -153.7519
  33   2.0000      -5.647340      -153.6719
  34   2.0000      -5.647016      -153.6631
  35   2.0000      -5.641634      -153.5167
  36   2.0000      -5.641299      -153.5076
  37   2.0000      -4.647452      -126.4636
  38   2.0000      -4.646117      -126.4273
  39   2.0000      -4.644747      -126.3900
  40   2.0000      -4.640622      -126.2777
  41   2.0000      -4.639828      -126.2561
  42   2.0000      -4.637945      -126.2049
  43   2.0000      -0.992007       -26.9939
  44   2.0000      -0.983853       -26.7720
  45   2.0000      -0.947751       -25.7896
  46   2.0000      -0.939789       -25.5729
  47   2.0000      -0.761294       -20.7159
  48   2.0000      -0.722924       -19.6718
  49   2.0000      -0.714262       -19.4361
  50   2.0000      -0.698523       -19.0078
  51   2.0000      -0.689439       -18.7606
  52   2.0000      -0.678185       -18.4544
  53   2.0000      -0.648298       -17.6411
  54   2.0000      -0.630158       -17.1475
  55   2.0000      -0.596688       -16.2367
  56   2.0000      -0.586682       -15.9644
  57   2.0000      -0.577831       -15.7236
  58   2.0000      -0.572546       -15.5798
  59   2.0000      -0.562186       -15.2979
  60   2.0000      -0.510968       -13.9042
  61   2.0000      -0.501339       -13.6421
  62   2.0000      -0.479208       -13.0399
  63   2.0000      -0.476427       -12.9642
  64   2.0000      -0.452603       -12.3160
  65   2.0000      -0.450235       -12.2515
  66   2.0000      -0.448475       -12.2036
  67   2.0000      -0.437425       -11.9029
  68   2.0000      -0.434056       -11.8113
  69   2.0000      -0.418146       -11.3783
  70   2.0000      -0.414010       -11.2658
  71   2.0000      -0.399951       -10.8832
  72   2.0000      -0.398174       -10.8349
  73   2.0000      -0.383780       -10.4432
  74   2.0000      -0.379465       -10.3258
  75   2.0000      -0.370961       -10.0944
  76   2.0000      -0.365575        -9.9478
  77   2.0000      -0.361371        -9.8334
  78   2.0000      -0.356783        -9.7085
  79   2.0000      -0.355447        -9.6722
  80   2.0000      -0.351237        -9.5576
  81   2.0000      -0.347973        -9.4688
  82   2.0000      -0.347946        -9.4681
  83   2.0000      -0.343378        -9.3438
  84   2.0000      -0.336347        -9.1525
  85   2.0000      -0.316388        -8.6094
  86   2.0000      -0.310728        -8.4553
  87   2.0000      -0.305652        -8.3172
  88   2.0000      -0.298229        -8.1152
  89   2.0000      -0.294178        -8.0050
  90   2.0000      -0.290640        -7.9087
  91   2.0000      -0.277958        -7.5636
  92   2.0000      -0.273829        -7.4513
  93   2.0000      -0.263159        -7.1609
  94   2.0000      -0.256814        -6.9883
  95   2.0000      -0.238622        -6.4932
  96   2.0000      -0.219066        -5.9611
  97   2.0000      -0.207689        -5.6515
  98   2.0000      -0.194282        -5.2867
  99   2.0000      -0.193349        -5.2613
 100   2.0000      -0.185334        -5.0432
 101   0.0000      -0.044569        -1.2128
 102   0.0000      -0.031926        -0.8688
 103   0.0000      -0.013283        -0.3615
 104   0.0000       0.003996         0.1087
 105   0.0000       0.011350         0.3089

MULLIKEN ATOMIC CHARGES
-----------------------
   0 C :   -0.288509
   1 C :   -0.008226
   2 O :   -0.355984
   3 P :    0.596767
   4 S :   -0.291219
   5 O :   -0.379793
   6 C :   -0.027448
   7 C :   -0.306183
   8 S :   -0.150533
   9 C :   -0.321151
  10 S :   -0.131648
  11 P :    0.608303
  12 S :   -0.294188
  13 O :   -0.387436
  14 C :   -0.032412
  15 C :   -0.274596
  16 O :   -0.358014
  17 C :    0.005389
  18 C :   -0.336148
  19 H :    0.107532
  20 H :    0.116976
  21 H :    0.120427
  22 H :    0.111987
  23 H :    0.099019
  24 H :    0.110104
  25 H :    0.141629
  26 H :    0.124523
  27 H :    0.114707
  28 H :    0.113957
  29 H :    0.178208
  30 H :    0.214651
  31 H :    0.108398
  32 H :    0.116153
  33 H :    0.119211
  34 H :    0.114068
  35 H :    0.111564
  36 H :    0.112207
  37 H :    0.114674
  38 H :    0.119713
  39 H :    0.132528
  40 H :    0.130794
Sum of atomic charges:    0.0000000

LOEWDIN ATOMIC CHARGES
----------------------
   0 C :   -0.360872
   1 C :   -0.112769
   2 O :   -0.239329
   3 P :    0.561105
   4 S :   -0.290687
   5 O :   -0.246912
   6 C :   -0.118865
   7 C :   -0.361125
   8 S :    0.052891
   9 C :   -0.481008
  10 S :    0.071638
  11 P :    0.565874
  12 S :   -0.287138
  13 O :   -0.251617
  14 C :   -0.124029
  15 C :   -0.350215
  16 O :   -0.234281
  17 C :   -0.107597
  18 C :   -0.372189
  19 H :    0.128624
  20 H :    0.118805
  21 H :    0.129223
  22 H :    0.122336
  23 H :    0.105184
  24 H :    0.121577
  25 H :    0.108908
  26 H :    0.116964
  27 H :    0.124813
  28 H :    0.130459
  29 H :    0.134261
  30 H :    0.125615
  31 H :    0.103196
  32 H :    0.109086
  33 H :    0.128309
  34 H :    0.125599
  35 H :    0.130921
  36 H :    0.115643
  37 H :    0.124803
  38 H :    0.134867
  39 H :    0.130417
  40 H :    0.117517

  Mayer bond orders larger than 0.100000
B(  0-C ,  1-C ) :   1.1631 B(  0-C , 19-H ) :   0.9402 B(  0-C , 20-H ) :   0.9378
B(  0-C , 21-H ) :   0.9463 B(  1-C ,  2-O ) :   0.8927 B(  1-C , 22-H ) :   0.9347
B(  1-C , 23-H ) :   0.9170 B(  2-O ,  3-P ) :   1.1348 B(  3-P ,  4-S ) :   1.6780
B(  3-P ,  5-O ) :   1.0989 B(  3-P ,  8-S ) :   0.9235 B(  4-S ,  8-S ) :   0.1176
B(  5-O ,  6-C ) :   0.8957 B(  6-C ,  7-C ) :   1.1666 B(  6-C , 24-H ) :   0.9322
B(  6-C , 25-H ) :   0.8989 B(  7-C , 26-H ) :   0.9359 B(  7-C , 27-H ) :   0.9445
B(  7-C , 28-H ) :   0.9390 B(  8-S ,  9-C ) :   0.9792 B(  9-C , 10-S ) :   1.0146
B(  9-C , 29-H ) :   0.9072 B(  9-C , 30-H ) :   0.8447 B( 10-S , 11-P ) :   0.9259
B( 10-S , 12-S ) :   0.1151 B( 11-P , 12-S ) :   1.6675 B( 11-P , 13-O ) :   1.0652
B( 11-P , 16-O ) :   1.1497 B( 13-O , 14-C ) :   0.9031 B( 14-C , 15-C ) :   1.1577
B( 14-C , 31-H ) :   0.9184 B( 14-C , 32-H ) :   0.9079 B( 15-C , 33-H ) :   0.9502
B( 15-C , 34-H ) :   0.9508 B( 15-C , 35-H ) :   0.9420 B( 16-O , 17-C ) :   0.8968
B( 17-C , 18-C ) :   1.1700 B( 17-C , 36-H ) :   0.9270 B( 17-C , 37-H ) :   0.9334
B( 18-C , 38-H ) :   0.9350 B( 18-C , 39-H ) :   0.9419 B( 18-C , 40-H ) :   0.9306

Dispersion correction           -0.064567407
FINAL SINGLE POINT ENERGY     -2929.513299698131

DIPOLE MOMENT
-------------

Method             : SCF
Type of density    : Electron Density
Multiplicity       :   1
Irrep              :   0
Energy             : -2929.6332383579310772 Eh
Relativity type    :
Basis              : AO
                                X                 Y                 Z
Electronic contribution:      1.788682852      10.887951900     -19.954539669
Nuclear contribution   :     -2.274015394     -12.458310875      21.879615784
                        -----------------------------------------
Total Dipole Moment    :     -0.485332542      -1.570358975       1.925076115
                        -----------------------------------------
Magnitude (a.u.)       :      2.531302636
Magnitude (Debye)      :      6.434059977

Rotational constants in cm-1:             0.012240             0.004781             0.004562
Rotational constants in MHz :           366.934316           143.331406           136.753872

                             ****ORCA TERMINATED NORMALLY****
TOTAL RUN TIME: 0 days 0 hours 0 minutes 21 seconds 364 msec
