                         Program Version 6.0.0  -   RELEASE  -
|  1> ! pbe def2-sv(p) def2/J RI DEFGRID1 loosescf d4 GCP(DFT/SV(P)) printgap
|  2> %output
|  3>     printlevel normal
|  4> end
|  5> * xyz 0 1
|  6> C 5.7608497813 -0.9985445585 -0.398742125
|  7> C 4.9361362686 -0.3589729465 -1.4961129369
|  8> O 3.5431043671 -0.7271198153 -1.4154200184
|  9> P 2.6075550443 -0.2462588739 -0.2322696805
| 10> S 2.939735054 1.5692456543 0.4384684174
| 11> O 2.8177477003 -1.4034220925 0.8396037295
| 12> C 2.4450301656 -1.2648320555 2.2199700228
| 13> C 0.9600975715 -1.4833400981 2.4267550748
| 14> S 0.7482937727 -0.6469457422 -1.1661566049
| 15> C 0.0816834726 1.0438342653 -1.1870873798
| 16> S -0.7897697561 1.4911165995 0.339033062
| 17> P -2.4768379472 0.266319428 -0.0004484569
| 18> S -3.1344006513 0.1476145903 -1.8482130575
| 19> O -3.545458369 0.7484180735 1.0709649133
| 20> C -4.5067617735 1.7815299672 0.7936807078
| 21> C -3.855026736 3.1398531006 0.6329656617
| 22> O -1.9575236279 -1.083745525 0.6426681829
| 23> C -2.5227717001 -2.3646380124 0.3004825705
| 24> C -3.9365119629 -2.5111683175 0.8226542599
| 25> H 5.4752435478 -0.5876079027 0.5684437793
| 26> H 5.5996495768 -2.0732459861 -0.3865431346
| 27> H 6.8121416336 -0.7915837538 -0.5731105456
| 28> H 5.2381970347 -0.7066917703 -2.4848312293
| 29> H 5.0074658921 0.7322011208 -1.4462863874
| 30> H 3.0343197597 -2.0265927566 2.7328518569
| 31> H 2.7430186837 -0.268838349 2.5649420202
| 32> H 0.7406699419 -1.4884476961 3.4895338789
| 33> H 0.3872337573 -0.6856819484 1.9563084267
| 34> H 0.6579018752 -2.4321221892 1.9909166712
| 35> H -0.6161589236 1.0929161103 -2.0227650367
| 36> H 0.8935663576 1.7598893826 -1.3003359447
| 37> H -5.0547163758 1.5093681165 -0.1142591117
| 38> H -5.1756417362 1.7546565152 1.6548958763
| 39> H -3.2199688389 3.3581069593 1.4879565099
| 40> H -3.2438269308 3.1560969074 -0.2685946406
| 41> H -4.6242293341 3.9009794866 0.550020853
| 42> H -2.4948808448 -2.4757155419 -0.7882785285
| 43> H -1.8434692209 -3.0829832683 0.7607069008
| 44> H -4.5937474471 -1.808814994 0.3113764263
| 45> H -4.287164079 -3.5214781683 0.6366975872
| 46> H -3.9648218552 -2.3062296584 1.8895143617
| 47> *
| 48>
| 49>                          ****END OF INPUT****

CARTESIAN COORDINATES (ANGSTROEM)
---------------------------------
  C      5.760850   -0.998545   -0.398742
  C      4.936136   -0.358973   -1.496113
  O      3.543104   -0.727120   -1.415420
  P      2.607555   -0.246259   -0.232270
  S      2.939735    1.569246    0.438468
  O      2.817748   -1.403422    0.839604
  C      2.445030   -1.264832    2.219970
  C      0.960098   -1.483340    2.426755
  S      0.748294   -0.646946   -1.166157
  C      0.081683    1.043834   -1.187087
  S     -0.789770    1.491117    0.339033
  P     -2.476838    0.266319   -0.000448
  S     -3.134401    0.147615   -1.848213
  O     -3.545458    0.748418    1.070965
  C     -4.506762    1.781530    0.793681
  C     -3.855027    3.139853    0.632966
  O     -1.957524   -1.083746    0.642668
  C     -2.522772   -2.364638    0.300483
  C     -3.936512   -2.511168    0.822654
  H      5.475244   -0.587608    0.568444
  H      5.599650   -2.073246   -0.386543
  H      6.812142   -0.791584   -0.573111
  H      5.238197   -0.706692   -2.484831
  H      5.007466    0.732201   -1.446286
  H      3.034320   -2.026593    2.732852
  H      2.743019   -0.268838    2.564942
  H      0.740670   -1.488448    3.489534
  H      0.387234   -0.685682    1.956308
  H      0.657902   -2.432122    1.990917
  H     -0.616159    1.092916   -2.022765
  H      0.893566    1.759889   -1.300336
  H     -5.054716    1.509368   -0.114259
  H     -5.175642    1.754657    1.654896
  H     -3.219969    3.358107    1.487957
  H     -3.243827    3.156097   -0.268595
  H     -4.624229    3.900979    0.550021
  H     -2.494881   -2.475716   -0.788279
  H     -1.843469   -3.082983    0.760707
  H     -4.593747   -1.808815    0.311376
  H     -4.287164   -3.521478    0.636698
  H     -3.964822   -2.306230    1.889514

 Total Charge           Charge          ....    0
 Multiplicity           Mult            ....    1
 Number of Electrons    NEL             ....  202
 Basis Dimension        Dim             ....  334

ORBITAL ENERGIES
----------------

  NO   OCC          E(Eh)            E(eV)
   0   2.0000     -88.042675     -2395.7630
   1   2.0000     -88.039233     -2395.6693
   2   2.0000     -87.992517     -2394.3981
   3   2.0000     -87.991599     -2394.3731
   4   2.0000     -76.427631     -2079.7016
   5   2.0000     -76.426134     -2079.6608
   6   2.0000     -18.796526      -511.4795
   7   2.0000     -18.791881      -511.3531
   8   2.0000     -18.791274      -511.3366
   9   2.0000     -18.788853      -511.2707
  10   2.0000      -9.954992      -270.8891
  11   2.0000      -9.952148      -270.8117
  12   2.0000      -9.951707      -270.7997
  13   2.0000      -9.951456      -270.7929
  14   2.0000      -9.949101      -270.7288
  15   2.0000      -9.885358      -268.9943
  16   2.0000      -9.884662      -268.9753
  17   2.0000      -9.884139      -268.9611
  18   2.0000      -9.876984      -268.7664
  19   2.0000      -7.687420      -209.1853
  20   2.0000      -7.684527      -209.1066
  21   2.0000      -7.637395      -207.8241
  22   2.0000      -7.636462      -207.7987
  23   2.0000      -6.425399      -174.8440
  24   2.0000      -6.424049      -174.8073
  25   2.0000      -5.715173      -155.5178
  26   2.0000      -5.712416      -155.4428
  27   2.0000      -5.712097      -155.4341
  28   2.0000      -5.709217      -155.3557
  29   2.0000      -5.704360      -155.2235
  30   2.0000      -5.701237      -155.1386
  31   2.0000      -5.666115      -154.1828
  32   2.0000      -5.665195      -154.1578
  33   2.0000      -5.658100      -153.9647
  34   2.0000      -5.657701      -153.9539
  35   2.0000      -5.657113      -153.9379
  36   2.0000      -5.656820      -153.9299
  37   2.0000      -4.647806      -126.4732
  38   2.0000      -4.647103      -126.4541
  39   2.0000      -4.646299      -126.4322
  40   2.0000      -4.646009      -126.4243
  41   2.0000      -4.645753      -126.4174
  42   2.0000      -4.644807      -126.3916
  43   2.0000      -0.989449       -26.9243
  44   2.0000      -0.985811       -26.8253
  45   2.0000      -0.948625       -25.8134
  46   2.0000      -0.944694       -25.7064
  47   2.0000      -0.762724       -20.7548
  48   2.0000      -0.722203       -19.6521
  49   2.0000      -0.707367       -19.2484
  50   2.0000      -0.688449       -18.7336
  51   2.0000      -0.684985       -18.6394
  52   2.0000      -0.674215       -18.3463
  53   2.0000      -0.652760       -17.7625
  54   2.0000      -0.640204       -17.4208
  55   2.0000      -0.606005       -16.4902
  56   2.0000      -0.596800       -16.2398
  57   2.0000      -0.573982       -15.6188
  58   2.0000      -0.569888       -15.5074
  59   2.0000      -0.557353       -15.1664
  60   2.0000      -0.495986       -13.4965
  61   2.0000      -0.491765       -13.3816
  62   2.0000      -0.476104       -12.9554
  63   2.0000      -0.472660       -12.8617
  64   2.0000      -0.458014       -12.4632
  65   2.0000      -0.442892       -12.0517
  66   2.0000      -0.441701       -12.0193
  67   2.0000      -0.437059       -11.8930
  68   2.0000      -0.429722       -11.6933
  69   2.0000      -0.415364       -11.3026
  70   2.0000      -0.403180       -10.9711
  71   2.0000      -0.394970       -10.7477
  72   2.0000      -0.393074       -10.6961
  73   2.0000      -0.390300       -10.6206
  74   2.0000      -0.385496       -10.4899
  75   2.0000      -0.379106       -10.3160
  76   2.0000      -0.368602       -10.0302
  77   2.0000      -0.356973        -9.7137
  78   2.0000      -0.353382        -9.6160
  79   2.0000      -0.350859        -9.5474
  80   2.0000      -0.348620        -9.4864
  81   2.0000      -0.345273        -9.3954
  82   2.0000      -0.341607        -9.2956
  83   2.0000      -0.337873        -9.1940
  84   2.0000      -0.332918        -9.0592
  85   2.0000      -0.320230        -8.7139
  86   2.0000      -0.310414        -8.4468
  87   2.0000      -0.298204        -8.1145
  88   2.0000      -0.293353        -7.9825
  89   2.0000      -0.284641        -7.7455
  90   2.0000      -0.284061        -7.7297
  91   2.0000      -0.275765        -7.5039
  92   2.0000      -0.272739        -7.4216
  93   2.0000      -0.266538        -7.2529
  94   2.0000      -0.261638        -7.1195
  95   2.0000      -0.231096        -6.2884
  96   2.0000      -0.219197        -5.9647
  97   2.0000      -0.214879        -5.8472
  98   2.0000      -0.208483        -5.6731
  99   2.0000      -0.206433        -5.6173
 100   2.0000      -0.204079        -5.5533
 101   0.0000      -0.043142        -1.1740
 102   0.0000      -0.028285        -0.7697
 103   0.0000      -0.005447        -0.1482
 104   0.0000       0.004654         0.1266
 105   0.0000       0.016159         0.4397

MULLIKEN ATOMIC CHARGES
-----------------------
   0 C :   -0.308026
   1 C :   -0.002424
   2 O :   -0.366664
   3 P :    0.616811
   4 S :   -0.336692
   5 O :   -0.371297
   6 C :   -0.007414
   7 C :   -0.329945
   8 S :   -0.071736
   9 C :   -0.366234
  10 S :   -0.062842
  11 P :    0.609414
  12 S :   -0.337521
  13 O :   -0.370852
  14 C :   -0.004577
  15 C :   -0.317174
  16 O :   -0.354098
  17 C :   -0.005991
  18 C :   -0.307019
  19 H :    0.122442
  20 H :    0.118640
  21 H :    0.111936
  22 H :    0.107112
  23 H :    0.110848
  24 H :    0.101435
  25 H :    0.109424
  26 H :    0.106397
  27 H :    0.152458
  28 H :    0.113024
  29 H :    0.194211
  30 H :    0.191819
  31 H :    0.111410
  32 H :    0.106695
  33 H :    0.120654
  34 H :    0.128107
  35 H :    0.114480
  36 H :    0.113064
  37 H :    0.108628
  38 H :    0.121851
  39 H :    0.112571
  40 H :    0.117073
Sum of atomic charges:   -0.0000000

LOEWDIN ATOMIC CHARGES
----------------------
   0 C :   -0.364774
   1 C :   -0.115398
   2 O :   -0.244613
   3 P :    0.572998
   4 S :   -0.316585
   5 O :   -0.243028
   6 C :   -0.120494
   7 C :   -0.368959
   8 S :    0.092615
   9 C :   -0.484083
  10 S :    0.106447
  11 P :    0.572671
  12 S :   -0.324145
  13 O :   -0.242347
  14 C :   -0.118501
  15 C :   -0.369562
  16 O :   -0.233280
  17 C :   -0.117022
  18 C :   -0.364471
  19 H :    0.122829
  20 H :    0.127292
  21 H :    0.130260
  22 H :    0.120011
  23 H :    0.110978
  24 H :    0.116417
  25 H :    0.108029
  26 H :    0.128780
  27 H :    0.118701
  28 H :    0.122338
  29 H :    0.128820
  30 H :    0.129734
  31 H :    0.110912
  32 H :    0.119455
  33 H :    0.125631
  34 H :    0.121811
  35 H :    0.131851
  36 H :    0.111119
  37 H :    0.118188
  38 H :    0.122223
  39 H :    0.130545
  40 H :    0.126609

  Mayer bond orders larger than 0.100000
B(  0-C ,  1-C ) :   1.1630 B(  0-C , 19-H ) :   0.9384 B(  0-C , 20-H ) :   0.9460
B(  0-C , 21-H ) :   0.9383 B(  1-C ,  2-O ) :   0.9116 B(  1-C , 22-H ) :   0.9354
B(  1-C , 23-H ) :   0.9186 B(  2-O ,  3-P ) :   1.1344 B(  3-P ,  4-S ) :   1.5926
B(  3-P ,  5-O ) :   1.1070 B(  3-P ,  8-S ) :   0.9626 B(  4-S ,  8-S ) :   0.1139
B(  5-O ,  6-C ) :   0.9096 B(  6-C ,  7-C ) :   1.1628 B(  6-C , 24-H ) :   0.9333
B(  6-C , 25-H ) :   0.9113 B(  7-C , 26-H ) :   0.9382 B(  7-C , 27-H ) :   0.9245
B(  7-C , 28-H ) :   0.9433 B(  8-S ,  9-C ) :   1.0079 B(  9-C , 10-S ) :   1.0044
B(  9-C , 29-H ) :   0.8730 B(  9-C , 30-H ) :   0.8785 B( 10-S , 11-P ) :   0.9641
B( 10-S , 12-S ) :   0.1077 B( 11-P , 12-S ) :   1.5851 B( 11-P , 13-O ) :   1.1120
B( 11-P , 16-O ) :   1.1316 B( 13-O , 14-C ) :   0.9069 B( 14-C , 15-C ) :   1.1664
B( 14-C , 31-H ) :   0.9165 B( 14-C , 32-H ) :   0.9338 B( 15-C , 33-H ) :   0.9444
B( 15-C , 34-H ) :   0.9353 B( 15-C , 35-H ) :   0.9376 B( 16-O , 17-C ) :   0.9071
B( 17-C , 18-C ) :   1.1627 B( 17-C , 36-H ) :   0.9171 B( 17-C , 37-H ) :   0.9311
B( 18-C , 38-H ) :   0.9370 B( 18-C , 39-H ) :   0.9393 B( 18-C , 40-H ) :   0.9460

Dispersion correction           -0.064873567
FINAL SINGLE POINT ENERGY     -2929.527004503123

DIPOLE MOMENT
-------------

Method             : SCF
Type of density    : Electron Density
Multiplicity       :   1
Irrep              :   0
Energy             : -2929.6468967295936636 Eh
Relativity type    :
Basis              : AO
                                X                 Y                 Z
Electronic contribution:      2.405156866       6.137619422     -10.073079321
Nuclear contribution   :     -2.470096129      -6.688106752      10.805655717
                        -----------------------------------------
Total Dipole Moment    :     -0.064939263      -0.550487330       0.732576396
                        -----------------------------------------
Magnitude (a.u.)       :      0.918652048
Magnitude (Debye)      :      2.335027938

Rotational constants in cm-1:             0.014522             0.004285             0.004062
Rotational constants in MHz :           435.352616           128.475484           121.784139

                             ****ORCA TERMINATED NORMALLY****
TOTAL RUN TIME: 0 days 0 hours 0 minutes 20 seconds 819 msec
