                         Program Version 6.0.0  -   RELEASE  -
|  1> ! pbe def2-sv(p) def2/J RI DEFGRID1 loosescf d4 GCP(DFT/SV(P)) printgap
|  2> %output
|  3>     printlevel normal
|  4> end
|  5> * xyz 0 1
|  6> C 3.2205638011 -1.6011502006 -2.9314557457
|  7> C 4.098224407 -0.8548015022 -1.9469281671
|  8> O 3.5315280279 -0.8480926258 -0.6290138594
|  9> P 2.1996040955 -0.0363804102 -0.2886711524
| 10> S 2.1461655252 1.7135970983 -1.1757441088
| 11> O 2.2295545038 -0.0784709016 1.2934447829
| 12> C 2.7282740094 1.031576701 2.0646601347
| 13> C 4.2260815939 1.1870175278 1.9143285383
| 14> S 0.6586498751 -1.4398890082 -0.6959890134
| 15> C -0.1475050781 -1.7540381226 0.9178020058
| 16> S -1.9451340343 -1.7293379106 0.7918281239
| 17> P -2.2616479854 0.3724584089 0.6044673744
| 18> S -0.7014772654 1.4654323098 1.0775972579
| 19> O -3.4597460531 0.7605223473 1.5453870513
| 20> C -4.8556657214 0.4445113873 1.3143270101
| 21> C -5.1220725293 -1.0454124026 1.3213639261
| 22> O -2.924983702 0.5641330432 -0.8299591654
| 23> C -2.3494194964 0.1600960634 -2.0840230655
| 24> C -1.4246078246 1.2221777486 -2.6427519555
| 25> H 3.7069651739 -1.6303252153 -3.9010049684
| 26> H 3.0365847592 -2.6146818355 -2.5852713841
| 27> H 2.263261338 -1.087015238 -3.0289560727
| 28> H 4.2368106408 0.1830774217 -2.2682963823
| 29> H 5.06742305 -1.3381481698 -1.8179373505
| 30> H 2.2004519778 1.9374416065 1.7474316716
| 31> H 2.4431149834 0.7875510122 3.0891470734
| 32> H 4.4668936026 1.4607517497 0.887849361
| 33> H 4.5739788873 1.9707629474 2.5796618676
| 34> H 4.7252742831 0.2526696002 2.1570618718
| 35> H 0.1773947862 -0.9926496405 1.6240508092
| 36> H 0.1241793978 -2.7543825556 1.242445118
| 37> H -5.360869849 0.9473685857 2.1403545689
| 38> H -5.1546207741 0.8947205772 0.3663077329
| 39> H -4.6259381632 -1.526470257 0.480183591
| 40> H -4.7565323611 -1.4921971605 2.2421367259
| 41> H -6.1917533047 -1.2130329084 1.2423863187
| 42> H -1.8204359862 -0.7893687955 -1.9526482513
| 43> H -3.213000311 0.0116244724 -2.7352832755
| 44> H -1.9491334301 2.1689351676 -2.7393948705
| 45> H -0.5677590386 1.3743541143 -1.9885088867
| 46> H -1.0635081079 0.9095620111 -3.6171116299
| 47> *
| 48>
| 49>                          ****END OF INPUT****

CARTESIAN COORDINATES (ANGSTROEM)
---------------------------------
  C      3.220564   -1.601150   -2.931456
  C      4.098224   -0.854802   -1.946928
  O      3.531528   -0.848093   -0.629014
  P      2.199604   -0.036380   -0.288671
  S      2.146166    1.713597   -1.175744
  O      2.229555   -0.078471    1.293445
  C      2.728274    1.031577    2.064660
  C      4.226082    1.187018    1.914329
  S      0.658650   -1.439889   -0.695989
  C     -0.147505   -1.754038    0.917802
  S     -1.945134   -1.729338    0.791828
  P     -2.261648    0.372458    0.604467
  S     -0.701477    1.465432    1.077597
  O     -3.459746    0.760522    1.545387
  C     -4.855666    0.444511    1.314327
  C     -5.122073   -1.045412    1.321364
  O     -2.924984    0.564133   -0.829959
  C     -2.349419    0.160096   -2.084023
  C     -1.424608    1.222178   -2.642752
  H      3.706965   -1.630325   -3.901005
  H      3.036585   -2.614682   -2.585271
  H      2.263261   -1.087015   -3.028956
  H      4.236811    0.183077   -2.268296
  H      5.067423   -1.338148   -1.817937
  H      2.200452    1.937442    1.747432
  H      2.443115    0.787551    3.089147
  H      4.466894    1.460752    0.887849
  H      4.573979    1.970763    2.579662
  H      4.725274    0.252670    2.157062
  H      0.177395   -0.992650    1.624051
  H      0.124179   -2.754383    1.242445
  H     -5.360870    0.947369    2.140355
  H     -5.154621    0.894721    0.366308
  H     -4.625938   -1.526470    0.480184
  H     -4.756532   -1.492197    2.242137
  H     -6.191753   -1.213033    1.242386
  H     -1.820436   -0.789369   -1.952648
  H     -3.213000    0.011624   -2.735283
  H     -1.949133    2.168935   -2.739395
  H     -0.567759    1.374354   -1.988509
  H     -1.063508    0.909562   -3.617112

 Total Charge           Charge          ....    0
 Multiplicity           Mult            ....    1
 Number of Electrons    NEL             ....  202
 Basis Dimension        Dim             ....  334

ORBITAL ENERGIES
----------------

  NO   OCC          E(Eh)            E(eV)
   0   2.0000     -88.046507     -2395.8672
   1   2.0000     -88.038015     -2395.6362
   2   2.0000     -87.983845     -2394.1621
   3   2.0000     -87.979994     -2394.0574
   4   2.0000     -76.424831     -2079.6254
   5   2.0000     -76.423521     -2079.5897
   6   2.0000     -18.791522      -511.3433
   7   2.0000     -18.791128      -511.3326
   8   2.0000     -18.790514      -511.3159
   9   2.0000     -18.782837      -511.1070
  10   2.0000      -9.957752      -270.9642
  11   2.0000      -9.954734      -270.8821
  12   2.0000      -9.948358      -270.7086
  13   2.0000      -9.947404      -270.6826
  14   2.0000      -9.947398      -270.6825
  15   2.0000      -9.893528      -269.2166
  16   2.0000      -9.883951      -268.9560
  17   2.0000      -9.879553      -268.8363
  18   2.0000      -9.867753      -268.5152
  19   2.0000      -7.691235      -209.2892
  20   2.0000      -7.682803      -209.0597
  21   2.0000      -7.628462      -207.5810
  22   2.0000      -7.624688      -207.4783
  23   2.0000      -6.422064      -174.7532
  24   2.0000      -6.420950      -174.7229
  25   2.0000      -5.719199      -155.6273
  26   2.0000      -5.715474      -155.5260
  27   2.0000      -5.711220      -155.4102
  28   2.0000      -5.708493      -155.3360
  29   2.0000      -5.707107      -155.2983
  30   2.0000      -5.699470      -155.0905
  31   2.0000      -5.657390      -153.9454
  32   2.0000      -5.653804      -153.8478
  33   2.0000      -5.649409      -153.7282
  34   2.0000      -5.648325      -153.6987
  35   2.0000      -5.645001      -153.6083
  36   2.0000      -5.644976      -153.6076
  37   2.0000      -4.644865      -126.3932
  38   2.0000      -4.643935      -126.3679
  39   2.0000      -4.643480      -126.3555
  40   2.0000      -4.642732      -126.3352
  41   2.0000      -4.642256      -126.3222
  42   2.0000      -4.641465      -126.3007
  43   2.0000      -0.987169       -26.8622
  44   2.0000      -0.983787       -26.7702
  45   2.0000      -0.942220       -25.6391
  46   2.0000      -0.941926       -25.6311
  47   2.0000      -0.760198       -20.6860
  48   2.0000      -0.719184       -19.5700
  49   2.0000      -0.709131       -19.2964
  50   2.0000      -0.687357       -18.7039
  51   2.0000      -0.683563       -18.6007
  52   2.0000      -0.671065       -18.2606
  53   2.0000      -0.651936       -17.7401
  54   2.0000      -0.633459       -17.2373
  55   2.0000      -0.597273       -16.2526
  56   2.0000      -0.587737       -15.9931
  57   2.0000      -0.574354       -15.6290
  58   2.0000      -0.569331       -15.4923
  59   2.0000      -0.561998       -15.2927
  60   2.0000      -0.497597       -13.5403
  61   2.0000      -0.489595       -13.3226
  62   2.0000      -0.472485       -12.8570
  63   2.0000      -0.469201       -12.7676
  64   2.0000      -0.454138       -12.3577
  65   2.0000      -0.449276       -12.2254
  66   2.0000      -0.439652       -11.9635
  67   2.0000      -0.435211       -11.8427
  68   2.0000      -0.423125       -11.5138
  69   2.0000      -0.417835       -11.3699
  70   2.0000      -0.415616       -11.3095
  71   2.0000      -0.394531       -10.7357
  72   2.0000      -0.391141       -10.6435
  73   2.0000      -0.388777       -10.5792
  74   2.0000      -0.386375       -10.5138
  75   2.0000      -0.375976       -10.2308
  76   2.0000      -0.361131        -9.8269
  77   2.0000      -0.355244        -9.6667
  78   2.0000      -0.351922        -9.5763
  79   2.0000      -0.350798        -9.5457
  80   2.0000      -0.345965        -9.4142
  81   2.0000      -0.341716        -9.2986
  82   2.0000      -0.338007        -9.1976
  83   2.0000      -0.327158        -8.9024
  84   2.0000      -0.325314        -8.8522
  85   2.0000      -0.313919        -8.5422
  86   2.0000      -0.308943        -8.4068
  87   2.0000      -0.295676        -8.0458
  88   2.0000      -0.293010        -7.9732
  89   2.0000      -0.286376        -7.7927
  90   2.0000      -0.283479        -7.7138
  91   2.0000      -0.275996        -7.5102
  92   2.0000      -0.269278        -7.3274
  93   2.0000      -0.261328        -7.1111
  94   2.0000      -0.257276        -7.0008
  95   2.0000      -0.240123        -6.5341
  96   2.0000      -0.216025        -5.8783
  97   2.0000      -0.211100        -5.7443
  98   2.0000      -0.197570        -5.3762
  99   2.0000      -0.192955        -5.2506
 100   2.0000      -0.185623        -5.0510
 101   0.0000      -0.049599        -1.3497
 102   0.0000      -0.027683        -0.7533
 103   0.0000      -0.023994        -0.6529
 104   0.0000       0.005453         0.1484
 105   0.0000       0.011914         0.3242

MULLIKEN ATOMIC CHARGES
-----------------------
   0 C :   -0.317837
   1 C :   -0.004678
   2 O :   -0.368655
   3 P :    0.631292
   4 S :   -0.308631
   5 O :   -0.375397
   6 C :   -0.010582
   7 C :   -0.299885
   8 S :   -0.128189
   9 C :   -0.313505
  10 S :   -0.133663
  11 P :    0.616268
  12 S :   -0.308042
  13 O :   -0.356942
  14 C :    0.003050
  15 C :   -0.332562
  16 O :   -0.381688
  17 C :   -0.012993
  18 C :   -0.313913
  19 H :    0.113660
  20 H :    0.120980
  21 H :    0.121991
  22 H :    0.108194
  23 H :    0.103626
  24 H :    0.125816
  25 H :    0.105184
  26 H :    0.123517
  27 H :    0.112088
  28 H :    0.114582
  29 H :    0.209742
  30 H :    0.179233
  31 H :    0.112043
  32 H :    0.113333
  33 H :    0.130368
  34 H :    0.128906
  35 H :    0.118637
  36 H :    0.110024
  37 H :    0.096750
  38 H :    0.108292
  39 H :    0.157159
  40 H :    0.102426
Sum of atomic charges:   -0.0000000

LOEWDIN ATOMIC CHARGES
----------------------
   0 C :   -0.368549
   1 C :   -0.123820
   2 O :   -0.248323
   3 P :    0.578270
   4 S :   -0.297372
   5 O :   -0.234361
   6 C :   -0.116717
   7 C :   -0.365242
   8 S :    0.070071
   9 C :   -0.473459
  10 S :    0.073245
  11 P :    0.564824
  12 S :   -0.292284
  13 O :   -0.234779
  14 C :   -0.110063
  15 C :   -0.370830
  16 O :   -0.244354
  17 C :   -0.119835
  18 C :   -0.368166
  19 H :    0.131104
  20 H :    0.125453
  21 H :    0.116433
  22 H :    0.106999
  23 H :    0.118097
  24 H :    0.112613
  25 H :    0.118956
  26 H :    0.122465
  27 H :    0.130815
  28 H :    0.125827
  29 H :    0.132227
  30 H :    0.135591
  31 H :    0.123475
  32 H :    0.115915
  33 H :    0.116896
  34 H :    0.129398
  35 H :    0.134213
  36 H :    0.097306
  37 H :    0.113827
  38 H :    0.124434
  39 H :    0.122387
  40 H :    0.127315

  Mayer bond orders larger than 0.100000
B(  0-C ,  1-C ) :   1.1633 B(  0-C , 19-H ) :   0.9389 B(  0-C , 20-H ) :   0.9436
B(  0-C , 21-H ) :   0.9324 B(  1-C ,  2-O ) :   0.9219 B(  1-C , 22-H ) :   0.9113
B(  1-C , 23-H ) :   0.9323 B(  2-O ,  3-P ) :   1.0844 B(  3-P ,  4-S ) :   1.6114
B(  3-P ,  5-O ) :   1.1216 B(  3-P ,  8-S ) :   0.9449 B(  5-O ,  6-C ) :   0.8911
B(  6-C ,  7-C ) :   1.1634 B(  6-C , 24-H ) :   0.9148 B(  6-C , 25-H ) :   0.9349
B(  7-C , 26-H ) :   0.9340 B(  7-C , 27-H ) :   0.9391 B(  7-C , 28-H ) :   0.9452
B(  8-S ,  9-C ) :   0.9862 B(  9-C , 10-S ) :   1.0184 B(  9-C , 29-H ) :   0.8610
B(  9-C , 30-H ) :   0.9073 B( 10-S , 11-P ) :   0.9243 B( 10-S , 12-S ) :   0.1118
B( 11-P , 12-S ) :   1.6615 B( 11-P , 13-O ) :   1.1425 B( 11-P , 16-O ) :   1.0822
B( 13-O , 14-C ) :   0.9002 B( 14-C , 15-C ) :   1.1690 B( 14-C , 31-H ) :   0.9337
B( 14-C , 32-H ) :   0.9263 B( 15-C , 33-H ) :   0.9319 B( 15-C , 34-H ) :   0.9432
B( 15-C , 35-H ) :   0.9355 B( 16-O , 17-C ) :   0.9050 B( 17-C , 18-C ) :   1.1682
B( 17-C , 36-H ) :   0.9047 B( 17-C , 37-H ) :   0.9337 B( 18-C , 38-H ) :   0.9454
B( 18-C , 39-H ) :   0.9186 B( 18-C , 40-H ) :   0.9388

Dispersion correction           -0.067143137
FINAL SINGLE POINT ENERGY     -2929.513412747014

DIPOLE MOMENT
-------------

Method             : SCF
Type of density    : Electron Density
Multiplicity       :   1
Irrep              :   0
Energy             : -2929.6326067264017183 Eh
Relativity type    :
Basis              : AO
                                X                 Y                 Z
Electronic contribution:     -2.687612555       1.549906539       6.610873495
Nuclear contribution   :      2.217036002      -2.677118101      -6.674438999
                        -----------------------------------------
Total Dipole Moment    :     -0.470576553      -1.127211562      -0.063565505
                        -----------------------------------------
Magnitude (a.u.)       :      1.223147077
Magnitude (Debye)      :      3.108992794

Rotational constants in cm-1:             0.013654             0.004926             0.004643
Rotational constants in MHz :           409.324521           147.689449           139.181354

                             ****ORCA TERMINATED NORMALLY****
TOTAL RUN TIME: 0 days 0 hours 0 minutes 21 seconds 402 msec
