                         Program Version 6.0.0  -   RELEASE  -
|  1> ! pbe def2-sv(p) def2/J RI DEFGRID1 loosescf d4 GCP(DFT/SV(P)) printgap
|  2> %output
|  3>     printlevel normal
|  4> end
|  5> * xyz 0 1
|  6> C 3.0005485168 0.7406966463 -2.3749629883
|  7> C 2.1520571438 -0.5124496435 -2.3455940236
|  8> O 1.3380852942 -0.5991468475 -1.1561131253
|  9> P 1.8865505554 -0.5529801587 0.3245012644
| 10> S 2.4639215624 1.1410288032 1.1380743149
| 11> O 3.010542707 -1.6781104765 0.2569592981
| 12> C 3.9240853284 -1.9164326344 1.3472485309
| 13> C 5.2649768716 -1.2671272632 1.0658863605
| 14> S 0.3281730356 -1.5100872119 1.3722455095
| 15> C -0.4949890783 -0.0768121664 2.1430612853
| 16> S -2.2130251393 0.1038548157 1.628378742
| 17> P -1.8721330312 0.6368970343 -0.4068402899
| 18> S -0.4957118962 1.9854017175 -0.7421361722
| 19> O -3.3440869866 0.9445669783 -0.9194600882
| 20> C -4.2919593627 1.8058455353 -0.2600745409
| 21> C -3.7421221749 3.190281739 0.0098972251
| 22> O -1.5272894957 -0.6904025916 -1.182865933
| 23> C -2.3596487161 -1.8773799315 -1.1555935139
| 24> C -3.2033709335 -1.9636180207 -2.4104965141
| 25> H 3.5150259942 0.8097900736 -3.3281475992
| 26> H 2.3723970053 1.6197712218 -2.2385174153
| 27> H 3.7359811851 0.7158228676 -1.571582137
| 28> H 2.7711556704 -1.4110722789 -2.3977370411
| 29> H 1.4162043098 -0.5138700864 -3.1518809233
| 30> H 3.4920295594 -1.5268121116 2.2727746374
| 31> H 4.0088336202 -3.0025865247 1.4099632476
| 32> H 5.9577348986 -1.5195550212 1.8619406145
| 33> H 5.6615761099 -1.6192031082 0.1177261001
| 34> H 5.1532266276 -0.1855585521 1.0248706493
| 35> H 0.0717012393 0.8252667712 1.8918313953
| 36> H -0.5185074676 -0.2380906641 3.2177475701
| 37> H -5.1327185162 1.8407630886 -0.9551907409
| 38> H -4.5978903293 1.3230143099 0.6720028647
| 39> H -3.3781163843 3.6411355688 -0.9104607295
| 40> H -4.524153166 3.8131120913 0.431941219
| 41> H -2.9129968641 3.135820443 0.7141572689
| 42> H -1.6523937878 -2.7067488951 -1.087274176
| 43> H -2.9840504447 -1.8552012681 -0.2577914313
| 44> H -2.5660124885 -1.9617981559 -3.2903408508
| 45> H -3.7800638666 -2.8829228255 -2.3864563497
| 46> H -3.8795977236 -1.1147529737 -2.4674354834
| 47> *
| 48>
| 49>                          ****END OF INPUT****

CARTESIAN COORDINATES (ANGSTROEM)
---------------------------------
  C      3.000549    0.740697   -2.374963
  C      2.152057   -0.512450   -2.345594
  O      1.338085   -0.599147   -1.156113
  P      1.886551   -0.552980    0.324501
  S      2.463922    1.141029    1.138074
  O      3.010543   -1.678110    0.256959
  C      3.924085   -1.916433    1.347249
  C      5.264977   -1.267127    1.065886
  S      0.328173   -1.510087    1.372246
  C     -0.494989   -0.076812    2.143061
  S     -2.213025    0.103855    1.628379
  P     -1.872133    0.636897   -0.406840
  S     -0.495712    1.985402   -0.742136
  O     -3.344087    0.944567   -0.919460
  C     -4.291959    1.805846   -0.260075
  C     -3.742122    3.190282    0.009897
  O     -1.527289   -0.690403   -1.182866
  C     -2.359649   -1.877380   -1.155594
  C     -3.203371   -1.963618   -2.410497
  H      3.515026    0.809790   -3.328148
  H      2.372397    1.619771   -2.238517
  H      3.735981    0.715823   -1.571582
  H      2.771156   -1.411072   -2.397737
  H      1.416204   -0.513870   -3.151881
  H      3.492030   -1.526812    2.272775
  H      4.008834   -3.002587    1.409963
  H      5.957735   -1.519555    1.861941
  H      5.661576   -1.619203    0.117726
  H      5.153227   -0.185559    1.024871
  H      0.071701    0.825267    1.891831
  H     -0.518507   -0.238091    3.217748
  H     -5.132719    1.840763   -0.955191
  H     -4.597890    1.323014    0.672003
  H     -3.378116    3.641136   -0.910461
  H     -4.524153    3.813112    0.431941
  H     -2.912997    3.135820    0.714157
  H     -1.652394   -2.706749   -1.087274
  H     -2.984050   -1.855201   -0.257791
  H     -2.566012   -1.961798   -3.290341
  H     -3.780064   -2.882923   -2.386456
  H     -3.879598   -1.114753   -2.467435

 Total Charge           Charge          ....    0
 Multiplicity           Mult            ....    1
 Number of Electrons    NEL             ....  202
 Basis Dimension        Dim             ....  334

ORBITAL ENERGIES
----------------

  NO   OCC          E(Eh)            E(eV)
   0   2.0000     -88.042551     -2395.7596
   1   2.0000     -88.037923     -2395.6337
   2   2.0000     -87.978897     -2394.0275
   3   2.0000     -87.974105     -2393.8971
   4   2.0000     -76.421064     -2079.5229
   5   2.0000     -76.420780     -2079.5151
   6   2.0000     -18.792727      -511.3761
   7   2.0000     -18.790116      -511.3051
   8   2.0000     -18.783866      -511.1350
   9   2.0000     -18.778444      -510.9874
  10   2.0000      -9.958112      -270.9740
  11   2.0000      -9.952061      -270.8094
  12   2.0000      -9.951152      -270.7846
  13   2.0000      -9.949074      -270.7281
  14   2.0000      -9.946185      -270.6495
  15   2.0000      -9.883412      -268.9413
  16   2.0000      -9.880892      -268.8728
  17   2.0000      -9.880642      -268.8659
  18   2.0000      -9.873431      -268.6697
  19   2.0000      -7.687582      -209.1897
  20   2.0000      -7.683208      -209.0707
  21   2.0000      -7.623906      -207.4570
  22   2.0000      -7.619249      -207.3303
  23   2.0000      -6.418239      -174.6492
  24   2.0000      -6.417937      -174.6409
  25   2.0000      -5.715315      -155.5216
  26   2.0000      -5.711861      -155.4276
  27   2.0000      -5.711036      -155.4052
  28   2.0000      -5.707699      -155.3144
  29   2.0000      -5.704955      -155.2397
  30   2.0000      -5.700180      -155.1098
  31   2.0000      -5.652794      -153.8204
  32   2.0000      -5.648317      -153.6985
  33   2.0000      -5.644615      -153.5978
  34   2.0000      -5.643989      -153.5808
  35   2.0000      -5.639814      -153.4672
  36   2.0000      -5.639263      -153.4522
  37   2.0000      -4.641091      -126.2905
  38   2.0000      -4.640803      -126.2827
  39   2.0000      -4.640089      -126.2632
  40   2.0000      -4.639761      -126.2543
  41   2.0000      -4.638742      -126.2266
  42   2.0000      -4.637802      -126.2010
  43   2.0000      -0.984836       -26.7987
  44   2.0000      -0.981360       -26.7042
  45   2.0000      -0.940901       -25.6032
  46   2.0000      -0.936169       -25.4744
  47   2.0000      -0.760012       -20.6810
  48   2.0000      -0.717205       -19.5161
  49   2.0000      -0.706673       -19.2295
  50   2.0000      -0.688555       -18.7365
  51   2.0000      -0.682826       -18.5807
  52   2.0000      -0.671177       -18.2637
  53   2.0000      -0.647472       -17.6186
  54   2.0000      -0.630533       -17.1577
  55   2.0000      -0.589332       -16.0365
  56   2.0000      -0.584522       -15.9057
  57   2.0000      -0.571034       -15.5386
  58   2.0000      -0.569781       -15.5045
  59   2.0000      -0.563311       -15.3285
  60   2.0000      -0.501680       -13.6514
  61   2.0000      -0.494184       -13.4474
  62   2.0000      -0.471461       -12.8291
  63   2.0000      -0.465859       -12.6767
  64   2.0000      -0.450196       -12.2505
  65   2.0000      -0.443795       -12.0763
  66   2.0000      -0.434447       -11.8219
  67   2.0000      -0.432111       -11.7583
  68   2.0000      -0.428521       -11.6606
  69   2.0000      -0.408407       -11.1133
  70   2.0000      -0.406853       -11.0710
  71   2.0000      -0.404851       -11.0166
  72   2.0000      -0.393596       -10.7103
  73   2.0000      -0.383670       -10.4402
  74   2.0000      -0.382427       -10.4064
  75   2.0000      -0.364963        -9.9312
  76   2.0000      -0.356134        -9.6909
  77   2.0000      -0.353371        -9.6157
  78   2.0000      -0.349296        -9.5048
  79   2.0000      -0.344478        -9.3737
  80   2.0000      -0.341210        -9.2848
  81   2.0000      -0.339007        -9.2248
  82   2.0000      -0.337110        -9.1732
  83   2.0000      -0.331147        -9.0110
  84   2.0000      -0.328013        -8.9257
  85   2.0000      -0.317197        -8.6314
  86   2.0000      -0.312647        -8.5076
  87   2.0000      -0.294680        -8.0186
  88   2.0000      -0.294421        -8.0116
  89   2.0000      -0.287475        -7.8226
  90   2.0000      -0.276871        -7.5341
  91   2.0000      -0.271818        -7.3965
  92   2.0000      -0.269316        -7.3285
  93   2.0000      -0.259690        -7.0665
  94   2.0000      -0.253545        -6.8993
  95   2.0000      -0.235152        -6.3988
  96   2.0000      -0.221169        -6.0183
  97   2.0000      -0.208175        -5.6647
  98   2.0000      -0.194338        -5.2882
  99   2.0000      -0.186687        -5.0800
 100   2.0000      -0.178580        -4.8594
 101   0.0000      -0.036488        -0.9929
 102   0.0000      -0.028219        -0.7679
 103   0.0000      -0.009470        -0.2577
 104   0.0000       0.015768         0.4291
 105   0.0000       0.019587         0.5330

MULLIKEN ATOMIC CHARGES
-----------------------
   0 C :   -0.326356
   1 C :    0.009562
   2 O :   -0.349045
   3 P :    0.623522
   4 S :   -0.314008
   5 O :   -0.387007
   6 C :   -0.002131
   7 C :   -0.293562
   8 S :   -0.099729
   9 C :   -0.348952
  10 S :   -0.121692
  11 P :    0.582644
  12 S :   -0.287246
  13 O :   -0.380645
  14 C :   -0.013985
  15 C :   -0.307487
  16 O :   -0.339476
  17 C :   -0.008055
  18 C :   -0.283226
  19 H :    0.105703
  20 H :    0.137778
  21 H :    0.125654
  22 H :    0.102236
  23 H :    0.105874
  24 H :    0.099289
  25 H :    0.103957
  26 H :    0.107801
  27 H :    0.110046
  28 H :    0.129360
  29 H :    0.208929
  30 H :    0.180490
  31 H :    0.108158
  32 H :    0.113473
  33 H :    0.126893
  34 H :    0.109777
  35 H :    0.128412
  36 H :    0.107124
  37 H :    0.095113
  38 H :    0.115937
  39 H :    0.106772
  40 H :    0.118100
Sum of atomic charges:   -0.0000000

LOEWDIN ATOMIC CHARGES
----------------------
   0 C :   -0.369742
   1 C :   -0.106970
   2 O :   -0.228056
   3 P :    0.571355
   4 S :   -0.303763
   5 O :   -0.252444
   6 C :   -0.117065
   7 C :   -0.361854
   8 S :    0.073125
   9 C :   -0.479931
  10 S :    0.060669
  11 P :    0.559794
  12 S :   -0.292394
  13 O :   -0.248112
  14 C :   -0.115482
  15 C :   -0.369603
  16 O :   -0.226067
  17 C :   -0.118271
  18 C :   -0.358280
  19 H :    0.127096
  20 H :    0.132660
  21 H :    0.119737
  22 H :    0.109367
  23 H :    0.120965
  24 H :    0.107852
  25 H :    0.116769
  26 H :    0.128979
  27 H :    0.123331
  28 H :    0.125332
  29 H :    0.125944
  30 H :    0.136532
  31 H :    0.120482
  32 H :    0.107382
  33 H :    0.130642
  34 H :    0.129327
  35 H :    0.122514
  36 H :    0.117593
  37 H :    0.100603
  38 H :    0.126789
  39 H :    0.127919
  40 H :    0.125275

  Mayer bond orders larger than 0.100000
B(  0-C ,  1-C ) :   1.1670 B(  0-C , 19-H ) :   0.9354 B(  0-C , 20-H ) :   0.9402
B(  0-C , 21-H ) :   0.9350 B(  1-C ,  2-O ) :   0.9060 B(  1-C , 22-H ) :   0.9317
B(  1-C , 23-H ) :   0.9322 B(  2-O ,  3-P ) :   1.1496 B(  3-P ,  4-S ) :   1.5991
B(  3-P ,  5-O ) :   1.0790 B(  3-P ,  8-S ) :   0.9613 B(  4-S ,  8-S ) :   0.1227
B(  5-O ,  6-C ) :   0.9031 B(  6-C ,  7-C ) :   1.1680 B(  6-C , 24-H ) :   0.9112
B(  6-C , 25-H ) :   0.9352 B(  7-C , 26-H ) :   0.9402 B(  7-C , 27-H ) :   0.9476
B(  7-C , 28-H ) :   0.9331 B(  8-S ,  9-C ) :   0.9976 B(  9-C , 10-S ) :   1.0011
B(  9-C , 29-H ) :   0.8430 B(  9-C , 30-H ) :   0.9120 B( 10-S , 11-P ) :   0.9331
B( 10-S , 12-S ) :   0.1074 B( 11-P , 12-S ) :   1.6726 B( 11-P , 13-O ) :   1.0719
B( 11-P , 16-O ) :   1.1398 B( 13-O , 14-C ) :   0.9150 B( 14-C , 15-C ) :   1.1672
B( 14-C , 31-H ) :   0.9333 B( 14-C , 32-H ) :   0.9260 B( 15-C , 33-H ) :   0.9427
B( 15-C , 34-H ) :   0.9345 B( 15-C , 35-H ) :   0.9316 B( 16-O , 17-C ) :   0.8936
B( 17-C , 18-C ) :   1.1628 B( 17-C , 36-H ) :   0.9321 B( 17-C , 37-H ) :   0.9111
B( 18-C , 38-H ) :   0.9478 B( 18-C , 39-H ) :   0.9409 B( 18-C , 40-H ) :   0.9433

Dispersion correction           -0.067660983
FINAL SINGLE POINT ENERGY     -2929.513525575784

DIPOLE MOMENT
-------------

Method             : SCF
Type of density    : Electron Density
Multiplicity       :   1
Irrep              :   0
Energy             : -2929.6312355019758797 Eh
Relativity type    :
Basis              : AO
                                X                 Y                 Z
Electronic contribution:     -2.713972013       1.599006687       9.704942401
Nuclear contribution   :      2.068490352      -2.794449093      -9.852326774
                        -----------------------------------------
Total Dipole Moment    :     -0.645481660      -1.195442406      -0.147384373
                        -----------------------------------------
Magnitude (a.u.)       :      1.366547209
Magnitude (Debye)      :      3.473486962

Rotational constants in cm-1:             0.013297             0.005093             0.005050
Rotational constants in MHz :           398.641424           152.672473           151.406202

                             ****ORCA TERMINATED NORMALLY****
TOTAL RUN TIME: 0 days 0 hours 0 minutes 21 seconds 528 msec
