                         Program Version 6.0.0  -   RELEASE  -
|  1> ! r2scan-3c def2/J RI DEFGRID2 scfconv6 printgap
|  2> %output
|  3>     printlevel normal
|  4> end
|  5> * xyz 0 1
|  6> C 5.7535584108 0.7907883154 -0.9064672146
|  7> C 4.3467656788 0.3398154759 -1.2427392718
|  8> O 3.5953214129 0.2888334936 -0.0122260409
|  9> P 2.0149755057 0.1530541229 -0.0159385183
| 10> S 1.047658961 1.5081696902 -1.0514543759
| 11> O 1.6553346865 0.2102175821 1.5149359983
| 12> C 2.2591576153 -0.6602127687 2.5104838629
| 13> C 3.3921758391 0.0509013712 3.2195845593
| 14> S 1.7405258485 -1.8632379987 -0.6421029629
| 15> C -0.0246247786 -1.7778963919 -1.0117209646
| 16> S -1.0156725379 -1.282168593 0.4315272275
| 17> P -2.2093188002 0.2718205306 -0.4100975184
| 18> S -2.1707479329 0.404892792 -2.3620659511
| 19> O -1.8942171596 1.6280994357 0.3153811126
| 20> C -1.4690215581 1.8137081844 1.6869057556
| 21> C -2.3606931684 1.1084405339 2.6847118095
| 22> O -3.6532373864 -0.0638995921 0.1690674927
| 23> C -4.4256230265 -1.170047279 -0.3345198928
| 24> C -5.8754194152 -0.9375689363 0.0404002753
| 25> H 6.3396703407 0.8356423685 -1.8184000488
| 26> H 5.7305406569 1.7750642014 -0.4472627911
| 27> H 6.2141687635 0.0887313263 -0.2177182259
| 28> H 4.3418576324 -0.6587019428 -1.6880326889
| 29> H 3.8503925732 1.038286388 -1.9243484105
| 30> H 1.4418176665 -0.8991071264 3.1930520367
| 31> H 2.6068260272 -1.5718600651 2.0175383356
| 32> H 4.1848531498 0.2900691059 2.5159208782
| 33> H 3.0331177878 0.9726297972 3.6688069331
| 34> H 3.7849504531 -0.5975360347 3.9964007511
| 35> H -0.3179844957 -2.7817935604 -1.3084863135
| 36> H -0.2095139072 -1.059499564 -1.816017179
| 37> H -0.4325868947 1.4718168908 1.7651605503
| 38> H -1.5010664517 2.8978497779 1.8071990483
| 39> H -2.2920070901 0.0289824679 2.5572950326
| 40> H -2.0390230571 1.3678068327 3.6886692914
| 41> H -3.3938596314 1.4153511144 2.5445640237
| 42> H -4.2958289614 -1.2208091647 -1.4211417526
| 43> H -4.0381876716 -2.087395855 0.1173452796
| 44> H -6.4744777697 -1.7647534623 -0.3256749761
| 45> H -5.9745568617 -0.8696024419 1.119664125
| 46> H -6.2305887827 -0.0126428529 -0.4053921666
| 47> *
| 48>
| 49>                          ****END OF INPUT****

CARTESIAN COORDINATES (ANGSTROEM)
---------------------------------
  C      5.753558    0.790788   -0.906467
  C      4.346766    0.339815   -1.242739
  O      3.595321    0.288833   -0.012226
  P      2.014976    0.153054   -0.015939
  S      1.047659    1.508170   -1.051454
  O      1.655335    0.210218    1.514936
  C      2.259158   -0.660213    2.510484
  C      3.392176    0.050901    3.219585
  S      1.740526   -1.863238   -0.642103
  C     -0.024625   -1.777896   -1.011721
  S     -1.015673   -1.282169    0.431527
  P     -2.209319    0.271821   -0.410098
  S     -2.170748    0.404893   -2.362066
  O     -1.894217    1.628099    0.315381
  C     -1.469022    1.813708    1.686906
  C     -2.360693    1.108441    2.684712
  O     -3.653237   -0.063900    0.169067
  C     -4.425623   -1.170047   -0.334520
  C     -5.875419   -0.937569    0.040400
  H      6.339670    0.835642   -1.818400
  H      5.730541    1.775064   -0.447263
  H      6.214169    0.088731   -0.217718
  H      4.341858   -0.658702   -1.688033
  H      3.850393    1.038286   -1.924348
  H      1.441818   -0.899107    3.193052
  H      2.606826   -1.571860    2.017538
  H      4.184853    0.290069    2.515921
  H      3.033118    0.972630    3.668807
  H      3.784950   -0.597536    3.996401
  H     -0.317984   -2.781794   -1.308486
  H     -0.209514   -1.059500   -1.816017
  H     -0.432587    1.471817    1.765161
  H     -1.501066    2.897850    1.807199
  H     -2.292007    0.028982    2.557295
  H     -2.039023    1.367807    3.688669
  H     -3.393860    1.415351    2.544564
  H     -4.295829   -1.220809   -1.421142
  H     -4.038188   -2.087396    0.117345
  H     -6.474478   -1.764753   -0.325675
  H     -5.974557   -0.869602    1.119664
  H     -6.230589   -0.012643   -0.405392

 Total Charge           Charge          ....    0
 Multiplicity           Mult            ....    1
 Number of Electrons    NEL             ....  202
 Basis Dimension        Dim             ....  539

ORBITAL ENERGIES
----------------

  NO   OCC          E(Eh)            E(eV)
   0   2.0000     -88.576655     -2410.2933
   1   2.0000     -88.572074     -2410.1687
   2   2.0000     -88.513378     -2408.5715
   3   2.0000     -88.507893     -2408.4222
   4   2.0000     -76.912711     -2092.9013
   5   2.0000     -76.906140     -2092.7225
   6   2.0000     -18.995525      -516.8945
   7   2.0000     -18.995289      -516.8881
   8   2.0000     -18.981926      -516.5245
   9   2.0000     -18.981560      -516.5145
  10   2.0000     -10.106420      -275.0097
  11   2.0000     -10.103105      -274.9195
  12   2.0000     -10.101601      -274.8785
  13   2.0000     -10.092916      -274.6422
  14   2.0000     -10.090488      -274.5761
  15   2.0000     -10.036353      -273.1031
  16   2.0000     -10.035622      -273.0832
  17   2.0000     -10.029505      -272.9167
  18   2.0000     -10.027712      -272.8679
  19   2.0000      -7.871086      -214.1831
  20   2.0000      -7.866464      -214.0574
  21   2.0000      -7.807806      -212.4612
  22   2.0000      -7.802791      -212.3247
  23   2.0000      -6.591203      -179.3558
  24   2.0000      -6.584385      -179.1702
  25   2.0000      -5.817934      -158.3140
  26   2.0000      -5.814725      -158.2267
  27   2.0000      -5.813269      -158.1871
  28   2.0000      -5.810258      -158.1052
  29   2.0000      -5.808439      -158.0557
  30   2.0000      -5.803696      -157.9266
  31   2.0000      -5.755698      -156.6205
  32   2.0000      -5.750543      -156.4802
  33   2.0000      -5.747989      -156.4107
  34   2.0000      -5.747740      -156.4040
  35   2.0000      -5.743199      -156.2804
  36   2.0000      -5.742530      -156.2622
  37   2.0000      -4.737021      -128.9009
  38   2.0000      -4.736346      -128.8825
  39   2.0000      -4.734408      -128.8298
  40   2.0000      -4.730033      -128.7107
  41   2.0000      -4.729463      -128.6952
  42   2.0000      -4.727876      -128.6520
  43   2.0000      -1.054834       -28.7035
  44   2.0000      -1.041369       -28.3371
  45   2.0000      -1.014353       -27.6019
  46   2.0000      -1.000942       -27.2370
  47   2.0000      -0.798208       -21.7203
  48   2.0000      -0.759698       -20.6724
  49   2.0000      -0.749727       -20.4011
  50   2.0000      -0.740510       -20.1503
  51   2.0000      -0.730468       -19.8770
  52   2.0000      -0.708468       -19.2784
  53   2.0000      -0.680725       -18.5235
  54   2.0000      -0.661507       -18.0005
  55   2.0000      -0.622965       -16.9517
  56   2.0000      -0.620049       -16.8724
  57   2.0000      -0.607630       -16.5345
  58   2.0000      -0.598068       -16.2743
  59   2.0000      -0.594175       -16.1683
  60   2.0000      -0.536467       -14.5980
  61   2.0000      -0.520062       -14.1516
  62   2.0000      -0.504451       -13.7268
  63   2.0000      -0.487182       -13.2569
  64   2.0000      -0.467536       -12.7223
  65   2.0000      -0.465816       -12.6755
  66   2.0000      -0.462388       -12.5822
  67   2.0000      -0.450575       -12.2608
  68   2.0000      -0.446401       -12.1472
  69   2.0000      -0.436800       -11.8859
  70   2.0000      -0.423871       -11.5341
  71   2.0000      -0.417412       -11.3583
  72   2.0000      -0.410022       -11.1573
  73   2.0000      -0.401365       -10.9217
  74   2.0000      -0.392073       -10.6689
  75   2.0000      -0.380640       -10.3577
  76   2.0000      -0.376561       -10.2467
  77   2.0000      -0.374268       -10.1844
  78   2.0000      -0.371749       -10.1158
  79   2.0000      -0.368491       -10.0272
  80   2.0000      -0.364147        -9.9089
  81   2.0000      -0.361842        -9.8462
  82   2.0000      -0.360546        -9.8110
  83   2.0000      -0.353522        -9.6198
  84   2.0000      -0.345742        -9.4081
  85   2.0000      -0.333303        -9.0696
  86   2.0000      -0.318826        -8.6757
  87   2.0000      -0.317271        -8.6334
  88   2.0000      -0.312375        -8.5002
  89   2.0000      -0.307218        -8.3598
  90   2.0000      -0.297671        -8.1000
  91   2.0000      -0.293223        -7.9790
  92   2.0000      -0.281833        -7.6691
  93   2.0000      -0.276579        -7.5261
  94   2.0000      -0.266921        -7.2633
  95   2.0000      -0.248724        -6.7681
  96   2.0000      -0.231729        -6.3057
  97   2.0000      -0.220160        -5.9908
  98   2.0000      -0.210869        -5.7380
  99   2.0000      -0.204721        -5.5707
 100   2.0000      -0.193941        -5.2774
 101   0.0000      -0.043581        -1.1859
 102   0.0000      -0.031523        -0.8578
 103   0.0000      -0.004230        -0.1151
 104   0.0000       0.013352         0.3633
 105   0.0000       0.020535         0.5588

MULLIKEN ATOMIC CHARGES
-----------------------
   0 C :   -0.441630
   1 C :   -0.153436
   2 O :   -0.290351
   3 P :    0.650315
   4 S :   -0.386356
   5 O :   -0.269922
   6 C :   -0.111624
   7 C :   -0.455936
   8 S :   -0.182420
   9 C :   -0.230375
  10 S :   -0.202803
  11 P :    0.693270
  12 S :   -0.459111
  13 O :   -0.269571
  14 C :   -0.169640
  15 C :   -0.443259
  16 O :   -0.248863
  17 C :   -0.158058
  18 C :   -0.444669
  19 H :    0.148781
  20 H :    0.159869
  21 H :    0.150174
  22 H :    0.150640
  23 H :    0.173622
  24 H :    0.157754
  25 H :    0.161983
  26 H :    0.167839
  27 H :    0.154566
  28 H :    0.147197
  29 H :    0.189162
  30 H :    0.227627
  31 H :    0.190120
  32 H :    0.152607
  33 H :    0.155086
  34 H :    0.149015
  35 H :    0.163898
  36 H :    0.170858
  37 H :    0.149651
  38 H :    0.144526
  39 H :    0.149129
  40 H :    0.160333
Sum of atomic charges:    0.0000000

LOEWDIN ATOMIC CHARGES
----------------------
   0 C :   -0.386111
   1 C :    0.020523
   2 O :   -0.677545
   3 P :    0.370051
   4 S :   -0.049159
   5 O :   -0.677319
   6 C :    0.019659
   7 C :   -0.392413
   8 S :    0.116398
   9 C :   -0.418365
  10 S :    0.131631
  11 P :    0.378752
  12 S :   -0.109120
  13 O :   -0.649754
  14 C :    0.022500
  15 C :   -0.401327
  16 O :   -0.678815
  17 C :    0.013205
  18 C :   -0.386914
  19 H :    0.161131
  20 H :    0.162145
  21 H :    0.157916
  22 H :    0.172141
  23 H :    0.182520
  24 H :    0.180217
  25 H :    0.177528
  26 H :    0.167002
  27 H :    0.160608
  28 H :    0.158962
  29 H :    0.178952
  30 H :    0.202433
  31 H :    0.193621
  32 H :    0.183963
  33 H :    0.161395
  34 H :    0.159214
  35 H :    0.165106
  36 H :    0.180948
  37 H :    0.170072
  38 H :    0.158705
  39 H :    0.157439
  40 H :    0.162103

  Mayer bond orders larger than 0.100000
B(  0-C ,  1-C ) :   0.9547 B(  0-C , 19-H ) :   0.9630 B(  0-C , 20-H ) :   0.9713
B(  0-C , 21-H ) :   0.9722 B(  1-C ,  2-O ) :   0.7889 B(  1-C , 22-H ) :   0.9419
B(  1-C , 23-H ) :   0.9489 B(  2-O ,  3-P ) :   1.0590 B(  3-P ,  4-S ) :   1.8695
B(  3-P ,  5-O ) :   1.1236 B(  3-P ,  8-S ) :   0.9820 B(  5-O ,  6-C ) :   0.7400
B(  6-C ,  7-C ) :   0.9403 B(  6-C , 24-H ) :   0.9618 B(  6-C , 25-H ) :   0.9640
B(  7-C , 26-H ) :   0.9663 B(  7-C , 27-H ) :   0.9709 B(  7-C , 28-H ) :   0.9661
B(  8-S ,  9-C ) :   0.9271 B(  9-C , 10-S ) :   0.8996 B(  9-C , 29-H ) :   0.9168
B(  9-C , 30-H ) :   0.9025 B( 10-S , 11-P ) :   0.9612 B( 11-P , 12-S ) :   1.7979
B( 11-P , 13-O ) :   1.2273 B( 11-P , 16-O ) :   1.0593 B( 13-O , 14-C ) :   0.7997
B( 14-C , 15-C ) :   0.9035 B( 14-C , 31-H ) :   0.9562 B( 14-C , 32-H ) :   0.9587
B( 15-C , 33-H ) :   0.9628 B( 15-C , 34-H ) :   0.9589 B( 15-C , 35-H ) :   0.9681
B( 16-O , 17-C ) :   0.7781 B( 17-C , 18-C ) :   0.9553 B( 17-C , 36-H ) :   0.9494
B( 17-C , 37-H ) :   0.9437 B( 18-C , 38-H ) :   0.9655 B( 18-C , 39-H ) :   0.9728
B( 18-C , 40-H ) :   0.9723

Dispersion correction           -0.021535984
FINAL SINGLE POINT ENERGY     -2932.455807998922

DIPOLE MOMENT
-------------

Method             : SCF
Type of density    : Electron Density
Multiplicity       :   1
Irrep              :   0
Energy             : -2932.4808078255050532 Eh
Relativity type    :
Basis              : AO
                                X                 Y                 Z
Electronic contribution:     -3.339117523       0.426901398     -15.317731960
Nuclear contribution   :      4.241668303      -1.571928689      17.044785144
                        -----------------------------------------
Total Dipole Moment    :      0.902550780      -1.145027291       1.727053184
                        -----------------------------------------
Magnitude (a.u.)       :      2.260176566
Magnitude (Debye)      :      5.744912275

Rotational constants in cm-1:             0.014021             0.004785             0.004432
Rotational constants in MHz :           420.346365           143.452214           132.882960

                             ****ORCA TERMINATED NORMALLY****
TOTAL RUN TIME: 0 days 0 hours 1 minutes 19 seconds 417 msec
