                         Program Version 6.0.0  -   RELEASE  -
|  1> ! r2scan-3c def2/J RI DEFGRID2 scfconv6 printgap
|  2> %output
|  3>     printlevel normal
|  4> end
|  5> %cpcm
|  6>     smd true
|  7>     smdsolvent "water"
|  8> end
|  9> * xyz 0 1
| 10> C 5.7535584108 0.7907883154 -0.9064672146
| 11> C 4.3467656788 0.3398154759 -1.2427392718
| 12> O 3.5953214129 0.2888334936 -0.0122260409
| 13> P 2.0149755057 0.1530541229 -0.0159385183
| 14> S 1.047658961 1.5081696902 -1.0514543759
| 15> O 1.6553346865 0.2102175821 1.5149359983
| 16> C 2.2591576153 -0.6602127687 2.5104838629
| 17> C 3.3921758391 0.0509013712 3.2195845593
| 18> S 1.7405258485 -1.8632379987 -0.6421029629
| 19> C -0.0246247786 -1.7778963919 -1.0117209646
| 20> S -1.0156725379 -1.282168593 0.4315272275
| 21> P -2.2093188002 0.2718205306 -0.4100975184
| 22> S -2.1707479329 0.404892792 -2.3620659511
| 23> O -1.8942171596 1.6280994357 0.3153811126
| 24> C -1.4690215581 1.8137081844 1.6869057556
| 25> C -2.3606931684 1.1084405339 2.6847118095
| 26> O -3.6532373864 -0.0638995921 0.1690674927
| 27> C -4.4256230265 -1.170047279 -0.3345198928
| 28> C -5.8754194152 -0.9375689363 0.0404002753
| 29> H 6.3396703407 0.8356423685 -1.8184000488
| 30> H 5.7305406569 1.7750642014 -0.4472627911
| 31> H 6.2141687635 0.0887313263 -0.2177182259
| 32> H 4.3418576324 -0.6587019428 -1.6880326889
| 33> H 3.8503925732 1.038286388 -1.9243484105
| 34> H 1.4418176665 -0.8991071264 3.1930520367
| 35> H 2.6068260272 -1.5718600651 2.0175383356
| 36> H 4.1848531498 0.2900691059 2.5159208782
| 37> H 3.0331177878 0.9726297972 3.6688069331
| 38> H 3.7849504531 -0.5975360347 3.9964007511
| 39> H -0.3179844957 -2.7817935604 -1.3084863135
| 40> H -0.2095139072 -1.059499564 -1.816017179
| 41> H -0.4325868947 1.4718168908 1.7651605503
| 42> H -1.5010664517 2.8978497779 1.8071990483
| 43> H -2.2920070901 0.0289824679 2.5572950326
| 44> H -2.0390230571 1.3678068327 3.6886692914
| 45> H -3.3938596314 1.4153511144 2.5445640237
| 46> H -4.2958289614 -1.2208091647 -1.4211417526
| 47> H -4.0381876716 -2.087395855 0.1173452796
| 48> H -6.4744777697 -1.7647534623 -0.3256749761
| 49> H -5.9745568617 -0.8696024419 1.119664125
| 50> H -6.2305887827 -0.0126428529 -0.4053921666
| 51> *
| 52>
| 53>                          ****END OF INPUT****

CARTESIAN COORDINATES (ANGSTROEM)
---------------------------------
  C      5.753558    0.790788   -0.906467
  C      4.346766    0.339815   -1.242739
  O      3.595321    0.288833   -0.012226
  P      2.014976    0.153054   -0.015939
  S      1.047659    1.508170   -1.051454
  O      1.655335    0.210218    1.514936
  C      2.259158   -0.660213    2.510484
  C      3.392176    0.050901    3.219585
  S      1.740526   -1.863238   -0.642103
  C     -0.024625   -1.777896   -1.011721
  S     -1.015673   -1.282169    0.431527
  P     -2.209319    0.271821   -0.410098
  S     -2.170748    0.404893   -2.362066
  O     -1.894217    1.628099    0.315381
  C     -1.469022    1.813708    1.686906
  C     -2.360693    1.108441    2.684712
  O     -3.653237   -0.063900    0.169067
  C     -4.425623   -1.170047   -0.334520
  C     -5.875419   -0.937569    0.040400
  H      6.339670    0.835642   -1.818400
  H      5.730541    1.775064   -0.447263
  H      6.214169    0.088731   -0.217718
  H      4.341858   -0.658702   -1.688033
  H      3.850393    1.038286   -1.924348
  H      1.441818   -0.899107    3.193052
  H      2.606826   -1.571860    2.017538
  H      4.184853    0.290069    2.515921
  H      3.033118    0.972630    3.668807
  H      3.784950   -0.597536    3.996401
  H     -0.317984   -2.781794   -1.308486
  H     -0.209514   -1.059500   -1.816017
  H     -0.432587    1.471817    1.765161
  H     -1.501066    2.897850    1.807199
  H     -2.292007    0.028982    2.557295
  H     -2.039023    1.367807    3.688669
  H     -3.393860    1.415351    2.544564
  H     -4.295829   -1.220809   -1.421142
  H     -4.038188   -2.087396    0.117345
  H     -6.474478   -1.764753   -0.325675
  H     -5.974557   -0.869602    1.119664
  H     -6.230589   -0.012643   -0.405392

 Total Charge           Charge          ....    0
 Multiplicity           Mult            ....    1
 Number of Electrons    NEL             ....  202
 Basis Dimension        Dim             ....  539

ORBITAL ENERGIES
----------------

  NO   OCC          E(Eh)            E(eV)
   0   2.0000     -88.579737     -2410.3772
   1   2.0000     -88.577887     -2410.3268
   2   2.0000     -88.523474     -2408.8462
   3   2.0000     -88.523468     -2408.8460
   4   2.0000     -76.918020     -2093.0457
   5   2.0000     -76.917944     -2093.0437
   6   2.0000     -18.995371      -516.8903
   7   2.0000     -18.994724      -516.8727
   8   2.0000     -18.992236      -516.8050
   9   2.0000     -18.989713      -516.7364
  10   2.0000     -10.102952      -274.9153
  11   2.0000     -10.092468      -274.6300
  12   2.0000     -10.091074      -274.5921
  13   2.0000     -10.090803      -274.5847
  14   2.0000     -10.087148      -274.4852
  15   2.0000     -10.021249      -272.6920
  16   2.0000     -10.019840      -272.6537
  17   2.0000     -10.018667      -272.6218
  18   2.0000     -10.018642      -272.6211
  19   2.0000      -7.873988      -214.2621
  20   2.0000      -7.872059      -214.2096
  21   2.0000      -7.818905      -212.7632
  22   2.0000      -7.818559      -212.7538
  23   2.0000      -6.596484      -179.4995
  24   2.0000      -6.596240      -179.4928
  25   2.0000      -5.820866      -158.3938
  26   2.0000      -5.818913      -158.3407
  27   2.0000      -5.817665      -158.3067
  28   2.0000      -5.815903      -158.2588
  29   2.0000      -5.811311      -158.1338
  30   2.0000      -5.809234      -158.0773
  31   2.0000      -5.766507      -156.9146
  32   2.0000      -5.766285      -156.9086
  33   2.0000      -5.759349      -156.7198
  34   2.0000      -5.758704      -156.7023
  35   2.0000      -5.758647      -156.7007
  36   2.0000      -5.758563      -156.6985
  37   2.0000      -4.742225      -129.0425
  38   2.0000      -4.741854      -129.0324
  39   2.0000      -4.741603      -129.0256
  40   2.0000      -4.741235      -129.0156
  41   2.0000      -4.739884      -128.9788
  42   2.0000      -4.739870      -128.9784
  43   2.0000      -1.054311       -28.6892
  44   2.0000      -1.050644       -28.5895
  45   2.0000      -1.013008       -27.5654
  46   2.0000      -1.009427       -27.4679
  47   2.0000      -0.800540       -21.7838
  48   2.0000      -0.755540       -20.5593
  49   2.0000      -0.747097       -20.3296
  50   2.0000      -0.727654       -19.8005
  51   2.0000      -0.726147       -19.7595
  52   2.0000      -0.709590       -19.3089
  53   2.0000      -0.685682       -18.6583
  54   2.0000      -0.669711       -18.2238
  55   2.0000      -0.625958       -17.0332
  56   2.0000      -0.615253       -16.7419
  57   2.0000      -0.600626       -16.3439
  58   2.0000      -0.594087       -16.1659
  59   2.0000      -0.591405       -16.0930
  60   2.0000      -0.532827       -14.4990
  61   2.0000      -0.521343       -14.1865
  62   2.0000      -0.497656       -13.5419
  63   2.0000      -0.490022       -13.3342
  64   2.0000      -0.469110       -12.7651
  65   2.0000      -0.461523       -12.5587
  66   2.0000      -0.457948       -12.4614
  67   2.0000      -0.445563       -12.1244
  68   2.0000      -0.444454       -12.0942
  69   2.0000      -0.437610       -11.9080
  70   2.0000      -0.421115       -11.4591
  71   2.0000      -0.415824       -11.3152
  72   2.0000      -0.402640       -10.9564
  73   2.0000      -0.395074       -10.7505
  74   2.0000      -0.390334       -10.6215
  75   2.0000      -0.379696       -10.3320
  76   2.0000      -0.377209       -10.2644
  77   2.0000      -0.369094       -10.0436
  78   2.0000      -0.363733        -9.8977
  79   2.0000      -0.359694        -9.7878
  80   2.0000      -0.357486        -9.7277
  81   2.0000      -0.354169        -9.6374
  82   2.0000      -0.351018        -9.5517
  83   2.0000      -0.347679        -9.4608
  84   2.0000      -0.343569        -9.3490
  85   2.0000      -0.326281        -8.8786
  86   2.0000      -0.318171        -8.6579
  87   2.0000      -0.314178        -8.5492
  88   2.0000      -0.310553        -8.4506
  89   2.0000      -0.303067        -8.2469
  90   2.0000      -0.301928        -8.2159
  91   2.0000      -0.289686        -7.8828
  92   2.0000      -0.286526        -7.7968
  93   2.0000      -0.277288        -7.5454
  94   2.0000      -0.272255        -7.4084
  95   2.0000      -0.252115        -6.8604
  96   2.0000      -0.241062        -6.5596
  97   2.0000      -0.234108        -6.3704
  98   2.0000      -0.222291        -6.0489
  99   2.0000      -0.217955        -5.9309
 100   2.0000      -0.208431        -5.6717
 101   0.0000      -0.047297        -1.2870
 102   0.0000      -0.040112        -1.0915
 103   0.0000      -0.009312        -0.2534
 104   0.0000       0.011273         0.3067
 105   0.0000       0.016888         0.4595

MULLIKEN ATOMIC CHARGES
-----------------------
   0 C :   -0.480615
   1 C :   -0.145415
   2 O :   -0.307783
   3 P :    0.675897
   4 S :   -0.462004
   5 O :   -0.293893
   6 C :   -0.094800
   7 C :   -0.498951
   8 S :   -0.179399
   9 C :   -0.229505
  10 S :   -0.190993
  11 P :    0.701988
  12 S :   -0.522193
  13 O :   -0.300244
  14 C :   -0.162954
  15 C :   -0.474983
  16 O :   -0.275630
  17 C :   -0.145849
  18 C :   -0.483280
  19 H :    0.169703
  20 H :    0.166775
  21 H :    0.166178
  22 H :    0.168996
  23 H :    0.173083
  24 H :    0.180724
  25 H :    0.172718
  26 H :    0.169560
  27 H :    0.167194
  28 H :    0.171205
  29 H :    0.231248
  30 H :    0.218745
  31 H :    0.188614
  32 H :    0.176532
  33 H :    0.160641
  34 H :    0.177469
  35 H :    0.172092
  36 H :    0.170768
  37 H :    0.169281
  38 H :    0.168577
  39 H :    0.164880
  40 H :    0.165622
Sum of atomic charges:    0.0000000

LOEWDIN ATOMIC CHARGES
----------------------
   0 C :   -0.388866
   1 C :    0.024370
   2 O :   -0.682895
   3 P :    0.375304
   4 S :   -0.104005
   5 O :   -0.687124
   6 C :    0.028145
   7 C :   -0.394986
   8 S :    0.126958
   9 C :   -0.413262
  10 S :    0.145701
  11 P :    0.379490
  12 S :   -0.158264
  13 O :   -0.674145
  14 C :    0.026418
  15 C :   -0.399778
  16 O :   -0.691979
  17 C :    0.018546
  18 C :   -0.390090
  19 H :    0.169123
  20 H :    0.163418
  21 H :    0.163191
  22 H :    0.179582
  23 H :    0.181606
  24 H :    0.190099
  25 H :    0.182542
  26 H :    0.165503
  27 H :    0.163436
  28 H :    0.168884
  29 H :    0.195183
  30 H :    0.198728
  31 H :    0.193572
  32 H :    0.193211
  33 H :    0.162041
  34 H :    0.171151
  35 H :    0.166491
  36 H :    0.180954
  37 H :    0.178747
  38 H :    0.168214
  39 H :    0.162366
  40 H :    0.162421

  Mayer bond orders larger than 0.100000
B(  0-C ,  1-C ) :   0.9547 B(  0-C , 19-H ) :   0.9576 B(  0-C , 20-H ) :   0.9691
B(  0-C , 21-H ) :   0.9684 B(  1-C ,  2-O ) :   0.7803 B(  1-C , 22-H ) :   0.9332
B(  1-C , 23-H ) :   0.9467 B(  2-O ,  3-P ) :   1.0716 B(  3-P ,  4-S ) :   1.8177
B(  3-P ,  5-O ) :   1.1397 B(  3-P ,  8-S ) :   1.0021 B(  5-O ,  6-C ) :   0.7293
B(  6-C ,  7-C ) :   0.9317 B(  6-C , 24-H ) :   0.9511 B(  6-C , 25-H ) :   0.9557
B(  7-C , 26-H ) :   0.9665 B(  7-C , 27-H ) :   0.9697 B(  7-C , 28-H ) :   0.9592
B(  8-S ,  9-C ) :   0.9204 B(  9-C , 10-S ) :   0.8897 B(  9-C , 29-H ) :   0.9014
B(  9-C , 30-H ) :   0.9071 B( 10-S , 11-P ) :   0.9930 B( 11-P , 12-S ) :   1.7671
B( 11-P , 13-O ) :   1.2280 B( 11-P , 16-O ) :   1.0634 B( 13-O , 14-C ) :   0.7884
B( 14-C , 15-C ) :   0.9037 B( 14-C , 31-H ) :   0.9483 B( 14-C , 32-H ) :   0.9473
B( 15-C , 33-H ) :   0.9588 B( 15-C , 34-H ) :   0.9500 B( 15-C , 35-H ) :   0.9683
B( 16-O , 17-C ) :   0.7713 B( 17-C , 18-C ) :   0.9520 B( 17-C , 36-H ) :   0.9479
B( 17-C , 37-H ) :   0.9343 B( 18-C , 38-H ) :   0.9592 B( 18-C , 39-H ) :   0.9691
B( 18-C , 40-H ) :   0.9705

Dispersion correction           -0.021535984
FINAL SINGLE POINT ENERGY     -2932.467274603647

DIPOLE MOMENT
-------------

Method             : SCF
Type of density    : Electron Density
Multiplicity       :   1
Irrep              :   0
Energy             : -2932.4922744302302817 Eh
Relativity type    :
Basis              : AO
                                X                 Y                 Z
Electronic contribution:     -3.019852909      -0.464625205     -14.563839704
Nuclear contribution   :      4.241668303      -1.571928689      17.044785144
                        -----------------------------------------
Total Dipole Moment    :      1.221815394      -2.036553894       2.480945440
                        -----------------------------------------
Magnitude (a.u.)       :      3.434454090
Magnitude (Debye)      :      8.729688537

Rotational constants in cm-1:             0.014021             0.004785             0.004432
Rotational constants in MHz :           420.346365           143.452214           132.882960

                             ****ORCA TERMINATED NORMALLY****
TOTAL RUN TIME: 0 days 0 hours 2 minutes 5 seconds 78 msec
