                         Program Version 6.0.0  -   RELEASE  -
|  1> ! pbe def2-sv(p) def2/J RI DEFGRID1 loosescf d4 GCP(DFT/SV(P)) printgap
|  2> %output
|  3>     printlevel normal
|  4> end
|  5> * xyz 0 1
|  6> C 3.1733412544 -1.068615298 -2.4506762544
|  7> C 1.7256650074 -0.698840325 -2.2146748245
|  8> O 1.3953171933 -0.7355546038 -0.8116064392
|  9> P 1.9898940948 0.3120746506 0.2111657757
| 10> S 2.5573276217 2.0683452574 -0.4353849088
| 11> O 3.1614296889 -0.5649927167 0.8473723215
| 12> C 4.1026322028 -0.0018963252 1.7789778763
| 13> C 5.3076297457 -0.9192286261 1.8374363442
| 14> S 0.5293331028 0.3161492183 1.7476708042
| 15> C 0.0961660915 -1.4409450088 1.7414170804
| 16> S -1.0629831864 -1.9491985949 0.4159087001
| 17> P -1.9980656697 -0.1330751857 -0.1058735304
| 18> S -1.0571351229 1.2385945384 -1.1690090428
| 19> O -2.5739108865 0.3113412685 1.2954372671
| 20> C -2.9269927927 1.678084823 1.591043411
| 21> C -4.1645865088 2.1049840292 0.8313170482
| 22> O -3.2938995727 -0.6744362285 -0.8470172198
| 23> C -3.3137987985 -1.0366974585 -2.2412609832
| 24> C -4.7396195442 -0.9085035876 -2.7393646496
| 25> H 3.3653177166 -1.1049048896 -3.5182810775
| 26> H 3.8201531509 -0.3171105016 -1.9989202201
| 27> H 3.389476992 -2.036767881 -2.0069323552
| 28> H 1.0390378385 -1.4208165252 -2.6600759395
| 29> H 1.5041376797 0.3032639524 -2.5967723324
| 30> H 4.3753711259 1.0012051013 1.4336838587
| 31> H 3.6138850319 0.0811408744 2.7542325147
| 32> H 6.0193803815 -0.5243651569 2.5547937514
| 33> H 5.0026340046 -1.9156357141 2.1432136603
| 34> H 5.7794419358 -0.9789355269 0.8609216308
| 35> H -0.3834669004 -1.631945743 2.6985490673
| 36> H 0.9955796943 -2.0407280592 1.6161021497
| 37> H -3.0864031963 1.6784287559 2.6698907763
| 38> H -2.0746102274 2.3199471092 1.3435684757
| 39> H -3.9537748285 2.1120450291 -0.2376326733
| 40> H -4.9798136996 1.4131839088 1.0251297665
| 41> H -4.4523649899 3.1046797286 1.1410536159
| 42> H -2.6371131774 -0.3688084634 -2.7859012399
| 43> H -2.9530959008 -2.0650496922 -2.3272214092
| 44> H -4.7827177748 -1.2197811732 -3.7778787273
| 45> H -5.3953955625 -1.5383271348 -2.1455241079
| 46> H -5.0739195714 0.122162801 -2.6603784535
| 47> *
| 48>
| 49>                          ****END OF INPUT****

CARTESIAN COORDINATES (ANGSTROEM)
---------------------------------
  C      3.173341   -1.068615   -2.450676
  C      1.725665   -0.698840   -2.214675
  O      1.395317   -0.735555   -0.811606
  P      1.989894    0.312075    0.211166
  S      2.557328    2.068345   -0.435385
  O      3.161430   -0.564993    0.847372
  C      4.102632   -0.001896    1.778978
  C      5.307630   -0.919229    1.837436
  S      0.529333    0.316149    1.747671
  C      0.096166   -1.440945    1.741417
  S     -1.062983   -1.949199    0.415909
  P     -1.998066   -0.133075   -0.105874
  S     -1.057135    1.238595   -1.169009
  O     -2.573911    0.311341    1.295437
  C     -2.926993    1.678085    1.591043
  C     -4.164587    2.104984    0.831317
  O     -3.293900   -0.674436   -0.847017
  C     -3.313799   -1.036697   -2.241261
  C     -4.739620   -0.908504   -2.739365
  H      3.365318   -1.104905   -3.518281
  H      3.820153   -0.317111   -1.998920
  H      3.389477   -2.036768   -2.006932
  H      1.039038   -1.420817   -2.660076
  H      1.504138    0.303264   -2.596772
  H      4.375371    1.001205    1.433684
  H      3.613885    0.081141    2.754233
  H      6.019380   -0.524365    2.554794
  H      5.002634   -1.915636    2.143214
  H      5.779442   -0.978936    0.860922
  H     -0.383467   -1.631946    2.698549
  H      0.995580   -2.040728    1.616102
  H     -3.086403    1.678429    2.669891
  H     -2.074610    2.319947    1.343568
  H     -3.953775    2.112045   -0.237633
  H     -4.979814    1.413184    1.025130
  H     -4.452365    3.104680    1.141054
  H     -2.637113   -0.368808   -2.785901
  H     -2.953096   -2.065050   -2.327221
  H     -4.782718   -1.219781   -3.777879
  H     -5.395396   -1.538327   -2.145524
  H     -5.073920    0.122163   -2.660378

 Total Charge           Charge          ....    0
 Multiplicity           Mult            ....    1
 Number of Electrons    NEL             ....  202
 Basis Dimension        Dim             ....  334

ORBITAL ENERGIES
----------------

  NO   OCC          E(Eh)            E(eV)
   0   2.0000     -88.044016     -2395.7995
   1   2.0000     -88.034777     -2395.5481
   2   2.0000     -87.982998     -2394.1391
   3   2.0000     -87.978677     -2394.0215
   4   2.0000     -76.423033     -2079.5764
   5   2.0000     -76.422763     -2079.5691
   6   2.0000     -18.789561      -511.2900
   7   2.0000     -18.787876      -511.2441
   8   2.0000     -18.787680      -511.2388
   9   2.0000     -18.786151      -511.1971
  10   2.0000      -9.959823      -271.0206
  11   2.0000      -9.950498      -270.7668
  12   2.0000      -9.948761      -270.7195
  13   2.0000      -9.948193      -270.7041
  14   2.0000      -9.945230      -270.6235
  15   2.0000      -9.887176      -269.0437
  16   2.0000      -9.886539      -269.0264
  17   2.0000      -9.880220      -268.8545
  18   2.0000      -9.878681      -268.8126
  19   2.0000      -7.688618      -209.2179
  20   2.0000      -7.680323      -208.9922
  21   2.0000      -7.628176      -207.5732
  22   2.0000      -7.623177      -207.4372
  23   2.0000      -6.420187      -174.7022
  24   2.0000      -6.420077      -174.6992
  25   2.0000      -5.716878      -155.5642
  26   2.0000      -5.712905      -155.4560
  27   2.0000      -5.708509      -155.3364
  28   2.0000      -5.705425      -155.2525
  29   2.0000      -5.704885      -155.2378
  30   2.0000      -5.696849      -155.0191
  31   2.0000      -5.657211      -153.9405
  32   2.0000      -5.652127      -153.8022
  33   2.0000      -5.648876      -153.7137
  34   2.0000      -5.648148      -153.6939
  35   2.0000      -5.643727      -153.5736
  36   2.0000      -5.643443      -153.5659
  37   2.0000      -4.642690      -126.3340
  38   2.0000      -4.642470      -126.3280
  39   2.0000      -4.642176      -126.3200
  40   2.0000      -4.641967      -126.3143
  41   2.0000      -4.640720      -126.2804
  42   2.0000      -4.640451      -126.2731
  43   2.0000      -0.984110       -26.7790
  44   2.0000      -0.983271       -26.7562
  45   2.0000      -0.943684       -25.6789
  46   2.0000      -0.940991       -25.6057
  47   2.0000      -0.761528       -20.7222
  48   2.0000      -0.719260       -19.5721
  49   2.0000      -0.706874       -19.2350
  50   2.0000      -0.686008       -18.6672
  51   2.0000      -0.683964       -18.6116
  52   2.0000      -0.668563       -18.1925
  53   2.0000      -0.649421       -17.6716
  54   2.0000      -0.633885       -17.2489
  55   2.0000      -0.595503       -16.2045
  56   2.0000      -0.590706       -16.0739
  57   2.0000      -0.568185       -15.4611
  58   2.0000      -0.563419       -15.3314
  59   2.0000      -0.560095       -15.2410
  60   2.0000      -0.503195       -13.6926
  61   2.0000      -0.498425       -13.5628
  62   2.0000      -0.476276       -12.9601
  63   2.0000      -0.471024       -12.8172
  64   2.0000      -0.454868       -12.3776
  65   2.0000      -0.441768       -12.0211
  66   2.0000      -0.433339       -11.7918
  67   2.0000      -0.431526       -11.7424
  68   2.0000      -0.425324       -11.5736
  69   2.0000      -0.415544       -11.3075
  70   2.0000      -0.408478       -11.1152
  71   2.0000      -0.396137       -10.7794
  72   2.0000      -0.393782       -10.7153
  73   2.0000      -0.379568       -10.3286
  74   2.0000      -0.374591       -10.1931
  75   2.0000      -0.371878       -10.1193
  76   2.0000      -0.365881        -9.9561
  77   2.0000      -0.356527        -9.7016
  78   2.0000      -0.355372        -9.6702
  79   2.0000      -0.350232        -9.5303
  80   2.0000      -0.346027        -9.4159
  81   2.0000      -0.342968        -9.3326
  82   2.0000      -0.340451        -9.2642
  83   2.0000      -0.338578        -9.2132
  84   2.0000      -0.326419        -8.8823
  85   2.0000      -0.318507        -8.6670
  86   2.0000      -0.312256        -8.4969
  87   2.0000      -0.297897        -8.1062
  88   2.0000      -0.294130        -8.0037
  89   2.0000      -0.285933        -7.7806
  90   2.0000      -0.281332        -7.6554
  91   2.0000      -0.270579        -7.3628
  92   2.0000      -0.270233        -7.3534
  93   2.0000      -0.258109        -7.0235
  94   2.0000      -0.256846        -6.9891
  95   2.0000      -0.231625        -6.3028
  96   2.0000      -0.218558        -5.9473
  97   2.0000      -0.205553        -5.5934
  98   2.0000      -0.198292        -5.3958
  99   2.0000      -0.191654        -5.2152
 100   2.0000      -0.184730        -5.0268
 101   0.0000      -0.048633        -1.3234
 102   0.0000      -0.024333        -0.6621
 103   0.0000      -0.011957        -0.3254
 104   0.0000       0.001437         0.0391
 105   0.0000       0.026001         0.7075

MULLIKEN ATOMIC CHARGES
-----------------------
   0 C :   -0.303625
   1 C :    0.001365
   2 O :   -0.368475
   3 P :    0.623326
   4 S :   -0.307795
   5 O :   -0.380535
   6 C :   -0.010382
   7 C :   -0.279417
   8 S :   -0.094527
   9 C :   -0.311672
  10 S :   -0.111428
  11 P :    0.614836
  12 S :   -0.317798
  13 O :   -0.370578
  14 C :   -0.002483
  15 C :   -0.306640
  16 O :   -0.374186
  17 C :   -0.009510
  18 C :   -0.283676
  19 H :    0.110155
  20 H :    0.122518
  21 H :    0.111718
  22 H :    0.097839
  23 H :    0.120144
  24 H :    0.104984
  25 H :    0.094347
  26 H :    0.111115
  27 H :    0.112281
  28 H :    0.119051
  29 H :    0.185515
  30 H :    0.182502
  31 H :    0.101563
  32 H :    0.118280
  33 H :    0.124888
  34 H :    0.114925
  35 H :    0.111407
  36 H :    0.103126
  37 H :    0.099484
  38 H :    0.110224
  39 H :    0.116884
  40 H :    0.120250
Sum of atomic charges:   -0.0000000

LOEWDIN ATOMIC CHARGES
----------------------
   0 C :   -0.366517
   1 C :   -0.115422
   2 O :   -0.234940
   3 P :    0.573462
   4 S :   -0.307411
   5 O :   -0.254453
   6 C :   -0.124845
   7 C :   -0.350235
   8 S :    0.097938
   9 C :   -0.465811
  10 S :    0.064039
  11 P :    0.561604
  12 S :   -0.308330
  13 O :   -0.241001
  14 C :   -0.117295
  15 C :   -0.364905
  16 O :   -0.248946
  17 C :   -0.121755
  18 C :   -0.350684
  19 H :    0.129720
  20 H :    0.120854
  21 H :    0.124044
  22 H :    0.115929
  23 H :    0.112426
  24 H :    0.106880
  25 H :    0.105860
  26 H :    0.130251
  27 H :    0.124646
  28 H :    0.127747
  29 H :    0.136973
  30 H :    0.132466
  31 H :    0.117343
  32 H :    0.112764
  33 H :    0.122354
  34 H :    0.125512
  35 H :    0.130226
  36 H :    0.105030
  37 H :    0.109597
  38 H :    0.129974
  39 H :    0.126855
  40 H :    0.128054

  Mayer bond orders larger than 0.100000
B(  0-C ,  1-C ) :   1.1623 B(  0-C , 19-H ) :   0.9391 B(  0-C , 20-H ) :   0.9328
B(  0-C , 21-H ) :   0.9451 B(  1-C ,  2-O ) :   0.8921 B(  1-C , 22-H ) :   0.9335
B(  1-C , 23-H ) :   0.9164 B(  2-O ,  3-P ) :   1.1271 B(  3-P ,  4-S ) :   1.6502
B(  3-P ,  5-O ) :   1.0689 B(  3-P ,  8-S ) :   0.9438 B(  5-O ,  6-C ) :   0.9102
B(  6-C ,  7-C ) :   1.1598 B(  6-C , 24-H ) :   0.9076 B(  6-C , 25-H ) :   0.9260
B(  7-C , 26-H ) :   0.9424 B(  7-C , 27-H ) :   0.9513 B(  7-C , 28-H ) :   0.9516
B(  8-S ,  9-C ) :   1.0102 B(  9-C , 10-S ) :   0.9663 B(  9-C , 29-H ) :   0.9105
B(  9-C , 30-H ) :   0.9026 B( 10-S , 11-P ) :   0.9868 B( 10-S , 12-S ) :   0.1161
B( 11-P , 12-S ) :   1.5843 B( 11-P , 13-O ) :   1.1219 B( 11-P , 16-O ) :   1.1011
B( 13-O , 14-C ) :   0.8978 B( 14-C , 15-C ) :   1.1669 B( 14-C , 31-H ) :   0.9348
B( 14-C , 32-H ) :   0.9148 B( 15-C , 33-H ) :   0.9337 B( 15-C , 34-H ) :   0.9461
B( 15-C , 35-H ) :   0.9392 B( 16-O , 17-C ) :   0.9090 B( 17-C , 18-C ) :   1.1613
B( 17-C , 36-H ) :   0.9025 B( 17-C , 37-H ) :   0.9310 B( 18-C , 38-H ) :   0.9419
B( 18-C , 39-H ) :   0.9506 B( 18-C , 40-H ) :   0.9512

Dispersion correction           -0.066553634
FINAL SINGLE POINT ENERGY     -2929.514075695807

DIPOLE MOMENT
-------------

Method             : SCF
Type of density    : Electron Density
Multiplicity       :   1
Irrep              :   0
Energy             : -2929.6314454503753950 Eh
Relativity type    :
Basis              : AO
                                X                 Y                 Z
Electronic contribution:      0.643004790       3.865481781       6.545625569
Nuclear contribution   :     -0.854671763      -4.949331652      -6.177175268
                        -----------------------------------------
Total Dipole Moment    :     -0.211666973      -1.083849871       0.368450301
                        -----------------------------------------
Magnitude (a.u.)       :      1.164168834
Magnitude (Debye)      :      2.959082013

Rotational constants in cm-1:             0.013254             0.005057             0.004743
Rotational constants in MHz :           397.349729           151.610975           142.181004

                             ****ORCA TERMINATED NORMALLY****
TOTAL RUN TIME: 0 days 0 hours 0 minutes 21 seconds 239 msec
