                         Program Version 6.0.0  -   RELEASE  -
|  1> ! pbe def2-sv(p) def2/J RI DEFGRID1 loosescf d4 GCP(DFT/SV(P)) printgap
|  2> %output
|  3>     printlevel normal
|  4> end
|  5> * xyz 0 1
|  6> C 4.7429774219 -1.5103682235 -0.6055295239
|  7> C 4.6935820982 -0.0574661542 -0.1799270344
|  8> O 3.4935953272 0.250872166 0.5501759859
|  9> P 2.0637889792 0.3161094102 -0.1452393901
| 10> S 2.1101993759 1.019912756 -1.980739102
| 11> O 1.2248356255 1.0448290515 0.9820514296
| 12> C 1.5960797783 2.2782920789 1.6321155484
| 13> C 1.7758121871 3.4193671874 0.653192055
| 14> S 1.2865799436 -1.6338912004 0.0431145867
| 15> C 0.1747298532 -1.6866719498 -1.3997459339
| 16> S -1.5563214057 -1.9248112144 -0.9425248521
| 17> P -1.8975098526 -0.0677479603 0.0418966868
| 18> S -1.3052503379 1.5306729436 -0.9157701413
| 19> O -1.2864652113 -0.1867693848 1.4857253892
| 20> C -1.5850942923 -1.2752765285 2.3986192908
| 21> C -2.6815440048 -0.8787262803 3.3646863574
| 22> O -3.4606735189 -0.1408138318 0.3157851674
| 23> C -4.4138571207 -0.0083257998 -0.7585759256
| 24> C -5.7703970582 0.2730687685 -0.1451497179
| 25> H 4.5690157328 -2.1607700972 0.2477725042
| 26> H 3.978368591 -1.7026724246 -1.3565707968
| 27> H 5.7172457101 -1.7251011414 -1.0325071137
| 28> H 4.7444909412 0.6001545063 -1.0537243417
| 29> H 5.4946648937 0.1868179751 0.5190022535
| 30> H 0.7601883726 2.4644246546 2.3090958773
| 31> H 2.5107165804 2.0993119261 2.2024636204
| 32> H 0.8853251236 3.5250570324 0.0353784259
| 33> H 1.9473246952 4.3422475693 1.1980097371
| 34> H 2.6257445425 3.226364448 -0.0005500842
| 35> H 0.4436167777 -2.549172031 -2.0040467603
| 36> H 0.2907614644 -0.7569659621 -1.9648727137
| 37> H -1.867633787 -2.158070056 1.8181264306
| 38> H -0.6403775045 -1.4619958671 2.9132036828
| 39> H -3.6046092111 -0.6838041775 2.8255613997
| 40> H -2.8405484305 -1.6891045277 4.0691941337
| 41> H -2.3965500246 0.0183871717 3.9072485183
| 42> H -4.0898173764 0.8085008499 -1.4119604568
| 43> H -4.4164066868 -0.9419130847 -1.3273079746
| 44> H -6.0589354225 -0.5432097424 0.5105653702
| 45> H -5.7363696827 1.1944540323 0.4294744634
| 46> H -6.5041892632 0.3729948479 -0.9380245739
| 47> *
| 48>
| 49>                          ****END OF INPUT****

CARTESIAN COORDINATES (ANGSTROEM)
---------------------------------
  C      4.742977   -1.510368   -0.605530
  C      4.693582   -0.057466   -0.179927
  O      3.493595    0.250872    0.550176
  P      2.063789    0.316109   -0.145239
  S      2.110199    1.019913   -1.980739
  O      1.224836    1.044829    0.982051
  C      1.596080    2.278292    1.632116
  C      1.775812    3.419367    0.653192
  S      1.286580   -1.633891    0.043115
  C      0.174730   -1.686672   -1.399746
  S     -1.556321   -1.924811   -0.942525
  P     -1.897510   -0.067748    0.041897
  S     -1.305250    1.530673   -0.915770
  O     -1.286465   -0.186769    1.485725
  C     -1.585094   -1.275277    2.398619
  C     -2.681544   -0.878726    3.364686
  O     -3.460674   -0.140814    0.315785
  C     -4.413857   -0.008326   -0.758576
  C     -5.770397    0.273069   -0.145150
  H      4.569016   -2.160770    0.247773
  H      3.978369   -1.702672   -1.356571
  H      5.717246   -1.725101   -1.032507
  H      4.744491    0.600155   -1.053724
  H      5.494665    0.186818    0.519002
  H      0.760188    2.464425    2.309096
  H      2.510717    2.099312    2.202464
  H      0.885325    3.525057    0.035378
  H      1.947325    4.342248    1.198010
  H      2.625745    3.226364   -0.000550
  H      0.443617   -2.549172   -2.004047
  H      0.290761   -0.756966   -1.964873
  H     -1.867634   -2.158070    1.818126
  H     -0.640378   -1.461996    2.913204
  H     -3.604609   -0.683804    2.825561
  H     -2.840548   -1.689105    4.069194
  H     -2.396550    0.018387    3.907249
  H     -4.089817    0.808501   -1.411960
  H     -4.416407   -0.941913   -1.327308
  H     -6.058935   -0.543210    0.510565
  H     -5.736370    1.194454    0.429474
  H     -6.504189    0.372995   -0.938025

 Total Charge           Charge          ....    0
 Multiplicity           Mult            ....    1
 Number of Electrons    NEL             ....  202
 Basis Dimension        Dim             ....  334

ORBITAL ENERGIES
----------------

  NO   OCC          E(Eh)            E(eV)
   0   2.0000     -88.040115     -2395.6933
   1   2.0000     -88.039032     -2395.6639
   2   2.0000     -87.979862     -2394.0538
   3   2.0000     -87.976137     -2393.9524
   4   2.0000     -76.421134     -2079.5248
   5   2.0000     -76.420751     -2079.5144
   6   2.0000     -18.792892      -511.3806
   7   2.0000     -18.791083      -511.3314
   8   2.0000     -18.788155      -511.2517
   9   2.0000     -18.777762      -510.9689
  10   2.0000      -9.952552      -270.8227
  11   2.0000      -9.952000      -270.8077
  12   2.0000      -9.951457      -270.7929
  13   2.0000      -9.948859      -270.7222
  14   2.0000      -9.944926      -270.6152
  15   2.0000      -9.889135      -269.0970
  16   2.0000      -9.884545      -268.9722
  17   2.0000      -9.881280      -268.8833
  18   2.0000      -9.871507      -268.6174
  19   2.0000      -7.685364      -209.1294
  20   2.0000      -7.684192      -209.0975
  21   2.0000      -7.624798      -207.4813
  22   2.0000      -7.621269      -207.3853
  23   2.0000      -6.418330      -174.6516
  24   2.0000      -6.418307      -174.6510
  25   2.0000      -5.713122      -155.4619
  26   2.0000      -5.712022      -155.4320
  27   2.0000      -5.709678      -155.3682
  28   2.0000      -5.708771      -155.3436
  29   2.0000      -5.702644      -155.1768
  30   2.0000      -5.701070      -155.1340
  31   2.0000      -5.653704      -153.8451
  32   2.0000      -5.650230      -153.7506
  33   2.0000      -5.645595      -153.6245
  34   2.0000      -5.644799      -153.6028
  35   2.0000      -5.641783      -153.5207
  36   2.0000      -5.641431      -153.5111
  37   2.0000      -4.641208      -126.2937
  38   2.0000      -4.641094      -126.2906
  39   2.0000      -4.640234      -126.2672
  40   2.0000      -4.639781      -126.2548
  41   2.0000      -4.638922      -126.2315
  42   2.0000      -4.638320      -126.2151
  43   2.0000      -0.986461       -26.8430
  44   2.0000      -0.981525       -26.7087
  45   2.0000      -0.943480       -25.6734
  46   2.0000      -0.936116       -25.4730
  47   2.0000      -0.759685       -20.6721
  48   2.0000      -0.718403       -19.5487
  49   2.0000      -0.706439       -19.2232
  50   2.0000      -0.691182       -18.8080
  51   2.0000      -0.682996       -18.5853
  52   2.0000      -0.670093       -18.2342
  53   2.0000      -0.646239       -17.5851
  54   2.0000      -0.629509       -17.1298
  55   2.0000      -0.593155       -16.1406
  56   2.0000      -0.585292       -15.9266
  57   2.0000      -0.570894       -15.5348
  58   2.0000      -0.567932       -15.4542
  59   2.0000      -0.560878       -15.2623
  60   2.0000      -0.505563       -13.7571
  61   2.0000      -0.490173       -13.3383
  62   2.0000      -0.479397       -13.0451
  63   2.0000      -0.463700       -12.6179
  64   2.0000      -0.448408       -12.2018
  65   2.0000      -0.445081       -12.1113
  66   2.0000      -0.438810       -11.9406
  67   2.0000      -0.430377       -11.7111
  68   2.0000      -0.426678       -11.6105
  69   2.0000      -0.412336       -11.2202
  70   2.0000      -0.406136       -11.0515
  71   2.0000      -0.402450       -10.9512
  72   2.0000      -0.387972       -10.5573
  73   2.0000      -0.383939       -10.4475
  74   2.0000      -0.379792       -10.3347
  75   2.0000      -0.366171        -9.9640
  76   2.0000      -0.362151        -9.8546
  77   2.0000      -0.355440        -9.6720
  78   2.0000      -0.351749        -9.5716
  79   2.0000      -0.349330        -9.5057
  80   2.0000      -0.344226        -9.3669
  81   2.0000      -0.339166        -9.2292
  82   2.0000      -0.337941        -9.1959
  83   2.0000      -0.333556        -9.0765
  84   2.0000      -0.326606        -8.8874
  85   2.0000      -0.315555        -8.5867
  86   2.0000      -0.310494        -8.4490
  87   2.0000      -0.298751        -8.1294
  88   2.0000      -0.292076        -7.9478
  89   2.0000      -0.290383        -7.9017
  90   2.0000      -0.277043        -7.5387
  91   2.0000      -0.271198        -7.3797
  92   2.0000      -0.267586        -7.2814
  93   2.0000      -0.259418        -7.0591
  94   2.0000      -0.254763        -6.9324
  95   2.0000      -0.235029        -6.3955
  96   2.0000      -0.218995        -5.9592
  97   2.0000      -0.210570        -5.7299
  98   2.0000      -0.197284        -5.3684
  99   2.0000      -0.187757        -5.1091
 100   2.0000      -0.180933        -4.9234
 101   0.0000      -0.037601        -1.0232
 102   0.0000      -0.028835        -0.7846
 103   0.0000      -0.005654        -0.1539
 104   0.0000       0.016019         0.4359
 105   0.0000       0.019967         0.5433

MULLIKEN ATOMIC CHARGES
-----------------------
   0 C :   -0.307835
   1 C :   -0.004335
   2 O :   -0.382750
   3 P :    0.625038
   4 S :   -0.312105
   5 O :   -0.351549
   6 C :    0.009317
   7 C :   -0.322782
   8 S :   -0.097812
   9 C :   -0.354140
  10 S :   -0.114267
  11 P :    0.589938
  12 S :   -0.291805
  13 O :   -0.340879
  14 C :   -0.009378
  15 C :   -0.288820
  16 O :   -0.384911
  17 C :   -0.012302
  18 C :   -0.283112
  19 H :    0.114886
  20 H :    0.121060
  21 H :    0.111048
  22 H :    0.110355
  23 H :    0.101239
  24 H :    0.103904
  25 H :    0.101293
  26 H :    0.138705
  27 H :    0.104381
  28 H :    0.121349
  29 H :    0.180413
  30 H :    0.209504
  31 H :    0.100068
  32 H :    0.108222
  33 H :    0.121940
  34 H :    0.107985
  35 H :    0.116025
  36 H :    0.106711
  37 H :    0.104433
  38 H :    0.115397
  39 H :    0.122137
  40 H :    0.113431
Sum of atomic charges:   -0.0000000

LOEWDIN ATOMIC CHARGES
----------------------
   0 C :   -0.368286
   1 C :   -0.121638
   2 O :   -0.248048
   3 P :    0.572407
   4 S :   -0.301650
   5 O :   -0.230890
   6 C :   -0.108059
   7 C :   -0.369936
   8 S :    0.081935
   9 C :   -0.479826
  10 S :    0.060209
  11 P :    0.559489
  12 S :   -0.295482
  13 O :   -0.223903
  14 C :   -0.116556
  15 C :   -0.359906
  16 O :   -0.252117
  17 C :   -0.121278
  18 C :   -0.350714
  19 H :    0.123510
  20 H :    0.119991
  21 H :    0.129922
  22 H :    0.109154
  23 H :    0.116406
  24 H :    0.119954
  25 H :    0.109122
  26 H :    0.131177
  27 H :    0.126396
  28 H :    0.118937
  29 H :    0.136252
  30 H :    0.126444
  31 H :    0.102245
  32 H :    0.118873
  33 H :    0.125318
  34 H :    0.128736
  35 H :    0.126859
  36 H :    0.110163
  37 H :    0.108579
  38 H :    0.125130
  39 H :    0.129499
  40 H :    0.131581

  Mayer bond orders larger than 0.100000
B(  0-C ,  1-C ) :   1.1675 B(  0-C , 19-H ) :   0.9453 B(  0-C , 20-H ) :   0.9363
B(  0-C , 21-H ) :   0.9385 B(  1-C ,  2-O ) :   0.9113 B(  1-C , 22-H ) :   0.9115
B(  1-C , 23-H ) :   0.9332 B(  2-O ,  3-P ) :   1.0826 B(  3-P ,  4-S ) :   1.5997
B(  3-P ,  5-O ) :   1.1437 B(  3-P ,  8-S ) :   0.9568 B(  4-S ,  8-S ) :   0.1208
B(  5-O ,  6-C ) :   0.9074 B(  6-C ,  7-C ) :   1.1664 B(  6-C , 24-H ) :   0.9323
B(  6-C , 25-H ) :   0.9320 B(  7-C , 26-H ) :   0.9392 B(  7-C , 27-H ) :   0.9360
B(  7-C , 28-H ) :   0.9361 B(  8-S ,  9-C ) :   0.9985 B(  9-C , 10-S ) :   1.0000
B(  9-C , 29-H ) :   0.9120 B(  9-C , 30-H ) :   0.8455 B( 10-S , 11-P ) :   0.9431
B( 10-S , 12-S ) :   0.1067 B( 11-P , 12-S ) :   1.6735 B( 11-P , 13-O ) :   1.1476
B( 11-P , 16-O ) :   1.0706 B( 13-O , 14-C ) :   0.8906 B( 14-C , 15-C ) :   1.1634
B( 14-C , 31-H ) :   0.9096 B( 14-C , 32-H ) :   0.9331 B( 15-C , 33-H ) :   0.9408
B( 15-C , 34-H ) :   0.9401 B( 15-C , 35-H ) :   0.9475 B( 16-O , 17-C ) :   0.9058
B( 17-C , 18-C ) :   1.1594 B( 17-C , 36-H ) :   0.9085 B( 17-C , 37-H ) :   0.9285
B( 18-C , 38-H ) :   0.9509 B( 18-C , 39-H ) :   0.9509 B( 18-C , 40-H ) :   0.9420

Dispersion correction           -0.067051843
FINAL SINGLE POINT ENERGY     -2929.516578709161

DIPOLE MOMENT
-------------

Method             : SCF
Type of density    : Electron Density
Multiplicity       :   1
Irrep              :   0
Energy             : -2929.6348395379782232 Eh
Relativity type    :
Basis              : AO
                                X                 Y                 Z
Electronic contribution:      3.894591607      -2.914211406     -10.315075918
Nuclear contribution   :     -4.093528254       2.135079462      11.411644248
                        -----------------------------------------
Total Dipole Moment    :     -0.198936647      -0.779131944       1.096568330
                        -----------------------------------------
Magnitude (a.u.)       :      1.359810457
Magnitude (Debye)      :      3.456363499

Rotational constants in cm-1:             0.013172             0.005117             0.004929
Rotational constants in MHz :           394.876005           153.408801           147.778858

                             ****ORCA TERMINATED NORMALLY****
TOTAL RUN TIME: 0 days 0 hours 0 minutes 21 seconds 27 msec
