                         Program Version 6.0.0  -   RELEASE  -
|  1> ! pbe def2-sv(p) def2/J RI DEFGRID1 loosescf d4 GCP(DFT/SV(P)) printgap
|  2> %output
|  3>     printlevel normal
|  4> end
|  5> * xyz 0 1
|  6> C 5.0597242811 -2.3746590585 -1.4807929361
|  7> C 4.1048708897 -1.198960657 -1.5303194738
|  8> O 3.0863698362 -1.4139140474 -0.5329979274
|  9> P 2.1797490123 -0.2276700998 0.0041683381
| 10> S 3.1393604049 1.4052191056 0.524401506
| 11> O 1.3459617156 -0.9450490004 1.1386279355
| 12> C 1.743117409 -0.8853762389 2.5261154329
| 13> C 3.0161469648 -1.6659885334 2.772307778
| 14> S 0.7302973664 0.0018332604 -1.5206068912
| 15> C 0.064366995 1.5739298473 -0.9106880811
| 16> S -0.9073949615 1.3843833545 0.6010639762
| 17> P -2.5463800172 0.3693515644 -0.3231350952
| 18> S -3.0197737901 0.978814479 -2.1175786586
| 19> O -3.6960741774 0.4378838848 0.7734170023
| 20> C -4.6335994399 1.5283752894 0.8535510987
| 21> C -3.9655941813 2.8404645047 1.2086953984
| 22> O -2.1686845367 -1.1606421165 -0.2971869263
| 23> C -1.9297800593 -1.8953694194 0.9300620804
| 24> C -1.1369085184 -3.1363117728 0.5776959605
| 25> H 5.5391548784 -2.4283723948 -0.5075737484
| 26> H 4.5173185456 -3.298631937 -1.658404404
| 27> H 5.8178849853 -2.249428898 -2.2467954925
| 28> H 3.6169522228 -1.1204991372 -2.5057227061
| 29> H 4.6158666208 -0.2554857265 -1.3099793444
| 30> H 1.8695123449 0.1653279587 2.8056221208
| 31> H 0.8945931192 -1.3123857047 3.0619548406
| 32> H 3.237161563 -1.6707749966 3.8350060432
| 33> H 2.9060864572 -2.6874377637 2.4183820619
| 34> H 3.8430367027 -1.1960122845 2.2410427098
| 35> H -0.5718553773 1.9720415558 -1.7014599738
| 36> H 0.8872109764 2.2506415835 -0.6786365228
| 37> H -5.1499790293 1.6078364813 -0.1076978568
| 38> H -5.3332270878 1.2092368865 1.6273601714
| 39> H -3.3582528084 2.7282852138 2.1034076056
| 40> H -3.3273170827 3.1674522262 0.389177508
| 41> H -4.7273491241 3.5939229853 1.3812887187
| 42> H -1.3813266618 -1.2484537194 1.6213206074
| 43> H -2.9013739875 -2.1434030876 1.3614933471
| 44> H -1.6712662175 -3.716520902 -0.1690971139
| 45> H -0.1656698529 -2.8588375375 0.1753189986
| 46> H -0.9975818213 -3.736829324 1.4708511699
| 47> *
| 48>
| 49>                          ****END OF INPUT****

CARTESIAN COORDINATES (ANGSTROEM)
---------------------------------
  C      5.059724   -2.374659   -1.480793
  C      4.104871   -1.198961   -1.530319
  O      3.086370   -1.413914   -0.532998
  P      2.179749   -0.227670    0.004168
  S      3.139360    1.405219    0.524402
  O      1.345962   -0.945049    1.138628
  C      1.743117   -0.885376    2.526115
  C      3.016147   -1.665989    2.772308
  S      0.730297    0.001833   -1.520607
  C      0.064367    1.573930   -0.910688
  S     -0.907395    1.384383    0.601064
  P     -2.546380    0.369352   -0.323135
  S     -3.019774    0.978814   -2.117579
  O     -3.696074    0.437884    0.773417
  C     -4.633599    1.528375    0.853551
  C     -3.965594    2.840465    1.208695
  O     -2.168685   -1.160642   -0.297187
  C     -1.929780   -1.895369    0.930062
  C     -1.136909   -3.136312    0.577696
  H      5.539155   -2.428372   -0.507574
  H      4.517319   -3.298632   -1.658404
  H      5.817885   -2.249429   -2.246795
  H      3.616952   -1.120499   -2.505723
  H      4.615867   -0.255486   -1.309979
  H      1.869512    0.165328    2.805622
  H      0.894593   -1.312386    3.061955
  H      3.237162   -1.670775    3.835006
  H      2.906086   -2.687438    2.418382
  H      3.843037   -1.196012    2.241043
  H     -0.571855    1.972042   -1.701460
  H      0.887211    2.250642   -0.678637
  H     -5.149979    1.607836   -0.107698
  H     -5.333227    1.209237    1.627360
  H     -3.358253    2.728285    2.103408
  H     -3.327317    3.167452    0.389178
  H     -4.727349    3.593923    1.381289
  H     -1.381327   -1.248454    1.621321
  H     -2.901374   -2.143403    1.361493
  H     -1.671266   -3.716521   -0.169097
  H     -0.165670   -2.858838    0.175319
  H     -0.997582   -3.736829    1.470851

 Total Charge           Charge          ....    0
 Multiplicity           Mult            ....    1
 Number of Electrons    NEL             ....  202
 Basis Dimension        Dim             ....  334

ORBITAL ENERGIES
----------------

  NO   OCC          E(Eh)            E(eV)
   0   2.0000     -88.040929     -2395.7155
   1   2.0000     -88.039959     -2395.6891
   2   2.0000     -87.991729     -2394.3767
   3   2.0000     -87.985667     -2394.2117
   4   2.0000     -76.429394     -2079.7495
   5   2.0000     -76.424775     -2079.6239
   6   2.0000     -18.798620      -511.5365
   7   2.0000     -18.797267      -511.4996
   8   2.0000     -18.795008      -511.4382
   9   2.0000     -18.787794      -511.2419
  10   2.0000      -9.957129      -270.9473
  11   2.0000      -9.956688      -270.9353
  12   2.0000      -9.954450      -270.8743
  13   2.0000      -9.951044      -270.7817
  14   2.0000      -9.950327      -270.7621
  15   2.0000      -9.891741      -269.1680
  16   2.0000      -9.888626      -269.0832
  17   2.0000      -9.884362      -268.9672
  18   2.0000      -9.881430      -268.8874
  19   2.0000      -7.686231      -209.1530
  20   2.0000      -7.684753      -209.1128
  21   2.0000      -7.636633      -207.8033
  22   2.0000      -7.630982      -207.6496
  23   2.0000      -6.427199      -174.8930
  24   2.0000      -6.422299      -174.7596
  25   2.0000      -5.714023      -155.4865
  26   2.0000      -5.712460      -155.4439
  27   2.0000      -5.710903      -155.4016
  28   2.0000      -5.709387      -155.3603
  29   2.0000      -5.703101      -155.1893
  30   2.0000      -5.701809      -155.1541
  31   2.0000      -5.665382      -154.1629
  32   2.0000      -5.659938      -154.0147
  33   2.0000      -5.657281      -153.9424
  34   2.0000      -5.656954      -153.9336
  35   2.0000      -5.651500      -153.7851
  36   2.0000      -5.651166      -153.7760
  37   2.0000      -4.649659      -126.5237
  38   2.0000      -4.648960      -126.5046
  39   2.0000      -4.647671      -126.4695
  40   2.0000      -4.645217      -126.4028
  41   2.0000      -4.643920      -126.3675
  42   2.0000      -4.642598      -126.3315
  43   2.0000      -0.993238       -27.0274
  44   2.0000      -0.987268       -26.8649
  45   2.0000      -0.952400       -25.9161
  46   2.0000      -0.943079       -25.6625
  47   2.0000      -0.763840       -20.7851
  48   2.0000      -0.723739       -19.6939
  49   2.0000      -0.711150       -19.3514
  50   2.0000      -0.693410       -18.8686
  51   2.0000      -0.688438       -18.7334
  52   2.0000      -0.675523       -18.3819
  53   2.0000      -0.650498       -17.7009
  54   2.0000      -0.638057       -17.3624
  55   2.0000      -0.603406       -16.4195
  56   2.0000      -0.592504       -16.1229
  57   2.0000      -0.570149       -15.5145
  58   2.0000      -0.568352       -15.4657
  59   2.0000      -0.560743       -15.2586
  60   2.0000      -0.509182       -13.8556
  61   2.0000      -0.502155       -13.6643
  62   2.0000      -0.483096       -13.1457
  63   2.0000      -0.473646       -12.8886
  64   2.0000      -0.460621       -12.5341
  65   2.0000      -0.448467       -12.2034
  66   2.0000      -0.440992       -12.0000
  67   2.0000      -0.438345       -11.9280
  68   2.0000      -0.429579       -11.6894
  69   2.0000      -0.419248       -11.4083
  70   2.0000      -0.409859       -11.1528
  71   2.0000      -0.399226       -10.8635
  72   2.0000      -0.389408       -10.5963
  73   2.0000      -0.384302       -10.4574
  74   2.0000      -0.379037       -10.3141
  75   2.0000      -0.375082       -10.2065
  76   2.0000      -0.364039        -9.9060
  77   2.0000      -0.362234        -9.8569
  78   2.0000      -0.360181        -9.8010
  79   2.0000      -0.352433        -9.5902
  80   2.0000      -0.351468        -9.5639
  81   2.0000      -0.348328        -9.4785
  82   2.0000      -0.343069        -9.3354
  83   2.0000      -0.337484        -9.1834
  84   2.0000      -0.335381        -9.1262
  85   2.0000      -0.321560        -8.7501
  86   2.0000      -0.310632        -8.4527
  87   2.0000      -0.304554        -8.2873
  88   2.0000      -0.300143        -8.1673
  89   2.0000      -0.294972        -8.0266
  90   2.0000      -0.291023        -7.9191
  91   2.0000      -0.280168        -7.6238
  92   2.0000      -0.269021        -7.3204
  93   2.0000      -0.264871        -7.2075
  94   2.0000      -0.257975        -7.0199
  95   2.0000      -0.234545        -6.3823
  96   2.0000      -0.219093        -5.9618
  97   2.0000      -0.214598        -5.8395
  98   2.0000      -0.205680        -5.5968
  99   2.0000      -0.203053        -5.5253
 100   2.0000      -0.200377        -5.4525
 101   0.0000      -0.043932        -1.1954
 102   0.0000      -0.022792        -0.6202
 103   0.0000      -0.000262        -0.0071
 104   0.0000       0.000372         0.0101
 105   0.0000       0.014354         0.3906

MULLIKEN ATOMIC CHARGES
-----------------------
   0 C :   -0.281803
   1 C :   -0.014374
   2 O :   -0.379013
   3 P :    0.617424
   4 S :   -0.336111
   5 O :   -0.360638
   6 C :   -0.008329
   7 C :   -0.305712
   8 S :   -0.064544
   9 C :   -0.379597
  10 S :   -0.093702
  11 P :    0.605958
  12 S :   -0.313511
  13 O :   -0.387295
  14 C :    0.001055
  15 C :   -0.318171
  16 O :   -0.353196
  17 C :   -0.015728
  18 C :   -0.284083
  19 H :    0.119034
  20 H :    0.118495
  21 H :    0.114422
  22 H :    0.107300
  23 H :    0.108352
  24 H :    0.115636
  25 H :    0.105809
  26 H :    0.113548
  27 H :    0.117089
  28 H :    0.124567
  29 H :    0.194716
  30 H :    0.193678
  31 H :    0.113413
  32 H :    0.104458
  33 H :    0.117295
  34 H :    0.129497
  35 H :    0.114056
  36 H :    0.108493
  37 H :    0.104322
  38 H :    0.117414
  39 H :    0.129146
  40 H :    0.100630
Sum of atomic charges:    0.0000000

LOEWDIN ATOMIC CHARGES
----------------------
   0 C :   -0.350155
   1 C :   -0.119624
   2 O :   -0.246277
   3 P :    0.571258
   4 S :   -0.323325
   5 O :   -0.231849
   6 C :   -0.116903
   7 C :   -0.364931
   8 S :    0.091426
   9 C :   -0.489378
  10 S :    0.075060
  11 P :    0.572496
  12 S :   -0.309539
  13 O :   -0.250308
  14 C :   -0.115019
  15 C :   -0.371016
  16 O :   -0.234336
  17 C :   -0.113700
  18 C :   -0.353721
  19 H :    0.127711
  20 H :    0.127869
  21 H :    0.132139
  22 H :    0.112448
  23 H :    0.109449
  24 H :    0.112673
  25 H :    0.115447
  26 H :    0.131379
  27 H :    0.126485
  28 H :    0.122619
  29 H :    0.128639
  30 H :    0.128233
  31 H :    0.113773
  32 H :    0.118490
  33 H :    0.123153
  34 H :    0.122228
  35 H :    0.131589
  36 H :    0.103384
  37 H :    0.112823
  38 H :    0.128265
  39 H :    0.125226
  40 H :    0.125818

  Mayer bond orders larger than 0.100000
B(  0-C ,  1-C ) :   1.1610 B(  0-C , 19-H ) :   0.9515 B(  0-C , 20-H ) :   0.9502
B(  0-C , 21-H ) :   0.9415 B(  1-C ,  2-O ) :   0.9015 B(  1-C , 22-H ) :   0.9292
B(  1-C , 23-H ) :   0.9106 B(  2-O ,  3-P ) :   1.1067 B(  3-P ,  4-S ) :   1.5959
B(  3-P ,  5-O ) :   1.1152 B(  3-P ,  8-S ) :   0.9734 B(  4-S ,  8-S ) :   0.1092
B(  5-O ,  6-C ) :   0.8990 B(  6-C ,  7-C ) :   1.1662 B(  6-C , 24-H ) :   0.9154
B(  6-C , 25-H ) :   0.9296 B(  7-C , 26-H ) :   0.9383 B(  7-C , 27-H ) :   0.9464
B(  7-C , 28-H ) :   0.9335 B(  8-S ,  9-C ) :   1.0036 B(  9-C , 10-S ) :   1.0052
B(  9-C , 29-H ) :   0.8722 B(  9-C , 30-H ) :   0.8724 B( 10-S , 11-P ) :   0.9436
B( 10-S , 12-S ) :   0.1087 B( 11-P , 12-S ) :   1.6364 B( 11-P , 13-O ) :   1.0858
B( 11-P , 16-O ) :   1.1432 B( 13-O , 14-C ) :   0.9066 B( 14-C , 15-C ) :   1.1660
B( 14-C , 31-H ) :   0.9199 B( 14-C , 32-H ) :   0.9346 B( 15-C , 33-H ) :   0.9436
B( 15-C , 34-H ) :   0.9344 B( 15-C , 35-H ) :   0.9367 B( 16-O , 17-C ) :   0.8891
B( 17-C , 18-C ) :   1.1682 B( 17-C , 36-H ) :   0.9083 B( 17-C , 37-H ) :   0.9309
B( 18-C , 38-H ) :   0.9479 B( 18-C , 39-H ) :   0.9389 B( 18-C , 40-H ) :   0.9408

Dispersion correction           -0.064965125
FINAL SINGLE POINT ENERGY     -2929.526111630837

DIPOLE MOMENT
-------------

Method             : SCF
Type of density    : Electron Density
Multiplicity       :   1
Irrep              :   0
Energy             : -2929.6464005777293096 Eh
Relativity type    :
Basis              : AO
                                X                 Y                 Z
Electronic contribution:     -7.681722934      11.852339238     -11.893633290
Nuclear contribution   :      7.963124184     -12.691817083      13.139328531
                        -----------------------------------------
Total Dipole Moment    :      0.281401250      -0.839477845       1.245695241
                        -----------------------------------------
Magnitude (a.u.)       :      1.528288700
Magnitude (Debye)      :      3.884601160

Rotational constants in cm-1:             0.013409             0.004585             0.004496
Rotational constants in MHz :           401.996087           137.459775           134.794970

                             ****ORCA TERMINATED NORMALLY****
TOTAL RUN TIME: 0 days 0 hours 0 minutes 21 seconds 20 msec
