                         Program Version 6.0.0  -   RELEASE  -
|  1> ! r2scan-3c def2/J RI DEFGRID2 scfconv6 printgap
|  2> %output
|  3>     printlevel normal
|  4> end
|  5> * xyz 0 1
|  6> C 4.5487647729 -1.5954193615 -0.5153000491
|  7> C 4.57471865 -0.1185710962 -0.1774307297
|  8> O 3.3914931736 0.302342297 0.5219210193
|  9> P 1.9582356328 0.3564258547 -0.1684163337
| 10> S 1.9843561048 0.9292930434 -2.0472633571
| 11> O 1.1591786405 1.2478040139 0.8677565146
| 12> C 1.1040510866 2.6825049176 0.7776703332
| 13> C 2.4517844862 3.3224369527 1.0328561995
| 14> S 1.1632169963 -1.5408428003 0.2628375972
| 15> C -0.005224166 -1.7470192694 -1.1254905365
| 16> S -1.6965818971 -2.0323213752 -0.5688401594
| 17> P -2.1111771809 -0.0555550126 0.0960508525
| 18> S -1.5258983422 1.3843003388 -1.0947757518
| 19> O -1.4512366205 0.1229342477 1.5149461277
| 20> C -1.7002432594 -0.7793095464 2.6258271855
| 21> C -0.5448519121 -0.6520430955 3.5962451199
| 22> O -3.6518460495 -0.1292063751 0.4765188343
| 23> C -4.6932615872 -0.6714191089 -0.3586009274
| 24> C -4.7284429822 -0.0434046503 -1.7357057653
| 25> H 3.7789707418 -1.7922414122 -1.260202652
| 26> H 5.5123047026 -1.8863209256 -0.921187638
| 27> H 4.3370351403 -2.1837269414 0.3738973937
| 28> H 4.6675719815 0.4804592846 -1.0891307135
| 29> H 5.3847455436 0.1232436467 0.5119522266
| 30> H 0.7209073464 2.952735877 -0.2125758146
| 31> H 0.3674168382 2.9603801115 1.5334449788
| 32> H 3.1403239144 3.0699510908 0.227306997
| 33> H 2.3335009362 4.4008714998 1.0700835914
| 34> H 2.8627641899 2.9670261358 1.9742022191
| 35> H 0.2828496074 -2.6350370886 -1.6819474367
| 36> H 0.0347991274 -0.8537425959 -1.75548114
| 37> H -2.6472230546 -0.4847397192 3.0815872431
| 38> H -1.7837225708 -1.7990520071 2.2378754697
| 39> H -0.7170908046 -1.3102778805 4.4415809057
| 40> H 0.3864880262 -0.9296597412 3.1084986546
| 41> H -0.4616251156 0.3728946596 3.9462082975
| 42> H -4.5425014104 -1.7519346265 -0.429634771
| 43> H -5.6055577577 -0.4579604658 0.2010637279
| 44> H -3.8129342223 -0.274849019 -2.2786246378
| 45> H -5.5760651784 -0.4342032876 -2.2892075564
| 46> H -4.815037957 1.0379996003 -1.6586199193
| 47> *
| 48>
| 49>                          ****END OF INPUT****

CARTESIAN COORDINATES (ANGSTROEM)
---------------------------------
  C      4.548765   -1.595419   -0.515300
  C      4.574719   -0.118571   -0.177431
  O      3.391493    0.302342    0.521921
  P      1.958236    0.356426   -0.168416
  S      1.984356    0.929293   -2.047263
  O      1.159179    1.247804    0.867757
  C      1.104051    2.682505    0.777670
  C      2.451784    3.322437    1.032856
  S      1.163217   -1.540843    0.262838
  C     -0.005224   -1.747019   -1.125491
  S     -1.696582   -2.032321   -0.568840
  P     -2.111177   -0.055555    0.096051
  S     -1.525898    1.384300   -1.094776
  O     -1.451237    0.122934    1.514946
  C     -1.700243   -0.779310    2.625827
  C     -0.544852   -0.652043    3.596245
  O     -3.651846   -0.129206    0.476519
  C     -4.693262   -0.671419   -0.358601
  C     -4.728443   -0.043405   -1.735706
  H      3.778971   -1.792241   -1.260203
  H      5.512305   -1.886321   -0.921188
  H      4.337035   -2.183727    0.373897
  H      4.667572    0.480459   -1.089131
  H      5.384746    0.123244    0.511952
  H      0.720907    2.952736   -0.212576
  H      0.367417    2.960380    1.533445
  H      3.140324    3.069951    0.227307
  H      2.333501    4.400871    1.070084
  H      2.862764    2.967026    1.974202
  H      0.282850   -2.635037   -1.681947
  H      0.034799   -0.853743   -1.755481
  H     -2.647223   -0.484740    3.081587
  H     -1.783723   -1.799052    2.237875
  H     -0.717091   -1.310278    4.441581
  H      0.386488   -0.929660    3.108499
  H     -0.461625    0.372895    3.946208
  H     -4.542501   -1.751935   -0.429635
  H     -5.605558   -0.457960    0.201064
  H     -3.812934   -0.274849   -2.278625
  H     -5.576065   -0.434203   -2.289208
  H     -4.815038    1.038000   -1.658620

 Total Charge           Charge          ....    0
 Multiplicity           Mult            ....    1
 Number of Electrons    NEL             ....  202
 Basis Dimension        Dim             ....  539

ORBITAL ENERGIES
----------------

  NO   OCC          E(Eh)            E(eV)
   0   2.0000     -88.578470     -2410.3427
   1   2.0000     -88.572644     -2410.1842
   2   2.0000     -88.514764     -2408.6092
   3   2.0000     -88.510735     -2408.4995
   4   2.0000     -76.910545     -2092.8423
   5   2.0000     -76.908132     -2092.7767
   6   2.0000     -18.992533      -516.8131
   7   2.0000     -18.986542      -516.6501
   8   2.0000     -18.985570      -516.6236
   9   2.0000     -18.978203      -516.4232
  10   2.0000     -10.107231      -275.0317
  11   2.0000     -10.104995      -274.9709
  12   2.0000     -10.096809      -274.7481
  13   2.0000     -10.094233      -274.6780
  14   2.0000     -10.083814      -274.3945
  15   2.0000     -10.027201      -272.8540
  16   2.0000     -10.026704      -272.8405
  17   2.0000     -10.025432      -272.8059
  18   2.0000     -10.019855      -272.6541
  19   2.0000      -7.873056      -214.2367
  20   2.0000      -7.867453      -214.0843
  21   2.0000      -7.809412      -212.5049
  22   2.0000      -7.805557      -212.4000
  23   2.0000      -6.588862      -179.2921
  24   2.0000      -6.586570      -179.2297
  25   2.0000      -5.819841      -158.3659
  26   2.0000      -5.816609      -158.2780
  27   2.0000      -5.814267      -158.2142
  28   2.0000      -5.811358      -158.1351
  29   2.0000      -5.810510      -158.1120
  30   2.0000      -5.804475      -157.9478
  31   2.0000      -5.757078      -156.6581
  32   2.0000      -5.753452      -156.5594
  33   2.0000      -5.749906      -156.4629
  34   2.0000      -5.749213      -156.4440
  35   2.0000      -5.745767      -156.3503
  36   2.0000      -5.745396      -156.3402
  37   2.0000      -4.734643      -128.8362
  38   2.0000      -4.734219      -128.8247
  39   2.0000      -4.731958      -128.7631
  40   2.0000      -4.731844      -128.7600
  41   2.0000      -4.731377      -128.7473
  42   2.0000      -4.730638      -128.7272
  43   2.0000      -1.048985       -28.5443
  44   2.0000      -1.042341       -28.3636
  45   2.0000      -1.006833       -27.3973
  46   2.0000      -1.002037       -27.2668
  47   2.0000      -0.800500       -21.7827
  48   2.0000      -0.756428       -20.5835
  49   2.0000      -0.746097       -20.3023
  50   2.0000      -0.732729       -19.9386
  51   2.0000      -0.725176       -19.7330
  52   2.0000      -0.709558       -19.3080
  53   2.0000      -0.683154       -18.5896
  54   2.0000      -0.663242       -18.0477
  55   2.0000      -0.628737       -17.1088
  56   2.0000      -0.617739       -16.8095
  57   2.0000      -0.600837       -16.3496
  58   2.0000      -0.598506       -16.2862
  59   2.0000      -0.594007       -16.1638
  60   2.0000      -0.529162       -14.3992
  61   2.0000      -0.510911       -13.9026
  62   2.0000      -0.492484       -13.4012
  63   2.0000      -0.484295       -13.1783
  64   2.0000      -0.471653       -12.8343
  65   2.0000      -0.463354       -12.6085
  66   2.0000      -0.452263       -12.3067
  67   2.0000      -0.449925       -12.2431
  68   2.0000      -0.446512       -12.1502
  69   2.0000      -0.434358       -11.8195
  70   2.0000      -0.429291       -11.6816
  71   2.0000      -0.412356       -11.2208
  72   2.0000      -0.402393       -10.9497
  73   2.0000      -0.400984       -10.9113
  74   2.0000      -0.398058       -10.8317
  75   2.0000      -0.393525       -10.7083
  76   2.0000      -0.371537       -10.1100
  77   2.0000      -0.366251        -9.9662
  78   2.0000      -0.362341        -9.8598
  79   2.0000      -0.360358        -9.8058
  80   2.0000      -0.357234        -9.7208
  81   2.0000      -0.356628        -9.7043
  82   2.0000      -0.351802        -9.5730
  83   2.0000      -0.349275        -9.5043
  84   2.0000      -0.346164        -9.4196
  85   2.0000      -0.331052        -9.0084
  86   2.0000      -0.319472        -8.6933
  87   2.0000      -0.311121        -8.4660
  88   2.0000      -0.309946        -8.4341
  89   2.0000      -0.304497        -8.2858
  90   2.0000      -0.290487        -7.9046
  91   2.0000      -0.285455        -7.7676
  92   2.0000      -0.279072        -7.5939
  93   2.0000      -0.277323        -7.5463
  94   2.0000      -0.269339        -7.3291
  95   2.0000      -0.250139        -6.8066
  96   2.0000      -0.231158        -6.2901
  97   2.0000      -0.225149        -6.1266
  98   2.0000      -0.213812        -5.8181
  99   2.0000      -0.204741        -5.5713
 100   2.0000      -0.196714        -5.3529
 101   0.0000      -0.042416        -1.1542
 102   0.0000      -0.031016        -0.8440
 103   0.0000      -0.012282        -0.3342
 104   0.0000       0.015340         0.4174
 105   0.0000       0.020348         0.5537

MULLIKEN ATOMIC CHARGES
-----------------------
   0 C :   -0.445430
   1 C :   -0.157222
   2 O :   -0.297743
   3 P :    0.647344
   4 S :   -0.461631
   5 O :   -0.253249
   6 C :   -0.164043
   7 C :   -0.448221
   8 S :   -0.130033
   9 C :   -0.218911
  10 S :   -0.183225
  11 P :    0.665446
  12 S :   -0.401387
  13 O :   -0.254121
  14 C :   -0.111509
  15 C :   -0.457867
  16 O :   -0.311230
  17 C :   -0.163391
  18 C :   -0.427838
  19 H :    0.173515
  20 H :    0.146405
  21 H :    0.153460
  22 H :    0.172895
  23 H :    0.146926
  24 H :    0.181851
  25 H :    0.157447
  26 H :    0.164383
  27 H :    0.146013
  28 H :    0.154549
  29 H :    0.197494
  30 H :    0.219204
  31 H :    0.154031
  32 H :    0.157607
  33 H :    0.142363
  34 H :    0.170236
  35 H :    0.153058
  36 H :    0.149939
  37 H :    0.149937
  38 H :    0.171354
  39 H :    0.146322
  40 H :    0.165269
Sum of atomic charges:    0.0000000

LOEWDIN ATOMIC CHARGES
----------------------
   0 C :   -0.408317
   1 C :    0.017591
   2 O :   -0.667890
   3 P :    0.373128
   4 S :   -0.124869
   5 O :   -0.667153
   6 C :    0.012546
   7 C :   -0.400754
   8 S :    0.170619
   9 C :   -0.412628
  10 S :    0.117640
  11 P :    0.376867
  12 S :   -0.069618
  13 O :   -0.655034
  14 C :    0.020367
  15 C :   -0.390019
  16 O :   -0.661735
  17 C :    0.023377
  18 C :   -0.406148
  19 H :    0.164096
  20 H :    0.158061
  21 H :    0.159835
  22 H :    0.179760
  23 H :    0.178642
  24 H :    0.184683
  25 H :    0.183248
  26 H :    0.163505
  27 H :    0.158540
  28 H :    0.160113
  29 H :    0.179825
  30 H :    0.203838
  31 H :    0.174130
  32 H :    0.175584
  33 H :    0.157572
  34 H :    0.166240
  35 H :    0.160765
  36 H :    0.170427
  37 H :    0.181467
  38 H :    0.167645
  39 H :    0.157856
  40 H :    0.166200

  Mayer bond orders larger than 0.100000
B(  0-C ,  1-C ) :   0.9210 B(  0-C , 19-H ) :   0.9661 B(  0-C , 20-H ) :   0.9595
B(  0-C , 21-H ) :   0.9677 B(  1-C ,  2-O ) :   0.8227 B(  1-C , 22-H ) :   0.9673
B(  1-C , 23-H ) :   0.9592 B(  2-O ,  3-P ) :   1.0522 B(  3-P ,  4-S ) :   1.7568
B(  3-P ,  5-O ) :   1.1602 B(  3-P ,  8-S ) :   1.1256 B(  5-O ,  6-C ) :   0.7976
B(  6-C ,  7-C ) :   0.9049 B(  6-C , 24-H ) :   0.9611 B(  6-C , 25-H ) :   0.9650
B(  7-C , 26-H ) :   0.9631 B(  7-C , 27-H ) :   0.9617 B(  7-C , 28-H ) :   0.9741
B(  8-S ,  9-C ) :   0.8888 B(  9-C , 10-S ) :   0.9193 B(  9-C , 29-H ) :   0.9132
B(  9-C , 30-H ) :   0.9045 B( 10-S , 11-P ) :   0.9881 B( 11-P , 12-S ) :   1.8684
B( 11-P , 13-O ) :   1.1354 B( 11-P , 16-O ) :   1.0386 B( 13-O , 14-C ) :   0.7479
B( 14-C , 15-C ) :   0.9568 B( 14-C , 31-H ) :   0.9435 B( 14-C , 32-H ) :   0.9531
B( 15-C , 33-H ) :   0.9652 B( 15-C , 34-H ) :   0.9658 B( 15-C , 35-H ) :   0.9707
B( 16-O , 17-C ) :   0.8066 B( 17-C , 18-C ) :   0.9440 B( 17-C , 36-H ) :   0.9632
B( 17-C , 37-H ) :   0.9574 B( 18-C , 38-H ) :   0.9538 B( 18-C , 39-H ) :   0.9629
B( 18-C , 40-H ) :   0.9644

Dispersion correction           -0.022487445
FINAL SINGLE POINT ENERGY     -2932.457233439850

DIPOLE MOMENT
-------------

Method             : SCF
Type of density    : Electron Density
Multiplicity       :   1
Irrep              :   0
Energy             : -2932.4813616498968258 Eh
Relativity type    :
Basis              : AO
                                X                 Y                 Z
Electronic contribution:     -4.016947011      -2.213248231      -7.703669598
Nuclear contribution   :      3.740651069       1.265130076       8.781076188
                        -----------------------------------------
Total Dipole Moment    :     -0.276295942      -0.948118155       1.077406590
                        -----------------------------------------
Magnitude (a.u.)       :      1.461530856
Magnitude (Debye)      :      3.714916207

Rotational constants in cm-1:             0.012610             0.005340             0.005275
Rotational constants in MHz :           378.046080           160.096009           158.145056

                             ****ORCA TERMINATED NORMALLY****
TOTAL RUN TIME: 0 days 0 hours 1 minutes 22 seconds 529 msec
