                         Program Version 6.0.0  -   RELEASE  -
|  1> ! r2scan-3c def2/J RI DEFGRID2 scfconv6 printgap
|  2> %output
|  3>     printlevel normal
|  4> end
|  5> %cpcm
|  6>     smd true
|  7>     smdsolvent "water"
|  8> end
|  9> * xyz 0 1
| 10> C 4.5487647729 -1.5954193615 -0.5153000491
| 11> C 4.57471865 -0.1185710962 -0.1774307297
| 12> O 3.3914931736 0.302342297 0.5219210193
| 13> P 1.9582356328 0.3564258547 -0.1684163337
| 14> S 1.9843561048 0.9292930434 -2.0472633571
| 15> O 1.1591786405 1.2478040139 0.8677565146
| 16> C 1.1040510866 2.6825049176 0.7776703332
| 17> C 2.4517844862 3.3224369527 1.0328561995
| 18> S 1.1632169963 -1.5408428003 0.2628375972
| 19> C -0.005224166 -1.7470192694 -1.1254905365
| 20> S -1.6965818971 -2.0323213752 -0.5688401594
| 21> P -2.1111771809 -0.0555550126 0.0960508525
| 22> S -1.5258983422 1.3843003388 -1.0947757518
| 23> O -1.4512366205 0.1229342477 1.5149461277
| 24> C -1.7002432594 -0.7793095464 2.6258271855
| 25> C -0.5448519121 -0.6520430955 3.5962451199
| 26> O -3.6518460495 -0.1292063751 0.4765188343
| 27> C -4.6932615872 -0.6714191089 -0.3586009274
| 28> C -4.7284429822 -0.0434046503 -1.7357057653
| 29> H 3.7789707418 -1.7922414122 -1.260202652
| 30> H 5.5123047026 -1.8863209256 -0.921187638
| 31> H 4.3370351403 -2.1837269414 0.3738973937
| 32> H 4.6675719815 0.4804592846 -1.0891307135
| 33> H 5.3847455436 0.1232436467 0.5119522266
| 34> H 0.7209073464 2.952735877 -0.2125758146
| 35> H 0.3674168382 2.9603801115 1.5334449788
| 36> H 3.1403239144 3.0699510908 0.227306997
| 37> H 2.3335009362 4.4008714998 1.0700835914
| 38> H 2.8627641899 2.9670261358 1.9742022191
| 39> H 0.2828496074 -2.6350370886 -1.6819474367
| 40> H 0.0347991274 -0.8537425959 -1.75548114
| 41> H -2.6472230546 -0.4847397192 3.0815872431
| 42> H -1.7837225708 -1.7990520071 2.2378754697
| 43> H -0.7170908046 -1.3102778805 4.4415809057
| 44> H 0.3864880262 -0.9296597412 3.1084986546
| 45> H -0.4616251156 0.3728946596 3.9462082975
| 46> H -4.5425014104 -1.7519346265 -0.429634771
| 47> H -5.6055577577 -0.4579604658 0.2010637279
| 48> H -3.8129342223 -0.274849019 -2.2786246378
| 49> H -5.5760651784 -0.4342032876 -2.2892075564
| 50> H -4.815037957 1.0379996003 -1.6586199193
| 51> *
| 52>
| 53>                          ****END OF INPUT****

CARTESIAN COORDINATES (ANGSTROEM)
---------------------------------
  C      4.548765   -1.595419   -0.515300
  C      4.574719   -0.118571   -0.177431
  O      3.391493    0.302342    0.521921
  P      1.958236    0.356426   -0.168416
  S      1.984356    0.929293   -2.047263
  O      1.159179    1.247804    0.867757
  C      1.104051    2.682505    0.777670
  C      2.451784    3.322437    1.032856
  S      1.163217   -1.540843    0.262838
  C     -0.005224   -1.747019   -1.125491
  S     -1.696582   -2.032321   -0.568840
  P     -2.111177   -0.055555    0.096051
  S     -1.525898    1.384300   -1.094776
  O     -1.451237    0.122934    1.514946
  C     -1.700243   -0.779310    2.625827
  C     -0.544852   -0.652043    3.596245
  O     -3.651846   -0.129206    0.476519
  C     -4.693262   -0.671419   -0.358601
  C     -4.728443   -0.043405   -1.735706
  H      3.778971   -1.792241   -1.260203
  H      5.512305   -1.886321   -0.921188
  H      4.337035   -2.183727    0.373897
  H      4.667572    0.480459   -1.089131
  H      5.384746    0.123244    0.511952
  H      0.720907    2.952736   -0.212576
  H      0.367417    2.960380    1.533445
  H      3.140324    3.069951    0.227307
  H      2.333501    4.400871    1.070084
  H      2.862764    2.967026    1.974202
  H      0.282850   -2.635037   -1.681947
  H      0.034799   -0.853743   -1.755481
  H     -2.647223   -0.484740    3.081587
  H     -1.783723   -1.799052    2.237875
  H     -0.717091   -1.310278    4.441581
  H      0.386488   -0.929660    3.108499
  H     -0.461625    0.372895    3.946208
  H     -4.542501   -1.751935   -0.429635
  H     -5.605558   -0.457960    0.201064
  H     -3.812934   -0.274849   -2.278625
  H     -5.576065   -0.434203   -2.289208
  H     -4.815038    1.038000   -1.658620

 Total Charge           Charge          ....    0
 Multiplicity           Mult            ....    1
 Number of Electrons    NEL             ....  202
 Basis Dimension        Dim             ....  539

ORBITAL ENERGIES
----------------

  NO   OCC          E(Eh)            E(eV)
   0   2.0000     -88.580765     -2410.4052
   1   2.0000     -88.576576     -2410.2912
   2   2.0000     -88.525452     -2408.9000
   3   2.0000     -88.521532     -2408.7933
   4   2.0000     -76.917319     -2093.0266
   5   2.0000     -76.916808     -2093.0127
   6   2.0000     -18.994501      -516.8666
   7   2.0000     -18.992148      -516.8026
   8   2.0000     -18.991370      -516.7814
   9   2.0000     -18.988259      -516.6968
  10   2.0000     -10.105749      -274.9914
  11   2.0000     -10.093406      -274.6555
  12   2.0000     -10.089832      -274.5583
  13   2.0000     -10.087936      -274.5067
  14   2.0000     -10.085725      -274.4465
  15   2.0000     -10.018676      -272.6220
  16   2.0000     -10.018454      -272.6160
  17   2.0000     -10.017235      -272.5828
  18   2.0000     -10.017221      -272.5825
  19   2.0000      -7.875234      -214.2960
  20   2.0000      -7.871320      -214.1895
  21   2.0000      -7.820430      -212.8047
  22   2.0000      -7.816722      -212.7038
  23   2.0000      -6.595689      -179.4778
  24   2.0000      -6.595301      -179.4673
  25   2.0000      -5.822055      -158.4262
  26   2.0000      -5.818815      -158.3380
  27   2.0000      -5.818155      -158.3200
  28   2.0000      -5.815239      -158.2407
  29   2.0000      -5.812641      -158.1700
  30   2.0000      -5.808321      -158.0524
  31   2.0000      -5.768028      -156.9560
  32   2.0000      -5.764494      -156.8598
  33   2.0000      -5.760911      -156.7623
  34   2.0000      -5.760250      -156.7444
  35   2.0000      -5.757008      -156.6562
  36   2.0000      -5.756534      -156.6433
  37   2.0000      -4.741426      -129.0208
  38   2.0000      -4.740992      -129.0090
  39   2.0000      -4.740560      -128.9972
  40   2.0000      -4.740108      -128.9849
  41   2.0000      -4.739409      -128.9659
  42   2.0000      -4.738918      -128.9525
  43   2.0000      -1.052479       -28.6394
  44   2.0000      -1.049566       -28.5601
  45   2.0000      -1.010447       -27.4957
  46   2.0000      -1.008873       -27.4528
  47   2.0000      -0.802000       -21.8235
  48   2.0000      -0.755796       -20.5663
  49   2.0000      -0.744639       -20.2627
  50   2.0000      -0.725372       -19.7384
  51   2.0000      -0.722015       -19.6470
  52   2.0000      -0.710865       -19.3436
  53   2.0000      -0.688669       -18.7396
  54   2.0000      -0.670422       -18.2431
  55   2.0000      -0.631233       -17.1767
  56   2.0000      -0.615419       -16.7464
  57   2.0000      -0.598160       -16.2768
  58   2.0000      -0.597170       -16.2498
  59   2.0000      -0.593661       -16.1543
  60   2.0000      -0.526642       -14.3306
  61   2.0000      -0.512367       -13.9422
  62   2.0000      -0.489139       -13.3102
  63   2.0000      -0.486618       -13.2416
  64   2.0000      -0.471272       -12.8240
  65   2.0000      -0.466036       -12.6815
  66   2.0000      -0.451894       -12.2967
  67   2.0000      -0.444883       -12.1059
  68   2.0000      -0.444189       -12.0870
  69   2.0000      -0.433443       -11.7946
  70   2.0000      -0.428629       -11.6636
  71   2.0000      -0.410608       -11.1732
  72   2.0000      -0.404120       -10.9967
  73   2.0000      -0.401004       -10.9119
  74   2.0000      -0.397003       -10.8030
  75   2.0000      -0.394543       -10.7361
  76   2.0000      -0.370290       -10.0761
  77   2.0000      -0.363458        -9.8902
  78   2.0000      -0.359453        -9.7812
  79   2.0000      -0.356283        -9.6950
  80   2.0000      -0.354171        -9.6375
  81   2.0000      -0.353075        -9.6076
  82   2.0000      -0.348364        -9.4795
  83   2.0000      -0.346905        -9.4398
  84   2.0000      -0.345262        -9.3951
  85   2.0000      -0.328424        -8.9369
  86   2.0000      -0.320858        -8.7310
  87   2.0000      -0.311417        -8.4741
  88   2.0000      -0.307588        -8.3699
  89   2.0000      -0.303137        -8.2488
  90   2.0000      -0.294511        -8.0140
  91   2.0000      -0.286925        -7.8076
  92   2.0000      -0.283172        -7.7055
  93   2.0000      -0.280620        -7.6361
  94   2.0000      -0.272374        -7.4117
  95   2.0000      -0.253014        -6.8849
  96   2.0000      -0.237929        -6.4744
  97   2.0000      -0.236509        -6.4357
  98   2.0000      -0.223965        -6.0944
  99   2.0000      -0.214465        -5.8359
 100   2.0000      -0.208242        -5.6665
 101   0.0000      -0.046343        -1.2611
 102   0.0000      -0.036827        -1.0021
 103   0.0000      -0.015929        -0.4335
 104   0.0000       0.009513         0.2589
 105   0.0000       0.016429         0.4471

MULLIKEN ATOMIC CHARGES
-----------------------
   0 C :   -0.479950
   1 C :   -0.157059
   2 O :   -0.325752
   3 P :    0.686788
   4 S :   -0.518043
   5 O :   -0.283057
   6 C :   -0.163382
   7 C :   -0.491965
   8 S :   -0.126100
   9 C :   -0.217641
  10 S :   -0.176467
  11 P :    0.681351
  12 S :   -0.460938
  13 O :   -0.286918
  14 C :   -0.099262
  15 C :   -0.508709
  16 O :   -0.336880
  17 C :   -0.161826
  18 C :   -0.466403
  19 H :    0.172050
  20 H :    0.171098
  21 H :    0.166006
  22 H :    0.176804
  23 H :    0.173700
  24 H :    0.180786
  25 H :    0.178489
  26 H :    0.168249
  27 H :    0.170793
  28 H :    0.169392
  29 H :    0.239349
  30 H :    0.211153
  31 H :    0.174742
  32 H :    0.172900
  33 H :    0.170228
  34 H :    0.169449
  35 H :    0.169363
  36 H :    0.172373
  37 H :    0.177430
  38 H :    0.164824
  39 H :    0.173365
  40 H :    0.169667
Sum of atomic charges:    0.0000000

LOEWDIN ATOMIC CHARGES
----------------------
   0 C :   -0.410801
   1 C :    0.023104
   2 O :   -0.680083
   3 P :    0.378330
   4 S :   -0.159396
   5 O :   -0.686959
   6 C :    0.012557
   7 C :   -0.403060
   8 S :    0.176278
   9 C :   -0.406813
  10 S :    0.131806
  11 P :    0.378974
  12 S :   -0.112709
  13 O :   -0.677308
  14 C :    0.027216
  15 C :   -0.394867
  16 O :   -0.672101
  17 C :    0.030686
  18 C :   -0.410086
  19 H :    0.161139
  20 H :    0.167123
  21 H :    0.163111
  22 H :    0.181035
  23 H :    0.189980
  24 H :    0.183239
  25 H :    0.190256
  26 H :    0.162811
  27 H :    0.167950
  28 H :    0.164132
  29 H :    0.196592
  30 H :    0.200510
  31 H :    0.183516
  32 H :    0.181733
  33 H :    0.168861
  34 H :    0.162920
  35 H :    0.163660
  36 H :    0.179166
  37 H :    0.193168
  38 H :    0.161981
  39 H :    0.168133
  40 H :    0.164215

  Mayer bond orders larger than 0.100000
B(  0-C ,  1-C ) :   0.9098 B(  0-C , 19-H ) :   0.9661 B(  0-C , 20-H ) :   0.9543
B(  0-C , 21-H ) :   0.9652 B(  1-C ,  2-O ) :   0.8097 B(  1-C , 22-H ) :   0.9655
B(  1-C , 23-H ) :   0.9494 B(  2-O ,  3-P ) :   1.0615 B(  3-P ,  4-S ) :   1.7013
B(  3-P ,  5-O ) :   1.1581 B(  3-P ,  8-S ) :   1.1517 B(  5-O ,  6-C ) :   0.7823
B(  6-C ,  7-C ) :   0.9032 B(  6-C , 24-H ) :   0.9580 B(  6-C , 25-H ) :   0.9533
B(  7-C , 26-H ) :   0.9620 B(  7-C , 27-H ) :   0.9550 B(  7-C , 28-H ) :   0.9720
B(  8-S ,  9-C ) :   0.8808 B(  9-C , 10-S ) :   0.9109 B(  9-C , 29-H ) :   0.8968
B(  9-C , 30-H ) :   0.9089 B( 10-S , 11-P ) :   1.0105 B( 11-P , 12-S ) :   1.8332
B( 11-P , 13-O ) :   1.1375 B( 11-P , 16-O ) :   1.0529 B( 13-O , 14-C ) :   0.7427
B( 14-C , 15-C ) :   0.9384 B( 14-C , 31-H ) :   0.9340 B( 14-C , 32-H ) :   0.9469
B( 15-C , 33-H ) :   0.9583 B( 15-C , 34-H ) :   0.9675 B( 15-C , 35-H ) :   0.9685
B( 16-O , 17-C ) :   0.7966 B( 17-C , 18-C ) :   0.9218 B( 17-C , 36-H ) :   0.9586
B( 17-C , 37-H ) :   0.9481 B( 18-C , 38-H ) :   0.9577 B( 18-C , 39-H ) :   0.9568
B( 18-C , 40-H ) :   0.9658

Dispersion correction           -0.022487445
FINAL SINGLE POINT ENERGY     -2932.466987908977

DIPOLE MOMENT
-------------

Method             : SCF
Type of density    : Electron Density
Multiplicity       :   1
Irrep              :   0
Energy             : -2932.4911161190239000 Eh
Relativity type    :
Basis              : AO
                                X                 Y                 Z
Electronic contribution:     -4.123224769      -2.901886400      -7.355563245
Nuclear contribution   :      3.740651069       1.265130076       8.781076188
                        -----------------------------------------
Total Dipole Moment    :     -0.382573699      -1.636756323       1.425512944
                        -----------------------------------------
Magnitude (a.u.)       :      2.203955773
Magnitude (Debye)      :      5.602010377

Rotational constants in cm-1:             0.012610             0.005340             0.005275
Rotational constants in MHz :           378.046080           160.096009           158.145056

                             ****ORCA TERMINATED NORMALLY****
TOTAL RUN TIME: 0 days 0 hours 1 minutes 52 seconds 281 msec
