                         Program Version 6.0.0  -   RELEASE  -
|  1> ! pbe def2-sv(p) def2/J RI DEFGRID1 loosescf d4 GCP(DFT/SV(P)) printgap
|  2> %output
|  3>     printlevel normal
|  4> end
|  5> * xyz 0 1
|  6> C 4.5618789411 0.589511689 -1.9249656632
|  7> C 4.6354240107 -0.0946629629 -0.576544159
|  8> O 3.5676479558 0.2968907963 0.3074121176
|  9> P 2.0206683569 0.21066145 -0.0367442895
| 10> S 1.2381380211 1.6180401053 -1.1533929814
| 11> O 1.3630887826 0.2466668926 1.3969468112
| 12> C 1.7551747781 -0.6485626359 2.4718194792
| 13> C 2.6521300576 0.0712767465 3.4569413791
| 14> S 1.8139108559 -1.7834208594 -0.7528040184
| 15> C 0.0830651674 -1.6770280527 -1.2452122702
| 16> S -1.0487509639 -1.5111141555 0.170641966
| 17> P -2.0697672089 0.2850187891 -0.3476571305
| 18> S -2.0838281807 0.7090989013 -2.2553583749
| 19> O -1.5009289504 1.4295353695 0.5704928926
| 20> C -1.5338171761 1.3683696593 2.0185968134
| 21> C -2.6906763998 2.1798078982 2.562511475
| 22> O -3.5112313969 0.0587064461 0.2890803971
| 23> C -4.5071974175 -0.7790509655 -0.3304336385
| 24> C -4.5620807827 -2.1448449129 0.3263576027
| 25> H 5.4275076659 0.3138598833 -2.5185402352
| 26> H 3.6582243057 0.2860961918 -2.4523229061
| 27> H 4.5366447417 1.6698872977 -1.8024392413
| 28> H 5.5371196399 0.193031431 -0.0331037939
| 29> H 4.5997293568 -1.1813835232 -0.6921485144
| 30> H 0.8156455626 -0.9580764242 2.9337698857
| 31> H 2.2555428358 -1.5211567374 2.0433013136
| 32> H 3.566228192 0.3937801948 2.9654657738
| 33> H 2.1455044317 0.944447261 3.8584669965
| 34> H 2.899524405 -0.6047245951 4.2692797301
| 35> H -0.1453483224 -2.6106998518 -1.7528542283
| 36> H -0.0671573135 -0.8203770635 -1.9089619352
| 37> H -1.6031542738 0.3208403128 2.3253220134
| 38> H -0.5714756476 1.7811793228 2.3278185667
| 39> H -3.6355858944 1.7534442845 2.2367483669
| 40> H -2.6468158502 2.1748069532 3.6471486114
| 41> H -2.6258144534 3.2035367251 2.2038590739
| 42> H -5.4459035629 -0.2387295908 -0.1930908979
| 43> H -4.2894004767 -0.8524479299 -1.400856555
| 44> H -3.6281097727 -2.6813442387 0.1803268324
| 45> H -4.7417224246 -2.0376919758 1.3922530347
| 46> H -5.3723089832 -2.7143561768 -0.1173255383
| 47> *
| 48>
| 49>                          ****END OF INPUT****

CARTESIAN COORDINATES (ANGSTROEM)
---------------------------------
  C      4.561879    0.589512   -1.924966
  C      4.635424   -0.094663   -0.576544
  O      3.567648    0.296891    0.307412
  P      2.020668    0.210661   -0.036744
  S      1.238138    1.618040   -1.153393
  O      1.363089    0.246667    1.396947
  C      1.755175   -0.648563    2.471819
  C      2.652130    0.071277    3.456941
  S      1.813911   -1.783421   -0.752804
  C      0.083065   -1.677028   -1.245212
  S     -1.048751   -1.511114    0.170642
  P     -2.069767    0.285019   -0.347657
  S     -2.083828    0.709099   -2.255358
  O     -1.500929    1.429535    0.570493
  C     -1.533817    1.368370    2.018597
  C     -2.690676    2.179808    2.562511
  O     -3.511231    0.058706    0.289080
  C     -4.507197   -0.779051   -0.330434
  C     -4.562081   -2.144845    0.326358
  H      5.427508    0.313860   -2.518540
  H      3.658224    0.286096   -2.452323
  H      4.536645    1.669887   -1.802439
  H      5.537120    0.193031   -0.033104
  H      4.599729   -1.181384   -0.692149
  H      0.815646   -0.958076    2.933770
  H      2.255543   -1.521157    2.043301
  H      3.566228    0.393780    2.965466
  H      2.145504    0.944447    3.858467
  H      2.899524   -0.604725    4.269280
  H     -0.145348   -2.610700   -1.752854
  H     -0.067157   -0.820377   -1.908962
  H     -1.603154    0.320840    2.325322
  H     -0.571476    1.781179    2.327819
  H     -3.635586    1.753444    2.236748
  H     -2.646816    2.174807    3.647149
  H     -2.625814    3.203537    2.203859
  H     -5.445904   -0.238730   -0.193091
  H     -4.289400   -0.852448   -1.400857
  H     -3.628110   -2.681344    0.180327
  H     -4.741722   -2.037692    1.392253
  H     -5.372309   -2.714356   -0.117326

 Total Charge           Charge          ....    0
 Multiplicity           Mult            ....    1
 Number of Electrons    NEL             ....  202
 Basis Dimension        Dim             ....  334

ORBITAL ENERGIES
----------------

  NO   OCC          E(Eh)            E(eV)
   0   2.0000     -88.044989     -2395.8259
   1   2.0000     -88.039770     -2395.6839
   2   2.0000     -87.977819     -2393.9982
   3   2.0000     -87.975681     -2393.9400
   4   2.0000     -76.423054     -2079.5770
   5   2.0000     -76.420309     -2079.5023
   6   2.0000     -18.795464      -511.4506
   7   2.0000     -18.790038      -511.3029
   8   2.0000     -18.789860      -511.2981
   9   2.0000     -18.782753      -511.1047
  10   2.0000      -9.960845      -271.0484
  11   2.0000      -9.955653      -270.9071
  12   2.0000      -9.953578      -270.8506
  13   2.0000      -9.949734      -270.7460
  14   2.0000      -9.949375      -270.7362
  15   2.0000      -9.889014      -269.0938
  16   2.0000      -9.883567      -268.9455
  17   2.0000      -9.882800      -268.9246
  18   2.0000      -9.881194      -268.8809
  19   2.0000      -7.690049      -209.2569
  20   2.0000      -7.684482      -209.1054
  21   2.0000      -7.623091      -207.4348
  22   2.0000      -7.620665      -207.3688
  23   2.0000      -6.420316      -174.7057
  24   2.0000      -6.417853      -174.6387
  25   2.0000      -5.717767      -155.5884
  26   2.0000      -5.714346      -155.4953
  27   2.0000      -5.712265      -155.4386
  28   2.0000      -5.708928      -155.3478
  29   2.0000      -5.707419      -155.3068
  30   2.0000      -5.701612      -155.1487
  31   2.0000      -5.652170      -153.8034
  32   2.0000      -5.649863      -153.7406
  33   2.0000      -5.643462      -153.5664
  34   2.0000      -5.643269      -153.5611
  35   2.0000      -5.641090      -153.5019
  36   2.0000      -5.640770      -153.4932
  37   2.0000      -4.643206      -126.3481
  38   2.0000      -4.642442      -126.3273
  39   2.0000      -4.640653      -126.2786
  40   2.0000      -4.640127      -126.2643
  41   2.0000      -4.639559      -126.2488
  42   2.0000      -4.638155      -126.2106
  43   2.0000      -0.989171       -26.9167
  44   2.0000      -0.983144       -26.7527
  45   2.0000      -0.945521       -25.7289
  46   2.0000      -0.938316       -25.5329
  47   2.0000      -0.761577       -20.7236
  48   2.0000      -0.718640       -19.5552
  49   2.0000      -0.709905       -19.3175
  50   2.0000      -0.692434       -18.8421
  51   2.0000      -0.687114       -18.6973
  52   2.0000      -0.675851       -18.3908
  53   2.0000      -0.647073       -17.6077
  54   2.0000      -0.630981       -17.1699
  55   2.0000      -0.591769       -16.1028
  56   2.0000      -0.586189       -15.9510
  57   2.0000      -0.575456       -15.6590
  58   2.0000      -0.569686       -15.5020
  59   2.0000      -0.564045       -15.3485
  60   2.0000      -0.506453       -13.7813
  61   2.0000      -0.496263       -13.5040
  62   2.0000      -0.475741       -12.9456
  63   2.0000      -0.475193       -12.9307
  64   2.0000      -0.453286       -12.3345
  65   2.0000      -0.447257       -12.1705
  66   2.0000      -0.440564       -11.9884
  67   2.0000      -0.435411       -11.8481
  68   2.0000      -0.429844       -11.6967
  69   2.0000      -0.419189       -11.4067
  70   2.0000      -0.410598       -11.1730
  71   2.0000      -0.397204       -10.8085
  72   2.0000      -0.388699       -10.5770
  73   2.0000      -0.385877       -10.5003
  74   2.0000      -0.383400       -10.4328
  75   2.0000      -0.366593        -9.9755
  76   2.0000      -0.359769        -9.7898
  77   2.0000      -0.357720        -9.7341
  78   2.0000      -0.352904        -9.6030
  79   2.0000      -0.351059        -9.5528
  80   2.0000      -0.346625        -9.4321
  81   2.0000      -0.346164        -9.4196
  82   2.0000      -0.339582        -9.2405
  83   2.0000      -0.338177        -9.2023
  84   2.0000      -0.330959        -9.0058
  85   2.0000      -0.320872        -8.7314
  86   2.0000      -0.314097        -8.5470
  87   2.0000      -0.297438        -8.0937
  88   2.0000      -0.291698        -7.9375
  89   2.0000      -0.289723        -7.8838
  90   2.0000      -0.287331        -7.8187
  91   2.0000      -0.279753        -7.6125
  92   2.0000      -0.267859        -7.2888
  93   2.0000      -0.261814        -7.1243
  94   2.0000      -0.255754        -6.9594
  95   2.0000      -0.236372        -6.4320
  96   2.0000      -0.220012        -5.9868
  97   2.0000      -0.209301        -5.6954
  98   2.0000      -0.196077        -5.3355
  99   2.0000      -0.186863        -5.0848
 100   2.0000      -0.179979        -4.8975
 101   0.0000      -0.038792        -1.0556
 102   0.0000      -0.028874        -0.7857
 103   0.0000      -0.011588        -0.3153
 104   0.0000       0.009179         0.2498
 105   0.0000       0.020217         0.5501

MULLIKEN ATOMIC CHARGES
-----------------------
   0 C :   -0.308467
   1 C :   -0.014678
   2 O :   -0.379292
   3 P :    0.572652
   4 S :   -0.268919
   5 O :   -0.350028
   6 C :   -0.010694
   7 C :   -0.284292
   8 S :   -0.119902
   9 C :   -0.343313
  10 S :   -0.125953
  11 P :    0.605797
  12 S :   -0.287855
  13 O :   -0.339199
  14 C :   -0.024558
  15 C :   -0.279015
  16 O :   -0.385327
  17 C :   -0.002269
  18 C :   -0.299806
  19 H :    0.110955
  20 H :    0.129660
  21 H :    0.128107
  22 H :    0.109180
  23 H :    0.113612
  24 H :    0.106935
  25 H :    0.098276
  26 H :    0.120761
  27 H :    0.117056
  28 H :    0.108754
  29 H :    0.179944
  30 H :    0.210042
  31 H :    0.096944
  32 H :    0.120227
  33 H :    0.118058
  34 H :    0.103629
  35 H :    0.121984
  36 H :    0.106525
  37 H :    0.101949
  38 H :    0.123462
  39 H :    0.109351
  40 H :    0.109707
Sum of atomic charges:   -0.0000000

LOEWDIN ATOMIC CHARGES
----------------------
   0 C :   -0.369445
   1 C :   -0.115253
   2 O :   -0.246750
   3 P :    0.555804
   4 S :   -0.280070
   5 O :   -0.231391
   6 C :   -0.118765
   7 C :   -0.357461
   8 S :    0.060086
   9 C :   -0.480104
  10 S :    0.059662
  11 P :    0.571081
  12 S :   -0.292974
  13 O :   -0.222580
  14 C :   -0.113770
  15 C :   -0.358597
  16 O :   -0.250076
  17 C :   -0.118953
  18 C :   -0.365735
  19 H :    0.129969
  20 H :    0.123068
  21 H :    0.131484
  22 H :    0.120977
  23 H :    0.107627
  24 H :    0.114322
  25 H :    0.102826
  26 H :    0.127204
  27 H :    0.126203
  28 H :    0.128958
  29 H :    0.136524
  30 H :    0.126427
  31 H :    0.100455
  32 H :    0.120646
  33 H :    0.124951
  34 H :    0.126819
  35 H :    0.130213
  36 H :    0.119041
  37 H :    0.106873
  38 H :    0.117632
  39 H :    0.123277
  40 H :    0.129796

  Mayer bond orders larger than 0.100000
B(  0-C ,  1-C ) :   1.1675 B(  0-C , 19-H ) :   0.9345 B(  0-C , 20-H ) :   0.9309
B(  0-C , 21-H ) :   0.9428 B(  1-C ,  2-O ) :   0.9132 B(  1-C , 22-H ) :   0.9332
B(  1-C , 23-H ) :   0.9261 B(  2-O ,  3-P ) :   1.0740 B(  3-P ,  4-S ) :   1.6903
B(  3-P ,  5-O ) :   1.1178 B(  3-P ,  8-S ) :   0.9332 B(  4-S ,  8-S ) :   0.1091
B(  5-O ,  6-C ) :   0.8845 B(  6-C ,  7-C ) :   1.1647 B(  6-C , 24-H ) :   0.9297
B(  6-C , 25-H ) :   0.9110 B(  7-C , 26-H ) :   0.9424 B(  7-C , 27-H ) :   0.9486
B(  7-C , 28-H ) :   0.9405 B(  8-S ,  9-C ) :   1.0011 B(  9-C , 10-S ) :   0.9959
B(  9-C , 29-H ) :   0.9113 B(  9-C , 30-H ) :   0.8418 B( 10-S , 11-P ) :   0.9402
B( 10-S , 12-S ) :   0.1153 B( 11-P , 12-S ) :   1.6481 B( 11-P , 13-O ) :   1.1487
B( 11-P , 16-O ) :   1.0695 B( 13-O , 14-C ) :   0.8941 B( 14-C , 15-C ) :   1.1580
B( 14-C , 31-H ) :   0.9146 B( 14-C , 32-H ) :   0.9267 B( 15-C , 33-H ) :   0.9413
B( 15-C , 34-H ) :   0.9403 B( 15-C , 35-H ) :   0.9464 B( 16-O , 17-C ) :   0.9038
B( 17-C , 18-C ) :   1.1656 B( 17-C , 36-H ) :   0.9358 B( 17-C , 37-H ) :   0.9028
B( 18-C , 38-H ) :   0.9334 B( 18-C , 39-H ) :   0.9487 B( 18-C , 40-H ) :   0.9401

Dispersion correction           -0.067277319
FINAL SINGLE POINT ENERGY     -2929.513410822131

DIPOLE MOMENT
-------------

Method             : SCF
Type of density    : Electron Density
Multiplicity       :   1
Irrep              :   0
Energy             : -2929.6326494594813994 Eh
Relativity type    :
Basis              : AO
                                X                 Y                 Z
Electronic contribution:     -0.162809461       2.038303726     -15.337723819
Nuclear contribution   :      0.672514294      -3.373886938      16.926336667
                        -----------------------------------------
Total Dipole Moment    :      0.509704833      -1.335583212       1.588612848
                        -----------------------------------------
Magnitude (a.u.)       :      2.137117758
Magnitude (Debye)      :      5.432121643

Rotational constants in cm-1:             0.012443             0.005382             0.004964
Rotational constants in MHz :           373.020292           161.358282           148.813202

                             ****ORCA TERMINATED NORMALLY****
TOTAL RUN TIME: 0 days 0 hours 0 minutes 21 seconds 703 msec
