                         Program Version 6.0.0  -   RELEASE  -
|  1> ! pbe def2-sv(p) def2/J RI DEFGRID1 loosescf d4 GCP(DFT/SV(P)) printgap
|  2> %output
|  3>     printlevel normal
|  4> end
|  5> * xyz 0 1
|  6> C 1.6115619739 -2.2067908612 -2.3815483209
|  7> C 1.6088544584 -0.7974446451 -1.8264066854
|  8> O 1.9028167386 -0.8904373987 -0.4220926237
|  9> P 2.29647772 0.3548254947 0.4855547068
| 10> S 3.3247056275 1.7571398705 -0.4123087233
| 11> O 2.9829592577 -0.3589031982 1.7235766519
| 12> C 4.4036150359 -0.6110643748 1.7582389036
| 13> C 4.8252218004 -1.6229687454 0.7141020323
| 14> S 0.5130624887 0.9574498332 1.4448252619
| 15> C -0.1514594708 -0.6825589283 1.8737470452
| 16> S -1.0294982429 -1.5192640427 0.5197412312
| 17> P -2.2175039926 0.0745202486 -0.2027033433
| 18> S -1.4460879463 1.347727472 -1.4956569445
| 19> O -2.7121976729 0.6705241516 1.1768611713
| 20> C -3.1892981874 2.0256825977 1.2983872162
| 21> C -4.5155951504 2.2153538013 0.5933094912
| 22> O -3.521748173 -0.651805576 -0.7475695399
| 23> C -3.6311782578 -1.1241575271 -2.1006224633
| 24> C -2.6920101792 -2.282958225 -2.3655176518
| 25> H 1.3461284931 -2.1740491595 -3.4330193892
| 26> H 2.5969218827 -2.6501477944 -2.2724236786
| 27> H 0.8888434136 -2.8135624206 -1.8421193793
| 28> H 0.6334908472 -0.3176815585 -1.9556382686
| 29> H 2.3650224547 -0.1637951084 -2.301039925
| 30> H 4.9247350437 0.3393142316 1.6074610612
| 31> H 4.57647201 -0.9744148508 2.7720710037
| 32> H 5.8761603615 -1.8598888439 0.8475309698
| 33> H 4.2336642915 -2.5300180149 0.8065730781
| 34> H 4.6815154079 -1.2049906673 -0.281466782
| 35> H -0.8431524649 -0.5152740606 2.6952478309
| 36> H 0.6635347577 -1.3397560991 2.166292328
| 37> H -3.274509379 2.1779138122 2.3750254289
| 38> H -2.4284760446 2.69940016 0.8904839741
| 39> H -4.3837089833 2.0907069629 -0.4809336622
| 40> H -5.2361657881 1.4824992503 0.9465051733
| 41> H -4.888212164 3.2159276865 0.7888795317
| 42> H -4.677247074 -1.4182184525 -2.1939030816
| 43> H -3.4151208697 -0.2905333032 -2.7771540378
| 44> H -2.8608931503 -2.6659597981 -3.3666798518
| 45> H -1.6596100808 -1.9427103235 -2.285761623
| 46> H -2.8551487673 -3.0753922809 -1.6397933733
| 47> *
| 48>
| 49>                          ****END OF INPUT****

CARTESIAN COORDINATES (ANGSTROEM)
---------------------------------
  C      1.611562   -2.206791   -2.381548
  C      1.608854   -0.797445   -1.826407
  O      1.902817   -0.890437   -0.422093
  P      2.296478    0.354825    0.485555
  S      3.324706    1.757140   -0.412309
  O      2.982959   -0.358903    1.723577
  C      4.403615   -0.611064    1.758239
  C      4.825222   -1.622969    0.714102
  S      0.513062    0.957450    1.444825
  C     -0.151459   -0.682559    1.873747
  S     -1.029498   -1.519264    0.519741
  P     -2.217504    0.074520   -0.202703
  S     -1.446088    1.347727   -1.495657
  O     -2.712198    0.670524    1.176861
  C     -3.189298    2.025683    1.298387
  C     -4.515595    2.215354    0.593309
  O     -3.521748   -0.651806   -0.747570
  C     -3.631178   -1.124158   -2.100622
  C     -2.692010   -2.282958   -2.365518
  H      1.346128   -2.174049   -3.433019
  H      2.596922   -2.650148   -2.272424
  H      0.888843   -2.813562   -1.842119
  H      0.633491   -0.317682   -1.955638
  H      2.365022   -0.163795   -2.301040
  H      4.924735    0.339314    1.607461
  H      4.576472   -0.974415    2.772071
  H      5.876160   -1.859889    0.847531
  H      4.233664   -2.530018    0.806573
  H      4.681515   -1.204991   -0.281467
  H     -0.843152   -0.515274    2.695248
  H      0.663535   -1.339756    2.166292
  H     -3.274509    2.177914    2.375025
  H     -2.428476    2.699400    0.890484
  H     -4.383709    2.090707   -0.480934
  H     -5.236166    1.482499    0.946505
  H     -4.888212    3.215928    0.788880
  H     -4.677247   -1.418218   -2.193903
  H     -3.415121   -0.290533   -2.777154
  H     -2.860893   -2.665960   -3.366680
  H     -1.659610   -1.942710   -2.285762
  H     -2.855149   -3.075392   -1.639793

 Total Charge           Charge          ....    0
 Multiplicity           Mult            ....    1
 Number of Electrons    NEL             ....  202
 Basis Dimension        Dim             ....  334

ORBITAL ENERGIES
----------------

  NO   OCC          E(Eh)            E(eV)
   0   2.0000     -88.042465     -2395.7573
   1   2.0000     -88.038652     -2395.6535
   2   2.0000     -87.987889     -2394.2722
   3   2.0000     -87.983228     -2394.1454
   4   2.0000     -76.430770     -2079.7870
   5   2.0000     -76.422014     -2079.5487
   6   2.0000     -18.798428      -511.5312
   7   2.0000     -18.795769      -511.4589
   8   2.0000     -18.788918      -511.2724
   9   2.0000     -18.786932      -511.2184
  10   2.0000      -9.959496      -271.0117
  11   2.0000      -9.956238      -270.9230
  12   2.0000      -9.954757      -270.8827
  13   2.0000      -9.951569      -270.7960
  14   2.0000      -9.938516      -270.4408
  15   2.0000      -9.891426      -269.1594
  16   2.0000      -9.885647      -269.0021
  17   2.0000      -9.884154      -268.9615
  18   2.0000      -9.880450      -268.8607
  19   2.0000      -7.687630      -209.1910
  20   2.0000      -7.683803      -209.0869
  21   2.0000      -7.632373      -207.6874
  22   2.0000      -7.628433      -207.5802
  23   2.0000      -6.427969      -174.9139
  24   2.0000      -6.419925      -174.6950
  25   2.0000      -5.715714      -155.5325
  26   2.0000      -5.712124      -155.4348
  27   2.0000      -5.712108      -155.4344
  28   2.0000      -5.708153      -155.3267
  29   2.0000      -5.704353      -155.2233
  30   2.0000      -5.700449      -155.1171
  31   2.0000      -5.661263      -154.0508
  32   2.0000      -5.657410      -153.9459
  33   2.0000      -5.653205      -153.8315
  34   2.0000      -5.652441      -153.8107
  35   2.0000      -5.649045      -153.7183
  36   2.0000      -5.648560      -153.7051
  37   2.0000      -4.650597      -126.5492
  38   2.0000      -4.649821      -126.5281
  39   2.0000      -4.648336      -126.4877
  40   2.0000      -4.642232      -126.3216
  41   2.0000      -4.641906      -126.3127
  42   2.0000      -4.640413      -126.2721
  43   2.0000      -0.992199       -26.9991
  44   2.0000      -0.983151       -26.7529
  45   2.0000      -0.952278       -25.9128
  46   2.0000      -0.941196       -25.6112
  47   2.0000      -0.762908       -20.7598
  48   2.0000      -0.722614       -19.6633
  49   2.0000      -0.708311       -19.2741
  50   2.0000      -0.691184       -18.8081
  51   2.0000      -0.684638       -18.6300
  52   2.0000      -0.671320       -18.2675
  53   2.0000      -0.654695       -17.8151
  54   2.0000      -0.637153       -17.3378
  55   2.0000      -0.602472       -16.3941
  56   2.0000      -0.592992       -16.1361
  57   2.0000      -0.577238       -15.7074
  58   2.0000      -0.565368       -15.3845
  59   2.0000      -0.560397       -15.2492
  60   2.0000      -0.501032       -13.6338
  61   2.0000      -0.494152       -13.4466
  62   2.0000      -0.478723       -13.0267
  63   2.0000      -0.473717       -12.8905
  64   2.0000      -0.460689       -12.5360
  65   2.0000      -0.445994       -12.1361
  66   2.0000      -0.443820       -12.0770
  67   2.0000      -0.428278       -11.6540
  68   2.0000      -0.423085       -11.5127
  69   2.0000      -0.419331       -11.4106
  70   2.0000      -0.412449       -11.2233
  71   2.0000      -0.398137       -10.8339
  72   2.0000      -0.397303       -10.8112
  73   2.0000      -0.390782       -10.6337
  74   2.0000      -0.379626       -10.3301
  75   2.0000      -0.375676       -10.2227
  76   2.0000      -0.363445        -9.8898
  77   2.0000      -0.361107        -9.8262
  78   2.0000      -0.355864        -9.6836
  79   2.0000      -0.352530        -9.5928
  80   2.0000      -0.350495        -9.5374
  81   2.0000      -0.346498        -9.4287
  82   2.0000      -0.343923        -9.3586
  83   2.0000      -0.339259        -9.2317
  84   2.0000      -0.330967        -9.0061
  85   2.0000      -0.317790        -8.6475
  86   2.0000      -0.310993        -8.4625
  87   2.0000      -0.300136        -8.1671
  88   2.0000      -0.293856        -7.9962
  89   2.0000      -0.288274        -7.8443
  90   2.0000      -0.284820        -7.7503
  91   2.0000      -0.277805        -7.5595
  92   2.0000      -0.272762        -7.4222
  93   2.0000      -0.266650        -7.2559
  94   2.0000      -0.256783        -6.9874
  95   2.0000      -0.237011        -6.4494
  96   2.0000      -0.220615        -6.0032
  97   2.0000      -0.204523        -5.5653
  98   2.0000      -0.203614        -5.5406
  99   2.0000      -0.198434        -5.3997
 100   2.0000      -0.191422        -5.2089
 101   0.0000      -0.046681        -1.2703
 102   0.0000      -0.023534        -0.6404
 103   0.0000      -0.017600        -0.4789
 104   0.0000       0.000200         0.0055
 105   0.0000       0.017867         0.4862

MULLIKEN ATOMIC CHARGES
-----------------------
   0 C :   -0.287637
   1 C :   -0.032533
   2 O :   -0.384163
   3 P :    0.621326
   4 S :   -0.319346
   5 O :   -0.382017
   6 C :   -0.002170
   7 C :   -0.311306
   8 S :   -0.073199
   9 C :   -0.332697
  10 S :   -0.100163
  11 P :    0.606842
  12 S :   -0.307274
  13 O :   -0.374224
  14 C :   -0.006851
  15 C :   -0.306258
  16 O :   -0.365907
  17 C :   -0.000721
  18 C :   -0.344367
  19 H :    0.108073
  20 H :    0.109597
  21 H :    0.120554
  22 H :    0.125733
  23 H :    0.105484
  24 H :    0.113258
  25 H :    0.104215
  26 H :    0.112090
  27 H :    0.115285
  28 H :    0.126314
  29 H :    0.188981
  30 H :    0.188379
  31 H :    0.105110
  32 H :    0.121098
  33 H :    0.124125
  34 H :    0.117140
  35 H :    0.114449
  36 H :    0.107768
  37 H :    0.110448
  38 H :    0.118004
  39 H :    0.141886
  40 H :    0.124672
Sum of atomic charges:   -0.0000000

LOEWDIN ATOMIC CHARGES
----------------------
   0 C :   -0.353508
   1 C :   -0.130414
   2 O :   -0.245499
   3 P :    0.568804
   4 S :   -0.315810
   5 O :   -0.250354
   6 C :   -0.115325
   7 C :   -0.366348
   8 S :    0.094380
   9 C :   -0.470286
  10 S :    0.084300
  11 P :    0.571558
  12 S :   -0.304587
  13 O :   -0.240330
  14 C :   -0.117585
  15 C :   -0.364506
  16 O :   -0.242152
  17 C :   -0.120451
  18 C :   -0.371928
  19 H :    0.128948
  20 H :    0.122804
  21 H :    0.122118
  22 H :    0.099814
  23 H :    0.107513
  24 H :    0.112920
  25 H :    0.118272
  26 H :    0.130399
  27 H :    0.125103
  28 H :    0.122959
  29 H :    0.136649
  30 H :    0.135774
  31 H :    0.118756
  32 H :    0.114587
  33 H :    0.123078
  34 H :    0.126790
  35 H :    0.131800
  36 H :    0.120136
  37 H :    0.109683
  38 H :    0.133860
  39 H :    0.121180
  40 H :    0.126900

  Mayer bond orders larger than 0.100000
B(  0-C ,  1-C ) :   1.1637 B(  0-C , 19-H ) :   0.9427 B(  0-C , 20-H ) :   0.9496
B(  0-C , 21-H ) :   0.9412 B(  1-C ,  2-O ) :   0.8843 B(  1-C , 22-H ) :   0.8974
B(  1-C , 23-H ) :   0.9144 B(  2-O ,  3-P ) :   1.0985 B(  3-P ,  4-S ) :   1.6570
B(  3-P ,  5-O ) :   1.0957 B(  3-P ,  8-S ) :   0.9690 B(  5-O ,  6-C ) :   0.9090
B(  6-C ,  7-C ) :   1.1628 B(  6-C , 24-H ) :   0.9184 B(  6-C , 25-H ) :   0.9360
B(  7-C , 26-H ) :   0.9375 B(  7-C , 27-H ) :   0.9457 B(  7-C , 28-H ) :   0.9341
B(  8-S ,  9-C ) :   0.9972 B(  9-C , 10-S ) :   0.9848 B(  9-C , 29-H ) :   0.9049
B(  9-C , 30-H ) :   0.8982 B( 10-S , 11-P ) :   0.9727 B( 10-S , 12-S ) :   0.1063
B( 11-P , 12-S ) :   1.5930 B( 11-P , 13-O ) :   1.1156 B( 11-P , 16-O ) :   1.1058
B( 13-O , 14-C ) :   0.8970 B( 14-C , 15-C ) :   1.1660 B( 14-C , 31-H ) :   0.9343
B( 14-C , 32-H ) :   0.9163 B( 15-C , 33-H ) :   0.9352 B( 15-C , 34-H ) :   0.9457
B( 15-C , 35-H ) :   0.9387 B( 16-O , 17-C ) :   0.9097 B( 17-C , 18-C ) :   1.1633
B( 17-C , 36-H ) :   0.9321 B( 17-C , 37-H ) :   0.9120 B( 18-C , 38-H ) :   0.9371
B( 18-C , 39-H ) :   0.9262 B( 18-C , 40-H ) :   0.9428

Dispersion correction           -0.066635146
FINAL SINGLE POINT ENERGY     -2929.518936584252

DIPOLE MOMENT
-------------

Method             : SCF
Type of density    : Electron Density
Multiplicity       :   1
Irrep              :   0
Energy             : -2929.6381672500824607 Eh
Relativity type    :
Basis              : AO
                                X                 Y                 Z
Electronic contribution:      2.843739489      12.241470529       8.976562948
Nuclear contribution   :     -3.634742208     -13.544787457      -8.610232611
                        -----------------------------------------
Total Dipole Moment    :     -0.791002719      -1.303316928       0.366330337
                        -----------------------------------------
Magnitude (a.u.)       :      1.567966273
Magnitude (Debye)      :      3.985453536

Rotational constants in cm-1:             0.012991             0.005160             0.004611
Rotational constants in MHz :           389.450495           154.701041           138.244416

                             ****ORCA TERMINATED NORMALLY****
TOTAL RUN TIME: 0 days 0 hours 0 minutes 21 seconds 540 msec
