                         Program Version 6.0.0  -   RELEASE  -
|  1> ! pbe def2-sv(p) def2/J RI DEFGRID1 loosescf d4 GCP(DFT/SV(P)) printgap
|  2> %output
|  3>     printlevel normal
|  4> end
|  5> * xyz 0 1
|  6> C 4.2362355991 -0.7282823282 -2.65683321
|  7> C 4.855043598 -0.7178516739 -1.2742874427
|  8> O 3.8898793597 -0.9789276336 -0.2386467653
|  9> P 2.680751854 0.0030695228 0.0841740291
| 10> S 3.0767165893 1.9160915721 0.0375148763
| 11> O 2.2527860386 -0.4693616864 1.5251444211
| 12> C 1.9582782679 -1.8513870514 1.8533624699
| 13> C 0.9985229644 -1.8556602282 3.0253287224
| 14> S 1.1247402267 -0.6567404249 -1.2158048829
| 15> C 0.0287279721 0.7486466234 -0.9159755426
| 16> S -0.7922000821 0.6785732893 0.7026556488
| 17> P -2.7894980287 0.2195622793 0.0920763321
| 18> S -3.1510101753 0.3001097991 -1.8372478512
| 19> O -3.6868749848 1.1431763661 1.0141741119
| 20> C -4.0862159619 2.4678731832 0.6217618331
| 21> C -2.9153323639 3.4259449031 0.5237672602
| 22> O -3.1607325264 -1.1381092322 0.8160555448
| 23> C -3.0554371728 -2.4189139072 0.1675933757
| 24> C -1.6189673597 -2.891702556 0.0710364703
| 25> H 5.0231860976 -0.6595350877 -3.4010145956
| 26> H 3.6699869412 -1.6432082115 -2.8126213404
| 27> H 3.5680010894 0.1237163899 -2.7731649582
| 28> H 5.3250635728 0.2490391012 -1.0705605945
| 29> H 5.5853705936 -1.5192021429 -1.1533328729
| 30> H 1.5255853783 -2.337021416 0.9733275318
| 31> H 2.9029558663 -2.3372127083 2.1040209452
| 32> H 0.0787135985 -1.3388164657 2.7611191562
| 33> H 0.7748031436 -2.881463491 3.3008396963
| 34> H 1.4458814832 -1.3447078188 3.8729402565
| 35> H -0.7299287785 0.7414866484 -1.7023348007
| 36> H 0.6256694609 1.6607881965 -0.944030508
| 37> H -4.6089453501 2.4025775682 -0.3379379881
| 38> H -4.7852685835 2.7698223861 1.4029674676
| 39> H -2.2726266797 3.1501737738 -0.3117804395
| 40> H -3.2885907788 4.4317838079 0.3591357535
| 41> H -2.3297134285 3.4052610422 1.4398048204
| 42> H -3.6532361222 -3.0795580242 0.7972187698
| 43> H -3.5072979467 -2.3469943422 -0.8271742843
| 44> H -1.0554698128 -2.2508569277 -0.6066707549
| 45> H -1.1520685043 -2.8732199291 1.0522087061
| 46> H -1.6013745848 -3.9055505098 -0.3157571322
| 47> *
| 48>
| 49>                          ****END OF INPUT****

CARTESIAN COORDINATES (ANGSTROEM)
---------------------------------
  C      4.236236   -0.728282   -2.656833
  C      4.855044   -0.717852   -1.274287
  O      3.889879   -0.978928   -0.238647
  P      2.680752    0.003070    0.084174
  S      3.076717    1.916092    0.037515
  O      2.252786   -0.469362    1.525144
  C      1.958278   -1.851387    1.853362
  C      0.998523   -1.855660    3.025329
  S      1.124740   -0.656740   -1.215805
  C      0.028728    0.748647   -0.915976
  S     -0.792200    0.678573    0.702656
  P     -2.789498    0.219562    0.092076
  S     -3.151010    0.300110   -1.837248
  O     -3.686875    1.143176    1.014174
  C     -4.086216    2.467873    0.621762
  C     -2.915332    3.425945    0.523767
  O     -3.160733   -1.138109    0.816056
  C     -3.055437   -2.418914    0.167593
  C     -1.618967   -2.891703    0.071036
  H      5.023186   -0.659535   -3.401015
  H      3.669987   -1.643208   -2.812621
  H      3.568001    0.123716   -2.773165
  H      5.325064    0.249039   -1.070561
  H      5.585371   -1.519202   -1.153333
  H      1.525585   -2.337021    0.973328
  H      2.902956   -2.337213    2.104021
  H      0.078714   -1.338816    2.761119
  H      0.774803   -2.881463    3.300840
  H      1.445881   -1.344708    3.872940
  H     -0.729929    0.741487   -1.702335
  H      0.625669    1.660788   -0.944031
  H     -4.608945    2.402578   -0.337938
  H     -4.785269    2.769822    1.402967
  H     -2.272627    3.150174   -0.311780
  H     -3.288591    4.431784    0.359136
  H     -2.329713    3.405261    1.439805
  H     -3.653236   -3.079558    0.797219
  H     -3.507298   -2.346994   -0.827174
  H     -1.055470   -2.250857   -0.606671
  H     -1.152069   -2.873220    1.052209
  H     -1.601375   -3.905551   -0.315757

 Total Charge           Charge          ....    0
 Multiplicity           Mult            ....    1
 Number of Electrons    NEL             ....  202
 Basis Dimension        Dim             ....  334

ORBITAL ENERGIES
----------------

  NO   OCC          E(Eh)            E(eV)
   0   2.0000     -88.046038     -2395.8545
   1   2.0000     -88.044115     -2395.8022
   2   2.0000     -87.997825     -2394.5426
   3   2.0000     -87.988677     -2394.2936
   4   2.0000     -76.430462     -2079.7786
   5   2.0000     -76.427882     -2079.7084
   6   2.0000     -18.797516      -511.5064
   7   2.0000     -18.793560      -511.3988
   8   2.0000     -18.791516      -511.3431
   9   2.0000     -18.791417      -511.3405
  10   2.0000      -9.956851      -270.9397
  11   2.0000      -9.955968      -270.9157
  12   2.0000      -9.955066      -270.8911
  13   2.0000      -9.953955      -270.8609
  14   2.0000      -9.951421      -270.7919
  15   2.0000      -9.886961      -269.0379
  16   2.0000      -9.886592      -269.0278
  17   2.0000      -9.886496      -269.0252
  18   2.0000      -9.883723      -268.9498
  19   2.0000      -7.690458      -209.2680
  20   2.0000      -7.688652      -209.2188
  21   2.0000      -7.642599      -207.9657
  22   2.0000      -7.633937      -207.7300
  23   2.0000      -6.428007      -174.9150
  24   2.0000      -6.425615      -174.8499
  25   2.0000      -5.718083      -155.5970
  26   2.0000      -5.716469      -155.5530
  27   2.0000      -5.715043      -155.5142
  28   2.0000      -5.713184      -155.4636
  29   2.0000      -5.707691      -155.3142
  30   2.0000      -5.705721      -155.2606
  31   2.0000      -5.671268      -154.3231
  32   2.0000      -5.663191      -154.1033
  33   2.0000      -5.663069      -154.0999
  34   2.0000      -5.662885      -154.0949
  35   2.0000      -5.654476      -153.8661
  36   2.0000      -5.654118      -153.8564
  37   2.0000      -4.650129      -126.5364
  38   2.0000      -4.649938      -126.5313
  39   2.0000      -4.648652      -126.4962
  40   2.0000      -4.648512      -126.4925
  41   2.0000      -4.647262      -126.4584
  42   2.0000      -4.645857      -126.4202
  43   2.0000      -0.991003       -26.9665
  44   2.0000      -0.990624       -26.9562
  45   2.0000      -0.947661       -25.7872
  46   2.0000      -0.946609       -25.7585
  47   2.0000      -0.763504       -20.7760
  48   2.0000      -0.723703       -19.6930
  49   2.0000      -0.714021       -19.4295
  50   2.0000      -0.691756       -18.8236
  51   2.0000      -0.684839       -18.6354
  52   2.0000      -0.681157       -18.5352
  53   2.0000      -0.654596       -17.8125
  54   2.0000      -0.641034       -17.4434
  55   2.0000      -0.607193       -16.5226
  56   2.0000      -0.594674       -16.1819
  57   2.0000      -0.573432       -15.6039
  58   2.0000      -0.571311       -15.5462
  59   2.0000      -0.559555       -15.2263
  60   2.0000      -0.507886       -13.8203
  61   2.0000      -0.497107       -13.5270
  62   2.0000      -0.477051       -12.9812
  63   2.0000      -0.468805       -12.7568
  64   2.0000      -0.463299       -12.6070
  65   2.0000      -0.446085       -12.1386
  66   2.0000      -0.442327       -12.0363
  67   2.0000      -0.439316       -11.9544
  68   2.0000      -0.433014       -11.7829
  69   2.0000      -0.423208       -11.5161
  70   2.0000      -0.413302       -11.2465
  71   2.0000      -0.399339       -10.8666
  72   2.0000      -0.393265       -10.7013
  73   2.0000      -0.391048       -10.6410
  74   2.0000      -0.384782       -10.4704
  75   2.0000      -0.376459       -10.2440
  76   2.0000      -0.366591        -9.9754
  77   2.0000      -0.360360        -9.8059
  78   2.0000      -0.356715        -9.7067
  79   2.0000      -0.353754        -9.6261
  80   2.0000      -0.351013        -9.5515
  81   2.0000      -0.344381        -9.3711
  82   2.0000      -0.341559        -9.2943
  83   2.0000      -0.340142        -9.2557
  84   2.0000      -0.338072        -9.1994
  85   2.0000      -0.319226        -8.6866
  86   2.0000      -0.312506        -8.5037
  87   2.0000      -0.304144        -8.2762
  88   2.0000      -0.301866        -8.2142
  89   2.0000      -0.297457        -8.0942
  90   2.0000      -0.291193        -7.9238
  91   2.0000      -0.273307        -7.4371
  92   2.0000      -0.269829        -7.3424
  93   2.0000      -0.266623        -7.2552
  94   2.0000      -0.259342        -7.0571
  95   2.0000      -0.233958        -6.3663
  96   2.0000      -0.223208        -6.0738
  97   2.0000      -0.218161        -5.9365
  98   2.0000      -0.212043        -5.7700
  99   2.0000      -0.208311        -5.6684
 100   2.0000      -0.202100        -5.4994
 101   0.0000      -0.045366        -1.2345
 102   0.0000      -0.034810        -0.9472
 103   0.0000      -0.014811        -0.4030
 104   0.0000       0.000985         0.0268
 105   0.0000       0.009519         0.2590

MULLIKEN ATOMIC CHARGES
-----------------------
   0 C :   -0.321749
   1 C :    0.000952
   2 O :   -0.385263
   3 P :    0.599294
   4 S :   -0.307003
   5 O :   -0.355307
   6 C :   -0.017470
   7 C :   -0.292513
   8 S :   -0.098530
   9 C :   -0.372630
  10 S :   -0.079060
  11 P :    0.599478
  12 S :   -0.330109
  13 O :   -0.359223
  14 C :    0.001245
  15 C :   -0.316272
  16 O :   -0.357015
  17 C :    0.001906
  18 C :   -0.339728
  19 H :    0.115732
  20 H :    0.118233
  21 H :    0.131341
  22 H :    0.114041
  23 H :    0.105829
  24 H :    0.107917
  25 H :    0.108010
  26 H :    0.137618
  27 H :    0.108162
  28 H :    0.120983
  29 H :    0.193607
  30 H :    0.195685
  31 H :    0.111748
  32 H :    0.108627
  33 H :    0.122453
  34 H :    0.113811
  35 H :    0.125153
  36 H :    0.107020
  37 H :    0.113216
  38 H :    0.133058
  39 H :    0.126184
  40 H :    0.110568
Sum of atomic charges:   -0.0000000

LOEWDIN ATOMIC CHARGES
----------------------
   0 C :   -0.371600
   1 C :   -0.114898
   2 O :   -0.249811
   3 P :    0.567968
   4 S :   -0.306071
   5 O :   -0.235885
   6 C :   -0.114845
   7 C :   -0.356186
   8 S :    0.088869
   9 C :   -0.493599
  10 S :    0.090911
  11 P :    0.573323
  12 S :   -0.308002
  13 O :   -0.236970
  14 C :   -0.115097
  15 C :   -0.369103
  16 O :   -0.237259
  17 C :   -0.115603
  18 C :   -0.370961
  19 H :    0.132514
  20 H :    0.123413
  21 H :    0.122854
  22 H :    0.114257
  23 H :    0.119231
  24 H :    0.103212
  25 H :    0.116104
  26 H :    0.124060
  27 H :    0.128211
  28 H :    0.130289
  29 H :    0.124337
  30 H :    0.127070
  31 H :    0.111522
  32 H :    0.120771
  33 H :    0.119887
  34 H :    0.131134
  35 H :    0.127168
  36 H :    0.119877
  37 H :    0.110194
  38 H :    0.112509
  39 H :    0.125482
  40 H :    0.130722

  Mayer bond orders larger than 0.100000
B(  0-C ,  1-C ) :   1.1660 B(  0-C , 19-H ) :   0.9367 B(  0-C , 20-H ) :   0.9435
B(  0-C , 21-H ) :   0.9345 B(  1-C ,  2-O ) :   0.9061 B(  1-C , 22-H ) :   0.9201
B(  1-C , 23-H ) :   0.9344 B(  2-O ,  3-P ) :   1.0901 B(  3-P ,  4-S ) :   1.6421
B(  3-P ,  5-O ) :   1.1424 B(  3-P ,  8-S ) :   0.9469 B(  4-S ,  8-S ) :   0.1070
B(  5-O ,  6-C ) :   0.8860 B(  6-C ,  7-C ) :   1.1700 B(  6-C , 24-H ) :   0.9082
B(  6-C , 25-H ) :   0.9309 B(  7-C , 26-H ) :   0.9334 B(  7-C , 27-H ) :   0.9384
B(  7-C , 28-H ) :   0.9458 B(  8-S ,  9-C ) :   1.0049 B(  9-C , 10-S ) :   1.0047
B(  9-C , 29-H ) :   0.8514 B(  9-C , 30-H ) :   0.8660 B( 10-S , 11-P ) :   0.9504
B( 10-S , 12-S ) :   0.1220 B( 11-P , 12-S ) :   1.5771 B( 11-P , 13-O ) :   1.1321
B( 11-P , 16-O ) :   1.1297 B( 12-S , 29-H ) :   0.1142 B( 13-O , 14-C ) :   0.9130
B( 14-C , 15-C ) :   1.1633 B( 14-C , 31-H ) :   0.9202 B( 14-C , 32-H ) :   0.9345
B( 15-C , 33-H ) :   0.9400 B( 15-C , 34-H ) :   0.9373 B( 15-C , 35-H ) :   0.9421
B( 16-O , 17-C ) :   0.9158 B( 17-C , 18-C ) :   1.1596 B( 17-C , 36-H ) :   0.9332
B( 17-C , 37-H ) :   0.9149 B( 18-C , 38-H ) :   0.9288 B( 18-C , 39-H ) :   0.9372
B( 18-C , 40-H ) :   0.9368

Dispersion correction           -0.064455725
FINAL SINGLE POINT ENERGY     -2929.523652052097

DIPOLE MOMENT
-------------

Method             : SCF
Type of density    : Electron Density
Multiplicity       :   1
Irrep              :   0
Energy             : -2929.6436493625114963 Eh
Relativity type    :
Basis              : AO
                                X                 Y                 Z
Electronic contribution:     -1.409118374       8.114984595      -1.518419072
Nuclear contribution   :      1.524687617      -9.275299239       1.651096957
                        -----------------------------------------
Total Dipole Moment    :      0.115569243      -1.160314644       0.132677885
                        -----------------------------------------
Magnitude (a.u.)       :      1.173579884
Magnitude (Debye)      :      2.983003001

Rotational constants in cm-1:             0.012257             0.004577             0.004292
Rotational constants in MHz :           367.463999           137.207831           128.682067

                             ****ORCA TERMINATED NORMALLY****
TOTAL RUN TIME: 0 days 0 hours 0 minutes 20 seconds 963 msec
