                         Program Version 6.0.0  -   RELEASE  -
|  1> ! r2scan-3c def2/J RI DEFGRID2 scfconv6 printgap
|  2> %output
|  3>     printlevel normal
|  4> end
|  5> * xyz 0 1
|  6> C 5.4839602577 -1.009066476 -0.6329877001
|  7> C 4.1810342635 -1.4471489963 -1.2672747022
|  8> O 3.2205349509 -0.3695700935 -1.3535389533
|  9> P 2.6477137521 0.4143187927 -0.09697292
| 10> S 3.7324902975 1.8354171506 0.7037497919
| 11> O 2.2878143273 -0.7896353924 0.8873318209
| 12> C 2.1735565875 -0.6012287348 2.3061572678
| 13> C 0.9311614497 0.1807270989 2.6776927832
| 14> S 0.852953958 1.106910277 -0.9718777318
| 15> C 0.1934725616 -0.4613912198 -1.6218394182
| 16> S -0.6724251448 -1.4539745964 -0.3816754802
| 17> P -2.3423438082 -0.1787780094 -0.1906564183
| 18> S -2.9927295988 0.6439362922 -1.8535423721
| 19> O -1.8554741429 0.8073180738 0.9446074397
| 20> C -2.4140002744 2.1258032001 1.1070511018
| 21> C -3.8432132533 2.0635596497 1.6019719908
| 22> O -3.4011284325 -1.0709936534 0.5852518127
| 23> C -4.182803792 -2.0772715078 -0.0904527802
| 24> C -5.3762610289 -2.4048116173 0.7840680048
| 25> H 5.8966078783 -0.1558424093 -1.1662659566
| 26> H 5.3193462852 -0.7171464364 0.4033524398
| 27> H 6.1935125326 -1.829971554 -0.6629252411
| 28> H 3.7282233846 -2.2667753936 -0.7047268412
| 29> H 4.3241233746 -1.7417242777 -2.308487044
| 30> H 2.1484793665 -1.6151616322 2.7069793446
| 31> H 3.0681203494 -0.0763674221 2.6574599171
| 32> H 0.0368117539 -0.3193053865 2.3142661714
| 33> H 0.8749294014 0.277401886 3.7570717867
| 34> H 0.9808043705 1.1764685682 2.2357647573
| 35> H 1.0064933965 -1.0629113936 -2.0165133814
| 36> H -0.5113764511 -0.1826860755 -2.4060858505
| 37> H -1.7516342143 2.6053924138 1.8287954354
| 38> H -2.3537990743 2.649673953 0.1475785442
| 39> H -4.2031806695 3.0690881257 1.7956324892
| 40> H -4.4740668207 1.6010257002 0.8435733304
| 41> H -3.8986830183 1.4746647343 2.5135556372
| 42> H -4.4933170218 -1.6829081229 -1.0639349697
| 43> H -3.5485793904 -2.9541291969 -0.2453661009
| 44> H -5.998276361 -1.5241686293 0.9166570504
| 45> H -5.9604891279 -3.1869437843 0.3105759109
| 46> H -5.037914942 -2.7465706921 1.757771848
| 47> *
| 48>
| 49>                          ****END OF INPUT****

CARTESIAN COORDINATES (ANGSTROEM)
---------------------------------
  C      5.483960   -1.009066   -0.632988
  C      4.181034   -1.447149   -1.267275
  O      3.220535   -0.369570   -1.353539
  P      2.647714    0.414319   -0.096973
  S      3.732490    1.835417    0.703750
  O      2.287814   -0.789635    0.887332
  C      2.173557   -0.601229    2.306157
  C      0.931161    0.180727    2.677693
  S      0.852954    1.106910   -0.971878
  C      0.193473   -0.461391   -1.621839
  S     -0.672425   -1.453975   -0.381675
  P     -2.342344   -0.178778   -0.190656
  S     -2.992730    0.643936   -1.853542
  O     -1.855474    0.807318    0.944607
  C     -2.414000    2.125803    1.107051
  C     -3.843213    2.063560    1.601972
  O     -3.401128   -1.070994    0.585252
  C     -4.182804   -2.077272   -0.090453
  C     -5.376261   -2.404812    0.784068
  H      5.896608   -0.155842   -1.166266
  H      5.319346   -0.717146    0.403352
  H      6.193513   -1.829972   -0.662925
  H      3.728223   -2.266775   -0.704727
  H      4.324123   -1.741724   -2.308487
  H      2.148479   -1.615162    2.706979
  H      3.068120   -0.076367    2.657460
  H      0.036812   -0.319305    2.314266
  H      0.874929    0.277402    3.757072
  H      0.980804    1.176469    2.235765
  H      1.006493   -1.062911   -2.016513
  H     -0.511376   -0.182686   -2.406086
  H     -1.751634    2.605392    1.828795
  H     -2.353799    2.649674    0.147579
  H     -4.203181    3.069088    1.795632
  H     -4.474067    1.601026    0.843573
  H     -3.898683    1.474665    2.513556
  H     -4.493317   -1.682908   -1.063935
  H     -3.548579   -2.954129   -0.245366
  H     -5.998276   -1.524169    0.916657
  H     -5.960489   -3.186944    0.310576
  H     -5.037915   -2.746571    1.757772

 Total Charge           Charge          ....    0
 Multiplicity           Mult            ....    1
 Number of Electrons    NEL             ....  202
 Basis Dimension        Dim             ....  539

ORBITAL ENERGIES
----------------

  NO   OCC          E(Eh)            E(eV)
   0   2.0000     -88.578210     -2410.3356
   1   2.0000     -88.572538     -2410.1813
   2   2.0000     -88.525161     -2408.8921
   3   2.0000     -88.517127     -2408.6735
   4   2.0000     -76.917561     -2093.0332
   5   2.0000     -76.913747     -2092.9295
   6   2.0000     -18.998065      -516.9636
   7   2.0000     -18.993573      -516.8414
   8   2.0000     -18.992313      -516.8071
   9   2.0000     -18.991335      -516.7805
  10   2.0000     -10.106289      -275.0061
  11   2.0000     -10.103876      -274.9405
  12   2.0000     -10.103586      -274.9326
  13   2.0000     -10.098551      -274.7955
  14   2.0000     -10.094859      -274.6951
  15   2.0000     -10.037613      -273.1373
  16   2.0000     -10.030102      -272.9329
  17   2.0000     -10.029554      -272.9180
  18   2.0000     -10.020148      -272.6621
  19   2.0000      -7.872724      -214.2277
  20   2.0000      -7.866455      -214.0571
  21   2.0000      -7.819829      -212.7884
  22   2.0000      -7.811782      -212.5694
  23   2.0000      -6.596267      -179.4936
  24   2.0000      -6.591692      -179.3691
  25   2.0000      -5.819516      -158.3571
  26   2.0000      -5.816583      -158.2773
  27   2.0000      -5.813802      -158.2016
  28   2.0000      -5.809974      -158.0974
  29   2.0000      -5.809885      -158.0950
  30   2.0000      -5.803512      -157.9216
  31   2.0000      -5.767379      -156.9384
  32   2.0000      -5.760154      -156.7418
  33   2.0000      -5.759901      -156.7349
  34   2.0000      -5.759489      -156.7237
  35   2.0000      -5.752076      -156.5220
  36   2.0000      -5.751742      -156.5129
  37   2.0000      -4.741631      -129.0264
  38   2.0000      -4.741184      -129.0142
  39   2.0000      -4.740094      -128.9845
  40   2.0000      -4.737501      -128.9140
  41   2.0000      -4.736628      -128.8902
  42   2.0000      -4.735211      -128.8517
  43   2.0000      -1.054874       -28.7046
  44   2.0000      -1.050672       -28.5902
  45   2.0000      -1.016068       -27.6486
  46   2.0000      -1.009689       -27.4750
  47   2.0000      -0.801996       -21.8234
  48   2.0000      -0.762077       -20.7372
  49   2.0000      -0.750184       -20.4135
  50   2.0000      -0.735591       -20.0165
  51   2.0000      -0.729945       -19.8628
  52   2.0000      -0.711314       -19.3558
  53   2.0000      -0.689788       -18.7701
  54   2.0000      -0.668838       -18.2000
  55   2.0000      -0.633126       -17.2282
  56   2.0000      -0.622302       -16.9337
  57   2.0000      -0.610073       -16.6009
  58   2.0000      -0.603729       -16.4283
  59   2.0000      -0.593093       -16.1389
  60   2.0000      -0.531848       -14.4723
  61   2.0000      -0.522105       -14.2072
  62   2.0000      -0.500691       -13.6245
  63   2.0000      -0.489322       -13.3151
  64   2.0000      -0.478826       -13.0295
  65   2.0000      -0.468196       -12.7403
  66   2.0000      -0.458913       -12.4877
  67   2.0000      -0.453800       -12.3485
  68   2.0000      -0.444968       -12.1082
  69   2.0000      -0.435740       -11.8571
  70   2.0000      -0.429077       -11.6758
  71   2.0000      -0.420303       -11.4370
  72   2.0000      -0.414641       -11.2830
  73   2.0000      -0.405552       -11.0356
  74   2.0000      -0.398735       -10.8501
  75   2.0000      -0.391725       -10.6594
  76   2.0000      -0.379090       -10.3156
  77   2.0000      -0.376642       -10.2490
  78   2.0000      -0.367765       -10.0074
  79   2.0000      -0.365257        -9.9391
  80   2.0000      -0.363656        -9.8956
  81   2.0000      -0.361869        -9.8469
  82   2.0000      -0.359670        -9.7871
  83   2.0000      -0.350165        -9.5285
  84   2.0000      -0.342673        -9.3246
  85   2.0000      -0.339194        -9.2299
  86   2.0000      -0.326536        -8.8855
  87   2.0000      -0.320148        -8.7117
  88   2.0000      -0.309999        -8.4355
  89   2.0000      -0.306431        -8.3384
  90   2.0000      -0.302819        -8.2401
  91   2.0000      -0.294001        -8.0002
  92   2.0000      -0.290168        -7.8959
  93   2.0000      -0.281947        -7.6722
  94   2.0000      -0.271398        -7.3851
  95   2.0000      -0.246362        -6.7038
  96   2.0000      -0.232349        -6.3225
  97   2.0000      -0.225874        -6.1464
  98   2.0000      -0.219103        -5.9621
  99   2.0000      -0.215669        -5.8687
 100   2.0000      -0.211201        -5.7471
 101   0.0000      -0.044514        -1.2113
 102   0.0000      -0.020115        -0.5474
 103   0.0000      -0.010183        -0.2771
 104   0.0000       0.005233         0.1424
 105   0.0000       0.009292         0.2529

MULLIKEN ATOMIC CHARGES
-----------------------
   0 C :   -0.439449
   1 C :   -0.139169
   2 O :   -0.321432
   3 P :    0.677640
   4 S :   -0.443883
   5 O :   -0.284061
   6 C :   -0.149720
   7 C :   -0.454568
   8 S :   -0.108313
   9 C :   -0.253702
  10 S :   -0.123754
  11 P :    0.674755
  12 S :   -0.484221
  13 O :   -0.262339
  14 C :   -0.147244
  15 C :   -0.443308
  16 O :   -0.286855
  17 C :   -0.155570
  18 C :   -0.438582
  19 H :    0.165295
  20 H :    0.165507
  21 H :    0.145335
  22 H :    0.157458
  23 H :    0.148303
  24 H :    0.145253
  25 H :    0.166271
  26 H :    0.174353
  27 H :    0.142660
  28 H :    0.168863
  29 H :    0.205666
  30 H :    0.216218
  31 H :    0.155708
  32 H :    0.174452
  33 H :    0.148910
  34 H :    0.167234
  35 H :    0.155855
  36 H :    0.171180
  37 H :    0.151675
  38 H :    0.155496
  39 H :    0.147960
  40 H :    0.154124
Sum of atomic charges:   -0.0000000

LOEWDIN ATOMIC CHARGES
----------------------
   0 C :   -0.401222
   1 C :    0.029189
   2 O :   -0.685931
   3 P :    0.368604
   4 S :   -0.109944
   5 O :   -0.680763
   6 C :    0.016034
   7 C :   -0.406498
   8 S :    0.190372
   9 C :   -0.412186
  10 S :    0.165981
  11 P :    0.371397
  12 S :   -0.134070
  13 O :   -0.673941
  14 C :    0.022028
  15 C :   -0.399007
  16 O :   -0.663318
  17 C :    0.020701
  18 C :   -0.385144
  19 H :    0.165803
  20 H :    0.164998
  21 H :    0.157943
  22 H :    0.174247
  23 H :    0.180571
  24 H :    0.178277
  25 H :    0.179940
  26 H :    0.170150
  27 H :    0.157388
  28 H :    0.167075
  29 H :    0.191929
  30 H :    0.195355
  31 H :    0.182080
  32 H :    0.182042
  33 H :    0.160358
  34 H :    0.164788
  35 H :    0.160541
  36 H :    0.180984
  37 H :    0.171972
  38 H :    0.160479
  39 H :    0.160554
  40 H :    0.160244

  Mayer bond orders larger than 0.100000
B(  0-C ,  1-C ) :   0.9435 B(  0-C , 19-H ) :   0.9663 B(  0-C , 20-H ) :   0.9547
B(  0-C , 21-H ) :   0.9628 B(  1-C ,  2-O ) :   0.8005 B(  1-C , 22-H ) :   0.9695
B(  1-C , 23-H ) :   0.9566 B(  2-O ,  3-P ) :   1.1183 B(  3-P ,  4-S ) :   1.8382
B(  3-P ,  5-O ) :   1.0113 B(  3-P ,  8-S ) :   1.0775 B(  5-O ,  6-C ) :   0.7980
B(  6-C ,  7-C ) :   0.9395 B(  6-C , 24-H ) :   0.9600 B(  6-C , 25-H ) :   0.9568
B(  7-C , 26-H ) :   0.9592 B(  7-C , 27-H ) :   0.9615 B(  7-C , 28-H ) :   0.9603
B(  8-S ,  9-C ) :   0.9079 B(  9-C , 10-S ) :   0.9244 B(  9-C , 29-H ) :   0.9103
B(  9-C , 30-H ) :   0.9096 B( 10-S , 11-P ) :   1.0767 B( 11-P , 12-S ) :   1.7455
B( 11-P , 13-O ) :   1.1590 B( 11-P , 16-O ) :   1.0926 B( 13-O , 14-C ) :   0.7835
B( 14-C , 15-C ) :   0.9220 B( 14-C , 31-H ) :   0.9612 B( 14-C , 32-H ) :   0.9626
B( 15-C , 33-H ) :   0.9621 B( 15-C , 34-H ) :   0.9598 B( 15-C , 35-H ) :   0.9722
B( 16-O , 17-C ) :   0.7785 B( 17-C , 18-C ) :   0.9576 B( 17-C , 36-H ) :   0.9510
B( 17-C , 37-H ) :   0.9462 B( 18-C , 38-H ) :   0.9708 B( 18-C , 39-H ) :   0.9642
B( 18-C , 40-H ) :   0.9714

Dispersion correction           -0.021251159
FINAL SINGLE POINT ENERGY     -2932.463576632050

DIPOLE MOMENT
-------------

Method             : SCF
Type of density    : Electron Density
Multiplicity       :   1
Irrep              :   0
Energy             : -2932.4887779305950062 Eh
Relativity type    :
Basis              : AO
                                X                 Y                 Z
Electronic contribution:      7.782129734       7.237423752     -12.371944477
Nuclear contribution   :     -8.414573118      -8.932781432      13.118171269
                        -----------------------------------------
Total Dipole Moment    :     -0.632443384      -1.695357680       0.746226792
                        -----------------------------------------
Magnitude (a.u.)       :      1.957313649
Magnitude (Debye)      :      4.975095919

Rotational constants in cm-1:             0.014413             0.004270             0.004089
Rotational constants in MHz :           432.083769           128.007520           122.580999

                             ****ORCA TERMINATED NORMALLY****
TOTAL RUN TIME: 0 days 0 hours 1 minutes 21 seconds 510 msec
