                         Program Version 6.0.0  -   RELEASE  -
|  1> ! r2scan-3c def2/J RI DEFGRID2 scfconv6 printgap
|  2> %output
|  3>     printlevel normal
|  4> end
|  5> %cpcm
|  6>     smd true
|  7>     smdsolvent "water"
|  8> end
|  9> * xyz 0 1
| 10> C 5.4839602577 -1.009066476 -0.6329877001
| 11> C 4.1810342635 -1.4471489963 -1.2672747022
| 12> O 3.2205349509 -0.3695700935 -1.3535389533
| 13> P 2.6477137521 0.4143187927 -0.09697292
| 14> S 3.7324902975 1.8354171506 0.7037497919
| 15> O 2.2878143273 -0.7896353924 0.8873318209
| 16> C 2.1735565875 -0.6012287348 2.3061572678
| 17> C 0.9311614497 0.1807270989 2.6776927832
| 18> S 0.852953958 1.106910277 -0.9718777318
| 19> C 0.1934725616 -0.4613912198 -1.6218394182
| 20> S -0.6724251448 -1.4539745964 -0.3816754802
| 21> P -2.3423438082 -0.1787780094 -0.1906564183
| 22> S -2.9927295988 0.6439362922 -1.8535423721
| 23> O -1.8554741429 0.8073180738 0.9446074397
| 24> C -2.4140002744 2.1258032001 1.1070511018
| 25> C -3.8432132533 2.0635596497 1.6019719908
| 26> O -3.4011284325 -1.0709936534 0.5852518127
| 27> C -4.182803792 -2.0772715078 -0.0904527802
| 28> C -5.3762610289 -2.4048116173 0.7840680048
| 29> H 5.8966078783 -0.1558424093 -1.1662659566
| 30> H 5.3193462852 -0.7171464364 0.4033524398
| 31> H 6.1935125326 -1.829971554 -0.6629252411
| 32> H 3.7282233846 -2.2667753936 -0.7047268412
| 33> H 4.3241233746 -1.7417242777 -2.308487044
| 34> H 2.1484793665 -1.6151616322 2.7069793446
| 35> H 3.0681203494 -0.0763674221 2.6574599171
| 36> H 0.0368117539 -0.3193053865 2.3142661714
| 37> H 0.8749294014 0.277401886 3.7570717867
| 38> H 0.9808043705 1.1764685682 2.2357647573
| 39> H 1.0064933965 -1.0629113936 -2.0165133814
| 40> H -0.5113764511 -0.1826860755 -2.4060858505
| 41> H -1.7516342143 2.6053924138 1.8287954354
| 42> H -2.3537990743 2.649673953 0.1475785442
| 43> H -4.2031806695 3.0690881257 1.7956324892
| 44> H -4.4740668207 1.6010257002 0.8435733304
| 45> H -3.8986830183 1.4746647343 2.5135556372
| 46> H -4.4933170218 -1.6829081229 -1.0639349697
| 47> H -3.5485793904 -2.9541291969 -0.2453661009
| 48> H -5.998276361 -1.5241686293 0.9166570504
| 49> H -5.9604891279 -3.1869437843 0.3105759109
| 50> H -5.037914942 -2.7465706921 1.757771848
| 51> *
| 52>
| 53>                          ****END OF INPUT****

CARTESIAN COORDINATES (ANGSTROEM)
---------------------------------
  C      5.483960   -1.009066   -0.632988
  C      4.181034   -1.447149   -1.267275
  O      3.220535   -0.369570   -1.353539
  P      2.647714    0.414319   -0.096973
  S      3.732490    1.835417    0.703750
  O      2.287814   -0.789635    0.887332
  C      2.173557   -0.601229    2.306157
  C      0.931161    0.180727    2.677693
  S      0.852954    1.106910   -0.971878
  C      0.193473   -0.461391   -1.621839
  S     -0.672425   -1.453975   -0.381675
  P     -2.342344   -0.178778   -0.190656
  S     -2.992730    0.643936   -1.853542
  O     -1.855474    0.807318    0.944607
  C     -2.414000    2.125803    1.107051
  C     -3.843213    2.063560    1.601972
  O     -3.401128   -1.070994    0.585252
  C     -4.182804   -2.077272   -0.090453
  C     -5.376261   -2.404812    0.784068
  H      5.896608   -0.155842   -1.166266
  H      5.319346   -0.717146    0.403352
  H      6.193513   -1.829972   -0.662925
  H      3.728223   -2.266775   -0.704727
  H      4.324123   -1.741724   -2.308487
  H      2.148479   -1.615162    2.706979
  H      3.068120   -0.076367    2.657460
  H      0.036812   -0.319305    2.314266
  H      0.874929    0.277402    3.757072
  H      0.980804    1.176469    2.235765
  H      1.006493   -1.062911   -2.016513
  H     -0.511376   -0.182686   -2.406086
  H     -1.751634    2.605392    1.828795
  H     -2.353799    2.649674    0.147579
  H     -4.203181    3.069088    1.795632
  H     -4.474067    1.601026    0.843573
  H     -3.898683    1.474665    2.513556
  H     -4.493317   -1.682908   -1.063935
  H     -3.548579   -2.954129   -0.245366
  H     -5.998276   -1.524169    0.916657
  H     -5.960489   -3.186944    0.310576
  H     -5.037915   -2.746571    1.757772

 Total Charge           Charge          ....    0
 Multiplicity           Mult            ....    1
 Number of Electrons    NEL             ....  202
 Basis Dimension        Dim             ....  539

ORBITAL ENERGIES
----------------

  NO   OCC          E(Eh)            E(eV)
   0   2.0000     -88.579995     -2410.3842
   1   2.0000     -88.578695     -2410.3488
   2   2.0000     -88.530117     -2409.0270
   3   2.0000     -88.527804     -2408.9640
   4   2.0000     -76.920135     -2093.1033
   5   2.0000     -76.920062     -2093.1013
   6   2.0000     -18.997255      -516.9416
   7   2.0000     -18.994703      -516.8722
   8   2.0000     -18.994027      -516.8538
   9   2.0000     -18.992084      -516.8009
  10   2.0000     -10.104914      -274.9687
  11   2.0000     -10.091031      -274.5909
  12   2.0000     -10.090429      -274.5745
  13   2.0000     -10.089986      -274.5625
  14   2.0000     -10.087716      -274.5007
  15   2.0000     -10.020019      -272.6586
  16   2.0000     -10.018925      -272.6288
  17   2.0000     -10.018151      -272.6078
  18   2.0000     -10.015402      -272.5330
  19   2.0000      -7.874445      -214.2746
  20   2.0000      -7.872754      -214.2285
  21   2.0000      -7.825078      -212.9312
  22   2.0000      -7.822866      -212.8710
  23   2.0000      -6.598821      -179.5631
  24   2.0000      -6.598108      -179.5436
  25   2.0000      -5.821237      -158.4039
  26   2.0000      -5.820008      -158.3705
  27   2.0000      -5.818306      -158.3242
  28   2.0000      -5.816200      -158.2669
  29   2.0000      -5.811620      -158.1422
  30   2.0000      -5.809970      -158.0973
  31   2.0000      -5.772563      -157.0794
  32   2.0000      -5.770453      -157.0220
  33   2.0000      -5.765381      -156.8840
  34   2.0000      -5.765184      -156.8786
  35   2.0000      -5.763125      -156.8226
  36   2.0000      -5.762904      -156.8166
  37   2.0000      -4.744149      -129.0949
  38   2.0000      -4.743832      -129.0862
  39   2.0000      -4.743737      -129.0837
  40   2.0000      -4.743023      -129.0642
  41   2.0000      -4.742714      -129.0558
  42   2.0000      -4.741780      -129.0304
  43   2.0000      -1.054775       -28.7019
  44   2.0000      -1.051305       -28.6075
  45   2.0000      -1.015351       -27.6291
  46   2.0000      -1.009752       -27.4767
  47   2.0000      -0.803207       -21.8564
  48   2.0000      -0.757947       -20.6248
  49   2.0000      -0.743073       -20.2200
  50   2.0000      -0.724955       -19.7270
  51   2.0000      -0.723157       -19.6781
  52   2.0000      -0.709957       -19.3189
  53   2.0000      -0.692855       -18.8536
  54   2.0000      -0.674459       -18.3530
  55   2.0000      -0.629088       -17.1184
  56   2.0000      -0.620204       -16.8766
  57   2.0000      -0.603777       -16.4296
  58   2.0000      -0.594222       -16.1696
  59   2.0000      -0.590831       -16.0773
  60   2.0000      -0.526436       -14.3250
  61   2.0000      -0.517262       -14.0754
  62   2.0000      -0.496693       -13.5157
  63   2.0000      -0.485437       -13.2094
  64   2.0000      -0.476046       -12.9539
  65   2.0000      -0.462987       -12.5985
  66   2.0000      -0.453285       -12.3345
  67   2.0000      -0.446492       -12.1497
  68   2.0000      -0.439909       -11.9705
  69   2.0000      -0.431311       -11.7366
  70   2.0000      -0.425882       -11.5888
  71   2.0000      -0.415479       -11.3057
  72   2.0000      -0.409896       -11.1538
  73   2.0000      -0.403989       -10.9931
  74   2.0000      -0.395681       -10.7670
  75   2.0000      -0.385056       -10.4779
  76   2.0000      -0.378728       -10.3057
  77   2.0000      -0.363826        -9.9002
  78   2.0000      -0.363426        -9.8893
  79   2.0000      -0.359332        -9.7779
  80   2.0000      -0.353892        -9.6299
  81   2.0000      -0.352592        -9.5945
  82   2.0000      -0.350497        -9.5375
  83   2.0000      -0.345195        -9.3932
  84   2.0000      -0.341536        -9.2937
  85   2.0000      -0.334643        -9.1061
  86   2.0000      -0.322846        -8.7851
  87   2.0000      -0.313876        -8.5410
  88   2.0000      -0.305887        -8.3236
  89   2.0000      -0.302227        -8.2240
  90   2.0000      -0.299765        -8.1570
  91   2.0000      -0.291688        -7.9372
  92   2.0000      -0.287096        -7.8123
  93   2.0000      -0.279720        -7.6116
  94   2.0000      -0.272471        -7.4143
  95   2.0000      -0.249519        -6.7898
  96   2.0000      -0.239771        -6.5245
  97   2.0000      -0.231731        -6.3057
  98   2.0000      -0.227574        -6.1926
  99   2.0000      -0.224331        -6.1043
 100   2.0000      -0.220844        -6.0095
 101   0.0000      -0.047381        -1.2893
 102   0.0000      -0.026549        -0.7224
 103   0.0000      -0.014932        -0.4063
 104   0.0000      -0.000148        -0.0040
 105   0.0000       0.007444         0.2026

MULLIKEN ATOMIC CHARGES
-----------------------
   0 C :   -0.487125
   1 C :   -0.130322
   2 O :   -0.341332
   3 P :    0.709547
   4 S :   -0.510637
   5 O :   -0.294580
   6 C :   -0.144645
   7 C :   -0.487125
   8 S :   -0.147089
   9 C :   -0.260966
  10 S :   -0.122835
  11 P :    0.705607
  12 S :   -0.533933
  13 O :   -0.286978
  14 C :   -0.144213
  15 C :   -0.484515
  16 O :   -0.312907
  17 C :   -0.145387
  18 C :   -0.482025
  19 H :    0.170233
  20 H :    0.167558
  21 H :    0.171352
  22 H :    0.175192
  23 H :    0.173635
  24 H :    0.174923
  25 H :    0.171245
  26 H :    0.173334
  27 H :    0.169933
  28 H :    0.165907
  29 H :    0.242499
  30 H :    0.230647
  31 H :    0.179677
  32 H :    0.176935
  33 H :    0.172754
  34 H :    0.168095
  35 H :    0.170803
  36 H :    0.172213
  37 H :    0.171917
  38 H :    0.166427
  39 H :    0.169905
  40 H :    0.166276
Sum of atomic charges:   -0.0000000

LOEWDIN ATOMIC CHARGES
----------------------
   0 C :   -0.405684
   1 C :    0.037784
   2 O :   -0.694152
   3 P :    0.372663
   4 S :   -0.156025
   5 O :   -0.679739
   6 C :    0.022325
   7 C :   -0.409867
   8 S :    0.166918
   9 C :   -0.404247
  10 S :    0.170277
  11 P :    0.375937
  12 S :   -0.165547
  13 O :   -0.686651
  14 C :    0.024779
  15 C :   -0.402111
  16 O :   -0.674818
  17 C :    0.025848
  18 C :   -0.388917
  19 H :    0.163461
  20 H :    0.162621
  21 H :    0.168097
  22 H :    0.182547
  23 H :    0.191348
  24 H :    0.190352
  25 H :    0.181848
  26 H :    0.168266
  27 H :    0.167027
  28 H :    0.162743
  29 H :    0.205424
  30 H :    0.199764
  31 H :    0.191360
  32 H :    0.182404
  33 H :    0.169132
  34 H :    0.162877
  35 H :    0.164436
  36 H :    0.181888
  37 H :    0.180153
  38 H :    0.162783
  39 H :    0.169173
  40 H :    0.163523

  Mayer bond orders larger than 0.100000
B(  0-C ,  1-C ) :   0.9197 B(  0-C , 19-H ) :   0.9689 B(  0-C , 20-H ) :   0.9570
B(  0-C , 21-H ) :   0.9562 B(  1-C ,  2-O ) :   0.7899 B(  1-C , 22-H ) :   0.9639
B(  1-C , 23-H ) :   0.9493 B(  2-O ,  3-P ) :   1.1374 B(  3-P ,  4-S ) :   1.7855
B(  3-P ,  5-O ) :   1.0253 B(  3-P ,  8-S ) :   1.0907 B(  5-O ,  6-C ) :   0.7863
B(  6-C ,  7-C ) :   0.9261 B(  6-C , 24-H ) :   0.9506 B(  6-C , 25-H ) :   0.9566
B(  7-C , 26-H ) :   0.9587 B(  7-C , 27-H ) :   0.9565 B(  7-C , 28-H ) :   0.9631
B(  8-S ,  9-C ) :   0.9031 B(  9-C , 10-S ) :   0.9218 B(  9-C , 29-H ) :   0.8984
B(  9-C , 30-H ) :   0.9048 B( 10-S , 11-P ) :   1.0929 B( 11-P , 12-S ) :   1.7015
B( 11-P , 13-O ) :   1.1635 B( 11-P , 16-O ) :   1.1000 B( 13-O , 14-C ) :   0.7714
B( 14-C , 15-C ) :   0.9126 B( 14-C , 31-H ) :   0.9517 B( 14-C , 32-H ) :   0.9587
B( 15-C , 33-H ) :   0.9563 B( 15-C , 34-H ) :   0.9590 B( 15-C , 35-H ) :   0.9710
B( 16-O , 17-C ) :   0.7717 B( 17-C , 18-C ) :   0.9527 B( 17-C , 36-H ) :   0.9478
B( 17-C , 37-H ) :   0.9371 B( 18-C , 38-H ) :   0.9688 B( 18-C , 39-H ) :   0.9582
B( 18-C , 40-H ) :   0.9688

Dispersion correction           -0.021251159
FINAL SINGLE POINT ENERGY     -2932.473474840013

DIPOLE MOMENT
-------------

Method             : SCF
Type of density    : Electron Density
Multiplicity       :   1
Irrep              :   0
Energy             : -2932.4986761385575846 Eh
Relativity type    :
Basis              : AO
                                X                 Y                 Z
Electronic contribution:      7.675218324       6.427078336     -12.169712154
Nuclear contribution   :     -8.414573118      -8.932781432      13.118171269
                        -----------------------------------------
Total Dipole Moment    :     -0.739354795      -2.505703096       0.948459115
                        -----------------------------------------
Magnitude (a.u.)       :      2.779346724
Magnitude (Debye)      :      7.064537944

Rotational constants in cm-1:             0.014413             0.004270             0.004089
Rotational constants in MHz :           432.083769           128.007520           122.580999

                             ****ORCA TERMINATED NORMALLY****
TOTAL RUN TIME: 0 days 0 hours 1 minutes 54 seconds 974 msec
