                         Program Version 6.0.0  -   RELEASE  -
|  1> ! pbe def2-sv(p) def2/J RI DEFGRID1 loosescf d4 GCP(DFT/SV(P)) printgap
|  2> %output
|  3>     printlevel normal
|  4> end
|  5> * xyz 0 1
|  6> C 2.8889408803 0.8026956898 -3.2044600781
|  7> C 3.0072851584 1.0243983587 -1.7116302856
|  8> O 2.5705227883 -0.1794102538 -1.0471238956
|  9> P 2.1513929984 -0.2180113843 0.4795473739
| 10> S 1.1378935828 1.3591150815 1.0723011274
| 11> O 3.5651817957 -0.3974353455 1.1846132474
| 12> C 3.7951524707 -0.9440624878 2.4984606444
| 13> C 2.8340022358 -0.4163712995 3.5424841689
| 14> S 1.3152341848 -2.145818771 0.5876098613
| 15> C -0.233166824 -1.8799166783 -0.3136659584
| 16> S -1.4764554701 -0.9732990164 0.6603653168
| 17> P -2.03463852 0.4462538286 -0.8273832852
| 18> S -0.6469658621 0.9837112642 -2.0950875483
| 19> O -2.7989792997 1.5926480034 -0.0423259559
| 20> C -2.199216885 2.5740248899 0.8247728029
| 21> C -2.3044442833 2.1494353096 2.2756396695
| 22> O -3.2225790747 -0.220463574 -1.6199953492
| 23> C -4.4188142832 -0.7438103999 -0.9851174945
| 24> C -4.4315222315 -2.2571462481 -1.0684257478
| 25> H 3.4502977372 -0.0807854077 -3.4937263363
| 26> H 1.844296382 0.6684201981 -3.4754542335
| 27> H 3.2813913033 1.6704232317 -3.7240035557
| 28> H 2.3742212095 1.8557981286 -1.3831389769
| 29> H 4.0403222098 1.2156695401 -1.4114536645
| 30> H 3.7227653904 -2.0322337785 2.4204594386
| 31> H 4.8242671399 -0.6556026459 2.7204535343
| 32> H 1.8157715962 -0.7227322152 3.3035989811
| 33> H 3.1043603793 -0.8172264544 4.5140853388
| 34> H 2.8679977213 0.6701935416 3.5782548594
| 35> H -0.6138426689 -2.8738636043 -0.5333948708
| 36> H -0.0300911508 -1.3164608784 -1.2279950293
| 37> H -1.1556744373 2.7286358399 0.5368661345
| 38> H -2.7679700425 3.4862136743 0.634771712
| 39> H -3.3386916633 1.9375273228 2.5311883728
| 40> H -1.7009737048 1.2629389928 2.4557067412
| 41> H -1.9328324844 2.9532605176 2.9024323804
| 42> H -4.4554932718 -0.4004665731 0.0504679855
| 43> H -5.2459599795 -0.3065018627 -1.5460799933
| 44> H -3.6388958847 -2.6797515423 -0.4560932669
| 45> H -5.3882642459 -2.6224512154 -0.7090619192
| 46> H -4.2913497977 -2.5727485157 -2.0985399046
| 47> *
| 48>
| 49>                          ****END OF INPUT****

CARTESIAN COORDINATES (ANGSTROEM)
---------------------------------
  C      2.888941    0.802696   -3.204460
  C      3.007285    1.024398   -1.711630
  O      2.570523   -0.179410   -1.047124
  P      2.151393   -0.218011    0.479547
  S      1.137894    1.359115    1.072301
  O      3.565182   -0.397435    1.184613
  C      3.795152   -0.944062    2.498461
  C      2.834002   -0.416371    3.542484
  S      1.315234   -2.145819    0.587610
  C     -0.233167   -1.879917   -0.313666
  S     -1.476455   -0.973299    0.660365
  P     -2.034639    0.446254   -0.827383
  S     -0.646966    0.983711   -2.095088
  O     -2.798979    1.592648   -0.042326
  C     -2.199217    2.574025    0.824773
  C     -2.304444    2.149435    2.275640
  O     -3.222579   -0.220464   -1.619995
  C     -4.418814   -0.743810   -0.985117
  C     -4.431522   -2.257146   -1.068426
  H      3.450298   -0.080785   -3.493726
  H      1.844296    0.668420   -3.475454
  H      3.281391    1.670423   -3.724004
  H      2.374221    1.855798   -1.383139
  H      4.040322    1.215670   -1.411454
  H      3.722765   -2.032234    2.420459
  H      4.824267   -0.655603    2.720454
  H      1.815772   -0.722732    3.303599
  H      3.104360   -0.817226    4.514085
  H      2.867998    0.670194    3.578255
  H     -0.613843   -2.873864   -0.533395
  H     -0.030091   -1.316461   -1.227995
  H     -1.155674    2.728636    0.536866
  H     -2.767970    3.486214    0.634772
  H     -3.338692    1.937527    2.531188
  H     -1.700974    1.262939    2.455707
  H     -1.932832    2.953261    2.902432
  H     -4.455493   -0.400467    0.050468
  H     -5.245960   -0.306502   -1.546080
  H     -3.638896   -2.679752   -0.456093
  H     -5.388264   -2.622451   -0.709062
  H     -4.291350   -2.572749   -2.098540

 Total Charge           Charge          ....    0
 Multiplicity           Mult            ....    1
 Number of Electrons    NEL             ....  202
 Basis Dimension        Dim             ....  334

ORBITAL ENERGIES
----------------

  NO   OCC          E(Eh)            E(eV)
   0   2.0000     -88.046170     -2395.8581
   1   2.0000     -88.040921     -2395.7153
   2   2.0000     -87.979744     -2394.0505
   3   2.0000     -87.977781     -2393.9971
   4   2.0000     -76.423036     -2079.5765
   5   2.0000     -76.422818     -2079.5706
   6   2.0000     -18.792404      -511.3673
   7   2.0000     -18.787278      -511.2278
   8   2.0000     -18.784808      -511.1606
   9   2.0000     -18.780566      -511.0452
  10   2.0000      -9.957323      -270.9525
  11   2.0000      -9.957101      -270.9465
  12   2.0000      -9.954653      -270.8799
  13   2.0000      -9.948545      -270.7137
  14   2.0000      -9.939913      -270.4788
  15   2.0000      -9.886634      -269.0290
  16   2.0000      -9.882003      -268.9030
  17   2.0000      -9.879737      -268.8413
  18   2.0000      -9.874056      -268.6867
  19   2.0000      -7.691724      -209.3025
  20   2.0000      -7.685588      -209.1355
  21   2.0000      -7.624908      -207.4843
  22   2.0000      -7.622653      -207.4229
  23   2.0000      -6.420528      -174.7115
  24   2.0000      -6.420095      -174.6997
  25   2.0000      -5.719560      -155.6371
  26   2.0000      -5.716158      -155.5446
  27   2.0000      -5.713394      -155.4693
  28   2.0000      -5.710251      -155.3838
  29   2.0000      -5.708719      -155.3421
  30   2.0000      -5.702521      -155.1735
  31   2.0000      -5.653944      -153.8516
  32   2.0000      -5.651473      -153.7844
  33   2.0000      -5.645687      -153.6270
  34   2.0000      -5.644701      -153.6001
  35   2.0000      -5.643372      -153.5640
  36   2.0000      -5.642789      -153.5481
  37   2.0000      -4.643308      -126.3508
  38   2.0000      -4.642717      -126.3347
  39   2.0000      -4.642344      -126.3246
  40   2.0000      -4.642152      -126.3194
  41   2.0000      -4.640764      -126.2816
  42   2.0000      -4.640294      -126.2688
  43   2.0000      -0.985015       -26.8036
  44   2.0000      -0.979723       -26.6596
  45   2.0000      -0.940527       -25.5930
  46   2.0000      -0.937805       -25.5190
  47   2.0000      -0.762879       -20.7590
  48   2.0000      -0.720176       -19.5970
  49   2.0000      -0.708714       -19.2851
  50   2.0000      -0.687313       -18.7027
  51   2.0000      -0.684579       -18.6284
  52   2.0000      -0.673115       -18.3164
  53   2.0000      -0.648173       -17.6377
  54   2.0000      -0.632432       -17.2094
  55   2.0000      -0.592204       -16.1147
  56   2.0000      -0.584892       -15.9157
  57   2.0000      -0.572947       -15.5907
  58   2.0000      -0.570098       -15.5131
  59   2.0000      -0.556307       -15.1379
  60   2.0000      -0.502772       -13.6811
  61   2.0000      -0.497084       -13.5263
  62   2.0000      -0.475684       -12.9440
  63   2.0000      -0.465850       -12.6764
  64   2.0000      -0.453686       -12.3454
  65   2.0000      -0.449112       -12.2210
  66   2.0000      -0.438949       -11.9444
  67   2.0000      -0.432388       -11.7659
  68   2.0000      -0.424441       -11.5496
  69   2.0000      -0.416050       -11.3213
  70   2.0000      -0.412531       -11.2255
  71   2.0000      -0.396888       -10.7999
  72   2.0000      -0.395752       -10.7690
  73   2.0000      -0.379279       -10.3207
  74   2.0000      -0.375812       -10.2264
  75   2.0000      -0.368654       -10.0316
  76   2.0000      -0.359271        -9.7763
  77   2.0000      -0.356256        -9.6942
  78   2.0000      -0.348216        -9.4754
  79   2.0000      -0.347543        -9.4571
  80   2.0000      -0.345824        -9.4104
  81   2.0000      -0.341414        -9.2903
  82   2.0000      -0.338982        -9.2242
  83   2.0000      -0.332558        -9.0494
  84   2.0000      -0.325743        -8.8639
  85   2.0000      -0.313917        -8.5421
  86   2.0000      -0.309920        -8.4333
  87   2.0000      -0.296448        -8.0668
  88   2.0000      -0.296305        -8.0629
  89   2.0000      -0.289379        -7.8744
  90   2.0000      -0.286149        -7.7865
  91   2.0000      -0.272024        -7.4022
  92   2.0000      -0.262512        -7.1433
  93   2.0000      -0.261206        -7.1078
  94   2.0000      -0.256896        -6.9905
  95   2.0000      -0.242386        -6.5957
  96   2.0000      -0.221821        -6.0360
  97   2.0000      -0.204610        -5.5677
  98   2.0000      -0.199978        -5.4417
  99   2.0000      -0.189350        -5.1525
 100   2.0000      -0.178649        -4.8613
 101   0.0000      -0.041975        -1.1422
 102   0.0000      -0.032585        -0.8867
 103   0.0000      -0.016241        -0.4419
 104   0.0000       0.000675         0.0184
 105   0.0000       0.019811         0.5391

MULLIKEN ATOMIC CHARGES
-----------------------
   0 C :   -0.291184
   1 C :   -0.003710
   2 O :   -0.369007
   3 P :    0.624959
   4 S :   -0.335148
   5 O :   -0.380365
   6 C :   -0.005260
   7 C :   -0.318284
   8 S :   -0.100426
   9 C :   -0.343200
  10 S :   -0.105039
  11 P :    0.610267
  12 S :   -0.308413
  13 O :   -0.379282
  14 C :   -0.011739
  15 C :   -0.309683
  16 O :   -0.359300
  17 C :   -0.007869
  18 C :   -0.289208
  19 H :    0.110580
  20 H :    0.133944
  21 H :    0.105941
  22 H :    0.114978
  23 H :    0.097525
  24 H :    0.111510
  25 H :    0.109432
  26 H :    0.127000
  27 H :    0.110231
  28 H :    0.129496
  29 H :    0.182203
  30 H :    0.198176
  31 H :    0.129450
  32 H :    0.104741
  33 H :    0.108304
  34 H :    0.139499
  35 H :    0.111760
  36 H :    0.102724
  37 H :    0.111068
  38 H :    0.115089
  39 H :    0.108548
  40 H :    0.119694
Sum of atomic charges:    0.0000000

LOEWDIN ATOMIC CHARGES
----------------------
   0 C :   -0.353852
   1 C :   -0.117391
   2 O :   -0.242958
   3 P :    0.571346
   4 S :   -0.312149
   5 O :   -0.250398
   6 C :   -0.111079
   7 C :   -0.373592
   8 S :    0.082891
   9 C :   -0.476684
  10 S :    0.068973
  11 P :    0.569545
  12 S :   -0.296344
  13 O :   -0.241243
  14 C :   -0.114324
  15 C :   -0.365112
  16 O :   -0.242515
  17 C :   -0.113510
  18 C :   -0.360063
  19 H :    0.124344
  20 H :    0.124644
  21 H :    0.128658
  22 H :    0.109207
  23 H :    0.109887
  24 H :    0.110216
  25 H :    0.121715
  26 H :    0.120383
  27 H :    0.129366
  28 H :    0.129450
  29 H :    0.135333
  30 H :    0.125126
  31 H :    0.110545
  32 H :    0.118813
  33 H :    0.121587
  34 H :    0.122075
  35 H :    0.132115
  36 H :    0.106820
  37 H :    0.121795
  38 H :    0.118411
  39 H :    0.129197
  40 H :    0.128771

  Mayer bond orders larger than 0.100000
B(  0-C ,  1-C ) :   1.1640 B(  0-C , 19-H ) :   0.9494 B(  0-C , 20-H ) :   0.9428
B(  0-C , 21-H ) :   0.9412 B(  1-C ,  2-O ) :   0.8949 B(  1-C , 22-H ) :   0.9070
B(  1-C , 23-H ) :   0.9318 B(  2-O ,  3-P ) :   1.1298 B(  3-P ,  4-S ) :   1.6316
B(  3-P ,  5-O ) :   1.1076 B(  3-P ,  8-S ) :   0.9561 B(  4-S ,  8-S ) :   0.1193
B(  5-O ,  6-C ) :   0.9159 B(  6-C ,  7-C ) :   1.1653 B(  6-C , 24-H ) :   0.9314
B(  6-C , 25-H ) :   0.9345 B(  7-C , 26-H ) :   0.9321 B(  7-C , 27-H ) :   0.9330
B(  7-C , 28-H ) :   0.9392 B(  8-S ,  9-C ) :   1.0070 B(  9-C , 10-S ) :   0.9920
B(  9-C , 29-H ) :   0.9102 B(  9-C , 30-H ) :   0.8498 B( 10-S , 11-P ) :   0.9354
B( 10-S , 12-S ) :   0.1137 B( 11-P , 12-S ) :   1.6384 B( 11-P , 13-O ) :   1.1135
B( 11-P , 16-O ) :   1.1294 B( 12-S , 30-H ) :   0.1065 B( 13-O , 14-C ) :   0.8939
B( 14-C , 15-C ) :   1.1721 B( 14-C , 31-H ) :   0.9046 B( 14-C , 32-H ) :   0.9337
B( 15-C , 33-H ) :   0.9471 B( 15-C , 34-H ) :   0.9313 B( 15-C , 35-H ) :   0.9399
B( 16-O , 17-C ) :   0.8926 B( 17-C , 18-C ) :   1.1633 B( 17-C , 36-H ) :   0.9175
B( 17-C , 37-H ) :   0.9345 B( 18-C , 38-H ) :   0.9385 B( 18-C , 39-H ) :   0.9402
B( 18-C , 40-H ) :   0.9464

Dispersion correction           -0.066265659
FINAL SINGLE POINT ENERGY     -2929.512087219340

DIPOLE MOMENT
-------------

Method             : SCF
Type of density    : Electron Density
Multiplicity       :   1
Irrep              :   0
Energy             : -2929.6297923502370395 Eh
Relativity type    :
Basis              : AO
                                X                 Y                 Z
Electronic contribution:      2.854094697      -1.685237240      -4.692117592
Nuclear contribution   :     -3.146548613       1.113974319       5.525456411
                        -----------------------------------------
Total Dipole Moment    :     -0.292453916      -0.571262920       0.833338818
                        -----------------------------------------
Magnitude (a.u.)       :      1.051819473
Magnitude (Debye)      :      2.673512632

Rotational constants in cm-1:             0.011177             0.005387             0.005102
Rotational constants in MHz :           335.071458           161.486743           152.956110

                             ****ORCA TERMINATED NORMALLY****
TOTAL RUN TIME: 0 days 0 hours 0 minutes 20 seconds 979 msec
