                         Program Version 6.0.0  -   RELEASE  -
|  1> ! pbe def2-sv(p) def2/J RI DEFGRID1 loosescf d4 GCP(DFT/SV(P)) printgap
|  2> %output
|  3>     printlevel normal
|  4> end
|  5> * xyz 0 1
|  6> C 2.5496500907 0.5699346224 -2.7008824793
|  7> C 1.923281381 -0.7137410407 -2.193724326
|  8> O 2.5165666472 -1.1454175649 -0.9571330747
|  9> P 2.123386632 -0.6145253288 0.4875485132
| 10> S 2.3837345597 1.2901152763 0.8992988977
| 11> O 2.9762795838 -1.5871906909 1.399532502
| 12> C 4.2898101705 -1.2370769927 1.8788806001
| 13> C 5.3016851949 -1.2034397243 0.7533083812
| 14> S 0.1998811339 -1.4326981609 0.8077265585
| 15> C -0.45288352 -0.1591043544 1.940307102
| 16> S -2.2352737445 0.0821237209 1.7471882327
| 17> P -2.2728962786 0.5598154749 -0.302647829
| 18> S -0.7651926821 1.5452059504 -1.0922203944
| 19> O -3.6834138146 1.2614569315 -0.5268222347
| 20> C -3.8729271435 2.6830214132 -0.420248723
| 21> C -3.6679362567 3.1812713193 0.9957559133
| 22> O -2.5492512002 -0.8795376249 -0.8940663462
| 23> C -2.3722607741 -1.2173806644 -2.2878813029
| 24> C -1.8177163464 -2.6255602178 -2.3692372735
| 25> H 2.319981601 1.3932509147 -2.0271065903
| 26> H 3.6282139076 0.4609754721 -2.7737799764
| 27> H 2.1426381989 0.802247366 -3.6796766466
| 28> H 2.1065882882 -1.5442905039 -2.8780266266
| 29> H 0.8469309306 -0.5832239422 -2.0523425596
| 30> H 4.2301599381 -0.2622176944 2.3735819788
| 31> H 4.5171963466 -2.0139084003 2.6097072664
| 32> H 5.2962574609 -2.1473432975 0.2148786678
| 33> H 5.0494130319 -0.4018123789 0.0599619944
| 34> H 6.2913364212 -1.0214446864 1.1603413722
| 35> H 0.0750566703 0.7777433857 1.7374294489
| 36> H -0.3052894637 -0.4778583837 2.9692770066
| 37> H -3.176978415 3.1761096951 -1.1066882585
| 38> H -4.8988042169 2.8356644846 -0.7578831061
| 39> H -3.9395644398 4.2305845926 1.05111582
| 40> H -4.2798219708 2.6103040284 1.6895781642
| 41> H -2.6218476552 3.0732313269 1.2809252293
| 42> H -3.3507072175 -1.1436322358 -2.7672782592
| 43> H -1.6923554011 -0.48904658 -2.7446561752
| 44> H -0.8587833091 -2.6826743858 -1.8595671715
| 45> H -2.5029013294 -3.319392973 -1.8916126959
| 46> H -1.6908420356 -2.9001621409 -3.4112633488
| 47> *
| 48>
| 49>                          ****END OF INPUT****

CARTESIAN COORDINATES (ANGSTROEM)
---------------------------------
  C      2.549650    0.569935   -2.700882
  C      1.923281   -0.713741   -2.193724
  O      2.516567   -1.145418   -0.957133
  P      2.123387   -0.614525    0.487549
  S      2.383735    1.290115    0.899299
  O      2.976280   -1.587191    1.399533
  C      4.289810   -1.237077    1.878881
  C      5.301685   -1.203440    0.753308
  S      0.199881   -1.432698    0.807727
  C     -0.452884   -0.159104    1.940307
  S     -2.235274    0.082124    1.747188
  P     -2.272896    0.559815   -0.302648
  S     -0.765193    1.545206   -1.092220
  O     -3.683414    1.261457   -0.526822
  C     -3.872927    2.683021   -0.420249
  C     -3.667936    3.181271    0.995756
  O     -2.549251   -0.879538   -0.894066
  C     -2.372261   -1.217381   -2.287881
  C     -1.817716   -2.625560   -2.369237
  H      2.319982    1.393251   -2.027107
  H      3.628214    0.460975   -2.773780
  H      2.142638    0.802247   -3.679677
  H      2.106588   -1.544291   -2.878027
  H      0.846931   -0.583224   -2.052343
  H      4.230160   -0.262218    2.373582
  H      4.517196   -2.013908    2.609707
  H      5.296257   -2.147343    0.214879
  H      5.049413   -0.401812    0.059962
  H      6.291336   -1.021445    1.160341
  H      0.075057    0.777743    1.737429
  H     -0.305289   -0.477858    2.969277
  H     -3.176978    3.176110   -1.106688
  H     -4.898804    2.835664   -0.757883
  H     -3.939564    4.230585    1.051116
  H     -4.279822    2.610304    1.689578
  H     -2.621848    3.073231    1.280925
  H     -3.350707   -1.143632   -2.767278
  H     -1.692355   -0.489047   -2.744656
  H     -0.858783   -2.682674   -1.859567
  H     -2.502901   -3.319393   -1.891613
  H     -1.690842   -2.900162   -3.411263

 Total Charge           Charge          ....    0
 Multiplicity           Mult            ....    1
 Number of Electrons    NEL             ....  202
 Basis Dimension        Dim             ....  334

ORBITAL ENERGIES
----------------

  NO   OCC          E(Eh)            E(eV)
   0   2.0000     -88.046354     -2395.8631
   1   2.0000     -88.039977     -2395.6896
   2   2.0000     -87.986842     -2394.2437
   3   2.0000     -87.985889     -2394.2177
   4   2.0000     -76.426896     -2079.6816
   5   2.0000     -76.423785     -2079.5969
   6   2.0000     -18.792166      -511.3608
   7   2.0000     -18.791700      -511.3482
   8   2.0000     -18.788812      -511.2696
   9   2.0000     -18.784287      -511.1464
  10   2.0000      -9.953526      -270.8492
  11   2.0000      -9.952272      -270.8151
  12   2.0000      -9.951811      -270.8025
  13   2.0000      -9.948850      -270.7220
  14   2.0000      -9.947357      -270.6813
  15   2.0000      -9.885728      -269.0043
  16   2.0000      -9.883709      -268.9494
  17   2.0000      -9.880561      -268.8637
  18   2.0000      -9.875442      -268.7244
  19   2.0000      -7.691845      -209.3057
  20   2.0000      -7.684827      -209.1148
  21   2.0000      -7.631592      -207.6662
  22   2.0000      -7.630711      -207.6422
  23   2.0000      -6.424374      -174.8161
  24   2.0000      -6.421363      -174.7342
  25   2.0000      -5.719856      -155.6452
  26   2.0000      -5.716307      -155.5486
  27   2.0000      -5.712725      -155.4511
  28   2.0000      -5.709506      -155.3635
  29   2.0000      -5.708652      -155.3403
  30   2.0000      -5.701608      -155.1487
  31   2.0000      -5.660361      -154.0262
  32   2.0000      -5.659480      -154.0023
  33   2.0000      -5.652380      -153.8091
  34   2.0000      -5.651739      -153.7916
  35   2.0000      -5.651525      -153.7858
  36   2.0000      -5.650818      -153.7666
  37   2.0000      -4.646810      -126.4461
  38   2.0000      -4.646164      -126.4285
  39   2.0000      -4.644921      -126.3947
  40   2.0000      -4.643771      -126.3634
  41   2.0000      -4.643080      -126.3446
  42   2.0000      -4.642033      -126.3161
  43   2.0000      -0.985815       -26.8254
  44   2.0000      -0.983713       -26.7682
  45   2.0000      -0.944310       -25.6960
  46   2.0000      -0.941883       -25.6299
  47   2.0000      -0.763520       -20.7764
  48   2.0000      -0.721811       -19.6415
  49   2.0000      -0.707812       -19.2606
  50   2.0000      -0.686641       -18.6845
  51   2.0000      -0.682578       -18.5739
  52   2.0000      -0.673027       -18.3140
  53   2.0000      -0.651444       -17.7267
  54   2.0000      -0.636288       -17.3143
  55   2.0000      -0.600827       -16.3493
  56   2.0000      -0.591976       -16.1085
  57   2.0000      -0.573200       -15.5976
  58   2.0000      -0.566509       -15.4155
  59   2.0000      -0.556837       -15.1523
  60   2.0000      -0.503395       -13.6981
  61   2.0000      -0.494823       -13.4648
  62   2.0000      -0.473275       -12.8785
  63   2.0000      -0.469274       -12.7696
  64   2.0000      -0.446683       -12.1549
  65   2.0000      -0.444471       -12.0947
  66   2.0000      -0.439869       -11.9695
  67   2.0000      -0.434534       -11.8243
  68   2.0000      -0.428065       -11.6482
  69   2.0000      -0.414707       -11.2847
  70   2.0000      -0.407569       -11.0905
  71   2.0000      -0.401104       -10.9146
  72   2.0000      -0.390655       -10.6303
  73   2.0000      -0.388468       -10.5707
  74   2.0000      -0.383435       -10.4338
  75   2.0000      -0.371672       -10.1137
  76   2.0000      -0.367718       -10.0061
  77   2.0000      -0.355763        -9.6808
  78   2.0000      -0.352209        -9.5841
  79   2.0000      -0.350206        -9.5296
  80   2.0000      -0.344306        -9.3691
  81   2.0000      -0.340075        -9.2539
  82   2.0000      -0.338259        -9.2045
  83   2.0000      -0.335929        -9.1411
  84   2.0000      -0.330140        -8.9836
  85   2.0000      -0.314094        -8.5469
  86   2.0000      -0.309492        -8.4217
  87   2.0000      -0.296598        -8.0708
  88   2.0000      -0.292732        -7.9656
  89   2.0000      -0.286234        -7.7888
  90   2.0000      -0.282580        -7.6894
  91   2.0000      -0.276179        -7.5152
  92   2.0000      -0.269556        -7.3350
  93   2.0000      -0.264419        -7.1952
  94   2.0000      -0.260676        -7.0934
  95   2.0000      -0.234599        -6.3838
  96   2.0000      -0.223952        -6.0940
  97   2.0000      -0.213144        -5.7999
  98   2.0000      -0.200554        -5.4573
  99   2.0000      -0.198600        -5.4042
 100   2.0000      -0.191890        -5.2216
 101   0.0000      -0.045120        -1.2278
 102   0.0000      -0.032654        -0.8886
 103   0.0000      -0.010125        -0.2755
 104   0.0000       0.010232         0.2784
 105   0.0000       0.020003         0.5443

MULLIKEN ATOMIC CHARGES
-----------------------
   0 C :   -0.299164
   1 C :   -0.038595
   2 O :   -0.374017
   3 P :    0.625763
   4 S :   -0.319164
   5 O :   -0.366122
   6 C :   -0.004282
   7 C :   -0.308410
   8 S :   -0.096705
   9 C :   -0.352123
  10 S :   -0.082554
  11 P :    0.609693
  12 S :   -0.326088
  13 O :   -0.373528
  14 C :   -0.000702
  15 C :   -0.320825
  16 O :   -0.364277
  17 C :   -0.008113
  18 C :   -0.292515
  19 H :    0.140380
  20 H :    0.112030
  21 H :    0.105167
  22 H :    0.101442
  23 H :    0.131743
  24 H :    0.109440
  25 H :    0.103569
  26 H :    0.116256
  27 H :    0.125210
  28 H :    0.109989
  29 H :    0.207933
  30 H :    0.182760
  31 H :    0.110922
  32 H :    0.104791
  33 H :    0.113965
  34 H :    0.118566
  35 H :    0.130705
  36 H :    0.104772
  37 H :    0.105908
  38 H :    0.131092
  39 H :    0.117833
  40 H :    0.107254
Sum of atomic charges:   -0.0000000

LOEWDIN ATOMIC CHARGES
----------------------
   0 C :   -0.363655
   1 C :   -0.121169
   2 O :   -0.240088
   3 P :    0.570792
   4 S :   -0.296763
   5 O :   -0.245369
   6 C :   -0.118734
   7 C :   -0.364907
   8 S :    0.082326
   9 C :   -0.478029
  10 S :    0.098080
  11 P :    0.566630
  12 S :   -0.308228
  13 O :   -0.247872
  14 C :   -0.118934
  15 C :   -0.369615
  16 O :   -0.242225
  17 C :   -0.115204
  18 C :   -0.353772
  19 H :    0.125763
  20 H :    0.123657
  21 H :    0.128619
  22 H :    0.115807
  23 H :    0.103873
  24 H :    0.108524
  25 H :    0.117981
  26 H :    0.126135
  27 H :    0.122655
  28 H :    0.129324
  29 H :    0.122381
  30 H :    0.135655
  31 H :    0.110577
  32 H :    0.118610
  33 H :    0.131485
  34 H :    0.124179
  35 H :    0.122408
  36 H :    0.115083
  37 H :    0.103328
  38 H :    0.123996
  39 H :    0.128466
  40 H :    0.128231

  Mayer bond orders larger than 0.100000
B(  0-C ,  1-C ) :   1.1717 B(  0-C , 19-H ) :   0.9303 B(  0-C , 20-H ) :   0.9465
B(  0-C , 21-H ) :   0.9386 B(  1-C ,  2-O ) :   0.9035 B(  1-C , 22-H ) :   0.9350
B(  1-C , 23-H ) :   0.8973 B(  2-O ,  3-P ) :   1.1160 B(  3-P ,  4-S ) :   1.6052
B(  3-P ,  5-O ) :   1.1298 B(  3-P ,  8-S ) :   0.9555 B(  4-S ,  8-S ) :   0.1207
B(  5-O ,  6-C ) :   0.9122 B(  6-C ,  7-C ) :   1.1631 B(  6-C , 24-H ) :   0.9140
B(  6-C , 25-H ) :   0.9345 B(  7-C , 26-H ) :   0.9465 B(  7-C , 27-H ) :   0.9357
B(  7-C , 28-H ) :   0.9386 B(  8-S ,  9-C ) :   0.9934 B(  9-C , 10-S ) :   1.0033
B(  9-C , 29-H ) :   0.8508 B(  9-C , 30-H ) :   0.9097 B( 10-S , 11-P ) :   0.9629
B( 10-S , 12-S ) :   0.1127 B( 11-P , 12-S ) :   1.5975 B( 11-P , 13-O ) :   1.1123
B( 11-P , 16-O ) :   1.1305 B( 13-O , 14-C ) :   0.9094 B( 14-C , 15-C ) :   1.1641
B( 14-C , 31-H ) :   0.9159 B( 14-C , 32-H ) :   0.9340 B( 15-C , 33-H ) :   0.9379
B( 15-C , 34-H ) :   0.9445 B( 15-C , 35-H ) :   0.9357 B( 16-O , 17-C ) :   0.8994
B( 17-C , 18-C ) :   1.1649 B( 17-C , 36-H ) :   0.9328 B( 17-C , 37-H ) :   0.9006
B( 18-C , 38-H ) :   0.9443 B( 18-C , 39-H ) :   0.9485 B( 18-C , 40-H ) :   0.9414

Dispersion correction           -0.066010595
FINAL SINGLE POINT ENERGY     -2929.521440952573

DIPOLE MOMENT
-------------

Method             : SCF
Type of density    : Electron Density
Multiplicity       :   1
Irrep              :   0
Energy             : -2929.6391562985731980 Eh
Relativity type    :
Basis              : AO
                                X                 Y                 Z
Electronic contribution:     -7.143175082      -0.696200158      11.781585388
Nuclear contribution   :      6.876284879       0.321125458     -12.259567373
                        -----------------------------------------
Total Dipole Moment    :     -0.266890203      -0.375074700      -0.477981985
                        -----------------------------------------
Magnitude (a.u.)       :      0.663609968
Magnitude (Debye)      :      1.686762489

Rotational constants in cm-1:             0.012686             0.005023             0.004704
Rotational constants in MHz :           380.326319           150.573455           141.029651

                             ****ORCA TERMINATED NORMALLY****
TOTAL RUN TIME: 0 days 0 hours 0 minutes 20 seconds 854 msec
