                         Program Version 6.0.0  -   RELEASE  -
|  1> ! pbe def2-sv(p) def2/J RI DEFGRID1 loosescf d4 GCP(DFT/SV(P)) printgap
|  2> %output
|  3>     printlevel normal
|  4> end
|  5> * xyz 0 1
|  6> C 4.3561053298 -0.1094066825 -2.3086470225
|  7> C 4.511003375 0.6213535638 -0.9905615377
|  8> O 3.8102648637 -0.0343437142 0.0796332099
|  9> P 2.2258303874 -0.1425680487 0.1300797646
| 10> S 1.2777281163 1.4891409151 -0.4379190138
| 11> O 1.9720248593 -0.5937270641 1.6260157507
| 12> C 1.817531848 0.3468629648 2.7066229143
| 13> C 3.1429182276 0.9525963423 3.1194736704
| 14> S 1.8077414024 -1.9605989617 -0.8395218469
| 15> C 0.0503557399 -1.7050685374 -1.1966359826
| 16> S -0.9497724485 -1.3971557986 0.2902979816
| 17> P -2.0669565181 0.3157809335 -0.3547828889
| 18> S -1.842054445 0.8421884982 -2.2225772527
| 19> O -1.7939611449 1.470174142 0.6751553056
| 20> C -1.9521569214 1.3253662226 2.1094765573
| 21> C -3.3317231913 1.7624593906 2.5562563791
| 22> O -3.5525140291 -0.1135964874 0.0263961006
| 23> C -4.2445292897 -1.1305265392 -0.7242226197
| 24> C -5.71335262 -1.0613196682 -0.3582253129
| 25> H 4.6223247266 -1.1571421417 -2.1937223521
| 26> H 3.3234295083 -0.0451653476 -2.6506308322
| 27> H 4.9999911186 0.3489532244 -3.0524724057
| 28> H 4.1336046221 1.6458037226 -1.0736833852
| 29> H 5.5488553385 0.632360299 -0.6549353466
| 30> H 1.1188978077 1.1275327507 2.386535363
| 31> H 1.3739644228 -0.2450172938 3.5085295748
| 32> H 3.8627652099 0.1663468003 3.3295499351
| 33> H 3.5315069617 1.580075747 2.31908662
| 34> H 2.9989666898 1.5597546213 4.0078084782
| 35> H -0.289711141 -2.6278982099 -1.6600785777
| 36> H -0.0791568407 -0.8556213135 -1.8740692923
| 37> H -1.7536183267 0.2848167104 2.3831927552
| 38> H -1.179322879 1.9735285207 2.5283251196
| 39> H -4.0912127425 1.1116386797 2.1328873378
| 40> H -3.3807255887 1.7173090047 3.6397748275
| 41> H -3.5209098673 2.7813039906 2.2294966486
| 42> H -4.0866800102 -0.942033736 -1.7913023004
| 43> H -3.8123099767 -2.1005473805 -0.46246799
| 44> H -6.2545782694 -1.8170373048 -0.9177426756
| 45> H -5.8421375463 -1.2407284472 0.7052063848
| 46> H -6.1120299378 -0.0807517802 -0.6026839963
| 47> *
| 48>
| 49>                          ****END OF INPUT****

CARTESIAN COORDINATES (ANGSTROEM)
---------------------------------
  C      4.356105   -0.109407   -2.308647
  C      4.511003    0.621354   -0.990562
  O      3.810265   -0.034344    0.079633
  P      2.225830   -0.142568    0.130080
  S      1.277728    1.489141   -0.437919
  O      1.972025   -0.593727    1.626016
  C      1.817532    0.346863    2.706623
  C      3.142918    0.952596    3.119474
  S      1.807741   -1.960599   -0.839522
  C      0.050356   -1.705069   -1.196636
  S     -0.949772   -1.397156    0.290298
  P     -2.066957    0.315781   -0.354783
  S     -1.842054    0.842188   -2.222577
  O     -1.793961    1.470174    0.675155
  C     -1.952157    1.325366    2.109477
  C     -3.331723    1.762459    2.556256
  O     -3.552514   -0.113596    0.026396
  C     -4.244529   -1.130527   -0.724223
  C     -5.713353   -1.061320   -0.358225
  H      4.622325   -1.157142   -2.193722
  H      3.323430   -0.045165   -2.650631
  H      4.999991    0.348953   -3.052472
  H      4.133605    1.645804   -1.073683
  H      5.548855    0.632360   -0.654935
  H      1.118898    1.127533    2.386535
  H      1.373964   -0.245017    3.508530
  H      3.862765    0.166347    3.329550
  H      3.531507    1.580076    2.319087
  H      2.998967    1.559755    4.007808
  H     -0.289711   -2.627898   -1.660079
  H     -0.079157   -0.855621   -1.874069
  H     -1.753618    0.284817    2.383193
  H     -1.179323    1.973529    2.528325
  H     -4.091213    1.111639    2.132887
  H     -3.380726    1.717309    3.639775
  H     -3.520910    2.781304    2.229497
  H     -4.086680   -0.942034   -1.791302
  H     -3.812310   -2.100547   -0.462468
  H     -6.254578   -1.817037   -0.917743
  H     -5.842138   -1.240728    0.705206
  H     -6.112030   -0.080752   -0.602684

 Total Charge           Charge          ....    0
 Multiplicity           Mult            ....    1
 Number of Electrons    NEL             ....  202
 Basis Dimension        Dim             ....  334

ORBITAL ENERGIES
----------------

  NO   OCC          E(Eh)            E(eV)
   0   2.0000     -88.041050     -2395.7188
   1   2.0000     -88.039150     -2395.6671
   2   2.0000     -87.981909     -2394.1095
   3   2.0000     -87.981273     -2394.0922
   4   2.0000     -76.422802     -2079.5702
   5   2.0000     -76.422212     -2079.5541
   6   2.0000     -18.790965      -511.3281
   7   2.0000     -18.789804      -511.2966
   8   2.0000     -18.789536      -511.2893
   9   2.0000     -18.784892      -511.1629
  10   2.0000      -9.959067      -271.0000
  11   2.0000      -9.951485      -270.7937
  12   2.0000      -9.950657      -270.7711
  13   2.0000      -9.950460      -270.7658
  14   2.0000      -9.950306      -270.7616
  15   2.0000      -9.888391      -269.0768
  16   2.0000      -9.886691      -269.0305
  17   2.0000      -9.883902      -268.9546
  18   2.0000      -9.881673      -268.8940
  19   2.0000      -7.686645      -209.1643
  20   2.0000      -7.683511      -209.0790
  21   2.0000      -7.626548      -207.5289
  22   2.0000      -7.626364      -207.5239
  23   2.0000      -6.420174      -174.7018
  24   2.0000      -6.419702      -174.6890
  25   2.0000      -5.714614      -155.5025
  26   2.0000      -5.711357      -155.4139
  27   2.0000      -5.711087      -155.4066
  28   2.0000      -5.708062      -155.3243
  29   2.0000      -5.703490      -155.1999
  30   2.0000      -5.700600      -155.1212
  31   2.0000      -5.655551      -153.8954
  32   2.0000      -5.655183      -153.8854
  33   2.0000      -5.647145      -153.6666
  34   2.0000      -5.647088      -153.6651
  35   2.0000      -5.646630      -153.6526
  36   2.0000      -5.646572      -153.6510
  37   2.0000      -4.642940      -126.3408
  38   2.0000      -4.642116      -126.3184
  39   2.0000      -4.641879      -126.3120
  40   2.0000      -4.641481      -126.3011
  41   2.0000      -4.640509      -126.2747
  42   2.0000      -4.640271      -126.2682
  43   2.0000      -0.986974       -26.8569
  44   2.0000      -0.983588       -26.7648
  45   2.0000      -0.943102       -25.6631
  46   2.0000      -0.942798       -25.6548
  47   2.0000      -0.759607       -20.6700
  48   2.0000      -0.720221       -19.5982
  49   2.0000      -0.708548       -19.2806
  50   2.0000      -0.692116       -18.8334
  51   2.0000      -0.685691       -18.6586
  52   2.0000      -0.672653       -18.3038
  53   2.0000      -0.647764       -17.6265
  54   2.0000      -0.632738       -17.2177
  55   2.0000      -0.598631       -16.2896
  56   2.0000      -0.588435       -16.0121
  57   2.0000      -0.571076       -15.5398
  58   2.0000      -0.569301       -15.4915
  59   2.0000      -0.560959       -15.2645
  60   2.0000      -0.507516       -13.8102
  61   2.0000      -0.490696       -13.3525
  62   2.0000      -0.481567       -13.1041
  63   2.0000      -0.470256       -12.7963
  64   2.0000      -0.446991       -12.1633
  65   2.0000      -0.446636       -12.1536
  66   2.0000      -0.441002       -12.0003
  67   2.0000      -0.436366       -11.8741
  68   2.0000      -0.430662       -11.7189
  69   2.0000      -0.419759       -11.4222
  70   2.0000      -0.408110       -11.1052
  71   2.0000      -0.392484       -10.6800
  72   2.0000      -0.388603       -10.5744
  73   2.0000      -0.386718       -10.5231
  74   2.0000      -0.380111       -10.3433
  75   2.0000      -0.373645       -10.1674
  76   2.0000      -0.363750        -9.8981
  77   2.0000      -0.356147        -9.6912
  78   2.0000      -0.355082        -9.6623
  79   2.0000      -0.351486        -9.5644
  80   2.0000      -0.347849        -9.4655
  81   2.0000      -0.344546        -9.3756
  82   2.0000      -0.342262        -9.3134
  83   2.0000      -0.337673        -9.1885
  84   2.0000      -0.334424        -9.1001
  85   2.0000      -0.315323        -8.5804
  86   2.0000      -0.312112        -8.4930
  87   2.0000      -0.298136        -8.1127
  88   2.0000      -0.294192        -8.0054
  89   2.0000      -0.290407        -7.9024
  90   2.0000      -0.279803        -7.6138
  91   2.0000      -0.276061        -7.5120
  92   2.0000      -0.269166        -7.3244
  93   2.0000      -0.261175        -7.1069
  94   2.0000      -0.255890        -6.9631
  95   2.0000      -0.231572        -6.3014
  96   2.0000      -0.221429        -6.0254
  97   2.0000      -0.210991        -5.7413
  98   2.0000      -0.197179        -5.3655
  99   2.0000      -0.196189        -5.3386
 100   2.0000      -0.185346        -5.0435
 101   0.0000      -0.040805        -1.1104
 102   0.0000      -0.031281        -0.8512
 103   0.0000      -0.007634        -0.2077
 104   0.0000       0.011046         0.3006
 105   0.0000       0.019206         0.5226

MULLIKEN ATOMIC CHARGES
-----------------------
   0 C :   -0.318493
   1 C :   -0.002798
   2 O :   -0.372038
   3 P :    0.603296
   4 S :   -0.313344
   5 O :   -0.359611
   6 C :   -0.030232
   7 C :   -0.296827
   8 S :   -0.088796
   9 C :   -0.341283
  10 S :   -0.127858
  11 P :    0.612010
  12 S :   -0.291740
  13 O :   -0.346898
  14 C :   -0.039236
  15 C :   -0.280432
  16 O :   -0.384987
  17 C :   -0.006840
  18 C :   -0.283133
  19 H :    0.118070
  20 H :    0.131661
  21 H :    0.113323
  22 H :    0.110702
  23 H :    0.104196
  24 H :    0.124348
  25 H :    0.102867
  26 H :    0.117997
  27 H :    0.121518
  28 H :    0.107957
  29 H :    0.176804
  30 H :    0.205316
  31 H :    0.108022
  32 H :    0.123520
  33 H :    0.126323
  34 H :    0.106896
  35 H :    0.121184
  36 H :    0.102466
  37 H :    0.096849
  38 H :    0.111981
  39 H :    0.115307
  40 H :    0.121930
Sum of atomic charges:   -0.0000000

LOEWDIN ATOMIC CHARGES
----------------------
   0 C :   -0.370161
   1 C :   -0.119407
   2 O :   -0.245031
   3 P :    0.561823
   4 S :   -0.307311
   5 O :   -0.239604
   6 C :   -0.120254
   7 C :   -0.361450
   8 S :    0.091774
   9 C :   -0.479772
  10 S :    0.052290
  11 P :    0.572550
  12 S :   -0.288423
  13 O :   -0.225529
  14 C :   -0.111661
  15 C :   -0.360221
  16 O :   -0.252471
  17 C :   -0.124373
  18 C :   -0.350629
  19 H :    0.123815
  20 H :    0.123110
  21 H :    0.131208
  22 H :    0.110715
  23 H :    0.118188
  24 H :    0.107814
  25 H :    0.117012
  26 H :    0.127386
  27 H :    0.124337
  28 H :    0.128331
  29 H :    0.134378
  30 H :    0.123105
  31 H :    0.105413
  32 H :    0.120396
  33 H :    0.126743
  34 H :    0.128575
  35 H :    0.130349
  36 H :    0.107461
  37 H :    0.104876
  38 H :    0.130774
  39 H :    0.124731
  40 H :    0.129144

  Mayer bond orders larger than 0.100000
B(  0-C ,  1-C ) :   1.1671 B(  0-C , 19-H ) :   0.9440 B(  0-C , 20-H ) :   0.9349
B(  0-C , 21-H ) :   0.9376 B(  1-C ,  2-O ) :   0.9082 B(  1-C , 22-H ) :   0.9155
B(  1-C , 23-H ) :   0.9339 B(  2-O ,  3-P ) :   1.1019 B(  3-P ,  4-S ) :   1.6169
B(  3-P ,  5-O ) :   1.1205 B(  3-P ,  8-S ) :   0.9589 B(  4-S ,  8-S ) :   0.1135
B(  5-O ,  6-C ) :   0.9132 B(  6-C ,  7-C ) :   1.1618 B(  6-C , 24-H ) :   0.9013
B(  6-C , 25-H ) :   0.9353 B(  7-C , 26-H ) :   0.9464 B(  7-C , 27-H ) :   0.9407
B(  7-C , 28-H ) :   0.9397 B(  8-S ,  9-C ) :   0.9985 B(  9-C , 10-S ) :   0.9986
B(  9-C , 29-H ) :   0.9119 B(  9-C , 30-H ) :   0.8470 B( 10-S , 11-P ) :   0.9376
B( 10-S , 12-S ) :   0.1202 B( 11-P , 12-S ) :   1.6453 B( 11-P , 13-O ) :   1.1451
B( 11-P , 16-O ) :   1.0646 B( 12-S , 30-H ) :   0.1100 B( 13-O , 14-C ) :   0.8970
B( 14-C , 15-C ) :   1.1628 B( 14-C , 31-H ) :   0.9165 B( 14-C , 32-H ) :   0.9243
B( 15-C , 33-H ) :   0.9372 B( 15-C , 34-H ) :   0.9390 B( 15-C , 35-H ) :   0.9457
B( 16-O , 17-C ) :   0.9103 B( 17-C , 18-C ) :   1.1595 B( 17-C , 36-H ) :   0.9094
B( 17-C , 37-H ) :   0.9222 B( 18-C , 38-H ) :   0.9423 B( 18-C , 39-H ) :   0.9508
B( 18-C , 40-H ) :   0.9511

Dispersion correction           -0.065570147
FINAL SINGLE POINT ENERGY     -2929.518173212157

DIPOLE MOMENT
-------------

Method             : SCF
Type of density    : Electron Density
Multiplicity       :   1
Irrep              :   0
Energy             : -2929.6368895898463052 Eh
Relativity type    :
Basis              : AO
                                X                 Y                 Z
Electronic contribution:      4.638474264      -4.032443070     -10.628480360
Nuclear contribution   :     -4.729865299       3.467188018      11.809373773
                        -----------------------------------------
Total Dipole Moment    :     -0.091391035      -0.565255052       1.180893412
                        -----------------------------------------
Magnitude (a.u.)       :      1.312392794
Magnitude (Debye)      :      3.335837379

Rotational constants in cm-1:             0.012870             0.005086             0.004485
Rotational constants in MHz :           385.819027           152.488388           134.465664

                             ****ORCA TERMINATED NORMALLY****
TOTAL RUN TIME: 0 days 0 hours 0 minutes 21 seconds 77 msec
