                         Program Version 6.0.0  -   RELEASE  -
|  1> ! pbe def2-sv(p) def2/J RI DEFGRID1 loosescf d4 GCP(DFT/SV(P)) printgap
|  2> %output
|  3>     printlevel normal
|  4> end
|  5> * xyz 0 1
|  6> C 4.4144879643 -1.5813716885 -0.8382535915
|  7> C 4.5599691019 -0.0892766411 -0.6204473335
|  8> O 3.4704429246 0.4704771161 0.1342235358
|  9> P 1.9777259513 0.5281383323 -0.4210880595
| 10> S 1.8298511571 0.9209219874 -2.3292751633
| 11> O 1.3419229084 1.6306900561 0.5119762129
| 12> C 1.4561752193 1.5977788068 1.9554252137
| 13> C 2.5387866807 2.5446560174 2.4292810416
| 14> S 1.1797785669 -1.3310431191 0.2365309331
| 15> C -0.0125344878 -1.6806955954 -1.0946807608
| 16> S -1.6973176791 -1.9273370712 -0.4924391838
| 17> P -2.0751912195 0.0595092489 0.1604123941
| 18> S -1.4682979701 1.4873207329 -1.0357918616
| 19> O -1.4518837126 0.1891228975 1.6061615782
| 20> C -1.9057095028 -0.586629417 2.7529232666
| 21> C -0.9366872963 -1.7057880988 3.0757157661
| 22> O -3.6329077426 0.0487131825 0.4798784871
| 23> C -4.6331798338 0.3431732539 -0.5113794479
| 24> C -4.6973674089 -0.7105747717 -1.5976894849
| 25> H 4.2306911402 -2.0877399765 0.105841708
| 26> H 3.584530077 -1.7784424141 -1.5148197178
| 27> H 5.3269396192 -1.9651898773 -1.2830703741
| 28> H 4.6157908202 0.434350162 -1.5796875228
| 29> H 5.4383364942 0.1451276392 -0.017275927
| 30> H 0.4702418384 1.9014645266 2.3135875659
| 31> H 1.6617506368 0.5701969468 2.2691236711
| 32> H 2.3403562394 3.5477462026 2.0613528793
| 33> H 2.5495494165 2.5547263689 3.5147027755
| 34> H 3.508778363 2.2213114629 2.0613050631
| 35> H 0.2744630945 -2.61527754 -1.5697229972
| 36> H 0.0137712415 -0.8515985556 -1.8073862927
| 37> H -1.9553442059 0.1408563016 3.5646580633
| 38> H -2.9045100082 -0.9720442398 2.5444054896
| 39> H -0.8995402038 -2.433033406 2.2687506078
| 40> H 0.0630012075 -1.3100740583 3.2305744879
| 41> H -1.2688502243 -2.2003854332 3.9829702735
| 42> H -5.5592791321 0.3870321221 0.0636766138
| 43> H -4.4133827258 1.3255796696 -0.9405145378
| 44> H -5.5558857681 -0.516426801 -2.2325958302
| 45> H -3.7954490557 -0.6734941605 -2.2067467348
| 46> H -4.7866667654 -1.70185814 -1.1605319002
| 47> *
| 48>
| 49>                          ****END OF INPUT****

CARTESIAN COORDINATES (ANGSTROEM)
---------------------------------
  C      4.414488   -1.581372   -0.838254
  C      4.559969   -0.089277   -0.620447
  O      3.470443    0.470477    0.134224
  P      1.977726    0.528138   -0.421088
  S      1.829851    0.920922   -2.329275
  O      1.341923    1.630690    0.511976
  C      1.456175    1.597779    1.955425
  C      2.538787    2.544656    2.429281
  S      1.179779   -1.331043    0.236531
  C     -0.012534   -1.680696   -1.094681
  S     -1.697318   -1.927337   -0.492439
  P     -2.075191    0.059509    0.160412
  S     -1.468298    1.487321   -1.035792
  O     -1.451884    0.189123    1.606162
  C     -1.905710   -0.586629    2.752923
  C     -0.936687   -1.705788    3.075716
  O     -3.632908    0.048713    0.479878
  C     -4.633180    0.343173   -0.511379
  C     -4.697367   -0.710575   -1.597689
  H      4.230691   -2.087740    0.105842
  H      3.584530   -1.778442   -1.514820
  H      5.326940   -1.965190   -1.283070
  H      4.615791    0.434350   -1.579688
  H      5.438336    0.145128   -0.017276
  H      0.470242    1.901465    2.313588
  H      1.661751    0.570197    2.269124
  H      2.340356    3.547746    2.061353
  H      2.549549    2.554726    3.514703
  H      3.508778    2.221311    2.061305
  H      0.274463   -2.615278   -1.569723
  H      0.013771   -0.851599   -1.807386
  H     -1.955344    0.140856    3.564658
  H     -2.904510   -0.972044    2.544405
  H     -0.899540   -2.433033    2.268751
  H      0.063001   -1.310074    3.230574
  H     -1.268850   -2.200385    3.982970
  H     -5.559279    0.387032    0.063677
  H     -4.413383    1.325580   -0.940515
  H     -5.555886   -0.516427   -2.232596
  H     -3.795449   -0.673494   -2.206747
  H     -4.786667   -1.701858   -1.160532

 Total Charge           Charge          ....    0
 Multiplicity           Mult            ....    1
 Number of Electrons    NEL             ....  202
 Basis Dimension        Dim             ....  334

ORBITAL ENERGIES
----------------

  NO   OCC          E(Eh)            E(eV)
   0   2.0000     -88.043185     -2395.7769
   1   2.0000     -88.038173     -2395.6405
   2   2.0000     -87.979761     -2394.0510
   3   2.0000     -87.979517     -2394.0444
   4   2.0000     -76.423434     -2079.5874
   5   2.0000     -76.420496     -2079.5074
   6   2.0000     -18.793432      -511.3953
   7   2.0000     -18.789947      -511.3004
   8   2.0000     -18.788745      -511.2677
   9   2.0000     -18.781040      -511.0581
  10   2.0000      -9.957119      -270.9470
  11   2.0000      -9.953466      -270.8476
  12   2.0000      -9.952941      -270.8333
  13   2.0000      -9.949734      -270.7460
  14   2.0000      -9.948067      -270.7007
  15   2.0000      -9.885949      -269.0104
  16   2.0000      -9.884022      -268.9579
  17   2.0000      -9.881475      -268.8886
  18   2.0000      -9.880532      -268.8630
  19   2.0000      -7.688188      -209.2062
  20   2.0000      -7.682835      -209.0606
  21   2.0000      -7.624950      -207.4854
  22   2.0000      -7.624422      -207.4711
  23   2.0000      -6.420861      -174.7205
  24   2.0000      -6.417871      -174.6391
  25   2.0000      -5.715968      -155.5394
  26   2.0000      -5.712611      -155.4480
  27   2.0000      -5.710705      -155.3962
  28   2.0000      -5.707320      -155.3041
  29   2.0000      -5.705346      -155.2503
  30   2.0000      -5.699831      -155.1003
  31   2.0000      -5.654013      -153.8535
  32   2.0000      -5.653504      -153.8397
  33   2.0000      -5.645479      -153.6213
  34   2.0000      -5.645015      -153.6087
  35   2.0000      -5.644917      -153.6060
  36   2.0000      -5.644571      -153.5966
  37   2.0000      -4.643807      -126.3644
  38   2.0000      -4.642543      -126.3300
  39   2.0000      -4.641035      -126.2890
  40   2.0000      -4.640672      -126.2791
  41   2.0000      -4.639483      -126.2468
  42   2.0000      -4.638307      -126.2148
  43   2.0000      -0.987399       -26.8685
  44   2.0000      -0.981723       -26.7140
  45   2.0000      -0.943336       -25.6695
  46   2.0000      -0.937180       -25.5020
  47   2.0000      -0.760153       -20.6848
  48   2.0000      -0.717457       -19.5230
  49   2.0000      -0.708174       -19.2704
  50   2.0000      -0.689934       -18.7741
  51   2.0000      -0.685716       -18.6593
  52   2.0000      -0.675504       -18.3814
  53   2.0000      -0.647854       -17.6290
  54   2.0000      -0.631245       -17.1771
  55   2.0000      -0.596324       -16.2268
  56   2.0000      -0.586838       -15.9687
  57   2.0000      -0.577011       -15.7013
  58   2.0000      -0.568434       -15.4679
  59   2.0000      -0.558401       -15.1949
  60   2.0000      -0.502964       -13.6863
  61   2.0000      -0.494962       -13.4686
  62   2.0000      -0.472134       -12.8474
  63   2.0000      -0.468837       -12.7577
  64   2.0000      -0.447867       -12.1871
  65   2.0000      -0.446026       -12.1370
  66   2.0000      -0.443128       -12.0581
  67   2.0000      -0.436640       -11.8816
  68   2.0000      -0.429193       -11.6789
  69   2.0000      -0.421445       -11.4681
  70   2.0000      -0.411950       -11.2097
  71   2.0000      -0.394068       -10.7231
  72   2.0000      -0.388719       -10.5776
  73   2.0000      -0.382047       -10.3960
  74   2.0000      -0.374785       -10.1984
  75   2.0000      -0.367432        -9.9983
  76   2.0000      -0.362044        -9.8517
  77   2.0000      -0.359104        -9.7717
  78   2.0000      -0.353164        -9.6101
  79   2.0000      -0.350223        -9.5301
  80   2.0000      -0.347947        -9.4681
  81   2.0000      -0.346356        -9.4248
  82   2.0000      -0.338002        -9.1975
  83   2.0000      -0.335883        -9.1398
  84   2.0000      -0.334090        -9.0910
  85   2.0000      -0.316297        -8.6069
  86   2.0000      -0.309916        -8.4333
  87   2.0000      -0.302082        -8.2201
  88   2.0000      -0.292717        -7.9652
  89   2.0000      -0.291300        -7.9267
  90   2.0000      -0.287285        -7.8174
  91   2.0000      -0.271242        -7.3809
  92   2.0000      -0.263439        -7.1685
  93   2.0000      -0.261170        -7.1068
  94   2.0000      -0.255730        -6.9588
  95   2.0000      -0.231507        -6.2996
  96   2.0000      -0.216942        -5.9033
  97   2.0000      -0.212335        -5.7779
  98   2.0000      -0.199277        -5.4226
  99   2.0000      -0.189872        -5.1667
 100   2.0000      -0.183145        -4.9836
 101   0.0000      -0.039923        -1.0864
 102   0.0000      -0.031069        -0.8454
 103   0.0000      -0.009023        -0.2455
 104   0.0000       0.009265         0.2521
 105   0.0000       0.020738         0.5643

MULLIKEN ATOMIC CHARGES
-----------------------
   0 C :   -0.310469
   1 C :    0.002138
   2 O :   -0.386912
   3 P :    0.603924
   4 S :   -0.291174
   5 O :   -0.341973
   6 C :   -0.028456
   7 C :   -0.279910
   8 S :   -0.121501
   9 C :   -0.343427
  10 S :   -0.112736
  11 P :    0.594007
  12 S :   -0.274032
  13 O :   -0.357872
  14 C :   -0.017767
  15 C :   -0.292821
  16 O :   -0.385119
  17 C :    0.001718
  18 C :   -0.320408
  19 H :    0.115117
  20 H :    0.120883
  21 H :    0.111059
  22 H :    0.111434
  23 H :    0.101520
  24 H :    0.117065
  25 H :    0.105042
  26 H :    0.121159
  27 H :    0.103394
  28 H :    0.117401
  29 H :    0.179700
  30 H :    0.206957
  31 H :    0.108004
  32 H :    0.111179
  33 H :    0.123368
  34 H :    0.123106
  35 H :    0.107015
  36 H :    0.103452
  37 H :    0.113133
  38 H :    0.114591
  39 H :    0.132427
  40 H :    0.115785
Sum of atomic charges:   -0.0000000

LOEWDIN ATOMIC CHARGES
----------------------
   0 C :   -0.370961
   1 C :   -0.117292
   2 O :   -0.251637
   3 P :    0.573013
   4 S :   -0.294363
   5 O :   -0.226835
   6 C :   -0.115302
   7 C :   -0.358430
   8 S :    0.069906
   9 C :   -0.479756
  10 S :    0.072869
  11 P :    0.560400
  12 S :   -0.281535
  13 O :   -0.238375
  14 C :   -0.111134
  15 C :   -0.364491
  16 O :   -0.249953
  17 C :   -0.116323
  18 C :   -0.371680
  19 H :    0.121915
  20 H :    0.119603
  21 H :    0.129716
  22 H :    0.112019
  23 H :    0.116637
  24 H :    0.120349
  25 H :    0.100287
  26 H :    0.129704
  27 H :    0.126618
  28 H :    0.124944
  29 H :    0.135815
  30 H :    0.125711
  31 H :    0.119854
  32 H :    0.112252
  33 H :    0.116517
  34 H :    0.122708
  35 H :    0.128295
  36 H :    0.117859
  37 H :    0.113335
  38 H :    0.131933
  39 H :    0.123433
  40 H :    0.122371

  Mayer bond orders larger than 0.100000
B(  0-C ,  1-C ) :   1.1676 B(  0-C , 19-H ) :   0.9427 B(  0-C , 20-H ) :   0.9367
B(  0-C , 21-H ) :   0.9371 B(  1-C ,  2-O ) :   0.9120 B(  1-C , 22-H ) :   0.9172
B(  1-C , 23-H ) :   0.9342 B(  2-O ,  3-P ) :   1.0661 B(  3-P ,  4-S ) :   1.6318
B(  3-P ,  5-O ) :   1.1420 B(  3-P ,  8-S ) :   0.9504 B(  4-S ,  8-S ) :   0.1129
B(  5-O ,  6-C ) :   0.8969 B(  6-C ,  7-C ) :   1.1573 B(  6-C , 24-H ) :   0.9284
B(  6-C , 25-H ) :   0.9101 B(  7-C , 26-H ) :   0.9466 B(  7-C , 27-H ) :   0.9405
B(  7-C , 28-H ) :   0.9421 B(  8-S ,  9-C ) :   0.9968 B(  9-C , 10-S ) :   1.0054
B(  9-C , 29-H ) :   0.9107 B(  9-C , 30-H ) :   0.8468 B( 10-S , 11-P ) :   0.9334
B( 10-S , 12-S ) :   0.1080 B( 11-P , 12-S ) :   1.6732 B( 11-P , 13-O ) :   1.1196
B( 11-P , 16-O ) :   1.0791 B( 13-O , 14-C ) :   0.8905 B( 14-C , 15-C ) :   1.1677
B( 14-C , 31-H ) :   0.9355 B( 14-C , 32-H ) :   0.9177 B( 15-C , 33-H ) :   0.9304
B( 15-C , 34-H ) :   0.9417 B( 15-C , 35-H ) :   0.9364 B( 16-O , 17-C ) :   0.9052
B( 17-C , 18-C ) :   1.1669 B( 17-C , 36-H ) :   0.9343 B( 17-C , 37-H ) :   0.9164
B( 18-C , 38-H ) :   0.9371 B( 18-C , 39-H ) :   0.9340 B( 18-C , 40-H ) :   0.9437

Dispersion correction           -0.068387888
FINAL SINGLE POINT ENERGY     -2929.514811773165

DIPOLE MOMENT
-------------

Method             : SCF
Type of density    : Electron Density
Multiplicity       :   1
Irrep              :   0
Energy             : -2929.6330478647860218 Eh
Relativity type    :
Basis              : AO
                                X                 Y                 Z
Electronic contribution:     -3.075989814       4.893966324     -11.696110378
Nuclear contribution   :      2.845127286      -5.979614145      13.201689939
                        -----------------------------------------
Total Dipole Moment    :     -0.230862528      -1.085647821       1.505579560
                        -----------------------------------------
Magnitude (a.u.)       :      1.870480823
Magnitude (Debye)      :      4.754384416

Rotational constants in cm-1:             0.012455             0.005463             0.005172
Rotational constants in MHz :           373.384630           163.774506           155.044420

                             ****ORCA TERMINATED NORMALLY****
TOTAL RUN TIME: 0 days 0 hours 0 minutes 22 seconds 641 msec
