                         Program Version 6.0.0  -   RELEASE  -
|  1> ! wb97x-v def2-tzvp def2/J RIJCOSX DEFGRID2 scfconv7 GCP(DFT/TZ) printgap
|  2> %output
|  3>     printlevel normal
|  4> end
|  5> %cpcm
|  6>     smd true
|  7>     smdsolvent "water"
|  8> end
|  9> * xyz 0 1
| 10> C 1.645003495210038 1.1947903583768527 5.945186248233789e-05
| 11> C 0.2557989424249125 1.2352380093005717 -1.034838549171363e-05
| 12> C -0.41432082912477186 0.021178146132426492 -7.355683268459e-05
| 13> C 0.29209337013275477 -1.1758735174644643 -5.6084387145953744e-05
| 14> N 1.629417903191864 -1.2092513515210574 1.5663186226432125e-05
| 15> C 2.2839241848694423 -0.03874362240034231 6.286883713967645e-05
| 16> Cl -2.16924857877882 -0.020005203876609926 -0.00017974504939847176
| 17> H 2.2220047429702885 2.1131311811852678 0.00011268683207118639
| 18> H -0.28302443319155757 2.1760504305402524 -1.4372436071084055e-05
| 19> H -0.23298006186348044 -2.127450736147654 -0.00011934262000286502
| 20> H 3.3694939057017805 -0.09204599942906475 0.00013999622745645523
| 21> *
| 22>
| 23>                          ****END OF INPUT****

CARTESIAN COORDINATES (ANGSTROEM)
---------------------------------
  C      1.645003    1.194790    0.000059
  C      0.255799    1.235238   -0.000010
  C     -0.414321    0.021178   -0.000074
  C      0.292093   -1.175874   -0.000056
  N      1.629418   -1.209251    0.000016
  C      2.283924   -0.038744    0.000063
  Cl    -2.169249   -0.020005   -0.000180
  H      2.222005    2.113131    0.000113
  H     -0.283024    2.176050   -0.000014
  H     -0.232980   -2.127451   -0.000119
  H      3.369494   -0.092046    0.000140

 Total Charge           Charge          ....    0
 Multiplicity           Mult            ....    1
 Number of Electrons    NEL             ....   58
 Basis Dimension        Dim             ....  247

ORBITAL ENERGIES
----------------

  NO   OCC          E(Eh)            E(eV)
   0   2.0000    -107.152938     -2915.7797
   1   2.0000     -16.540576      -450.0919
   2   2.0000     -12.122523      -329.8706
   3   2.0000     -12.096450      -329.1611
   4   2.0000     -12.089733      -328.9784
   5   2.0000     -12.079174      -328.6910
   6   2.0000     -12.064451      -328.2904
   7   2.0000     -11.306054      -307.6534
   8   2.0000      -9.097585      -247.5579
   9   2.0000      -9.094966      -247.4866
  10   2.0000      -9.094922      -247.4854
  11   2.0000      -1.532970       -41.7142
  12   2.0000      -1.432000       -38.9667
  13   2.0000      -1.345779       -36.6205
  14   2.0000      -1.299260       -35.3547
  15   2.0000      -1.161820       -31.6147
  16   2.0000      -1.153802       -31.3965
  17   2.0000      -1.015115       -27.6227
  18   2.0000      -0.990220       -26.9452
  19   2.0000      -0.947551       -25.7842
  20   2.0000      -0.900857       -24.5136
  21   2.0000      -0.886544       -24.1241
  22   2.0000      -0.854166       -23.2431
  23   2.0000      -0.853172       -23.2160
  24   2.0000      -0.813335       -22.1320
  25   2.0000      -0.805693       -21.9240
  26   2.0000      -0.775314       -21.0974
  27   2.0000      -0.708758       -19.2863
  28   2.0000      -0.661515       -18.0007
  29   0.0000      -0.303227        -8.2512
  30   0.0000      -0.273174        -7.4335
  31   0.0000      -0.261772        -7.1232
  32   0.0000      -0.108233        -2.9452
  33   0.0000      -0.039458        -1.0737

MULLIKEN ATOMIC CHARGES
-----------------------
   0 C :   -0.118521
   1 C :   -0.203690
   2 C :    0.146600
   3 C :   -0.082581
   4 N :   -0.285015
   5 C :   -0.055979
   6 Cl:   -0.107246
   7 H :    0.177629
   8 H :    0.186160
   9 H :    0.174026
  10 H :    0.168618
Sum of atomic charges:    0.0000000

LOEWDIN ATOMIC CHARGES
----------------------
   0 C :   -0.133627
   1 C :   -0.107034
   2 C :   -0.428096
   3 C :   -0.208181
   4 N :    0.093598
   5 C :   -0.197867
   6 Cl:    0.362692
   7 H :    0.160353
   8 H :    0.162858
   9 H :    0.148605
  10 H :    0.146699

  Mayer bond orders larger than 0.100000
B(  0-C ,  1-C ) :   1.4394 B(  0-C ,  5-C ) :   1.4336 B(  0-C ,  7-H ) :   0.9527
B(  1-C ,  2-C ) :   1.4122 B(  1-C ,  8-H ) :   0.9543 B(  2-C ,  3-C ) :   1.3748
B(  2-C ,  6-Cl) :   1.0188 B(  3-C ,  4-N ) :   1.4975 B(  3-C ,  9-H ) :   0.9655
B(  4-N ,  5-C ) :   1.4719 B(  5-C , 10-H ) :   0.9604

FINAL SINGLE POINT ENERGY      -707.845224077287

DIPOLE MOMENT
-------------

Method             : SCF
Type of density    : Electron Density
Multiplicity       :   1
Irrep              :   0
Energy             :  -707.8504640661869871 Eh
Relativity type    :
Basis              : AO
                                X                 Y                 Z
Electronic contribution:     -7.366353675      -0.821612331      -0.000443013
Nuclear contribution   :      7.685930082       1.976992883       0.000485842
                        -----------------------------------------
Total Dipole Moment    :      0.319576407       1.155380552       0.000042828
                        -----------------------------------------
Magnitude (a.u.)       :      1.198763238
Magnitude (Debye)      :      3.047014001

Rotational constants in cm-1:             0.195022             0.052746             0.041517
Rotational constants in MHz :          5846.609482          1581.276131          1244.648141

                             ****ORCA TERMINATED NORMALLY****
TOTAL RUN TIME: 0 days 0 hours 1 minutes 44 seconds 698 msec
