                         Program Version 6.0.0  -   RELEASE  -
|  1> ! r2scan-3c def2/J RI DEFGRID2 scfconv6 printgap
|  2> %output
|  3>     printlevel normal
|  4> end
|  5> * xyz 0 1
|  6> C 1.6792000205 -2.9394717453 0.9257426523
|  7> C 1.6094687166 -1.5919029426 1.6151152624
|  8> O 2.6439217034 -0.6958612396 1.1785753603
|  9> P 2.7384826886 0.0175993051 -0.2434477427
| 10> S 3.0917032612 -1.0836964185 -1.8234855761
| 11> O 3.9449460265 0.9976614086 -0.0037702433
| 12> C 4.2439327235 1.7047773832 1.2250272141
| 13> C 3.1550301388 2.682115067 1.6128413814
| 14> S 0.9812465197 1.2366467468 -0.3907397092
| 15> C 0.1520494305 0.3755693755 -1.74321198
| 16> S -0.751414659 -1.0996115377 -1.1977300202
| 17> P -2.2186656363 -0.0666440078 -0.0751167584
| 18> S -2.8458498495 1.6266247698 -0.8515917508
| 19> O -1.5242678247 0.0462911113 1.3426654225
| 20> C -1.8669521366 1.0897494468 2.2786185725
| 21> C -3.259610576 0.8901696266 2.8367774952
| 22> O -3.2996717436 -1.1932897286 0.2118448151
| 23> C -4.152263064 -1.7447707424 -0.8106994847
| 24> C -5.4461842733 -0.9619373201 -0.9267900984
| 25> H 1.4658829324 -2.8382041231 -0.1367517956
| 26> H 2.6708968955 -3.3695328463 1.0403165916
| 27> H 0.9437074006 -3.6039525367 1.3676841723
| 28> H 1.7913810853 -1.6888485508 2.687478041
| 29> H 0.634816238 -1.1215417234 1.4527240249
| 30> H 4.4088169926 0.9663634008 2.0115537853
| 31> H 5.1789073085 2.2169945712 0.9930923469
| 32> H 2.9554270472 3.3726588818 0.7973379111
| 33> H 2.2347356261 2.1511458559 1.8506482023
| 34> H 3.4748734231 3.2422990366 2.4859972894
| 35> H 0.894153413 0.0368182437 -2.467322135
| 36> H -0.5494523924 1.0840567543 -2.1832124996
| 37> H -1.1024066979 1.0126093361 3.0524107678
| 38> H -1.7843946029 2.0548638981 1.7686838707
| 39> H -3.3503256117 -0.0997106718 3.2758675537
| 40> H -3.4595634312 1.6439247475 3.5917261109
| 41> H -3.9912482777 0.9874108306 2.0353326433
| 42> H -3.6129712092 -1.7583631518 -1.7623511802
| 43> H -4.336713962 -2.7700822116 -0.4846497905
| 44> H -5.2437373662 0.060840633 -1.2370978849
| 45> H -6.0849803072 -1.4348257647 -1.6657310746
| 46> H -5.9587820059 -0.9426127758 0.0309273421
| 47> *
| 48>
| 49>                          ****END OF INPUT****

CARTESIAN COORDINATES (ANGSTROEM)
---------------------------------
  C      1.679200   -2.939472    0.925743
  C      1.609469   -1.591903    1.615115
  O      2.643922   -0.695861    1.178575
  P      2.738483    0.017599   -0.243448
  S      3.091703   -1.083696   -1.823486
  O      3.944946    0.997661   -0.003770
  C      4.243933    1.704777    1.225027
  C      3.155030    2.682115    1.612841
  S      0.981247    1.236647   -0.390740
  C      0.152049    0.375569   -1.743212
  S     -0.751415   -1.099612   -1.197730
  P     -2.218666   -0.066644   -0.075117
  S     -2.845850    1.626625   -0.851592
  O     -1.524268    0.046291    1.342665
  C     -1.866952    1.089749    2.278619
  C     -3.259611    0.890170    2.836777
  O     -3.299672   -1.193290    0.211845
  C     -4.152263   -1.744771   -0.810699
  C     -5.446184   -0.961937   -0.926790
  H      1.465883   -2.838204   -0.136752
  H      2.670897   -3.369533    1.040317
  H      0.943707   -3.603953    1.367684
  H      1.791381   -1.688849    2.687478
  H      0.634816   -1.121542    1.452724
  H      4.408817    0.966363    2.011554
  H      5.178907    2.216995    0.993092
  H      2.955427    3.372659    0.797338
  H      2.234736    2.151146    1.850648
  H      3.474873    3.242299    2.485997
  H      0.894153    0.036818   -2.467322
  H     -0.549452    1.084057   -2.183212
  H     -1.102407    1.012609    3.052411
  H     -1.784395    2.054864    1.768684
  H     -3.350326   -0.099711    3.275868
  H     -3.459563    1.643925    3.591726
  H     -3.991248    0.987411    2.035333
  H     -3.612971   -1.758363   -1.762351
  H     -4.336714   -2.770082   -0.484650
  H     -5.243737    0.060841   -1.237098
  H     -6.084980   -1.434826   -1.665731
  H     -5.958782   -0.942613    0.030927

 Total Charge           Charge          ....    0
 Multiplicity           Mult            ....    1
 Number of Electrons    NEL             ....  202
 Basis Dimension        Dim             ....  539

ORBITAL ENERGIES
----------------

  NO   OCC          E(Eh)            E(eV)
   0   2.0000     -88.577854     -2410.3259
   1   2.0000     -88.573464     -2410.2065
   2   2.0000     -88.526030     -2408.9158
   3   2.0000     -88.516173     -2408.6475
   4   2.0000     -76.919148     -2093.0764
   5   2.0000     -76.913791     -2092.9307
   6   2.0000     -18.998330      -516.9708
   7   2.0000     -18.995773      -516.9013
   8   2.0000     -18.991274      -516.7788
   9   2.0000     -18.990519      -516.7583
  10   2.0000     -10.105794      -274.9926
  11   2.0000     -10.104994      -274.9709
  12   2.0000     -10.102679      -274.9079
  13   2.0000     -10.101025      -274.8629
  14   2.0000     -10.095392      -274.7096
  15   2.0000     -10.037950      -273.1465
  16   2.0000     -10.033015      -273.0122
  17   2.0000     -10.029914      -272.9278
  18   2.0000     -10.020094      -272.6606
  19   2.0000      -7.872086      -214.2104
  20   2.0000      -7.867620      -214.0888
  21   2.0000      -7.820797      -212.8147
  22   2.0000      -7.811059      -212.5497
  23   2.0000      -6.597635      -179.5308
  24   2.0000      -6.591764      -179.3710
  25   2.0000      -5.818865      -158.3394
  26   2.0000      -5.815911      -158.2590
  27   2.0000      -5.814615      -158.2237
  28   2.0000      -5.811339      -158.1346
  29   2.0000      -5.809356      -158.0806
  30   2.0000      -5.804783      -157.9562
  31   2.0000      -5.768410      -156.9664
  32   2.0000      -5.761042      -156.7659
  33   2.0000      -5.760879      -156.7615
  34   2.0000      -5.758851      -156.7063
  35   2.0000      -5.751160      -156.4970
  36   2.0000      -5.751081      -156.4949
  37   2.0000      -4.743052      -129.0650
  38   2.0000      -4.742645      -129.0539
  39   2.0000      -4.741359      -129.0189
  40   2.0000      -4.737599      -128.9166
  41   2.0000      -4.736753      -128.8936
  42   2.0000      -4.735219      -128.8519
  43   2.0000      -1.056223       -28.7413
  44   2.0000      -1.050447       -28.5841
  45   2.0000      -1.017046       -27.6752
  46   2.0000      -1.007815       -27.4240
  47   2.0000      -0.801216       -21.8022
  48   2.0000      -0.761317       -20.7165
  49   2.0000      -0.753217       -20.4961
  50   2.0000      -0.735641       -20.0178
  51   2.0000      -0.732993       -19.9458
  52   2.0000      -0.712814       -19.3967
  53   2.0000      -0.688386       -18.7319
  54   2.0000      -0.669799       -18.2262
  55   2.0000      -0.633690       -17.2436
  56   2.0000      -0.623480       -16.9657
  57   2.0000      -0.611914       -16.6510
  58   2.0000      -0.607946       -16.5431
  59   2.0000      -0.593632       -16.1535
  60   2.0000      -0.531044       -14.4504
  61   2.0000      -0.519433       -14.1345
  62   2.0000      -0.500422       -13.6172
  63   2.0000      -0.491065       -13.3625
  64   2.0000      -0.476902       -12.9772
  65   2.0000      -0.467217       -12.7136
  66   2.0000      -0.462668       -12.5898
  67   2.0000      -0.455816       -12.4034
  68   2.0000      -0.442719       -12.0470
  69   2.0000      -0.437951       -11.9172
  70   2.0000      -0.427297       -11.6273
  71   2.0000      -0.419611       -11.4182
  72   2.0000      -0.414662       -11.2835
  73   2.0000      -0.412588       -11.2271
  74   2.0000      -0.399910       -10.8821
  75   2.0000      -0.392104       -10.6697
  76   2.0000      -0.380749       -10.3607
  77   2.0000      -0.372134       -10.1263
  78   2.0000      -0.371712       -10.1148
  79   2.0000      -0.368028       -10.0146
  80   2.0000      -0.365592        -9.9483
  81   2.0000      -0.361130        -9.8269
  82   2.0000      -0.355060        -9.6617
  83   2.0000      -0.353550        -9.6206
  84   2.0000      -0.348059        -9.4712
  85   2.0000      -0.340335        -9.2610
  86   2.0000      -0.324576        -8.8322
  87   2.0000      -0.315898        -8.5960
  88   2.0000      -0.311542        -8.4775
  89   2.0000      -0.309253        -8.4152
  90   2.0000      -0.302426        -8.2294
  91   2.0000      -0.295263        -8.0345
  92   2.0000      -0.290955        -7.9173
  93   2.0000      -0.282525        -7.6879
  94   2.0000      -0.272169        -7.4061
  95   2.0000      -0.249595        -6.7918
  96   2.0000      -0.231527        -6.3002
  97   2.0000      -0.226731        -6.1697
  98   2.0000      -0.218998        -5.9592
  99   2.0000      -0.213181        -5.8009
 100   2.0000      -0.210975        -5.7409
 101   0.0000      -0.047398        -1.2898
 102   0.0000      -0.027618        -0.7515
 103   0.0000      -0.006019        -0.1638
 104   0.0000      -0.003270        -0.0890
 105   0.0000       0.012631         0.3437

MULLIKEN ATOMIC CHARGES
-----------------------
   0 C :   -0.418987
   1 C :   -0.179793
   2 O :   -0.273298
   3 P :    0.658538
   4 S :   -0.445235
   5 O :   -0.276828
   6 C :   -0.115616
   7 C :   -0.480106
   8 S :   -0.147412
   9 C :   -0.234364
  10 S :   -0.145575
  11 P :    0.666220
  12 S :   -0.475545
  13 O :   -0.269980
  14 C :   -0.145887
  15 C :   -0.445097
  16 O :   -0.295075
  17 C :   -0.139085
  18 C :   -0.452467
  19 H :    0.174714
  20 H :    0.150726
  21 H :    0.143059
  22 H :    0.143950
  23 H :    0.178661
  24 H :    0.162871
  25 H :    0.152087
  26 H :    0.174002
  27 H :    0.157243
  28 H :    0.152647
  29 H :    0.218854
  30 H :    0.220286
  31 H :    0.149206
  32 H :    0.175722
  33 H :    0.156310
  34 H :    0.148072
  35 H :    0.169897
  36 H :    0.155270
  37 H :    0.151601
  38 H :    0.181832
  39 H :    0.146668
  40 H :    0.151913
Sum of atomic charges:    0.0000000

LOEWDIN ATOMIC CHARGES
----------------------
   0 C :   -0.409474
   1 C :    0.019631
   2 O :   -0.674350
   3 P :    0.394962
   4 S :   -0.102592
   5 O :   -0.647600
   6 C :    0.033346
   7 C :   -0.405216
   8 S :    0.144064
   9 C :   -0.428487
  10 S :    0.155095
  11 P :    0.375850
  12 S :   -0.129884
  13 O :   -0.688522
  14 C :    0.016752
  15 C :   -0.398871
  16 O :   -0.659128
  17 C :    0.023882
  18 C :   -0.401655
  19 H :    0.167627
  20 H :    0.160315
  21 H :    0.158886
  22 H :    0.177538
  23 H :    0.191365
  24 H :    0.177345
  25 H :    0.183457
  26 H :    0.165661
  27 H :    0.161276
  28 H :    0.160850
  29 H :    0.196128
  30 H :    0.191779
  31 H :    0.178865
  32 H :    0.181889
  33 H :    0.160573
  34 H :    0.160086
  35 H :    0.166209
  36 H :    0.176148
  37 H :    0.179933
  38 H :    0.169224
  39 H :    0.158815
  40 H :    0.158228

  Mayer bond orders larger than 0.100000
B(  0-C ,  1-C ) :   0.9356 B(  0-C , 19-H ) :   0.9499 B(  0-C , 20-H ) :   0.9684
B(  0-C , 21-H ) :   0.9649 B(  1-C ,  2-O ) :   0.8018 B(  1-C , 22-H ) :   0.9663
B(  1-C , 23-H ) :   0.9482 B(  2-O ,  3-P ) :   1.0428 B(  3-P ,  4-S ) :   1.8185
B(  3-P ,  5-O ) :   1.1722 B(  3-P ,  8-S ) :   0.9865 B(  5-O ,  6-C ) :   0.7982
B(  6-C ,  7-C ) :   0.9155 B(  6-C , 24-H ) :   0.9759 B(  6-C , 25-H ) :   0.9532
B(  7-C , 26-H ) :   0.9665 B(  7-C , 27-H ) :   0.9640 B(  7-C , 28-H ) :   0.9578
B(  8-S ,  9-C ) :   0.9095 B(  9-C , 10-S ) :   0.8955 B(  9-C , 29-H ) :   0.8981
B(  9-C , 30-H ) :   0.9108 B( 10-S , 11-P ) :   1.0969 B( 11-P , 12-S ) :   1.7481
B( 11-P , 13-O ) :   1.1443 B( 11-P , 16-O ) :   1.0753 B( 13-O , 14-C ) :   0.7882
B( 14-C , 15-C ) :   0.9276 B( 14-C , 31-H ) :   0.9604 B( 14-C , 32-H ) :   0.9622
B( 15-C , 33-H ) :   0.9716 B( 15-C , 34-H ) :   0.9624 B( 15-C , 35-H ) :   0.9582
B( 16-O , 17-C ) :   0.7824 B( 17-C , 18-C ) :   0.9537 B( 17-C , 36-H ) :   0.9629
B( 17-C , 37-H ) :   0.9631 B( 18-C , 38-H ) :   0.9561 B( 18-C , 39-H ) :   0.9639
B( 18-C , 40-H ) :   0.9747

Dispersion correction           -0.021644360
FINAL SINGLE POINT ENERGY     -2932.460357271720

DIPOLE MOMENT
-------------

Method             : SCF
Type of density    : Electron Density
Multiplicity       :   1
Irrep              :   0
Energy             : -2932.4854341518339425 Eh
Relativity type    :
Basis              : AO
                                X                 Y                 Z
Electronic contribution:     11.640663568       0.734121066     -15.968828415
Nuclear contribution   :    -12.480369662      -0.736747474      17.809032906
                        -----------------------------------------
Total Dipole Moment    :     -0.839706094      -0.002626409       1.840204490
                        -----------------------------------------
Magnitude (a.u.)       :      2.022737202
Magnitude (Debye)      :      5.141389374

Rotational constants in cm-1:             0.013011             0.004841             0.004468
Rotational constants in MHz :           390.049119           145.130161           133.935112

                             ****ORCA TERMINATED NORMALLY****
TOTAL RUN TIME: 0 days 0 hours 1 minutes 20 seconds 904 msec
