                         Program Version 6.0.0  -   RELEASE  -
|  1> ! r2scan-3c def2/J RI DEFGRID2 scfconv6 printgap
|  2> %output
|  3>     printlevel normal
|  4> end
|  5> %cpcm
|  6>     smd true
|  7>     smdsolvent "water"
|  8> end
|  9> * xyz 0 1
| 10> C 1.6792000205 -2.9394717453 0.9257426523
| 11> C 1.6094687166 -1.5919029426 1.6151152624
| 12> O 2.6439217034 -0.6958612396 1.1785753603
| 13> P 2.7384826886 0.0175993051 -0.2434477427
| 14> S 3.0917032612 -1.0836964185 -1.8234855761
| 15> O 3.9449460265 0.9976614086 -0.0037702433
| 16> C 4.2439327235 1.7047773832 1.2250272141
| 17> C 3.1550301388 2.682115067 1.6128413814
| 18> S 0.9812465197 1.2366467468 -0.3907397092
| 19> C 0.1520494305 0.3755693755 -1.74321198
| 20> S -0.751414659 -1.0996115377 -1.1977300202
| 21> P -2.2186656363 -0.0666440078 -0.0751167584
| 22> S -2.8458498495 1.6266247698 -0.8515917508
| 23> O -1.5242678247 0.0462911113 1.3426654225
| 24> C -1.8669521366 1.0897494468 2.2786185725
| 25> C -3.259610576 0.8901696266 2.8367774952
| 26> O -3.2996717436 -1.1932897286 0.2118448151
| 27> C -4.152263064 -1.7447707424 -0.8106994847
| 28> C -5.4461842733 -0.9619373201 -0.9267900984
| 29> H 1.4658829324 -2.8382041231 -0.1367517956
| 30> H 2.6708968955 -3.3695328463 1.0403165916
| 31> H 0.9437074006 -3.6039525367 1.3676841723
| 32> H 1.7913810853 -1.6888485508 2.687478041
| 33> H 0.634816238 -1.1215417234 1.4527240249
| 34> H 4.4088169926 0.9663634008 2.0115537853
| 35> H 5.1789073085 2.2169945712 0.9930923469
| 36> H 2.9554270472 3.3726588818 0.7973379111
| 37> H 2.2347356261 2.1511458559 1.8506482023
| 38> H 3.4748734231 3.2422990366 2.4859972894
| 39> H 0.894153413 0.0368182437 -2.467322135
| 40> H -0.5494523924 1.0840567543 -2.1832124996
| 41> H -1.1024066979 1.0126093361 3.0524107678
| 42> H -1.7843946029 2.0548638981 1.7686838707
| 43> H -3.3503256117 -0.0997106718 3.2758675537
| 44> H -3.4595634312 1.6439247475 3.5917261109
| 45> H -3.9912482777 0.9874108306 2.0353326433
| 46> H -3.6129712092 -1.7583631518 -1.7623511802
| 47> H -4.336713962 -2.7700822116 -0.4846497905
| 48> H -5.2437373662 0.060840633 -1.2370978849
| 49> H -6.0849803072 -1.4348257647 -1.6657310746
| 50> H -5.9587820059 -0.9426127758 0.0309273421
| 51> *
| 52>
| 53>                          ****END OF INPUT****

CARTESIAN COORDINATES (ANGSTROEM)
---------------------------------
  C      1.679200   -2.939472    0.925743
  C      1.609469   -1.591903    1.615115
  O      2.643922   -0.695861    1.178575
  P      2.738483    0.017599   -0.243448
  S      3.091703   -1.083696   -1.823486
  O      3.944946    0.997661   -0.003770
  C      4.243933    1.704777    1.225027
  C      3.155030    2.682115    1.612841
  S      0.981247    1.236647   -0.390740
  C      0.152049    0.375569   -1.743212
  S     -0.751415   -1.099612   -1.197730
  P     -2.218666   -0.066644   -0.075117
  S     -2.845850    1.626625   -0.851592
  O     -1.524268    0.046291    1.342665
  C     -1.866952    1.089749    2.278619
  C     -3.259611    0.890170    2.836777
  O     -3.299672   -1.193290    0.211845
  C     -4.152263   -1.744771   -0.810699
  C     -5.446184   -0.961937   -0.926790
  H      1.465883   -2.838204   -0.136752
  H      2.670897   -3.369533    1.040317
  H      0.943707   -3.603953    1.367684
  H      1.791381   -1.688849    2.687478
  H      0.634816   -1.121542    1.452724
  H      4.408817    0.966363    2.011554
  H      5.178907    2.216995    0.993092
  H      2.955427    3.372659    0.797338
  H      2.234736    2.151146    1.850648
  H      3.474873    3.242299    2.485997
  H      0.894153    0.036818   -2.467322
  H     -0.549452    1.084057   -2.183212
  H     -1.102407    1.012609    3.052411
  H     -1.784395    2.054864    1.768684
  H     -3.350326   -0.099711    3.275868
  H     -3.459563    1.643925    3.591726
  H     -3.991248    0.987411    2.035333
  H     -3.612971   -1.758363   -1.762351
  H     -4.336714   -2.770082   -0.484650
  H     -5.243737    0.060841   -1.237098
  H     -6.084980   -1.434826   -1.665731
  H     -5.958782   -0.942613    0.030927

 Total Charge           Charge          ....    0
 Multiplicity           Mult            ....    1
 Number of Electrons    NEL             ....  202
 Basis Dimension        Dim             ....  539

ORBITAL ENERGIES
----------------

  NO   OCC          E(Eh)            E(eV)
   0   2.0000     -88.579931     -2410.3825
   1   2.0000     -88.578444     -2410.3420
   2   2.0000     -88.529784     -2409.0179
   3   2.0000     -88.528933     -2408.9947
   4   2.0000     -76.921754     -2093.1473
   5   2.0000     -76.920692     -2093.1185
   6   2.0000     -18.997193      -516.9399
   7   2.0000     -18.995225      -516.8864
   8   2.0000     -18.994745      -516.8733
   9   2.0000     -18.993887      -516.8499
  10   2.0000     -10.102049      -274.8907
  11   2.0000     -10.092881      -274.6412
  12   2.0000     -10.092460      -274.6298
  13   2.0000     -10.089784      -274.5570
  14   2.0000     -10.089007      -274.5358
  15   2.0000     -10.022468      -272.7252
  16   2.0000     -10.018881      -272.6276
  17   2.0000     -10.017046      -272.5777
  18   2.0000     -10.015591      -272.5381
  19   2.0000      -7.874240      -214.2690
  20   2.0000      -7.872549      -214.2229
  21   2.0000      -7.824819      -212.9242
  22   2.0000      -7.824199      -212.9073
  23   2.0000      -6.599807      -179.5899
  24   2.0000      -6.599207      -179.5735
  25   2.0000      -5.821003      -158.3975
  26   2.0000      -5.819556      -158.3582
  27   2.0000      -5.818076      -158.3179
  28   2.0000      -5.816260      -158.2685
  29   2.0000      -5.811504      -158.1391
  30   2.0000      -5.809719      -158.0905
  31   2.0000      -5.772375      -157.0743
  32   2.0000      -5.771853      -157.0601
  33   2.0000      -5.765065      -156.8754
  34   2.0000      -5.764911      -156.8712
  35   2.0000      -5.764316      -156.8550
  36   2.0000      -5.764269      -156.8537
  37   2.0000      -4.745589      -129.1340
  38   2.0000      -4.744739      -129.1109
  39   2.0000      -4.744569      -129.1063
  40   2.0000      -4.744204      -129.0963
  41   2.0000      -4.743408      -129.0747
  42   2.0000      -4.743031      -129.0644
  43   2.0000      -1.054448       -28.6930
  44   2.0000      -1.054118       -28.6840
  45   2.0000      -1.014400       -27.6032
  46   2.0000      -1.010795       -27.5051
  47   2.0000      -0.803580       -21.8665
  48   2.0000      -0.757344       -20.6084
  49   2.0000      -0.745618       -20.2893
  50   2.0000      -0.726428       -19.7671
  51   2.0000      -0.723537       -19.6884
  52   2.0000      -0.711461       -19.3598
  53   2.0000      -0.690529       -18.7902
  54   2.0000      -0.675136       -18.3714
  55   2.0000      -0.629529       -17.1303
  56   2.0000      -0.621800       -16.9200
  57   2.0000      -0.607596       -16.5335
  58   2.0000      -0.598440       -16.2844
  59   2.0000      -0.591312       -16.0904
  60   2.0000      -0.525785       -14.3073
  61   2.0000      -0.514885       -14.0107
  62   2.0000      -0.493399       -13.4261
  63   2.0000      -0.487642       -13.2694
  64   2.0000      -0.475653       -12.9432
  65   2.0000      -0.462324       -12.5805
  66   2.0000      -0.455242       -12.3878
  67   2.0000      -0.450629       -12.2622
  68   2.0000      -0.436346       -11.8736
  69   2.0000      -0.435103       -11.8398
  70   2.0000      -0.420378       -11.4391
  71   2.0000      -0.418792       -11.3959
  72   2.0000      -0.411330       -11.1928
  73   2.0000      -0.404364       -11.0033
  74   2.0000      -0.396963       -10.8019
  75   2.0000      -0.388108       -10.5610
  76   2.0000      -0.378635       -10.3032
  77   2.0000      -0.366590        -9.9754
  78   2.0000      -0.362972        -9.8770
  79   2.0000      -0.361646        -9.8409
  80   2.0000      -0.355343        -9.6694
  81   2.0000      -0.353634        -9.6229
  82   2.0000      -0.349797        -9.5185
  83   2.0000      -0.345846        -9.4109
  84   2.0000      -0.344692        -9.3796
  85   2.0000      -0.337003        -9.1703
  86   2.0000      -0.321182        -8.7398
  87   2.0000      -0.308306        -8.3894
  88   2.0000      -0.307042        -8.3550
  89   2.0000      -0.303596        -8.2613
  90   2.0000      -0.298765        -8.1298
  91   2.0000      -0.291387        -7.9290
  92   2.0000      -0.289178        -7.8689
  93   2.0000      -0.281800        -7.6682
  94   2.0000      -0.275755        -7.5037
  95   2.0000      -0.251868        -6.8537
  96   2.0000      -0.238072        -6.4783
  97   2.0000      -0.233781        -6.3615
  98   2.0000      -0.224021        -6.0959
  99   2.0000      -0.223713        -6.0875
 100   2.0000      -0.221651        -6.0314
 101   0.0000      -0.052189        -1.4201
 102   0.0000      -0.033504        -0.9117
 103   0.0000      -0.010826        -0.2946
 104   0.0000      -0.005798        -0.1578
 105   0.0000       0.011366         0.3093

MULLIKEN ATOMIC CHARGES
-----------------------
   0 C :   -0.466108
   1 C :   -0.161113
   2 O :   -0.289158
   3 P :    0.670006
   4 S :   -0.504349
   5 O :   -0.311888
   6 C :   -0.111185
   7 C :   -0.513219
   8 S :   -0.151140
   9 C :   -0.245037
  10 S :   -0.153186
  11 P :    0.700069
  12 S :   -0.520062
  13 O :   -0.292291
  14 C :   -0.137956
  15 C :   -0.486414
  16 O :   -0.322454
  17 C :   -0.132373
  18 C :   -0.489925
  19 H :    0.165877
  20 H :    0.164424
  21 H :    0.170370
  22 H :    0.175744
  23 H :    0.175127
  24 H :    0.178788
  25 H :    0.175133
  26 H :    0.180072
  27 H :    0.164457
  28 H :    0.179264
  29 H :    0.229661
  30 H :    0.240102
  31 H :    0.178840
  32 H :    0.177088
  33 H :    0.170815
  34 H :    0.173009
  35 H :    0.167136
  36 H :    0.164988
  37 H :    0.177594
  38 H :    0.171103
  39 H :    0.170201
  40 H :    0.167993
Sum of atomic charges:    0.0000000

LOEWDIN ATOMIC CHARGES
----------------------
   0 C :   -0.414740
   1 C :    0.026447
   2 O :   -0.676937
   3 P :    0.395183
   4 S :   -0.148926
   5 O :   -0.670239
   6 C :    0.040160
   7 C :   -0.404904
   8 S :    0.146044
   9 C :   -0.425619
  10 S :    0.150715
  11 P :    0.381050
  12 S :   -0.157634
  13 O :   -0.695782
  14 C :    0.022368
  15 C :   -0.402405
  16 O :   -0.670458
  17 C :    0.029400
  18 C :   -0.405740
  19 H :    0.161363
  20 H :    0.162254
  21 H :    0.168610
  22 H :    0.190978
  23 H :    0.190945
  24 H :    0.184781
  25 H :    0.193156
  26 H :    0.165539
  27 H :    0.162447
  28 H :    0.171904
  29 H :    0.198827
  30 H :    0.197268
  31 H :    0.190963
  32 H :    0.182341
  33 H :    0.164255
  34 H :    0.169254
  35 H :    0.162644
  36 H :    0.180239
  37 H :    0.191070
  38 H :    0.163019
  39 H :    0.167586
  40 H :    0.162575

  Mayer bond orders larger than 0.100000
B(  0-C ,  1-C ) :   0.9169 B(  0-C , 19-H ) :   0.9535 B(  0-C , 20-H ) :   0.9693
B(  0-C , 21-H ) :   0.9597 B(  1-C ,  2-O ) :   0.7933 B(  1-C , 22-H ) :   0.9565
B(  1-C , 23-H ) :   0.9482 B(  2-O ,  3-P ) :   1.0532 B(  3-P ,  4-S ) :   1.7918
B(  3-P ,  5-O ) :   1.1782 B(  3-P ,  8-S ) :   1.0052 B(  5-O ,  6-C ) :   0.7859
B(  6-C ,  7-C ) :   0.9043 B(  6-C , 24-H ) :   0.9659 B(  6-C , 25-H ) :   0.9449
B(  7-C , 26-H ) :   0.9665 B(  7-C , 27-H ) :   0.9588 B(  7-C , 28-H ) :   0.9503
B(  8-S ,  9-C ) :   0.8981 B(  9-C , 10-S ) :   0.8924 B(  9-C , 29-H ) :   0.8967
B(  9-C , 30-H ) :   0.9050 B( 10-S , 11-P ) :   1.1028 B( 11-P , 12-S ) :   1.7119
B( 11-P , 13-O ) :   1.1542 B( 11-P , 16-O ) :   1.0820 B( 13-O , 14-C ) :   0.7766
B( 14-C , 15-C ) :   0.9162 B( 14-C , 31-H ) :   0.9500 B( 14-C , 32-H ) :   0.9588
B( 15-C , 33-H ) :   0.9704 B( 15-C , 34-H ) :   0.9565 B( 15-C , 35-H ) :   0.9585
B( 16-O , 17-C ) :   0.7715 B( 17-C , 18-C ) :   0.9434 B( 17-C , 36-H ) :   0.9564
B( 17-C , 37-H ) :   0.9532 B( 18-C , 38-H ) :   0.9605 B( 18-C , 39-H ) :   0.9589
B( 18-C , 40-H ) :   0.9719

Dispersion correction           -0.021644360
FINAL SINGLE POINT ENERGY     -2932.469076149273

DIPOLE MOMENT
-------------

Method             : SCF
Type of density    : Electron Density
Multiplicity       :   1
Irrep              :   0
Energy             : -2932.4941530293872347 Eh
Relativity type    :
Basis              : AO
                                X                 Y                 Z
Electronic contribution:     11.339300824       0.736522742     -15.229336548
Nuclear contribution   :    -12.480369662      -0.736747474      17.809032906
                        -----------------------------------------
Total Dipole Moment    :     -1.141068838      -0.000224732       2.579696357
                        -----------------------------------------
Magnitude (a.u.)       :      2.820792697
Magnitude (Debye)      :      7.169885236

Rotational constants in cm-1:             0.013011             0.004841             0.004468
Rotational constants in MHz :           390.049119           145.130161           133.935112

                             ****ORCA TERMINATED NORMALLY****
TOTAL RUN TIME: 0 days 0 hours 1 minutes 48 seconds 262 msec
