                         Program Version 6.0.0  -   RELEASE  -
|  1> ! pbe def2-sv(p) def2/J RI DEFGRID1 loosescf d4 GCP(DFT/SV(P)) printgap
|  2> %output
|  3>     printlevel normal
|  4> end
|  5> * xyz 0 1
|  6> C -0.6792702729 -0.531076469 0.3668914526
|  7> C 0.6752111691 -0.5426396605 -0.3414192055
|  8> O 1.508947211 0.467924531 0.1932012281
|  9> O -1.4839792083 0.4802547072 -0.2043737692
| 10> H -0.5087171012 -0.3408004517 1.4324642212
| 11> H -1.1559018613 -1.5119584077 0.2419390585
| 12> H 0.5011006241 -0.3966205761 -1.4096391676
| 13> H 1.1532302178 -1.5178124695 -0.1813442793
| 14> H 1.9614796081 0.9389981715 -0.5162792591
| 15> H -2.2991488074 0.5719274755 0.3066750032
| 16> *
| 17>
| 18>                          ****END OF INPUT****

CARTESIAN COORDINATES (ANGSTROEM)
---------------------------------
  C     -0.679270   -0.531076    0.366891
  C      0.675211   -0.542640   -0.341419
  O      1.508947    0.467925    0.193201
  O     -1.483979    0.480255   -0.204374
  H     -0.508717   -0.340800    1.432464
  H     -1.155902   -1.511958    0.241939
  H      0.501101   -0.396621   -1.409639
  H      1.153230   -1.517812   -0.181344
  H      1.961480    0.938998   -0.516279
  H     -2.299149    0.571927    0.306675

 Total Charge           Charge          ....    0
 Multiplicity           Mult            ....    1
 Number of Electrons    NEL             ....   34
 Basis Dimension        Dim             ....   68

ORBITAL ENERGIES
----------------

  NO   OCC          E(Eh)            E(eV)
   0   2.0000     -18.738387      -509.8974
   1   2.0000     -18.736220      -509.8385
   2   2.0000      -9.927050      -270.1288
   3   2.0000      -9.925470      -270.0858
   4   2.0000      -0.920338       -25.0437
   5   2.0000      -0.904501       -24.6127
   6   2.0000      -0.658624       -17.9221
   7   2.0000      -0.539306       -14.6753
   8   2.0000      -0.473397       -12.8818
   9   2.0000      -0.458666       -12.4809
  10   2.0000      -0.380605       -10.3568
  11   2.0000      -0.366144        -9.9633
  12   2.0000      -0.362588        -9.8665
  13   2.0000      -0.288135        -7.8406
  14   2.0000      -0.265795        -7.2326
  15   2.0000      -0.210512        -5.7283
  16   2.0000      -0.207920        -5.6578
  17   0.0000       0.029476         0.8021
  18   0.0000       0.037842         1.0297
  19   0.0000       0.078441         2.1345
  20   0.0000       0.106669         2.9026
  21   0.0000       0.112604         3.0641

MULLIKEN ATOMIC CHARGES
-----------------------
   0 C :    0.000449
   1 C :   -0.011792
   2 O :   -0.442750
   3 O :   -0.445677
   4 H :    0.081488
   5 H :    0.063260
   6 H :    0.084050
   7 H :    0.072856
   8 H :    0.300536
   9 H :    0.297579
Sum of atomic charges:    0.0000000

LOEWDIN ATOMIC CHARGES
----------------------
   0 C :   -0.138126
   1 C :   -0.133203
   2 O :   -0.351382
   3 O :   -0.352866
   4 H :    0.103708
   5 H :    0.093214
   6 H :    0.107277
   7 H :    0.098951
   8 H :    0.288094
   9 H :    0.284333

  Mayer bond orders larger than 0.100000
B(  0-C ,  1-C ) :   1.0995 B(  0-C ,  3-O ) :   1.0779 B(  0-C ,  4-H ) :   0.9172
B(  0-C ,  5-H ) :   0.9170 B(  1-C ,  2-O ) :   1.0874 B(  1-C ,  6-H ) :   0.9249
B(  1-C ,  7-H ) :   0.9237 B(  2-O ,  8-H ) :   0.8554 B(  3-O ,  9-H ) :   0.8543

Dispersion correction           -0.004761836
FINAL SINGLE POINT ENERGY      -229.720688762969

DIPOLE MOMENT
-------------

Method             : SCF
Type of density    : Electron Density
Multiplicity       :   1
Irrep              :   0
Energy             :  -229.7708885085365580 Eh
Relativity type    :
Basis              : AO
                                X                 Y                 Z
Electronic contribution:      0.102396181       1.853697400      -0.022469885
Nuclear contribution   :     -0.326073193      -2.102679844      -0.118548828
                        -----------------------------------------
Total Dipole Moment    :     -0.223677012      -0.248982444      -0.141018713
                        -----------------------------------------
Magnitude (a.u.)       :      0.363194081
Magnitude (Debye)      :      0.923165990

Rotational constants in cm-1:             0.580380             0.162296             0.146139
Rotational constants in MHz :         17399.362048          4865.524362          4381.124999

                             ****ORCA TERMINATED NORMALLY****
TOTAL RUN TIME: 0 days 0 hours 0 minutes 4 seconds 302 msec
