                         Program Version 6.0.0  -   RELEASE  -
|  1> ! wb97x-v def2-tzvp def2/J RIJCOSX DEFGRID2 scfconv7 GCP(DFT/TZ) printgap
|  2> %output
|  3>     printlevel normal
|  4> end
|  5> * xyz 0 1
|  6> C 1.82008887949923 0.31481649132894224 0.11393551716498448
|  7> C 0.5821035166075119 -0.5021733706034682 -0.26755566105766543
|  8> C -0.6548483685310336 0.06569342994222704 0.3413486116055738
|  9> O -1.703565741500266 0.25671701018822385 -0.2550725671066545
| 10> H 1.93024700004776 0.37638964107538503 1.2008832255316637
| 11> H 1.7549041225481103 1.3319461108969575 -0.2831449982466418
| 12> H 2.719683638682686 -0.15403885546041052 -0.29192110764933216
| 13> H 0.45482143952447074 -0.5855735737240538 -1.3506369957345488
| 14> H 0.6813147201363927 -1.518572914130567 0.14330433734327572
| 15> H -0.5804744158492451 0.3154582371998135 1.4214843538762816
| 16> *
| 17>
| 18>                          ****END OF INPUT****

CARTESIAN COORDINATES (ANGSTROEM)
---------------------------------
  C      1.820089    0.314816    0.113936
  C      0.582104   -0.502173   -0.267556
  C     -0.654848    0.065693    0.341349
  O     -1.703566    0.256717   -0.255073
  H      1.930247    0.376390    1.200883
  H      1.754904    1.331946   -0.283145
  H      2.719684   -0.154039   -0.291921
  H      0.454821   -0.585574   -1.350637
  H      0.681315   -1.518573    0.143304
  H     -0.580474    0.315458    1.421484

 Total Charge           Charge          ....    0
 Multiplicity           Mult            ....    1
 Number of Electrons    NEL             ....   32
 Basis Dimension        Dim             ....  160

ORBITAL ENERGIES
----------------

  NO   OCC          E(Eh)            E(eV)
   0   2.0000     -21.672731      -589.7450
   1   2.0000     -12.140474      -330.3591
   2   2.0000     -12.064459      -328.2906
   3   2.0000     -12.057937      -328.1131
   4   2.0000      -1.713743       -46.6333
   5   2.0000      -1.309367       -35.6297
   6   2.0000      -1.174621       -31.9631
   7   2.0000      -1.092447       -29.7270
   8   2.0000      -1.005341       -27.3567
   9   2.0000      -0.963315       -26.2131
  10   2.0000      -0.911522       -24.8038
  11   2.0000      -0.877825       -23.8868
  12   2.0000      -0.847510       -23.0619
  13   2.0000      -0.832544       -22.6547
  14   2.0000      -0.793842       -21.6015
  15   2.0000      -0.776002       -21.1161
  16   0.0000      -0.316780        -8.6200
  17   0.0000      -0.041489        -1.1290
  18   0.0000      -0.025103        -0.6831
  19   0.0000      -0.011624        -0.3163
  20   0.0000       0.006320         0.1720

MULLIKEN ATOMIC CHARGES
-----------------------
   0 C :   -0.361093
   1 C :   -0.095287
   2 C :    0.105013
   3 O :   -0.290031
   4 H :    0.113375
   5 H :    0.122610
   6 H :    0.124986
   7 H :    0.109338
   8 H :    0.107186
   9 H :    0.063903
Sum of atomic charges:   -0.0000000

LOEWDIN ATOMIC CHARGES
----------------------
   0 C :   -0.297434
   1 C :   -0.279122
   2 C :   -0.279582
   3 O :    0.091850
   4 H :    0.119062
   5 H :    0.121299
   6 H :    0.121437
   7 H :    0.141722
   8 H :    0.150890
   9 H :    0.109878

  Mayer bond orders larger than 0.100000
B(  0-C ,  1-C ) :   0.9639 B(  0-C ,  4-H ) :   0.9759 B(  0-C ,  5-H ) :   0.9748
B(  0-C ,  6-H ) :   0.9764 B(  1-C ,  2-C ) :   0.9397 B(  1-C ,  7-H ) :   0.9528
B(  1-C ,  8-H ) :   0.9470 B(  2-C ,  3-O ) :   2.1406 B(  2-C ,  9-H ) :   0.9696

FINAL SINGLE POINT ENERGY      -193.151152008917

DIPOLE MOMENT
-------------

Method             : SCF
Type of density    : Electron Density
Multiplicity       :   1
Irrep              :   0
Energy             :  -193.1572678670165431 Eh
Relativity type    :
Basis              : AO
                                X                 Y                 Z
Electronic contribution:     -5.308460428       0.199915409      -0.501575641
Nuclear contribution   :      6.432275590      -0.450258283       0.879439549
                        -----------------------------------------
Total Dipole Moment    :      1.123815162      -0.250342874       0.377863908
                        -----------------------------------------
Magnitude (a.u.)       :      1.211781006
Magnitude (Debye)      :      3.080102538

Rotational constants in cm-1:             0.905409             0.143210             0.137043
Rotational constants in MHz :         27143.489407          4293.334323          4108.454680

                             ****ORCA TERMINATED NORMALLY****
TOTAL RUN TIME: 0 days 0 hours 0 minutes 32 seconds 872 msec
