                         Program Version 6.0.0  -   RELEASE  -
|  1> ! wb97x-v def2-tzvp def2/J RIJCOSX DEFGRID2 scfconv7 GCP(DFT/TZ) printgap
|  2> %output
|  3>     printlevel normal
|  4> end
|  5> %cpcm
|  6>     smd true
|  7>     smdsolvent "water"
|  8> end
|  9> * xyz 0 1
| 10> C 1.82008887949923 0.31481649132894224 0.11393551716498448
| 11> C 0.5821035166075119 -0.5021733706034682 -0.26755566105766543
| 12> C -0.6548483685310336 0.06569342994222704 0.3413486116055738
| 13> O -1.703565741500266 0.25671701018822385 -0.2550725671066545
| 14> H 1.93024700004776 0.37638964107538503 1.2008832255316637
| 15> H 1.7549041225481103 1.3319461108969575 -0.2831449982466418
| 16> H 2.719683638682686 -0.15403885546041052 -0.29192110764933216
| 17> H 0.45482143952447074 -0.5855735737240538 -1.3506369957345488
| 18> H 0.6813147201363927 -1.518572914130567 0.14330433734327572
| 19> H -0.5804744158492451 0.3154582371998135 1.4214843538762816
| 20> *
| 21>
| 22>                          ****END OF INPUT****

CARTESIAN COORDINATES (ANGSTROEM)
---------------------------------
  C      1.820089    0.314816    0.113936
  C      0.582104   -0.502173   -0.267556
  C     -0.654848    0.065693    0.341349
  O     -1.703566    0.256717   -0.255073
  H      1.930247    0.376390    1.200883
  H      1.754904    1.331946   -0.283145
  H      2.719684   -0.154039   -0.291921
  H      0.454821   -0.585574   -1.350637
  H      0.681315   -1.518573    0.143304
  H     -0.580474    0.315458    1.421484

 Total Charge           Charge          ....    0
 Multiplicity           Mult            ....    1
 Number of Electrons    NEL             ....   32
 Basis Dimension        Dim             ....  160

ORBITAL ENERGIES
----------------

  NO   OCC          E(Eh)            E(eV)
   0   2.0000     -21.678681      -589.9069
   1   2.0000     -12.142138      -330.4044
   2   2.0000     -12.048646      -327.8603
   3   2.0000     -12.036907      -327.5409
   4   2.0000      -1.723483       -46.8984
   5   2.0000      -1.294522       -35.2257
   6   2.0000      -1.164579       -31.6898
   7   2.0000      -1.092096       -29.7175
   8   2.0000      -1.005872       -27.3712
   9   2.0000      -0.959805       -26.1176
  10   2.0000      -0.919716       -25.0268
  11   2.0000      -0.863780       -23.5046
  12   2.0000      -0.830552       -22.6005
  13   2.0000      -0.819242       -22.2927
  14   2.0000      -0.775161       -21.0932
  15   2.0000      -0.768241       -20.9049
  16   0.0000      -0.310037        -8.4365
  17   0.0000      -0.031318        -0.8522
  18   0.0000      -0.004751        -0.1293
  19   0.0000       0.008610         0.2343
  20   0.0000       0.024391         0.6637

MULLIKEN ATOMIC CHARGES
-----------------------
   0 C :   -0.400102
   1 C :   -0.122892
   2 C :    0.175212
   3 O :   -0.424175
   4 H :    0.133869
   5 H :    0.131928
   6 H :    0.140437
   7 H :    0.114697
   8 H :    0.138759
   9 H :    0.112268
Sum of atomic charges:   -0.0000000

LOEWDIN ATOMIC CHARGES
----------------------
   0 C :   -0.296329
   1 C :   -0.272494
   2 C :   -0.248640
   3 O :    0.011186
   4 H :    0.124568
   5 H :    0.123113
   6 H :    0.124981
   7 H :    0.142742
   8 H :    0.163372
   9 H :    0.127501

  Mayer bond orders larger than 0.100000
B(  0-C ,  1-C ) :   0.9624 B(  0-C ,  4-H ) :   0.9737 B(  0-C ,  5-H ) :   0.9724
B(  0-C ,  6-H ) :   0.9720 B(  1-C ,  2-C ) :   0.9680 B(  1-C ,  7-H ) :   0.9548
B(  1-C ,  8-H ) :   0.9329 B(  2-C ,  3-O ) :   2.0044 B(  2-C ,  9-H ) :   0.9616

FINAL SINGLE POINT ENERGY      -193.157497109123

DIPOLE MOMENT
-------------

Method             : SCF
Type of density    : Electron Density
Multiplicity       :   1
Irrep              :   0
Energy             :  -193.1636129672229174 Eh
Relativity type    :
Basis              : AO
                                X                 Y                 Z
Electronic contribution:     -4.925273922       0.103558698      -0.274161005
Nuclear contribution   :      6.432275590      -0.450258283       0.879439549
                        -----------------------------------------
Total Dipole Moment    :      1.507001668      -0.346699585       0.605278544
                        -----------------------------------------
Magnitude (a.u.)       :      1.660607342
Magnitude (Debye)      :      4.220928422

Rotational constants in cm-1:             0.905409             0.143210             0.137043
Rotational constants in MHz :         27143.489407          4293.334323          4108.454680

                             ****ORCA TERMINATED NORMALLY****
TOTAL RUN TIME: 0 days 0 hours 0 minutes 35 seconds 338 msec
