                         Program Version 6.0.1  -  RELEASE   -
|  1> ! pbe def2-sv(p) def2/J RI DEFGRID1 loosescf d4 GCP(DFT/SV(P)) printgap
|  2> %output
|  3>     printlevel normal
|  4> end
|  5> * xyz 0 1
|  6> C 3.7934225119 -3.6286656689 0.2376616877
|  7> C 4.0717279217 -2.6473334815 -0.8892700557
|  8> O 2.8429811088 -2.2026449563 -1.5020369113
|  9> C 2.2149008563 -1.1738483485 -0.9825503979
| 10> O 2.6036933699 -0.5330241754 -0.0268432219
| 11> C 0.9178773359 -0.8802106648 -1.702512752
| 12> C 0.5047332713 0.5769086342 -1.5015987868
| 13> H 0.9831171412 1.242537581 -2.2198595948
| 14> C 0.7715571061 1.0754501957 -0.0958799094
| 15> O 0.1368637886 0.6278244922 0.8482390037
| 16> O 1.5756403272 2.095710752 -0.0526592945
| 17> C 1.8462784445 2.7158873994 1.2244702033
| 18> C 3.1019115736 2.1307520722 1.8470652651
| 19> S -1.2992288472 0.7758133691 -1.7136672869
| 20> P -2.1172502022 0.2339864222 0.1761645687
| 21> S -2.449759777 1.4620250731 1.6803991223
| 22> O -3.4942489637 -0.0380225533 -0.6163564866
| 23> C -4.7295721509 -0.2915471762 0.0541141254
| 24> O -1.7505577317 -1.2815889362 0.5653103922
| 25> C -1.0760288271 -1.6741773865 1.7583044551
| 26> H 3.2036870334 -4.4640526099 -0.1293764415
| 27> H 4.7345823269 -4.0001650871 0.6291452219
| 28> H 3.2496033947 -3.1358628332 1.0407906824
| 29> H 4.6217610851 -3.1209889978 -1.7021264538
| 30> H 4.6126953686 -1.7724060387 -0.518547607
| 31> H 0.1611517232 -1.5441647167 -1.2726510386
| 32> H 1.0059819979 -1.1192070765 -2.760759264
| 33> H 1.9707855868 3.7733808004 0.9889979749
| 34> H 0.9768987637 2.5701382791 1.8724744243
| 35> H 3.279349376 2.6045265974 2.8066335979
| 36> H 2.9790275174 1.0601573463 1.9905102391
| 37> H 3.9542634101 2.2977410856 1.195137861
| 38> H -4.8268349419 0.3603559725 0.9255778535
| 39> H -4.7742445546 -1.3346813445 0.3657184432
| 40> H -5.5109441324 -0.0740797311 -0.6699571559
| 41> H -1.4744703878 -2.6521053127 2.0184981563
| 42> H -1.2692419929 -0.9532115301 2.5543612854
| 43> H -0.0026853899 -1.7254458963 1.5788320689
| 44> *
| 45>
| 46>                          ****END OF INPUT****

CARTESIAN COORDINATES (ANGSTROEM)
---------------------------------
  C      3.793423   -3.628666    0.237662
  C      4.071728   -2.647333   -0.889270
  O      2.842981   -2.202645   -1.502037
  C      2.214901   -1.173848   -0.982550
  O      2.603693   -0.533024   -0.026843
  C      0.917877   -0.880211   -1.702513
  C      0.504733    0.576909   -1.501599
  H      0.983117    1.242538   -2.219860
  C      0.771557    1.075450   -0.095880
  O      0.136864    0.627824    0.848239
  O      1.575640    2.095711   -0.052659
  C      1.846278    2.715887    1.224470
  C      3.101912    2.130752    1.847065
  S     -1.299229    0.775813   -1.713667
  P     -2.117250    0.233986    0.176165
  S     -2.449760    1.462025    1.680399
  O     -3.494249   -0.038023   -0.616356
  C     -4.729572   -0.291547    0.054114
  O     -1.750558   -1.281589    0.565310
  C     -1.076029   -1.674177    1.758304
  H      3.203687   -4.464053   -0.129376
  H      4.734582   -4.000165    0.629145
  H      3.249603   -3.135863    1.040791
  H      4.621761   -3.120989   -1.702126
  H      4.612695   -1.772406   -0.518548
  H      0.161152   -1.544165   -1.272651
  H      1.005982   -1.119207   -2.760759
  H      1.970786    3.773381    0.988998
  H      0.976899    2.570138    1.872474
  H      3.279349    2.604527    2.806634
  H      2.979028    1.060157    1.990510
  H      3.954263    2.297741    1.195138
  H     -4.826835    0.360356    0.925578
  H     -4.774245   -1.334681    0.365718
  H     -5.510944   -0.074080   -0.669957
  H     -1.474470   -2.652105    2.018498
  H     -1.269242   -0.953212    2.554361
  H     -0.002685   -1.725446    1.578832

 Total Charge           Charge          ....    0
 Multiplicity           Mult            ....    1
 Number of Electrons    NEL             ....  174
 Basis Dimension        Dim             ....  316

ORBITAL ENERGIES
----------------

  NO   OCC          E(Eh)            E(eV)
   0   2.0000     -88.032215     -2395.4784
   1   2.0000     -87.960609     -2393.5299
   2   2.0000     -76.412131     -2079.2798
   3   2.0000     -18.822614      -512.1894
   4   2.0000     -18.811573      -511.8889
   5   2.0000     -18.778494      -510.9888
   6   2.0000     -18.763804      -510.5891
   7   2.0000     -18.762372      -510.5501
   8   2.0000     -18.753163      -510.2995
   9   2.0000     -10.030510      -272.9441
  10   2.0000     -10.024227      -272.7731
  11   2.0000      -9.963594      -271.1232
  12   2.0000      -9.948136      -270.7025
  13   2.0000      -9.946446      -270.6566
  14   2.0000      -9.929433      -270.1936
  15   2.0000      -9.923906      -270.0432
  16   2.0000      -9.920244      -269.9436
  17   2.0000      -9.900311      -269.4011
  18   2.0000      -9.882252      -268.9098
  19   2.0000      -7.676987      -208.9014
  20   2.0000      -7.605798      -206.9643
  21   2.0000      -6.407484      -174.3565
  22   2.0000      -5.705518      -155.2550
  23   2.0000      -5.701348      -155.1416
  24   2.0000      -5.693493      -154.9278
  25   2.0000      -5.634980      -153.3356
  26   2.0000      -5.626633      -153.1085
  27   2.0000      -5.625458      -153.0765
  28   2.0000      -4.630408      -125.9998
  29   2.0000      -4.629520      -125.9757
  30   2.0000      -4.627853      -125.9303
  31   2.0000      -1.032350       -28.0917
  32   2.0000      -1.022427       -27.8216
  33   2.0000      -0.963242       -26.2111
  34   2.0000      -0.939580       -25.5673
  35   2.0000      -0.930842       -25.3295
  36   2.0000      -0.919837       -25.0300
  37   2.0000      -0.765818       -20.8390
  38   2.0000      -0.725129       -19.7318
  39   2.0000      -0.704858       -19.1802
  40   2.0000      -0.689020       -18.7492
  41   2.0000      -0.656180       -17.8556
  42   2.0000      -0.622045       -16.9267
  43   2.0000      -0.610531       -16.6134
  44   2.0000      -0.609573       -16.5873
  45   2.0000      -0.606374       -16.5003
  46   2.0000      -0.561134       -15.2692
  47   2.0000      -0.516461       -14.0536
  48   2.0000      -0.503923       -13.7124
  49   2.0000      -0.498453       -13.5636
  50   2.0000      -0.485416       -13.2088
  51   2.0000      -0.469497       -12.7757
  52   2.0000      -0.462467       -12.5844
  53   2.0000      -0.448062       -12.1924
  54   2.0000      -0.443264       -12.0618
  55   2.0000      -0.439174       -11.9505
  56   2.0000      -0.433006       -11.7827
  57   2.0000      -0.417225       -11.3533
  58   2.0000      -0.409697       -11.1484
  59   2.0000      -0.408057       -11.1038
  60   2.0000      -0.401682       -10.9303
  61   2.0000      -0.394968       -10.7476
  62   2.0000      -0.389677       -10.6037
  63   2.0000      -0.384734       -10.4691
  64   2.0000      -0.380884       -10.3644
  65   2.0000      -0.371899       -10.1199
  66   2.0000      -0.365356        -9.9418
  67   2.0000      -0.357679        -9.7329
  68   2.0000      -0.352107        -9.5813
  69   2.0000      -0.342683        -9.3249
  70   2.0000      -0.333381        -9.0717
  71   2.0000      -0.328643        -8.9428
  72   2.0000      -0.327342        -8.9074
  73   2.0000      -0.312254        -8.4969
  74   2.0000      -0.300937        -8.1889
  75   2.0000      -0.293580        -7.9887
  76   2.0000      -0.289495        -7.8776
  77   2.0000      -0.282810        -7.6956
  78   2.0000      -0.268779        -7.3138
  79   2.0000      -0.264853        -7.2070
  80   2.0000      -0.256276        -6.9736
  81   2.0000      -0.252617        -6.8741
  82   2.0000      -0.246024        -6.6947
  83   2.0000      -0.237116        -6.4523
  84   2.0000      -0.212797        -5.7905
  85   2.0000      -0.180646        -4.9156
  86   2.0000      -0.172422        -4.6919
  87   0.0000      -0.052955        -1.4410
  88   0.0000      -0.043713        -1.1895
  89   0.0000      -0.015913        -0.4330
  90   0.0000       0.013490         0.3671
  91   0.0000       0.027794         0.7563

MULLIKEN ATOMIC CHARGES
-----------------------
   0 C :   -0.308444
   1 C :   -0.016531
   2 O :   -0.219931
   3 C :    0.129391
   4 O :   -0.203809
   5 C :   -0.064473
   6 C :   -0.296981
   7 H :    0.131499
   8 C :    0.224706
   9 O :   -0.227293
  10 O :   -0.205295
  11 C :   -0.028750
  12 C :   -0.295831
  13 S :   -0.065496
  14 P :    0.648252
  15 S :   -0.338618
  16 O :   -0.402072
  17 C :   -0.095440
  18 O :   -0.394447
  19 C :   -0.096199
  20 H :    0.120152
  21 H :    0.119280
  22 H :    0.128910
  23 H :    0.110149
  24 H :    0.113243
  25 H :    0.146836
  26 H :    0.122429
  27 H :    0.106594
  28 H :    0.128995
  29 H :    0.111472
  30 H :    0.134112
  31 H :    0.108598
  32 H :    0.112798
  33 H :    0.103400
  34 H :    0.116068
  35 H :    0.112515
  36 H :    0.119224
  37 H :    0.110987
Sum of atomic charges:    0.0000000

LOEWDIN ATOMIC CHARGES
----------------------
   0 C :   -0.355203
   1 C :   -0.109180
   2 O :   -0.049444
   3 C :    0.043177
   4 O :   -0.151253
   5 C :   -0.254817
   6 C :   -0.262102
   7 H :    0.141232
   8 C :    0.019839
   9 O :   -0.167803
  10 O :   -0.028314
  11 C :   -0.106270
  12 C :   -0.354344
  13 S :    0.127480
  14 P :    0.588288
  15 S :   -0.336574
  16 O :   -0.276808
  17 C :   -0.218226
  18 O :   -0.259680
  19 C :   -0.219029
  20 H :    0.127749
  21 H :    0.134049
  22 H :    0.130464
  23 H :    0.121579
  24 H :    0.121682
  25 H :    0.154196
  26 H :    0.145009
  27 H :    0.119685
  28 H :    0.127417
  29 H :    0.129601
  30 H :    0.132525
  31 H :    0.123515
  32 H :    0.105016
  33 H :    0.107883
  34 H :    0.117663
  35 H :    0.114142
  36 H :    0.110881
  37 H :    0.105974

  Mayer bond orders larger than 0.100000
B(  0-C ,  1-C ) :   1.1749 B(  0-C , 20-H ) :   0.9484 B(  0-C , 21-H ) :   0.9431
B(  0-C , 22-H ) :   0.9458 B(  1-C ,  2-O ) :   0.9055 B(  1-C , 23-H ) :   0.9362
B(  1-C , 24-H ) :   0.9149 B(  2-O ,  3-C ) :   1.2618 B(  3-C ,  4-O ) :   1.9368
B(  3-C ,  5-C ) :   1.0099 B(  4-O ,  8-C ) :   0.1187 B(  5-C ,  6-C ) :   0.9990
B(  5-C , 25-H ) :   0.8677 B(  5-C , 26-H ) :   0.9043 B(  6-C ,  7-H ) :   0.8852
B(  6-C ,  8-C ) :   0.9159 B(  6-C , 13-S ) :   1.0235 B(  8-C ,  9-O ) :   1.8138
B(  8-C , 10-O ) :   1.2979 B(  9-O , 14-P ) :   0.1773 B( 10-O , 11-C ) :   0.9010
B( 11-C , 12-C ) :   1.1765 B( 11-C , 27-H ) :   0.9371 B( 11-C , 28-H ) :   0.9092
B( 12-C , 29-H ) :   0.9430 B( 12-C , 30-H ) :   0.9391 B( 12-C , 31-H ) :   0.9491
B( 13-S , 14-P ) :   0.9192 B( 13-S , 15-S ) :   0.1010 B( 14-P , 15-S ) :   1.5758
B( 14-P , 16-O ) :   1.0497 B( 14-P , 18-O ) :   1.0528 B( 16-O , 17-C ) :   0.9432
B( 17-C , 32-H ) :   0.9256 B( 17-C , 33-H ) :   0.9534 B( 17-C , 34-H ) :   0.9605
B( 18-O , 19-C ) :   0.9322 B( 19-C , 35-H ) :   0.9536 B( 19-C , 36-H ) :   0.9316
B( 19-C , 37-H ) :   0.9463

Dispersion correction           -0.051867482
FINAL SINGLE POINT ENERGY     -1979.004747441496

DIPOLE MOMENT
-------------

Method             : SCF
Type of density    : Electron Density
Multiplicity       :   1
Irrep              :   0
Energy             : -1979.1381567248427018 Eh
Relativity type    :
Basis              : AO
                                X                 Y                 Z
Electronic contribution:    -16.820168146      10.254552739      -8.365181016
Nuclear contribution   :     18.797985066     -11.539934700       7.987841371
                        -----------------------------------------
Total Dipole Moment    :      1.977816920      -1.285381961      -0.377339646
                        -----------------------------------------
Magnitude (a.u.)       :      2.388797137
Magnitude (Debye)      :      6.071839786

Rotational constants in cm-1:             0.014028             0.006667             0.005739
Rotational constants in MHz :           420.546412           199.866508           172.065488

                             ****ORCA TERMINATED NORMALLY****
TOTAL RUN TIME: 0 days 0 hours 0 minutes 41 seconds 866 msec
