                         Program Version 6.0.0  -   RELEASE  -
|  1> ! pbe def2-sv(p) def2/J RI DEFGRID1 loosescf d4 GCP(DFT/SV(P)) printgap
|  2> %output
|  3>     printlevel normal
|  4> end
|  5> * xyz 0 1
|  6> C 5.3989632283 -0.2435135807 -0.7787952717
|  7> C 4.399413752 -0.9299403435 0.1320395834
|  8> O 3.391898367 -0.0032210121 0.5825055592
|  9> P 1.9853474071 0.1477853795 -0.1479365989
| 10> S 2.0472624582 0.4849573484 -2.0827076749
| 11> O 1.3138000002 1.2529349938 0.7620266903
| 12> C 1.4030349137 2.6573104902 0.4542158221
| 13> C 2.8212012443 3.1702001114 0.5770568902
| 14> S 1.0242718768 -1.62346834 0.4496179811
| 15> C -0.1351609954 -1.8779352848 -0.9399929548
| 16> S -1.8591366203 -1.9261189703 -0.4162297527
| 17> P -2.0467880067 0.1152410175 0.1527260731
| 18> S -1.3882319104 1.384977552 -1.1870151558
| 19> O -1.3092687722 0.298791386 1.534976651
| 20> C -1.8088127576 -0.098682954 2.8367960717
| 21> C -2.0055359089 -1.5947482359 2.9610425853
| 22> O -3.5729495305 0.2727149447 0.5591574658
| 23> C -4.6082332443 0.5748879919 -0.394340886
| 24> C -4.8245143086 -0.5474173492 -1.3880051915
| 25> H 4.9037554143 0.111482292 -1.6801078579
| 26> H 5.8505480879 0.6026795353 -0.2685563952
| 27> H 6.1734251533 -0.9509573966 -1.0566158778
| 28> H 4.8742950725 -1.2860651534 1.0480740786
| 29> H 3.9171467996 -1.7688070349 -0.3782191157
| 30> H 1.0130380672 2.8166837317 -0.5571142909
| 31> H 0.7309881562 3.1237948663 1.1762280905
| 32> H 3.4463305725 2.7044836649 -0.1840826345
| 33> H 2.8277438507 4.2457954275 0.4309369809
| 34> H 3.2223584022 2.9307843703 1.5584210531
| 35> H 0.0744851903 -2.8504791918 -1.3776054619
| 36> H 0.0170493909 -1.0770667166 -1.669545328
| 37> H -1.0320799855 0.2602038662 3.5142480603
| 38> H -2.7421792981 0.4373095857 3.0184720699
| 39> H -1.0937710224 -2.1213864306 2.6870324992
| 40> H -2.2560587798 -1.8295964754 3.9909564105
| 41> H -2.8145935072 -1.9279923408 2.3147830658
| 42> H -5.489557484 0.7382827208 0.2276576412
| 43> H -4.3398305653 1.5008158874 -0.912144736
| 44> H -3.9619263688 -0.6346330089 -2.0466099938
| 45> H -4.9668228967 -1.4923124821 -0.8699726466
| 46> H -5.7021081522 -0.328172425 -1.9876854616
| 47> *
| 48>
| 49>                          ****END OF INPUT****

CARTESIAN COORDINATES (ANGSTROEM)
---------------------------------
  C      5.398963   -0.243514   -0.778795
  C      4.399414   -0.929940    0.132040
  O      3.391898   -0.003221    0.582506
  P      1.985347    0.147785   -0.147937
  S      2.047262    0.484957   -2.082708
  O      1.313800    1.252935    0.762027
  C      1.403035    2.657310    0.454216
  C      2.821201    3.170200    0.577057
  S      1.024272   -1.623468    0.449618
  C     -0.135161   -1.877935   -0.939993
  S     -1.859137   -1.926119   -0.416230
  P     -2.046788    0.115241    0.152726
  S     -1.388232    1.384978   -1.187015
  O     -1.309269    0.298791    1.534977
  C     -1.808813   -0.098683    2.836796
  C     -2.005536   -1.594748    2.961043
  O     -3.572950    0.272715    0.559157
  C     -4.608233    0.574888   -0.394341
  C     -4.824514   -0.547417   -1.388005
  H      4.903755    0.111482   -1.680108
  H      5.850548    0.602680   -0.268556
  H      6.173425   -0.950957   -1.056616
  H      4.874295   -1.286065    1.048074
  H      3.917147   -1.768807   -0.378219
  H      1.013038    2.816684   -0.557114
  H      0.730988    3.123795    1.176228
  H      3.446331    2.704484   -0.184083
  H      2.827744    4.245795    0.430937
  H      3.222358    2.930784    1.558421
  H      0.074485   -2.850479   -1.377605
  H      0.017049   -1.077067   -1.669545
  H     -1.032080    0.260204    3.514248
  H     -2.742179    0.437310    3.018472
  H     -1.093771   -2.121386    2.687032
  H     -2.256059   -1.829596    3.990956
  H     -2.814594   -1.927992    2.314783
  H     -5.489557    0.738283    0.227658
  H     -4.339831    1.500816   -0.912145
  H     -3.961926   -0.634633   -2.046610
  H     -4.966823   -1.492312   -0.869973
  H     -5.702108   -0.328172   -1.987685

 Total Charge           Charge          ....    0
 Multiplicity           Mult            ....    1
 Number of Electrons    NEL             ....  202
 Basis Dimension        Dim             ....  334

ORBITAL ENERGIES
----------------

  NO   OCC          E(Eh)            E(eV)
   0   2.0000     -88.041320     -2395.7261
   1   2.0000     -88.039411     -2395.6742
   2   2.0000     -87.980024     -2394.0582
   3   2.0000     -87.979605     -2394.0468
   4   2.0000     -76.424680     -2079.6213
   5   2.0000     -76.419663     -2079.4847
   6   2.0000     -18.797955      -511.5184
   7   2.0000     -18.786993      -511.2201
   8   2.0000     -18.786131      -511.1966
   9   2.0000     -18.778226      -510.9815
  10   2.0000      -9.955965      -270.9156
  11   2.0000      -9.953948      -270.8607
  12   2.0000      -9.952267      -270.8150
  13   2.0000      -9.949733      -270.7460
  14   2.0000      -9.937567      -270.4150
  15   2.0000      -9.886024      -269.0124
  16   2.0000      -9.884113      -268.9604
  17   2.0000      -9.877438      -268.7787
  18   2.0000      -9.874378      -268.6955
  19   2.0000      -7.686357      -209.1564
  20   2.0000      -7.684565      -209.1077
  21   2.0000      -7.624944      -207.4853
  22   2.0000      -7.624516      -207.4736
  23   2.0000      -6.421898      -174.7487
  24   2.0000      -6.417187      -174.6205
  25   2.0000      -5.714214      -155.4917
  26   2.0000      -5.712398      -155.4422
  27   2.0000      -5.710831      -155.3996
  28   2.0000      -5.709025      -155.3505
  29   2.0000      -5.703374      -155.1967
  30   2.0000      -5.701558      -155.1473
  31   2.0000      -5.653784      -153.8473
  32   2.0000      -5.653509      -153.8398
  33   2.0000      -5.645708      -153.6275
  34   2.0000      -5.645196      -153.6136
  35   2.0000      -5.645034      -153.6092
  36   2.0000      -5.644530      -153.5955
  37   2.0000      -4.645042      -126.3980
  38   2.0000      -4.643462      -126.3550
  39   2.0000      -4.642052      -126.3167
  40   2.0000      -4.639498      -126.2472
  41   2.0000      -4.638867      -126.2300
  42   2.0000      -4.637986      -126.2060
  43   2.0000      -0.988282       -26.8925
  44   2.0000      -0.979105       -26.6428
  45   2.0000      -0.943382       -25.6707
  46   2.0000      -0.936221       -25.4759
  47   2.0000      -0.760409       -20.6918
  48   2.0000      -0.717869       -19.5342
  49   2.0000      -0.705779       -19.2052
  50   2.0000      -0.691227       -18.8093
  51   2.0000      -0.679894       -18.5009
  52   2.0000      -0.672308       -18.2944
  53   2.0000      -0.648395       -17.6437
  54   2.0000      -0.630359       -17.1529
  55   2.0000      -0.597929       -16.2705
  56   2.0000      -0.588347       -16.0097
  57   2.0000      -0.578808       -15.7502
  58   2.0000      -0.563450       -15.3323
  59   2.0000      -0.556379       -15.1398
  60   2.0000      -0.496570       -13.5123
  61   2.0000      -0.493159       -13.4195
  62   2.0000      -0.470070       -12.7913
  63   2.0000      -0.465045       -12.6545
  64   2.0000      -0.451318       -12.2810
  65   2.0000      -0.442979       -12.0541
  66   2.0000      -0.438933       -11.9440
  67   2.0000      -0.432839       -11.7782
  68   2.0000      -0.426622       -11.6090
  69   2.0000      -0.416560       -11.3352
  70   2.0000      -0.406873       -11.0716
  71   2.0000      -0.397700       -10.8220
  72   2.0000      -0.393339       -10.7033
  73   2.0000      -0.381578       -10.3833
  74   2.0000      -0.377559       -10.2739
  75   2.0000      -0.368036       -10.0148
  76   2.0000      -0.365177        -9.9370
  77   2.0000      -0.356976        -9.7138
  78   2.0000      -0.350533        -9.5385
  79   2.0000      -0.349748        -9.5171
  80   2.0000      -0.341978        -9.3057
  81   2.0000      -0.340598        -9.2681
  82   2.0000      -0.336813        -9.1651
  83   2.0000      -0.330982        -9.0065
  84   2.0000      -0.328087        -8.9277
  85   2.0000      -0.319314        -8.6890
  86   2.0000      -0.308151        -8.3852
  87   2.0000      -0.296433        -8.0664
  88   2.0000      -0.295028        -8.0281
  89   2.0000      -0.291097        -7.9212
  90   2.0000      -0.275315        -7.4917
  91   2.0000      -0.270735        -7.3671
  92   2.0000      -0.263181        -7.1615
  93   2.0000      -0.259706        -7.0670
  94   2.0000      -0.256302        -6.9743
  95   2.0000      -0.231648        -6.3035
  96   2.0000      -0.219026        -5.9600
  97   2.0000      -0.212048        -5.7701
  98   2.0000      -0.199873        -5.4388
  99   2.0000      -0.189903        -5.1675
 100   2.0000      -0.183517        -4.9938
 101   0.0000      -0.039153        -1.0654
 102   0.0000      -0.028807        -0.7839
 103   0.0000      -0.007238        -0.1970
 104   0.0000       0.011924         0.3245
 105   0.0000       0.023550         0.6408

MULLIKEN ATOMIC CHARGES
-----------------------
   0 C :   -0.292753
   1 C :   -0.006641
   2 O :   -0.374999
   3 P :    0.607549
   4 S :   -0.319891
   5 O :   -0.350993
   6 C :   -0.002508
   7 C :   -0.304772
   8 S :   -0.096710
   9 C :   -0.355824
  10 S :   -0.106217
  11 P :    0.606747
  12 S :   -0.303921
  13 O :   -0.348739
  14 C :    0.010425
  15 C :   -0.321294
  16 O :   -0.385301
  17 C :    0.001113
  18 C :   -0.323172
  19 H :    0.128640
  20 H :    0.113335
  21 H :    0.105522
  22 H :    0.104254
  23 H :    0.096559
  24 H :    0.124006
  25 H :    0.099746
  26 H :    0.123468
  27 H :    0.108143
  28 H :    0.111562
  29 H :    0.181182
  30 H :    0.211170
  31 H :    0.109250
  32 H :    0.106408
  33 H :    0.128914
  34 H :    0.110246
  35 H :    0.120454
  36 H :    0.104181
  37 H :    0.113466
  38 H :    0.134417
  39 H :    0.117188
  40 H :    0.115792
Sum of atomic charges:    0.0000000

LOEWDIN ATOMIC CHARGES
----------------------
   0 C :   -0.363951
   1 C :   -0.117625
   2 O :   -0.247690
   3 P :    0.569052
   4 S :   -0.310674
   5 O :   -0.228703
   6 C :   -0.118386
   7 C :   -0.366821
   8 S :    0.079375
   9 C :   -0.480809
  10 S :    0.080483
  11 P :    0.567542
  12 S :   -0.295890
  13 O :   -0.230888
  14 C :   -0.106368
  15 C :   -0.371360
  16 O :   -0.248165
  17 C :   -0.116133
  18 C :   -0.372044
  19 H :    0.124255
  20 H :    0.124550
  21 H :    0.127700
  22 H :    0.117180
  23 H :    0.104746
  24 H :    0.109278
  25 H :    0.117388
  26 H :    0.121297
  27 H :    0.128766
  28 H :    0.123640
  29 H :    0.137128
  30 H :    0.126017
  31 H :    0.122559
  32 H :    0.113005
  33 H :    0.123586
  34 H :    0.129526
  35 H :    0.116658
  36 H :    0.118213
  37 H :    0.113776
  38 H :    0.124022
  39 H :    0.122988
  40 H :    0.132777

  Mayer bond orders larger than 0.100000
B(  0-C ,  1-C ) :   1.1675 B(  0-C , 19-H ) :   0.9306 B(  0-C , 20-H ) :   0.9460
B(  0-C , 21-H ) :   0.9399 B(  1-C ,  2-O ) :   0.9094 B(  1-C , 22-H ) :   0.9364
B(  1-C , 23-H ) :   0.9127 B(  2-O ,  3-P ) :   1.0944 B(  3-P ,  4-S ) :   1.5975
B(  3-P ,  5-O ) :   1.1528 B(  3-P ,  8-S ) :   0.9677 B(  4-S ,  8-S ) :   0.1167
B(  5-O ,  6-C ) :   0.9018 B(  6-C ,  7-C ) :   1.1579 B(  6-C , 24-H ) :   0.9121
B(  6-C , 25-H ) :   0.9359 B(  7-C , 26-H ) :   0.9342 B(  7-C , 27-H ) :   0.9388
B(  7-C , 28-H ) :   0.9448 B(  8-S ,  9-C ) :   0.9929 B(  9-C , 10-S ) :   1.0066
B(  9-C , 29-H ) :   0.9118 B(  9-C , 30-H ) :   0.8452 B( 10-S , 11-P ) :   0.9378
B( 10-S , 12-S ) :   0.1057 B( 11-P , 12-S ) :   1.6444 B( 11-P , 13-O ) :   1.1413
B( 11-P , 16-O ) :   1.0763 B( 13-O , 14-C ) :   0.8986 B( 14-C , 15-C ) :   1.1709
B( 14-C , 31-H ) :   0.9336 B( 14-C , 32-H ) :   0.9286 B( 15-C , 33-H ) :   0.9380
B( 15-C , 34-H ) :   0.9351 B( 15-C , 35-H ) :   0.9398 B( 16-O , 17-C ) :   0.9033
B( 17-C , 18-C ) :   1.1670 B( 17-C , 36-H ) :   0.9342 B( 17-C , 37-H ) :   0.9168
B( 18-C , 38-H ) :   0.9330 B( 18-C , 39-H ) :   0.9439 B( 18-C , 40-H ) :   0.9367

Dispersion correction           -0.068377413
FINAL SINGLE POINT ENERGY     -2929.517484913194

DIPOLE MOMENT
-------------

Method             : SCF
Type of density    : Electron Density
Multiplicity       :   1
Irrep              :   0
Energy             : -2929.6350401460931607 Eh
Relativity type    :
Basis              : AO
                                X                 Y                 Z
Electronic contribution:     -3.064045810      -3.328579778      -5.522956307
Nuclear contribution   :      2.545626122       2.847275809       6.687409843
                        -----------------------------------------
Total Dipole Moment    :     -0.518419688      -0.481303969       1.164453536
                        -----------------------------------------
Magnitude (a.u.)       :      1.362484686
Magnitude (Debye)      :      3.463160851

Rotational constants in cm-1:             0.013646             0.005168             0.004985
Rotational constants in MHz :           409.092901           154.941361           149.452948

                             ****ORCA TERMINATED NORMALLY****
TOTAL RUN TIME: 0 days 0 hours 0 minutes 21 seconds 850 msec
