                         Program Version 6.0.1  -  RELEASE   -
|  1> ! pbe def2-sv(p) def2/J RI DEFGRID1 loosescf d4 GCP(DFT/SV(P)) printgap
|  2> %output
|  3>     printlevel normal
|  4> end
|  5> * xyz 0 1
|  6> C 3.8637499119 -3.7809499172 0.5192842
|  7> C 2.87010321 -2.685176769 0.849355872
|  8> O 2.8725637774 -1.7411636757 -0.2423889369
|  9> C 1.8800236102 -0.8981890738 -0.3427537677
| 10> O 0.9582730777 -0.8421250352 0.4584578801
| 11> C 1.9769642041 -0.0064858587 -1.5516095623
| 12> C 0.7981107303 0.9498041612 -1.6060366263
| 13> H 0.8141652913 1.5385247918 -2.5268019993
| 14> C 0.7426165841 1.9053579213 -0.4245340234
| 15> O 1.5874577335 1.9417734849 0.4425398377
| 16> O -0.3092827636 2.6883353906 -0.5011903227
| 17> C -0.5118167482 3.6861719616 0.5166165436
| 18> C 0.0911251048 5.013334258 0.0855411717
| 19> S -0.8052131543 0.0671211084 -1.7442297853
| 20> P -1.4332828981 -0.5284251958 0.2071464907
| 21> S -1.3892339483 -2.4223891907 0.7441286069
| 22> O -1.0935882827 0.6011579514 1.275241762
| 23> C -0.4329615102 0.3528217673 2.5163200184
| 24> O -2.9758715268 -0.0770757772 0.0564590294
| 25> C -3.8639414086 -0.75886343 -0.8277392145
| 26> H 3.5660850233 -4.2939517752 -0.3902136091
| 27> H 4.8521919739 -3.3548850929 0.3776152024
| 28> H 3.8920621684 -4.4933676085 1.3367977296
| 29> H 3.1483455051 -2.1477188308 1.7607437184
| 30> H 1.8537797871 -3.0741788495 0.9714198381
| 31> H 2.0024366561 -0.6285418708 -2.4474693377
| 32> H 2.9141096101 0.5503800805 -1.4875450443
| 33> H -1.5950789631 3.75184229 0.6244154603
| 34> H -0.0624705563 3.3320646071 1.4482528432
| 35> H 1.171376103 4.924011089 -0.0026452272
| 36> H -0.3209156386 5.3158761351 -0.8729611797
| 37> H -0.1411126439 5.7677756537 0.8297583052
| 38> H 0.5840645957 0.7423640787 2.4560918806
| 39> H -0.4037010912 -0.7177149058 2.7261874541
| 40> H -1.0057861955 0.8741332681 3.2804886136
| 41> H -4.856476161 -0.3807318508 -0.5963567726
| 42> H -3.8151554309 -1.8355153668 -0.6504300945
| 43> H -3.6022973303 -0.5435886722 -1.8649206156
| 44> *
| 45>
| 46>                          ****END OF INPUT****

CARTESIAN COORDINATES (ANGSTROEM)
---------------------------------
  C      3.863750   -3.780950    0.519284
  C      2.870103   -2.685177    0.849356
  O      2.872564   -1.741164   -0.242389
  C      1.880024   -0.898189   -0.342754
  O      0.958273   -0.842125    0.458458
  C      1.976964   -0.006486   -1.551610
  C      0.798111    0.949804   -1.606037
  H      0.814165    1.538525   -2.526802
  C      0.742617    1.905358   -0.424534
  O      1.587458    1.941773    0.442540
  O     -0.309283    2.688335   -0.501190
  C     -0.511817    3.686172    0.516617
  C      0.091125    5.013334    0.085541
  S     -0.805213    0.067121   -1.744230
  P     -1.433283   -0.528425    0.207146
  S     -1.389234   -2.422389    0.744129
  O     -1.093588    0.601158    1.275242
  C     -0.432962    0.352822    2.516320
  O     -2.975872   -0.077076    0.056459
  C     -3.863941   -0.758863   -0.827739
  H      3.566085   -4.293952   -0.390214
  H      4.852192   -3.354885    0.377615
  H      3.892062   -4.493368    1.336798
  H      3.148346   -2.147719    1.760744
  H      1.853780   -3.074179    0.971420
  H      2.002437   -0.628542   -2.447469
  H      2.914110    0.550380   -1.487545
  H     -1.595079    3.751842    0.624415
  H     -0.062471    3.332065    1.448253
  H      1.171376    4.924011   -0.002645
  H     -0.320916    5.315876   -0.872961
  H     -0.141113    5.767776    0.829758
  H      0.584065    0.742364    2.456092
  H     -0.403701   -0.717715    2.726187
  H     -1.005786    0.874133    3.280489
  H     -4.856476   -0.380732   -0.596357
  H     -3.815155   -1.835515   -0.650430
  H     -3.602297   -0.543589   -1.864921

 Total Charge           Charge          ....    0
 Multiplicity           Mult            ....    1
 Number of Electrons    NEL             ....  174
 Basis Dimension        Dim             ....  316

ORBITAL ENERGIES
----------------

  NO   OCC          E(Eh)            E(eV)
   0   2.0000     -88.030692     -2395.4369
   1   2.0000     -87.963215     -2393.6008
   2   2.0000     -76.415386     -2079.3684
   3   2.0000     -18.813589      -511.9438
   4   2.0000     -18.806150      -511.7414
   5   2.0000     -18.781447      -511.0692
   6   2.0000     -18.763174      -510.5719
   7   2.0000     -18.755505      -510.3632
   8   2.0000     -18.744154      -510.0544
   9   2.0000     -10.022904      -272.7371
  10   2.0000     -10.021031      -272.6861
  11   2.0000      -9.954049      -270.8634
  12   2.0000      -9.950681      -270.7718
  13   2.0000      -9.948191      -270.7040
  14   2.0000      -9.928007      -270.1548
  15   2.0000      -9.925931      -270.0983
  16   2.0000      -9.919586      -269.9257
  17   2.0000      -9.891114      -269.1509
  18   2.0000      -9.890058      -269.1221
  19   2.0000      -7.675598      -208.8636
  20   2.0000      -7.608558      -207.0394
  21   2.0000      -6.410799      -174.4467
  22   2.0000      -5.704212      -155.2195
  23   2.0000      -5.699979      -155.1043
  24   2.0000      -5.691943      -154.8857
  25   2.0000      -5.637748      -153.4109
  26   2.0000      -5.629510      -153.1868
  27   2.0000      -5.628052      -153.1471
  28   2.0000      -4.633497      -126.0839
  29   2.0000      -4.633080      -126.0725
  30   2.0000      -4.631091      -126.0184
  31   2.0000      -1.024572       -27.8800
  32   2.0000      -1.015867       -27.6431
  33   2.0000      -0.968398       -26.3515
  34   2.0000      -0.931337       -25.3430
  35   2.0000      -0.922177       -25.0937
  36   2.0000      -0.920886       -25.0586
  37   2.0000      -0.765468       -20.8294
  38   2.0000      -0.720844       -19.6152
  39   2.0000      -0.703240       -19.1361
  40   2.0000      -0.686925       -18.6922
  41   2.0000      -0.655254       -17.8304
  42   2.0000      -0.621860       -16.9217
  43   2.0000      -0.613121       -16.6839
  44   2.0000      -0.605165       -16.4674
  45   2.0000      -0.597554       -16.2603
  46   2.0000      -0.562241       -15.2994
  47   2.0000      -0.516478       -14.0541
  48   2.0000      -0.507601       -13.8125
  49   2.0000      -0.497729       -13.5439
  50   2.0000      -0.485709       -13.2168
  51   2.0000      -0.466443       -12.6926
  52   2.0000      -0.460097       -12.5199
  53   2.0000      -0.452587       -12.3155
  54   2.0000      -0.438345       -11.9280
  55   2.0000      -0.430592       -11.7170
  56   2.0000      -0.428130       -11.6500
  57   2.0000      -0.413871       -11.2620
  58   2.0000      -0.407823       -11.0974
  59   2.0000      -0.406131       -11.0514
  60   2.0000      -0.394396       -10.7321
  61   2.0000      -0.391608       -10.6562
  62   2.0000      -0.388161       -10.5624
  63   2.0000      -0.382947       -10.4205
  64   2.0000      -0.377076       -10.2608
  65   2.0000      -0.363719        -9.8973
  66   2.0000      -0.361123        -9.8267
  67   2.0000      -0.358558        -9.7569
  68   2.0000      -0.353078        -9.6078
  69   2.0000      -0.343935        -9.3589
  70   2.0000      -0.331371        -9.0171
  71   2.0000      -0.329657        -8.9704
  72   2.0000      -0.322365        -8.7720
  73   2.0000      -0.311012        -8.4631
  74   2.0000      -0.305643        -8.3170
  75   2.0000      -0.295378        -8.0376
  76   2.0000      -0.288144        -7.8408
  77   2.0000      -0.279575        -7.6076
  78   2.0000      -0.268401        -7.3036
  79   2.0000      -0.264148        -7.1878
  80   2.0000      -0.256557        -6.9813
  81   2.0000      -0.243828        -6.6349
  82   2.0000      -0.239594        -6.5197
  83   2.0000      -0.228841        -6.2271
  84   2.0000      -0.211017        -5.7421
  85   2.0000      -0.184163        -5.0113
  86   2.0000      -0.172012        -4.6807
  87   0.0000      -0.047177        -1.2837
  88   0.0000      -0.043437        -1.1820
  89   0.0000      -0.019700        -0.5361
  90   0.0000      -0.006291        -0.1712
  91   0.0000       0.036734         0.9996

MULLIKEN ATOMIC CHARGES
-----------------------
   0 C :   -0.276786
   1 C :   -0.042426
   2 O :   -0.221851
   3 C :    0.155024
   4 O :   -0.217318
   5 C :   -0.046368
   6 C :   -0.305183
   7 H :    0.148835
   8 C :    0.196537
   9 O :   -0.197471
  10 O :   -0.217109
  11 C :   -0.014930
  12 C :   -0.298166
  13 S :   -0.105422
  14 P :    0.628888
  15 S :   -0.336224
  16 O :   -0.379624
  17 C :   -0.101509
  18 O :   -0.378882
  19 C :   -0.107141
  20 H :    0.118781
  21 H :    0.114413
  22 H :    0.115520
  23 H :    0.107578
  24 H :    0.133400
  25 H :    0.124739
  26 H :    0.128935
  27 H :    0.112702
  28 H :    0.113064
  29 H :    0.118620
  30 H :    0.115669
  31 H :    0.114101
  32 H :    0.128858
  33 H :    0.119783
  34 H :    0.113766
  35 H :    0.118011
  36 H :    0.110451
  37 H :    0.108739
Sum of atomic charges:   -0.0000000

LOEWDIN ATOMIC CHARGES
----------------------
   0 C :   -0.350108
   1 C :   -0.106881
   2 O :   -0.044889
   3 C :    0.054335
   4 O :   -0.158410
   5 C :   -0.251292
   6 C :   -0.260224
   7 H :    0.151723
   8 C :    0.010937
   9 O :   -0.160355
  10 O :   -0.045419
  11 C :   -0.107912
  12 C :   -0.354795
  13 S :    0.092542
  14 P :    0.592143
  15 S :   -0.337961
  16 O :   -0.234768
  17 C :   -0.218654
  18 O :   -0.266947
  19 C :   -0.224796
  20 H :    0.128549
  21 H :    0.126040
  22 H :    0.133066
  23 H :    0.118520
  24 H :    0.125167
  25 H :    0.147775
  26 H :    0.152207
  27 H :    0.123074
  28 H :    0.120181
  29 H :    0.127421
  30 H :    0.125543
  31 H :    0.131197
  32 H :    0.113129
  33 H :    0.109721
  34 H :    0.114769
  35 H :    0.118772
  36 H :    0.104794
  37 H :    0.101805

  Mayer bond orders larger than 0.100000
B(  0-C ,  1-C ) :   1.1574 B(  0-C , 20-H ) :   0.9511 B(  0-C , 21-H ) :   0.9486
B(  0-C , 22-H ) :   0.9434 B(  1-C ,  2-O ) :   0.8892 B(  1-C , 23-H ) :   0.9337
B(  1-C , 24-H ) :   0.9178 B(  2-O ,  3-C ) :   1.2747 B(  3-C ,  4-O ) :   1.8666
B(  3-C ,  5-C ) :   1.0212 B(  4-O , 14-P ) :   0.1367 B(  5-C ,  6-C ) :   1.0270
B(  5-C , 25-H ) :   0.8846 B(  5-C , 26-H ) :   0.8732 B(  6-C ,  7-H ) :   0.8746
B(  6-C ,  8-C ) :   0.8956 B(  6-C , 13-S ) :   1.0307 B(  8-C ,  9-O ) :   2.0310
B(  8-C , 10-O ) :   1.2564 B( 10-O , 11-C ) :   0.9064 B( 11-C , 12-C ) :   1.1712
B( 11-C , 27-H ) :   0.9362 B( 11-C , 28-H ) :   0.9128 B( 12-C , 29-H ) :   0.9477
B( 12-C , 30-H ) :   0.9486 B( 12-C , 31-H ) :   0.9450 B( 13-S , 14-P ) :   0.9321
B( 14-P , 15-S ) :   1.5886 B( 14-P , 16-O ) :   1.0906 B( 14-P , 18-O ) :   1.0578
B( 16-O , 17-C ) :   0.9200 B( 17-C , 32-H ) :   0.9392 B( 17-C , 33-H ) :   0.9278
B( 17-C , 34-H ) :   0.9533 B( 18-O , 19-C ) :   0.9549 B( 19-C , 35-H ) :   0.9604
B( 19-C , 36-H ) :   0.9295 B( 19-C , 37-H ) :   0.9425

Dispersion correction           -0.054362351
FINAL SINGLE POINT ENERGY     -1979.003407234845

DIPOLE MOMENT
-------------

Method             : SCF
Type of density    : Electron Density
Multiplicity       :   1
Irrep              :   0
Energy             : -1979.1350642112442983 Eh
Relativity type    :
Basis              : AO
                                X                 Y                 Z
Electronic contribution:     -8.783032889      -4.731767162      -4.868750867
Nuclear contribution   :      9.799005231       5.575838465       4.530907503
                        -----------------------------------------
Total Dipole Moment    :      1.015972342       0.844071303      -0.337843364
                        -----------------------------------------
Magnitude (a.u.)       :      1.363376068
Magnitude (Debye)      :      3.465426563

Rotational constants in cm-1:             0.011906             0.008712             0.006420
Rotational constants in MHz :           356.944996           261.181582           192.463065

                             ****ORCA TERMINATED NORMALLY****
TOTAL RUN TIME: 0 days 0 hours 0 minutes 44 seconds 535 msec
