                         Program Version 6.0.0  -   RELEASE  -
|  1> ! pbe def2-sv(p) def2/J RI DEFGRID1 loosescf d4 GCP(DFT/SV(P)) printgap
|  2> %output
|  3>     printlevel normal
|  4> end
|  5> * xyz 0 1
|  6> C 2.738752188 -2.5819111465 -2.318921569
|  7> C 3.1844833523 -2.3747307375 -0.8857395423
|  8> O 3.4246978835 -0.9732265458 -0.6023980354
|  9> P 2.3512583008 0.0329958608 -0.0267516806
| 10> S 3.1626056012 1.691662573 0.605278897
| 11> O 1.5592938104 -0.8269909427 1.060854875
| 12> C 1.3662329064 -0.4201078278 2.426705681
| 13> C 2.4486073746 -1.0120958495 3.3065876761
| 14> S 0.9451620606 0.2457569585 -1.6111788264
| 15> C 0.208502361 1.8006420524 -1.0533004433
| 16> S -0.6407338222 1.663013228 0.5434007538
| 17> P -2.060237667 0.2159408093 -0.0647942082
| 18> S -2.7789083078 0.3729618415 -1.884818089
| 19> O -3.1435196908 0.2243198772 1.0967661014
| 20> C -4.3082959838 1.0670645862 1.0637179335
| 21> C -3.9576375895 2.5326720876 1.220769732
| 22> O -1.2588978669 -1.1069118342 0.2763221553
| 23> C -1.5077317632 -2.3549618817 -0.4001588342
| 24> C -2.849614394 -2.9406026351 -0.0143280092
| 25> H 3.4598698933 -2.140350581 -3.0011880769
| 26> H 2.6640838831 -3.6467858578 -2.5161545325
| 27> H 1.7694047763 -2.1187220388 -2.4928146239
| 28> H 4.1516638766 -2.8454416072 -0.7013994851
| 29> H 2.4450517276 -2.7550244782 -0.1783185531
| 30> H 1.3787073879 0.6728661989 2.4828738167
| 31> H 0.3729145377 -0.7877833371 2.6913608665
| 32> H 2.4551094999 -2.095511629 3.2251125806
| 33> H 3.4200879927 -0.6271368578 3.0005472786
| 34> H 2.2648930293 -0.7291693129 4.3380361516
| 35> H -0.5033790362 2.0952894564 -1.823554612
| 36> H 0.9899319125 2.5488682282 -0.9230379338
| 37> H -4.8310493456 0.8969531841 0.1169960331
| 38> H -4.9160207238 0.7067465481 1.8947872124
| 39> H -4.8701384063 3.1132529155 1.311066007
| 40> H -3.3441409993 2.6825220251 2.1057137513
| 41> H -3.4037877104 2.8796442624 0.34931996
| 42> H -1.4543799511 -2.1810573652 -1.4799196052
| 43> H -0.6794978755 -2.9924936712 -0.0873544863
| 44> H -2.9622327266 -3.917905303 -0.4729915295
| 45> H -2.9233944385 -3.034615541 1.0658943559
| 46> H -3.6494704541 -2.289968809 -0.3663307368
| 47> *
| 48>
| 49>                          ****END OF INPUT****

CARTESIAN COORDINATES (ANGSTROEM)
---------------------------------
  C      2.738752   -2.581911   -2.318922
  C      3.184483   -2.374731   -0.885740
  O      3.424698   -0.973227   -0.602398
  P      2.351258    0.032996   -0.026752
  S      3.162606    1.691663    0.605279
  O      1.559294   -0.826991    1.060855
  C      1.366233   -0.420108    2.426706
  C      2.448607   -1.012096    3.306588
  S      0.945162    0.245757   -1.611179
  C      0.208502    1.800642   -1.053300
  S     -0.640734    1.663013    0.543401
  P     -2.060238    0.215941   -0.064794
  S     -2.778908    0.372962   -1.884818
  O     -3.143520    0.224320    1.096766
  C     -4.308296    1.067065    1.063718
  C     -3.957638    2.532672    1.220770
  O     -1.258898   -1.106912    0.276322
  C     -1.507732   -2.354962   -0.400159
  C     -2.849614   -2.940603   -0.014328
  H      3.459870   -2.140351   -3.001188
  H      2.664084   -3.646786   -2.516155
  H      1.769405   -2.118722   -2.492815
  H      4.151664   -2.845442   -0.701399
  H      2.445052   -2.755024   -0.178319
  H      1.378707    0.672866    2.482874
  H      0.372915   -0.787783    2.691361
  H      2.455109   -2.095512    3.225113
  H      3.420088   -0.627137    3.000547
  H      2.264893   -0.729169    4.338036
  H     -0.503379    2.095289   -1.823555
  H      0.989932    2.548868   -0.923038
  H     -4.831049    0.896953    0.116996
  H     -4.916021    0.706747    1.894787
  H     -4.870138    3.113253    1.311066
  H     -3.344141    2.682522    2.105714
  H     -3.403788    2.879644    0.349320
  H     -1.454380   -2.181057   -1.479920
  H     -0.679498   -2.992494   -0.087354
  H     -2.962233   -3.917905   -0.472992
  H     -2.923394   -3.034616    1.065894
  H     -3.649470   -2.289969   -0.366331

 Total Charge           Charge          ....    0
 Multiplicity           Mult            ....    1
 Number of Electrons    NEL             ....  202
 Basis Dimension        Dim             ....  334

ORBITAL ENERGIES
----------------

  NO   OCC          E(Eh)            E(eV)
   0   2.0000     -88.044313     -2395.8075
   1   2.0000     -88.039089     -2395.6654
   2   2.0000     -87.992957     -2394.4101
   3   2.0000     -87.985261     -2394.2007
   4   2.0000     -76.429508     -2079.7526
   5   2.0000     -76.425163     -2079.6344
   6   2.0000     -18.797476      -511.5053
   7   2.0000     -18.794393      -511.4214
   8   2.0000     -18.790397      -511.3127
   9   2.0000     -18.786851      -511.2162
  10   2.0000      -9.960118      -271.0286
  11   2.0000      -9.955899      -270.9138
  12   2.0000      -9.953527      -270.8492
  13   2.0000      -9.953303      -270.8431
  14   2.0000      -9.944809      -270.6120
  15   2.0000      -9.891686      -269.1665
  16   2.0000      -9.886586      -269.0277
  17   2.0000      -9.886296      -269.0198
  18   2.0000      -9.880998      -268.8756
  19   2.0000      -7.688997      -209.2283
  20   2.0000      -7.683846      -209.0881
  21   2.0000      -7.637845      -207.8363
  22   2.0000      -7.630523      -207.6371
  23   2.0000      -6.426948      -174.8862
  24   2.0000      -6.422642      -174.7690
  25   2.0000      -5.716861      -155.5637
  26   2.0000      -5.713650      -155.4763
  27   2.0000      -5.711719      -155.4238
  28   2.0000      -5.708460      -155.3351
  29   2.0000      -5.705847      -155.2640
  30   2.0000      -5.700746      -155.1252
  31   2.0000      -5.666611      -154.1963
  32   2.0000      -5.659497      -154.0028
  33   2.0000      -5.658497      -153.9755
  34   2.0000      -5.658166      -153.9665
  35   2.0000      -5.651040      -153.7726
  36   2.0000      -5.650675      -153.7627
  37   2.0000      -4.649305      -126.5140
  38   2.0000      -4.648725      -126.4983
  39   2.0000      -4.647595      -126.4675
  40   2.0000      -4.645567      -126.4123
  41   2.0000      -4.644034      -126.3706
  42   2.0000      -4.643179      -126.3473
  43   2.0000      -0.989974       -26.9385
  44   2.0000      -0.984650       -26.7937
  45   2.0000      -0.948622       -25.8133
  46   2.0000      -0.941330       -25.6149
  47   2.0000      -0.764987       -20.8164
  48   2.0000      -0.722769       -19.6675
  49   2.0000      -0.711123       -19.3506
  50   2.0000      -0.690543       -18.7906
  51   2.0000      -0.688712       -18.7408
  52   2.0000      -0.674300       -18.3486
  53   2.0000      -0.653358       -17.7788
  54   2.0000      -0.639512       -17.4020
  55   2.0000      -0.604194       -16.4410
  56   2.0000      -0.590173       -16.0594
  57   2.0000      -0.577635       -15.7182
  58   2.0000      -0.574461       -15.6319
  59   2.0000      -0.561145       -15.2695
  60   2.0000      -0.501189       -13.6381
  61   2.0000      -0.494539       -13.4571
  62   2.0000      -0.478722       -13.0267
  63   2.0000      -0.475176       -12.9302
  64   2.0000      -0.455470       -12.3940
  65   2.0000      -0.447920       -12.1885
  66   2.0000      -0.443095       -12.0572
  67   2.0000      -0.438543       -11.9334
  68   2.0000      -0.426230       -11.5983
  69   2.0000      -0.417069       -11.3490
  70   2.0000      -0.408946       -11.1280
  71   2.0000      -0.396436       -10.7876
  72   2.0000      -0.390646       -10.6300
  73   2.0000      -0.389025       -10.5859
  74   2.0000      -0.377683       -10.2773
  75   2.0000      -0.377029       -10.2595
  76   2.0000      -0.372118       -10.1258
  77   2.0000      -0.360999        -9.8233
  78   2.0000      -0.358041        -9.7428
  79   2.0000      -0.356411        -9.6984
  80   2.0000      -0.351513        -9.5652
  81   2.0000      -0.349289        -9.5046
  82   2.0000      -0.345961        -9.4141
  83   2.0000      -0.340526        -9.2662
  84   2.0000      -0.332385        -9.0447
  85   2.0000      -0.321995        -8.7619
  86   2.0000      -0.311042        -8.4639
  87   2.0000      -0.302164        -8.2223
  88   2.0000      -0.298129        -8.1125
  89   2.0000      -0.286260        -7.7895
  90   2.0000      -0.283038        -7.7018
  91   2.0000      -0.278371        -7.5749
  92   2.0000      -0.270372        -7.3572
  93   2.0000      -0.267360        -7.2752
  94   2.0000      -0.255507        -6.9527
  95   2.0000      -0.232991        -6.3400
  96   2.0000      -0.217657        -5.9228
  97   2.0000      -0.214356        -5.8329
  98   2.0000      -0.210233        -5.7207
  99   2.0000      -0.202239        -5.5032
 100   2.0000      -0.197925        -5.3858
 101   0.0000      -0.046328        -1.2606
 102   0.0000      -0.023342        -0.6352
 103   0.0000      -0.001778        -0.0484
 104   0.0000       0.002498         0.0680
 105   0.0000       0.004122         0.1122

MULLIKEN ATOMIC CHARGES
-----------------------
   0 C :   -0.313676
   1 C :   -0.023459
   2 O :   -0.365721
   3 P :    0.639043
   4 S :   -0.317643
   5 O :   -0.385803
   6 C :   -0.011065
   7 C :   -0.285528
   8 S :   -0.113170
   9 C :   -0.342611
  10 S :   -0.082646
  11 P :    0.614975
  12 S :   -0.334586
  13 O :   -0.371474
  14 C :   -0.004769
  15 C :   -0.315730
  16 O :   -0.354450
  17 C :   -0.009503
  18 C :   -0.302819
  19 H :    0.126701
  20 H :    0.112296
  21 H :    0.138697
  22 H :    0.112098
  23 H :    0.114946
  24 H :    0.115072
  25 H :    0.100295
  26 H :    0.105995
  27 H :    0.119068
  28 H :    0.108690
  29 H :    0.189174
  30 H :    0.192858
  31 H :    0.111370
  32 H :    0.106248
  33 H :    0.114555
  34 H :    0.119016
  35 H :    0.127734
  36 H :    0.114428
  37 H :    0.103220
  38 H :    0.111058
  39 H :    0.115144
  40 H :    0.121971
Sum of atomic charges:    0.0000000

LOEWDIN ATOMIC CHARGES
----------------------
   0 C :   -0.363935
   1 C :   -0.113376
   2 O :   -0.241951
   3 P :    0.573601
   4 S :   -0.308991
   5 O :   -0.246079
   6 C :   -0.125016
   7 C :   -0.359627
   8 S :    0.080070
   9 C :   -0.480506
  10 S :    0.102038
  11 P :    0.573627
  12 S :   -0.323252
  13 O :   -0.243944
  14 C :   -0.118963
  15 C :   -0.369176
  16 O :   -0.232612
  17 C :   -0.118770
  18 C :   -0.364513
  19 H :    0.132158
  20 H :    0.131325
  21 H :    0.118493
  22 H :    0.122675
  23 H :    0.111119
  24 H :    0.103708
  25 H :    0.112842
  26 H :    0.120450
  27 H :    0.125161
  28 H :    0.129260
  29 H :    0.130914
  30 H :    0.131853
  31 H :    0.110728
  32 H :    0.119196
  33 H :    0.131796
  34 H :    0.125021
  35 H :    0.121656
  36 H :    0.109730
  37 H :    0.115339
  38 H :    0.129915
  39 H :    0.125749
  40 H :    0.122287

  Mayer bond orders larger than 0.100000
B(  0-C ,  1-C ) :   1.1674 B(  0-C , 19-H ) :   0.9460 B(  0-C , 20-H ) :   0.9380
B(  0-C , 21-H ) :   0.9302 B(  1-C ,  2-O ) :   0.9029 B(  1-C , 22-H ) :   0.9339
B(  1-C , 23-H ) :   0.9161 B(  2-O ,  3-P ) :   1.1382 B(  3-P ,  4-S ) :   1.6317
B(  3-P ,  5-O ) :   1.0765 B(  3-P ,  8-S ) :   0.9415 B(  4-S ,  8-S ) :   0.1029
B(  5-O ,  6-C ) :   0.8964 B(  6-C ,  7-C ) :   1.1605 B(  6-C , 24-H ) :   0.9038
B(  6-C , 25-H ) :   0.9305 B(  7-C , 26-H ) :   0.9492 B(  7-C , 27-H ) :   0.9425
B(  7-C , 28-H ) :   0.9415 B(  8-S ,  9-C ) :   1.0126 B(  9-C , 10-S ) :   0.9965
B(  9-C , 29-H ) :   0.8867 B(  9-C , 30-H ) :   0.8809 B( 10-S , 11-P ) :   0.9543
B( 10-S , 12-S ) :   0.1076 B( 11-P , 12-S ) :   1.5856 B( 11-P , 13-O ) :   1.1134
B( 11-P , 16-O ) :   1.1232 B( 13-O , 14-C ) :   0.9074 B( 14-C , 15-C ) :   1.1662
B( 14-C , 31-H ) :   0.9164 B( 14-C , 32-H ) :   0.9339 B( 15-C , 33-H ) :   0.9377
B( 15-C , 34-H ) :   0.9447 B( 15-C , 35-H ) :   0.9357 B( 16-O , 17-C ) :   0.9063
B( 17-C , 18-C ) :   1.1631 B( 17-C , 36-H ) :   0.9147 B( 17-C , 37-H ) :   0.9318
B( 18-C , 38-H ) :   0.9398 B( 18-C , 39-H ) :   0.9461 B( 18-C , 40-H ) :   0.9358

Dispersion correction           -0.067457774
FINAL SINGLE POINT ENERGY     -2929.523736558758

DIPOLE MOMENT
-------------

Method             : SCF
Type of density    : Electron Density
Multiplicity       :   1
Irrep              :   0
Energy             : -2929.6418470839735164 Eh
Relativity type    :
Basis              : AO
                                X                 Y                 Z
Electronic contribution:      7.112226056      14.544178539      -7.559648986
Nuclear contribution   :     -7.932232713     -15.918766489       8.187585485
                        -----------------------------------------
Total Dipole Moment    :     -0.820006657      -1.374587950       0.627936500
                        -----------------------------------------
Magnitude (a.u.)       :      1.719362439
Magnitude (Debye)      :      4.370272009

Rotational constants in cm-1:             0.011552             0.005615             0.005151
Rotational constants in MHz :           346.305951           168.341919           154.421094

                             ****ORCA TERMINATED NORMALLY****
TOTAL RUN TIME: 0 days 0 hours 0 minutes 21 seconds 564 msec
