                         Program Version 6.0.0  -   RELEASE  -
|  1> ! pbe def2-sv(p) def2/J RI DEFGRID1 loosescf d4 GCP(DFT/SV(P)) printgap
|  2> %output
|  3>     printlevel normal
|  4> end
|  5> * xyz 0 1
|  6> C 3.8760209304 -1.0429562809 -2.4833645983
|  7> C 4.2302613539 0.1141245754 -1.570522665
|  8> O 3.667402895 -0.0340016905 -0.2587183878
|  9> P 2.1016789266 0.0523245165 0.0371572135
| 10> S 1.1993765513 1.4285778374 -1.0336697194
| 11> O 2.1256199832 0.1847955567 1.6090560787
| 12> C 2.1414069189 1.4508549038 2.2971936428
| 13> C 3.3916891034 2.251065299 1.9998598811
| 14> S 1.4183783722 -1.9423737303 -0.1218964893
| 15> C 0.1469508945 -1.7603511986 -1.4206668772
| 16> S -1.5436167341 -2.1271026858 -0.8699265859
| 17> P -2.0731627814 -0.2677154424 -0.0143930646
| 18> S -1.0622046692 0.2597304744 1.5901962407
| 19> O -3.6346308524 -0.4158599769 0.2257111765
| 20> C -4.1926943706 -0.9408498965 1.4477016107
| 21> C -4.7469669667 0.1885958071 2.2941210773
| 22> O -2.0120300524 0.6385747762 -1.3060150691
| 23> C -2.741061296 1.8724799768 -1.4888058453
| 24> C -2.3550334853 2.9239793099 -0.4710691362
| 25> H 4.1151902748 -1.9885440556 -2.0033953605
| 26> H 2.8113281975 -1.0233922093 -2.7128031629
| 27> H 4.4366397968 -0.9546019821 -3.4084151328
| 28> H 3.8759052466 1.0597769102 -1.9941696846
| 29> H 5.3045727171 0.1682426498 -1.3892463837
| 30> H 1.2396624824 2.0046338011 2.0161953727
| 31> H 2.0752416478 1.1694912642 3.3490873161
| 32> H 4.2759140723 1.6553647664 2.2114557675
| 33> H 3.4055377606 2.5434243486 0.950224376
| 34> H 3.3987275249 3.1450304845 2.6155172492
| 35> H 0.3616160708 -2.4958219882 -2.190910474
| 36> H 0.1800786843 -0.7412306551 -1.8137929694
| 37> H -4.9771427074 -1.6291199096 1.1292738874
| 38> H -3.420758212 -1.4898368636 1.9932540285
| 39> H -5.2314715914 -0.2271326195 3.1715281291
| 40> H -3.9385444112 0.8432873867 2.6134866566
| 41> H -5.4683717276 0.7665499277 1.7235395097
| 42> H -2.4660356905 2.1775023586 -2.4997762095
| 43> H -3.8081381432 1.6459097409 -1.4392476006
| 44> H -2.8701841822 3.8524883703 -0.695030961
| 45> H -2.626581741 2.5950405704 0.5311363807
| 46> H -1.2800696311 3.0920669924 -0.5008778125
| 47> *
| 48>
| 49>                          ****END OF INPUT****

CARTESIAN COORDINATES (ANGSTROEM)
---------------------------------
  C      3.876021   -1.042956   -2.483365
  C      4.230261    0.114125   -1.570523
  O      3.667403   -0.034002   -0.258718
  P      2.101679    0.052325    0.037157
  S      1.199377    1.428578   -1.033670
  O      2.125620    0.184796    1.609056
  C      2.141407    1.450855    2.297194
  C      3.391689    2.251065    1.999860
  S      1.418378   -1.942374   -0.121896
  C      0.146951   -1.760351   -1.420667
  S     -1.543617   -2.127103   -0.869927
  P     -2.073163   -0.267715   -0.014393
  S     -1.062205    0.259730    1.590196
  O     -3.634631   -0.415860    0.225711
  C     -4.192694   -0.940850    1.447702
  C     -4.746967    0.188596    2.294121
  O     -2.012030    0.638575   -1.306015
  C     -2.741061    1.872480   -1.488806
  C     -2.355033    2.923979   -0.471069
  H      4.115190   -1.988544   -2.003395
  H      2.811328   -1.023392   -2.712803
  H      4.436640   -0.954602   -3.408415
  H      3.875905    1.059777   -1.994170
  H      5.304573    0.168243   -1.389246
  H      1.239662    2.004634    2.016195
  H      2.075242    1.169491    3.349087
  H      4.275914    1.655365    2.211456
  H      3.405538    2.543424    0.950224
  H      3.398728    3.145030    2.615517
  H      0.361616   -2.495822   -2.190910
  H      0.180079   -0.741231   -1.813793
  H     -4.977143   -1.629120    1.129274
  H     -3.420758   -1.489837    1.993254
  H     -5.231472   -0.227133    3.171528
  H     -3.938544    0.843287    2.613487
  H     -5.468372    0.766550    1.723540
  H     -2.466036    2.177502   -2.499776
  H     -3.808138    1.645910   -1.439248
  H     -2.870184    3.852488   -0.695031
  H     -2.626582    2.595041    0.531136
  H     -1.280070    3.092067   -0.500878

 Total Charge           Charge          ....    0
 Multiplicity           Mult            ....    1
 Number of Electrons    NEL             ....  202
 Basis Dimension        Dim             ....  334

ORBITAL ENERGIES
----------------

  NO   OCC          E(Eh)            E(eV)
   0   2.0000     -88.034511     -2395.5408
   1   2.0000     -88.034109     -2395.5299
   2   2.0000     -87.986000     -2394.2208
   3   2.0000     -87.978525     -2394.0174
   4   2.0000     -76.422989     -2079.5753
   5   2.0000     -76.421245     -2079.5278
   6   2.0000     -18.792650      -511.3740
   7   2.0000     -18.785327      -511.1747
   8   2.0000     -18.782090      -511.0867
   9   2.0000     -18.781555      -511.0721
  10   2.0000      -9.953611      -270.8515
  11   2.0000      -9.952930      -270.8330
  12   2.0000      -9.951752      -270.8009
  13   2.0000      -9.947336      -270.6808
  14   2.0000      -9.944728      -270.6098
  15   2.0000      -9.883706      -268.9493
  16   2.0000      -9.882670      -268.9211
  17   2.0000      -9.878082      -268.7963
  18   2.0000      -9.876645      -268.7572
  19   2.0000      -7.680016      -208.9839
  20   2.0000      -7.679895      -208.9806
  21   2.0000      -7.630792      -207.6444
  22   2.0000      -7.623260      -207.4394
  23   2.0000      -6.420301      -174.7053
  24   2.0000      -6.418549      -174.6576
  25   2.0000      -5.707925      -155.3205
  26   2.0000      -5.707813      -155.3175
  27   2.0000      -5.704608      -155.2303
  28   2.0000      -5.704577      -155.2294
  29   2.0000      -5.696733      -155.0160
  30   2.0000      -5.696593      -155.0122
  31   2.0000      -5.659444      -154.0013
  32   2.0000      -5.652078      -153.8009
  33   2.0000      -5.652026      -153.7995
  34   2.0000      -5.650559      -153.7595
  35   2.0000      -5.643881      -153.5778
  36   2.0000      -5.643552      -153.5688
  37   2.0000      -4.643411      -126.3536
  38   2.0000      -4.641930      -126.3133
  39   2.0000      -4.640756      -126.2814
  40   2.0000      -4.640428      -126.2725
  41   2.0000      -4.640232      -126.2671
  42   2.0000      -4.639463      -126.2462
  43   2.0000      -0.985473       -26.8161
  44   2.0000      -0.979118       -26.6432
  45   2.0000      -0.942260       -25.6402
  46   2.0000      -0.936649       -25.4875
  47   2.0000      -0.755678       -20.5630
  48   2.0000      -0.717973       -19.5370
  49   2.0000      -0.704378       -19.1671
  50   2.0000      -0.686470       -18.6798
  51   2.0000      -0.682055       -18.5597
  52   2.0000      -0.668651       -18.1949
  53   2.0000      -0.650488       -17.7007
  54   2.0000      -0.631647       -17.1880
  55   2.0000      -0.598327       -16.2813
  56   2.0000      -0.586455       -15.9582
  57   2.0000      -0.573232       -15.5984
  58   2.0000      -0.567458       -15.4413
  59   2.0000      -0.557289       -15.1646
  60   2.0000      -0.500442       -13.6177
  61   2.0000      -0.486207       -13.2304
  62   2.0000      -0.471871       -12.8403
  63   2.0000      -0.465519       -12.6674
  64   2.0000      -0.451345       -12.2817
  65   2.0000      -0.441200       -12.0057
  66   2.0000      -0.435624       -11.8539
  67   2.0000      -0.434088       -11.8121
  68   2.0000      -0.423010       -11.5107
  69   2.0000      -0.409728       -11.1493
  70   2.0000      -0.406129       -11.0513
  71   2.0000      -0.399127       -10.8608
  72   2.0000      -0.389319       -10.5939
  73   2.0000      -0.384056       -10.4507
  74   2.0000      -0.381879       -10.3915
  75   2.0000      -0.377326       -10.2676
  76   2.0000      -0.361710        -9.8426
  77   2.0000      -0.350658        -9.5419
  78   2.0000      -0.348692        -9.4884
  79   2.0000      -0.344124        -9.3641
  80   2.0000      -0.343038        -9.3345
  81   2.0000      -0.337987        -9.1971
  82   2.0000      -0.336776        -9.1641
  83   2.0000      -0.332434        -9.0460
  84   2.0000      -0.329715        -8.9720
  85   2.0000      -0.315504        -8.5853
  86   2.0000      -0.307692        -8.3727
  87   2.0000      -0.296855        -8.0778
  88   2.0000      -0.289682        -7.8826
  89   2.0000      -0.287485        -7.8229
  90   2.0000      -0.278093        -7.5673
  91   2.0000      -0.275054        -7.4846
  92   2.0000      -0.266536        -7.2528
  93   2.0000      -0.258436        -7.0324
  94   2.0000      -0.254707        -6.9309
  95   2.0000      -0.231204        -6.2914
  96   2.0000      -0.217746        -5.9252
  97   2.0000      -0.208398        -5.6708
  98   2.0000      -0.199490        -5.4284
  99   2.0000      -0.188192        -5.1210
 100   2.0000      -0.183777        -5.0008
 101   0.0000      -0.035452        -0.9647
 102   0.0000      -0.029888        -0.8133
 103   0.0000      -0.011411        -0.3105
 104   0.0000       0.004035         0.1098
 105   0.0000       0.025414         0.6916

MULLIKEN ATOMIC CHARGES
-----------------------
   0 C :   -0.315938
   1 C :    0.000303
   2 O :   -0.371993
   3 P :    0.619971
   4 S :   -0.329062
   5 O :   -0.363009
   6 C :   -0.001309
   7 C :   -0.305800
   8 S :   -0.067674
   9 C :   -0.378884
  10 S :   -0.086758
  11 P :    0.630582
  12 S :   -0.320335
  13 O :   -0.384870
  14 C :   -0.005692
  15 C :   -0.295839
  16 O :   -0.368953
  17 C :    0.004384
  18 C :   -0.326618
  19 H :    0.120755
  20 H :    0.119482
  21 H :    0.110457
  22 H :    0.105686
  23 H :    0.102699
  24 H :    0.119012
  25 H :    0.105551
  26 H :    0.116255
  27 H :    0.122002
  28 H :    0.109222
  29 H :    0.183742
  30 H :    0.206600
  31 H :    0.106563
  32 H :    0.108143
  33 H :    0.109871
  34 H :    0.128044
  35 H :    0.110939
  36 H :    0.106814
  37 H :    0.106106
  38 H :    0.105309
  39 H :    0.126553
  40 H :    0.137692
Sum of atomic charges:    0.0000000

LOEWDIN ATOMIC CHARGES
----------------------
   0 C :   -0.368378
   1 C :   -0.120541
   2 O :   -0.249060
   3 P :    0.574966
   4 S :   -0.307271
   5 O :   -0.232800
   6 C :   -0.114022
   7 C :   -0.366570
   8 S :    0.089517
   9 C :   -0.481125
  10 S :    0.071443
  11 P :    0.570090
  12 S :   -0.306675
  13 O :   -0.248182
  14 C :   -0.116847
  15 C :   -0.360347
  16 O :   -0.239764
  17 C :   -0.106148
  18 C :   -0.370680
  19 H :    0.125758
  20 H :    0.118467
  21 H :    0.129319
  22 H :    0.106656
  23 H :    0.117709
  24 H :    0.110382
  25 H :    0.120309
  26 H :    0.126128
  27 H :    0.121288
  28 H :    0.129247
  29 H :    0.136084
  30 H :    0.124381
  31 H :    0.117770
  32 H :    0.111206
  33 H :    0.130076
  34 H :    0.125581
  35 H :    0.123710
  36 H :    0.121128
  37 H :    0.111229
  38 H :    0.126962
  39 H :    0.120109
  40 H :    0.128896

  Mayer bond orders larger than 0.100000
B(  0-C ,  1-C ) :   1.1637 B(  0-C , 19-H ) :   0.9426 B(  0-C , 20-H ) :   0.9393
B(  0-C , 21-H ) :   0.9381 B(  1-C ,  2-O ) :   0.9249 B(  1-C , 22-H ) :   0.9139
B(  1-C , 23-H ) :   0.9341 B(  2-O ,  3-P ) :   1.0869 B(  3-P ,  4-S ) :   1.5720
B(  3-P ,  5-O ) :   1.1475 B(  3-P ,  8-S ) :   0.9609 B(  4-S ,  8-S ) :   0.1163
B(  5-O ,  6-C ) :   0.9025 B(  6-C ,  7-C ) :   1.1632 B(  6-C , 24-H ) :   0.9166
B(  6-C , 25-H ) :   0.9361 B(  7-C , 26-H ) :   0.9447 B(  7-C , 27-H ) :   0.9356
B(  7-C , 28-H ) :   0.9382 B(  8-S ,  9-C ) :   1.0018 B(  9-C , 10-S ) :   1.0009
B(  9-C , 29-H ) :   0.9101 B(  9-C , 30-H ) :   0.8513 B( 10-S , 11-P ) :   0.9656
B( 10-S , 12-S ) :   0.1167 B( 11-P , 12-S ) :   1.6270 B( 11-P , 13-O ) :   1.0881
B( 11-P , 16-O ) :   1.1195 B( 13-O , 14-C ) :   0.8986 B( 14-C , 15-C ) :   1.1683
B( 14-C , 31-H ) :   0.9340 B( 14-C , 32-H ) :   0.9103 B( 15-C , 33-H ) :   0.9399
B( 15-C , 34-H ) :   0.9362 B( 15-C , 35-H ) :   0.9486 B( 16-O , 17-C ) :   0.9031
B( 17-C , 18-C ) :   1.1674 B( 17-C , 36-H ) :   0.9351 B( 17-C , 37-H ) :   0.9307
B( 18-C , 38-H ) :   0.9351 B( 18-C , 39-H ) :   0.9339 B( 18-C , 40-H ) :   0.9371

Dispersion correction           -0.067642917
FINAL SINGLE POINT ENERGY     -2929.515336618013

DIPOLE MOMENT
-------------

Method             : SCF
Type of density    : Electron Density
Multiplicity       :   1
Irrep              :   0
Energy             : -2929.6323757111508712 Eh
Relativity type    :
Basis              : AO
                                X                 Y                 Z
Electronic contribution:      0.304319026     -15.044556314      -1.882238379
Nuclear contribution   :     -0.593018227      15.436334016       1.550841619
                        -----------------------------------------
Total Dipole Moment    :     -0.288699201       0.391777701      -0.331396760
                        -----------------------------------------
Magnitude (a.u.)       :      0.588779083
Magnitude (Debye)      :      1.496557495

Rotational constants in cm-1:             0.012394             0.005391             0.004916
Rotational constants in MHz :           371.574240           161.619556           147.373316

                             ****ORCA TERMINATED NORMALLY****
TOTAL RUN TIME: 0 days 0 hours 0 minutes 21 seconds 194 msec
