                         Program Version 6.0.0  -   RELEASE  -
|  1> ! pbe def2-sv(p) def2/J RI DEFGRID1 loosescf d4 GCP(DFT/SV(P)) printgap
|  2> %output
|  3>     printlevel normal
|  4> end
|  5> * xyz 0 1
|  6> C 5.4383858583 0.3443422388 -0.985721535
|  7> C 4.5130976001 -0.5942920937 -0.2364310631
|  8> O 3.4262632046 0.1418141178 0.3618723617
|  9> P 1.9697943683 0.1716379678 -0.2846515656
| 10> S 1.9410835479 0.502952798 -2.221455235
| 11> O 1.2690358749 1.2230206386 0.6621238591
| 12> C 1.4085630737 2.6436320546 0.4389478025
| 13> C 0.5358846569 3.3523269328 1.4518095902
| 14> S 1.1531733002 -1.6483102911 0.3617347384
| 15> C -0.0631343309 -1.961774212 -0.9647974225
| 16> S -1.7491894286 -2.0947394528 -0.3423369211
| 17> P -2.0379087595 -0.042997752 0.1517867211
| 18> S -1.4414237854 1.2562574075 -1.18538993
| 19> O -1.3141679846 0.2244611237 1.5234979641
| 20> C -1.5452824948 -0.5674023193 2.718152207
| 21> C -0.3821576194 -0.3321846225 3.6585176509
| 22> O -3.5637061628 -0.0075396415 0.5949291482
| 23> C -4.6639579149 -0.5695294178 -0.1452783589
| 24> C -4.7371056598 -0.0565827692 -1.5678794567
| 25> H 4.9057455678 0.8116299839 -1.8114574037
| 26> H 5.8055688157 1.1194822582 -0.3190796106
| 27> H 6.2774668576 -0.2197268796 -1.379647217
| 28> H 5.021659441 -1.076144659 0.6003434304
| 29> H 4.1072652221 -1.3562599147 -0.9076370458
| 30> H 2.4625224095 2.9092414156 0.5539195154
| 31> H 1.0902443616 2.86223093 -0.586368319
| 32> H -0.4970867486 3.0365023949 1.3261296686
| 33> H 0.8610707958 3.1075242683 2.4586022185
| 34> H 0.6054019476 4.4237180474 1.2948437327
| 35> H 0.1703920091 -2.9227163369 -1.4158557207
| 36> H 0.0051958345 -1.1532877072 -1.6988793493
| 37> H -2.4915636756 -0.241623974 3.1536020193
| 38> H -1.6188926261 -1.6208972281 2.4316899267
| 39> H 0.5491643109 -0.6284784169 3.1817372529
| 40> H -0.3200412541 0.7201794593 3.9199634843
| 41> H -0.5275062579 -0.9210082744 4.5583253492
| 42> H -4.5617355375 -1.6579588545 -0.1308813961
| 43> H -5.5397787681 -0.2696055569 0.4327912558
| 44> H -3.8576778324 -0.3723885577 -2.1276489399
| 45> H -5.624414071 -0.4539328911 -2.0498958659
| 46> H -4.7762003494 1.0302198458 -1.5787289342
| 47> *
| 48>
| 49>                          ****END OF INPUT****

CARTESIAN COORDINATES (ANGSTROEM)
---------------------------------
  C      5.438386    0.344342   -0.985722
  C      4.513098   -0.594292   -0.236431
  O      3.426263    0.141814    0.361872
  P      1.969794    0.171638   -0.284652
  S      1.941084    0.502953   -2.221455
  O      1.269036    1.223021    0.662124
  C      1.408563    2.643632    0.438948
  C      0.535885    3.352327    1.451810
  S      1.153173   -1.648310    0.361735
  C     -0.063134   -1.961774   -0.964797
  S     -1.749189   -2.094739   -0.342337
  P     -2.037909   -0.042998    0.151787
  S     -1.441424    1.256257   -1.185390
  O     -1.314168    0.224461    1.523498
  C     -1.545282   -0.567402    2.718152
  C     -0.382158   -0.332185    3.658518
  O     -3.563706   -0.007540    0.594929
  C     -4.663958   -0.569529   -0.145278
  C     -4.737106   -0.056583   -1.567879
  H      4.905746    0.811630   -1.811457
  H      5.805569    1.119482   -0.319080
  H      6.277467   -0.219727   -1.379647
  H      5.021659   -1.076145    0.600343
  H      4.107265   -1.356260   -0.907637
  H      2.462522    2.909241    0.553920
  H      1.090244    2.862231   -0.586368
  H     -0.497087    3.036502    1.326130
  H      0.861071    3.107524    2.458602
  H      0.605402    4.423718    1.294844
  H      0.170392   -2.922716   -1.415856
  H      0.005196   -1.153288   -1.698879
  H     -2.491564   -0.241624    3.153602
  H     -1.618893   -1.620897    2.431690
  H      0.549164   -0.628478    3.181737
  H     -0.320041    0.720179    3.919963
  H     -0.527506   -0.921008    4.558325
  H     -4.561736   -1.657959   -0.130881
  H     -5.539779   -0.269606    0.432791
  H     -3.857678   -0.372389   -2.127649
  H     -5.624414   -0.453933   -2.049896
  H     -4.776200    1.030220   -1.578729

 Total Charge           Charge          ....    0
 Multiplicity           Mult            ....    1
 Number of Electrons    NEL             ....  202
 Basis Dimension        Dim             ....  334

ORBITAL ENERGIES
----------------

  NO   OCC          E(Eh)            E(eV)
   0   2.0000     -88.047084     -2395.8830
   1   2.0000     -88.043114     -2395.7749
   2   2.0000     -87.979729     -2394.0501
   3   2.0000     -87.979589     -2394.0463
   4   2.0000     -76.424216     -2079.6086
   5   2.0000     -76.419886     -2079.4908
   6   2.0000     -18.794613      -511.4274
   7   2.0000     -18.787500      -511.2339
   8   2.0000     -18.786494      -511.2065
   9   2.0000     -18.779495      -511.0160
  10   2.0000      -9.959949      -271.0240
  11   2.0000      -9.956332      -270.9256
  12   2.0000      -9.950721      -270.7729
  13   2.0000      -9.949371      -270.7362
  14   2.0000      -9.939983      -270.4807
  15   2.0000      -9.883176      -268.9349
  16   2.0000      -9.882320      -268.9116
  17   2.0000      -9.878432      -268.8058
  18   2.0000      -9.872745      -268.6510
  19   2.0000      -7.692098      -209.3126
  20   2.0000      -7.688365      -209.2110
  21   2.0000      -7.624711      -207.4789
  22   2.0000      -7.624536      -207.4742
  23   2.0000      -6.421425      -174.7359
  24   2.0000      -6.417621      -174.6324
  25   2.0000      -5.719837      -155.6447
  26   2.0000      -5.716360      -155.5501
  27   2.0000      -5.716185      -155.5453
  28   2.0000      -5.712790      -155.4529
  29   2.0000      -5.709475      -155.3627
  30   2.0000      -5.705396      -155.2517
  31   2.0000      -5.653666      -153.8441
  32   2.0000      -5.653604      -153.8424
  33   2.0000      -5.645406      -153.6193
  34   2.0000      -5.645066      -153.6101
  35   2.0000      -5.644815      -153.6032
  36   2.0000      -5.644561      -153.5963
  37   2.0000      -4.644222      -126.3757
  38   2.0000      -4.643563      -126.3578
  39   2.0000      -4.641371      -126.2981
  40   2.0000      -4.639993      -126.2606
  41   2.0000      -4.639258      -126.2406
  42   2.0000      -4.638353      -126.2160
  43   2.0000      -0.987447       -26.8698
  44   2.0000      -0.979354       -26.6496
  45   2.0000      -0.943070       -25.6622
  46   2.0000      -0.935863       -25.4661
  47   2.0000      -0.764158       -20.7938
  48   2.0000      -0.720224       -19.5983
  49   2.0000      -0.708336       -19.2748
  50   2.0000      -0.689208       -18.7543
  51   2.0000      -0.680231       -18.5100
  52   2.0000      -0.673321       -18.3220
  53   2.0000      -0.647460       -17.6183
  54   2.0000      -0.631248       -17.1771
  55   2.0000      -0.590477       -16.0677
  56   2.0000      -0.585068       -15.9205
  57   2.0000      -0.569421       -15.4947
  58   2.0000      -0.566965       -15.4279
  59   2.0000      -0.555643       -15.1198
  60   2.0000      -0.506230       -13.7752
  61   2.0000      -0.499076       -13.5806
  62   2.0000      -0.474677       -12.9166
  63   2.0000      -0.472983       -12.8705
  64   2.0000      -0.454470       -12.3668
  65   2.0000      -0.441321       -12.0090
  66   2.0000      -0.434522       -11.8239
  67   2.0000      -0.432616       -11.7721
  68   2.0000      -0.424834       -11.5603
  69   2.0000      -0.416649       -11.3376
  70   2.0000      -0.414713       -11.2849
  71   2.0000      -0.397563       -10.8182
  72   2.0000      -0.392360       -10.6766
  73   2.0000      -0.383342       -10.4313
  74   2.0000      -0.375853       -10.2275
  75   2.0000      -0.364848        -9.9280
  76   2.0000      -0.356367        -9.6972
  77   2.0000      -0.351514        -9.5652
  78   2.0000      -0.348813        -9.4917
  79   2.0000      -0.345467        -9.4006
  80   2.0000      -0.344084        -9.3630
  81   2.0000      -0.340701        -9.2710
  82   2.0000      -0.336338        -9.1522
  83   2.0000      -0.329451        -8.9648
  84   2.0000      -0.323965        -8.8155
  85   2.0000      -0.318986        -8.6800
  86   2.0000      -0.309439        -8.4203
  87   2.0000      -0.297879        -8.1057
  88   2.0000      -0.296991        -8.0815
  89   2.0000      -0.291784        -7.9399
  90   2.0000      -0.279739        -7.6121
  91   2.0000      -0.273249        -7.4355
  92   2.0000      -0.264813        -7.2059
  93   2.0000      -0.260389        -7.0856
  94   2.0000      -0.256463        -6.9787
  95   2.0000      -0.239773        -6.5245
  96   2.0000      -0.223179        -6.0730
  97   2.0000      -0.210838        -5.7372
  98   2.0000      -0.200656        -5.4601
  99   2.0000      -0.191784        -5.2187
 100   2.0000      -0.181741        -4.9454
 101   0.0000      -0.040948        -1.1142
 102   0.0000      -0.029953        -0.8151
 103   0.0000      -0.012621        -0.3434
 104   0.0000       0.013545         0.3686
 105   0.0000       0.020919         0.5692

MULLIKEN ATOMIC CHARGES
-----------------------
   0 C :   -0.288147
   1 C :   -0.002771
   2 O :   -0.381389
   3 P :    0.610129
   4 S :   -0.320619
   5 O :   -0.352506
   6 C :   -0.003769
   7 C :   -0.282737
   8 S :   -0.097350
   9 C :   -0.350410
  10 S :   -0.120966
  11 P :    0.593780
  12 S :   -0.288357
  13 O :   -0.343484
  14 C :   -0.010574
  15 C :   -0.281919
  16 O :   -0.383497
  17 C :   -0.013952
  18 C :   -0.307906
  19 H :    0.124724
  20 H :    0.110464
  21 H :    0.106292
  22 H :    0.103261
  23 H :    0.097034
  24 H :    0.096030
  25 H :    0.114852
  26 H :    0.127245
  27 H :    0.108497
  28 H :    0.103619
  29 H :    0.183055
  30 H :    0.211156
  31 H :    0.104212
  32 H :    0.097615
  33 H :    0.125267
  34 H :    0.119584
  35 H :    0.104845
  36 H :    0.113433
  37 H :    0.109417
  38 H :    0.127741
  39 H :    0.110886
  40 H :    0.127213
Sum of atomic charges:    0.0000000

LOEWDIN ATOMIC CHARGES
----------------------
   0 C :   -0.360813
   1 C :   -0.117710
   2 O :   -0.253205
   3 P :    0.566868
   4 S :   -0.312726
   5 O :   -0.230660
   6 C :   -0.115799
   7 C :   -0.352981
   8 S :    0.080396
   9 C :   -0.478289
  10 S :    0.064805
  11 P :    0.560954
  12 S :   -0.286385
  13 O :   -0.225996
  14 C :   -0.117901
  15 C :   -0.351554
  16 O :   -0.248667
  17 C :   -0.114700
  18 C :   -0.368884
  19 H :    0.125325
  20 H :    0.123882
  21 H :    0.128121
  22 H :    0.116305
  23 H :    0.106159
  24 H :    0.107104
  25 H :    0.110713
  26 H :    0.127384
  27 H :    0.121303
  28 H :    0.127402
  29 H :    0.137614
  30 H :    0.127248
  31 H :    0.112938
  32 H :    0.100739
  33 H :    0.124259
  34 H :    0.127194
  35 H :    0.127503
  36 H :    0.107524
  37 H :    0.121382
  38 H :    0.122353
  39 H :    0.129843
  40 H :    0.130950

  Mayer bond orders larger than 0.100000
B(  0-C ,  1-C ) :   1.1665 B(  0-C , 19-H ) :   0.9355 B(  0-C , 20-H ) :   0.9480
B(  0-C , 21-H ) :   0.9405 B(  1-C ,  2-O ) :   0.9042 B(  1-C , 22-H ) :   0.9354
B(  1-C , 23-H ) :   0.9116 B(  2-O ,  3-P ) :   1.0966 B(  3-P ,  4-S ) :   1.6051
B(  3-P ,  5-O ) :   1.1541 B(  3-P ,  8-S ) :   0.9672 B(  4-S ,  8-S ) :   0.1175
B(  5-O ,  6-C ) :   0.8915 B(  6-C ,  7-C ) :   1.1663 B(  6-C , 24-H ) :   0.9276
B(  6-C , 25-H ) :   0.9131 B(  7-C , 26-H ) :   0.9408 B(  7-C , 27-H ) :   0.9476
B(  7-C , 28-H ) :   0.9404 B(  8-S ,  9-C ) :   0.9916 B(  9-C , 10-S ) :   1.0049
B(  9-C , 29-H ) :   0.9114 B(  9-C , 30-H ) :   0.8437 B( 10-S , 11-P ) :   0.9322
B( 10-S , 12-S ) :   0.1042 B( 11-P , 12-S ) :   1.6568 B( 11-P , 13-O ) :   1.1401
B( 11-P , 16-O ) :   1.0807 B( 13-O , 14-C ) :   0.8877 B( 14-C , 15-C ) :   1.1665
B( 14-C , 31-H ) :   0.9306 B( 14-C , 32-H ) :   0.9098 B( 15-C , 33-H ) :   0.9440
B( 15-C , 34-H ) :   0.9477 B( 15-C , 35-H ) :   0.9404 B( 16-O , 17-C ) :   0.9157
B( 17-C , 18-C ) :   1.1660 B( 17-C , 36-H ) :   0.9264 B( 17-C , 37-H ) :   0.9336
B( 18-C , 38-H ) :   0.9321 B( 18-C , 39-H ) :   0.9349 B( 18-C , 40-H ) :   0.9431

Dispersion correction           -0.067751717
FINAL SINGLE POINT ENERGY     -2929.521067569076

DIPOLE MOMENT
-------------

Method             : SCF
Type of density    : Electron Density
Multiplicity       :   1
Irrep              :   0
Energy             : -2929.6386837795171232 Eh
Relativity type    :
Basis              : AO
                                X                 Y                 Z
Electronic contribution:     -2.328522479      -7.417325823      -8.448313296
Nuclear contribution   :      1.981196215       6.651980355       9.556718636
                        -----------------------------------------
Total Dipole Moment    :     -0.347326264      -0.765345467       1.108405340
                        -----------------------------------------
Magnitude (a.u.)       :      1.391025383
Magnitude (Debye)      :      3.535705536

Rotational constants in cm-1:             0.012662             0.005343             0.005231
Rotational constants in MHz :           379.594280           160.170950           156.830488

                             ****ORCA TERMINATED NORMALLY****
TOTAL RUN TIME: 0 days 0 hours 0 minutes 21 seconds 782 msec
