                         Program Version 6.0.0  -   RELEASE  -
|  1> ! pbe def2-sv(p) def2/J RI DEFGRID1 loosescf d4 GCP(DFT/SV(P)) printgap
|  2> %output
|  3>     printlevel normal
|  4> end
|  5> * xyz 0 1
|  6> C 5.3048416659 -1.3920456064 -1.1708023253
|  7> C 3.8887616881 -1.7029027169 -1.6161773504
|  8> O 2.9818857529 -1.7120958558 -0.4960593333
|  9> P 2.1922696654 -0.4205393164 -0.0161518178
| 10> S 3.2422486974 1.1706283622 0.4583639581
| 11> O 1.3040416533 -1.022279986 1.144731673
| 12> C 1.6932680784 -0.9178215598 2.5313577883
| 13> C 2.9056335759 -1.7738011859 2.828443428
| 14> S 0.7714793986 -0.1459762362 -1.5642935971
| 15> C 0.2624779288 1.5199090759 -1.0688504208
| 16> S -0.7312967604 1.5218560954 0.4416562411
| 17> P -2.4125088882 0.4933877321 -0.3889453216
| 18> S -2.7716758108 0.8707013501 -2.2720344367
| 19> O -3.5738734084 0.8680541846 0.6284283908
| 20> C -4.1648176815 2.1855453971 0.6353091851
| 21> C -5.4706668562 2.10379291 1.3989699845
| 22> O -2.2100252768 -1.0390967901 -0.1003082403
| 23> C -2.0990365131 -1.5754536601 1.2445812434
| 24> C -1.4419839922 -2.9357778461 1.1455729269
| 25> H 5.9680631346 -1.444569005 -2.0281654273
| 26> H 5.3568064244 -0.3926841853 -0.7443779293
| 27> H 5.627774606 -2.1105746712 -0.4226583481
| 28> H 3.8152051335 -2.7091608848 -2.0329971507
| 29> H 3.539858478 -0.9774831802 -2.3570351918
| 30> H 1.8937134277 0.1342685323 2.7577630765
| 31> H 0.8130856397 -1.2552074574 3.0798555174
| 32> H 3.7642212122 -1.3963127947 2.2740460669
| 33> H 3.1253637319 -1.7343286509 3.8906266488
| 34> H 2.722030188 -2.8030435175 2.5321040016
| 35> H -0.328965345 1.9234695938 -1.8904937489
| 36> H 1.1447247251 2.1289897661 -0.8689476786
| 37> H -3.4610210417 2.87095464 1.1148377575
| 38> H -4.3233440997 2.5001409881 -0.4012947682
| 39> H -5.9303600783 3.0862942842 1.4218808327
| 40> H -6.1441764441 1.4044339978 0.9117235273
| 41> H -5.2871890085 1.7682342534 2.4153706088
| 42> H -1.5058274717 -0.8803236123 1.8464221599
| 43> H -3.1072944037 -1.6409669477 1.6572024748
| 44> H -1.3988092244 -3.384057632 2.1330772684
| 45> H -2.0172031974 -3.5763794521 0.4832789273
| 46> H -0.4348691048 -2.8373611836 0.7486376296
| 47> *
| 48>
| 49>                          ****END OF INPUT****

CARTESIAN COORDINATES (ANGSTROEM)
---------------------------------
  C      5.304842   -1.392046   -1.170802
  C      3.888762   -1.702903   -1.616177
  O      2.981886   -1.712096   -0.496059
  P      2.192270   -0.420539   -0.016152
  S      3.242249    1.170628    0.458364
  O      1.304042   -1.022280    1.144732
  C      1.693268   -0.917822    2.531358
  C      2.905634   -1.773801    2.828443
  S      0.771479   -0.145976   -1.564294
  C      0.262478    1.519909   -1.068850
  S     -0.731297    1.521856    0.441656
  P     -2.412509    0.493388   -0.388945
  S     -2.771676    0.870701   -2.272034
  O     -3.573873    0.868054    0.628428
  C     -4.164818    2.185545    0.635309
  C     -5.470667    2.103793    1.398970
  O     -2.210025   -1.039097   -0.100308
  C     -2.099037   -1.575454    1.244581
  C     -1.441984   -2.935778    1.145573
  H      5.968063   -1.444569   -2.028165
  H      5.356806   -0.392684   -0.744378
  H      5.627775   -2.110575   -0.422658
  H      3.815205   -2.709161   -2.032997
  H      3.539858   -0.977483   -2.357035
  H      1.893713    0.134269    2.757763
  H      0.813086   -1.255207    3.079856
  H      3.764221   -1.396313    2.274046
  H      3.125364   -1.734329    3.890627
  H      2.722030   -2.803044    2.532104
  H     -0.328965    1.923470   -1.890494
  H      1.144725    2.128990   -0.868948
  H     -3.461021    2.870955    1.114838
  H     -4.323344    2.500141   -0.401295
  H     -5.930360    3.086294    1.421881
  H     -6.144176    1.404434    0.911724
  H     -5.287189    1.768234    2.415371
  H     -1.505827   -0.880324    1.846422
  H     -3.107294   -1.640967    1.657202
  H     -1.398809   -3.384058    2.133077
  H     -2.017203   -3.576379    0.483279
  H     -0.434869   -2.837361    0.748638

 Total Charge           Charge          ....    0
 Multiplicity           Mult            ....    1
 Number of Electrons    NEL             ....  202
 Basis Dimension        Dim             ....  334

ORBITAL ENERGIES
----------------

  NO   OCC          E(Eh)            E(eV)
   0   2.0000     -88.041873     -2395.7412
   1   2.0000     -88.039573     -2395.6786
   2   2.0000     -87.992110     -2394.3871
   3   2.0000     -87.984041     -2394.1675
   4   2.0000     -76.429933     -2079.7642
   5   2.0000     -76.423960     -2079.6017
   6   2.0000     -18.797790      -511.5139
   7   2.0000     -18.796196      -511.4705
   8   2.0000     -18.794986      -511.4376
   9   2.0000     -18.790408      -511.3130
  10   2.0000      -9.958227      -270.9771
  11   2.0000      -9.956375      -270.9267
  12   2.0000      -9.953993      -270.8619
  13   2.0000      -9.953578      -270.8506
  14   2.0000      -9.949995      -270.7531
  15   2.0000      -9.889868      -269.1170
  16   2.0000      -9.887744      -269.0592
  17   2.0000      -9.883982      -268.9568
  18   2.0000      -9.883133      -268.9337
  19   2.0000      -7.686948      -209.1725
  20   2.0000      -7.684476      -209.1052
  21   2.0000      -7.636989      -207.8130
  22   2.0000      -7.629386      -207.6061
  23   2.0000      -6.427583      -174.9034
  24   2.0000      -6.421638      -174.7417
  25   2.0000      -5.714748      -155.5062
  26   2.0000      -5.712172      -155.4361
  27   2.0000      -5.711552      -155.4192
  28   2.0000      -5.709028      -155.3506
  29   2.0000      -5.703914      -155.2114
  30   2.0000      -5.701653      -155.1499
  31   2.0000      -5.665748      -154.1728
  32   2.0000      -5.658367      -153.9720
  33   2.0000      -5.657593      -153.9509
  34   2.0000      -5.657335      -153.9439
  35   2.0000      -5.649873      -153.7409
  36   2.0000      -5.649569      -153.7326
  37   2.0000      -4.650058      -126.5345
  38   2.0000      -4.649364      -126.5156
  39   2.0000      -4.648079      -126.4807
  40   2.0000      -4.644510      -126.3836
  41   2.0000      -4.643392      -126.3531
  42   2.0000      -4.641814      -126.3102
  43   2.0000      -0.992571       -27.0092
  44   2.0000      -0.988678       -26.9033
  45   2.0000      -0.951308       -25.8864
  46   2.0000      -0.944364       -25.6974
  47   2.0000      -0.763752       -20.7828
  48   2.0000      -0.723009       -19.6741
  49   2.0000      -0.712005       -19.3746
  50   2.0000      -0.691586       -18.8190
  51   2.0000      -0.690415       -18.7872
  52   2.0000      -0.674819       -18.3627
  53   2.0000      -0.650322       -17.6962
  54   2.0000      -0.638023       -17.3615
  55   2.0000      -0.601566       -16.3694
  56   2.0000      -0.584209       -15.8971
  57   2.0000      -0.573444       -15.6042
  58   2.0000      -0.568885       -15.4801
  59   2.0000      -0.564222       -15.3533
  60   2.0000      -0.512448       -13.9444
  61   2.0000      -0.501142       -13.6368
  62   2.0000      -0.482873       -13.1396
  63   2.0000      -0.480090       -13.0639
  64   2.0000      -0.458784       -12.4841
  65   2.0000      -0.448414       -12.2020
  66   2.0000      -0.442182       -12.0324
  67   2.0000      -0.438766       -11.9394
  68   2.0000      -0.429451       -11.6860
  69   2.0000      -0.410978       -11.1833
  70   2.0000      -0.407870       -11.0987
  71   2.0000      -0.397563       -10.8182
  72   2.0000      -0.395001       -10.7485
  73   2.0000      -0.389257       -10.5922
  74   2.0000      -0.377720       -10.2783
  75   2.0000      -0.374660       -10.1950
  76   2.0000      -0.366762        -9.9801
  77   2.0000      -0.359755        -9.7894
  78   2.0000      -0.355761        -9.6807
  79   2.0000      -0.350160        -9.5283
  80   2.0000      -0.349823        -9.5192
  81   2.0000      -0.347774        -9.4634
  82   2.0000      -0.342359        -9.3161
  83   2.0000      -0.338562        -9.2128
  84   2.0000      -0.335982        -9.1425
  85   2.0000      -0.322306        -8.7704
  86   2.0000      -0.311328        -8.4717
  87   2.0000      -0.302697        -8.2368
  88   2.0000      -0.300937        -8.1889
  89   2.0000      -0.298937        -8.1345
  90   2.0000      -0.292065        -7.9475
  91   2.0000      -0.279795        -7.6136
  92   2.0000      -0.271839        -7.3971
  93   2.0000      -0.266396        -7.2490
  94   2.0000      -0.256869        -6.9898
  95   2.0000      -0.235395        -6.4054
  96   2.0000      -0.219655        -5.9771
  97   2.0000      -0.213417        -5.8074
  98   2.0000      -0.205792        -5.5999
  99   2.0000      -0.201174        -5.4742
 100   2.0000      -0.199233        -5.4214
 101   0.0000      -0.043715        -1.1895
 102   0.0000      -0.023203        -0.6314
 103   0.0000      -0.003048        -0.0829
 104   0.0000       0.004146         0.1128
 105   0.0000       0.014114         0.3841

MULLIKEN ATOMIC CHARGES
-----------------------
   0 C :   -0.297247
   1 C :   -0.013230
   2 O :   -0.372934
   3 P :    0.614038
   4 S :   -0.335703
   5 O :   -0.360677
   6 C :   -0.009808
   7 C :   -0.305398
   8 S :   -0.059282
   9 C :   -0.376009
  10 S :   -0.103632
  11 P :    0.605714
  12 S :   -0.313071
  13 O :   -0.390345
  14 C :   -0.009816
  15 C :   -0.280488
  16 O :   -0.352842
  17 C :   -0.014486
  18 C :   -0.292006
  19 H :    0.109798
  20 H :    0.131233
  21 H :    0.114245
  22 H :    0.110539
  23 H :    0.106308
  24 H :    0.116426
  25 H :    0.105412
  26 H :    0.126192
  27 H :    0.112695
  28 H :    0.117026
  29 H :    0.195713
  30 H :    0.192794
  31 H :    0.103702
  32 H :    0.106937
  33 H :    0.113330
  34 H :    0.121568
  35 H :    0.113792
  36 H :    0.106245
  37 H :    0.106413
  38 H :    0.102175
  39 H :    0.119072
  40 H :    0.135607
Sum of atomic charges:    0.0000000

LOEWDIN ATOMIC CHARGES
----------------------
   0 C :   -0.364216
   1 C :   -0.115478
   2 O :   -0.243847
   3 P :    0.570621
   4 S :   -0.318322
   5 O :   -0.231969
   6 C :   -0.117432
   7 C :   -0.364620
   8 S :    0.096416
   9 C :   -0.488361
  10 S :    0.060574
  11 P :    0.567728
  12 S :   -0.309050
  13 O :   -0.253161
  14 C :   -0.119552
  15 C :   -0.350310
  16 O :   -0.231676
  17 C :   -0.111749
  18 C :   -0.355926
  19 H :    0.129918
  20 H :    0.124653
  21 H :    0.125284
  22 H :    0.120530
  23 H :    0.108510
  24 H :    0.112370
  25 H :    0.114626
  26 H :    0.123369
  27 H :    0.131037
  28 H :    0.126516
  29 H :    0.129323
  30 H :    0.127246
  31 H :    0.109066
  32 H :    0.110225
  33 H :    0.131594
  34 H :    0.129461
  35 H :    0.125475
  36 H :    0.103588
  37 H :    0.113827
  38 H :    0.126116
  39 H :    0.129302
  40 H :    0.128292

  Mayer bond orders larger than 0.100000
B(  0-C ,  1-C ) :   1.1673 B(  0-C , 19-H ) :   0.9392 B(  0-C , 20-H ) :   0.9316
B(  0-C , 21-H ) :   0.9466 B(  1-C ,  2-O ) :   0.9035 B(  1-C , 22-H ) :   0.9356
B(  1-C , 23-H ) :   0.9161 B(  2-O ,  3-P ) :   1.1120 B(  3-P ,  4-S ) :   1.5914
B(  3-P ,  5-O ) :   1.1132 B(  3-P ,  8-S ) :   0.9680 B(  4-S ,  8-S ) :   0.1111
B(  5-O ,  6-C ) :   0.8980 B(  6-C ,  7-C ) :   1.1663 B(  6-C , 24-H ) :   0.9144
B(  6-C , 25-H ) :   0.9286 B(  7-C , 26-H ) :   0.9328 B(  7-C , 27-H ) :   0.9383
B(  7-C , 28-H ) :   0.9469 B(  8-S ,  9-C ) :   1.0072 B(  9-C , 10-S ) :   1.0041
B(  9-C , 29-H ) :   0.8747 B(  9-C , 30-H ) :   0.8715 B( 10-S , 11-P ) :   0.9438
B( 10-S , 12-S ) :   0.1105 B( 11-P , 12-S ) :   1.6508 B( 11-P , 13-O ) :   1.0809
B( 11-P , 16-O ) :   1.1469 B( 13-O , 14-C ) :   0.9034 B( 14-C , 15-C ) :   1.1599
B( 14-C , 31-H ) :   0.9280 B( 14-C , 32-H ) :   0.9112 B( 15-C , 33-H ) :   0.9419
B( 15-C , 34-H ) :   0.9508 B( 15-C , 35-H ) :   0.9512 B( 16-O , 17-C ) :   0.8867
B( 17-C , 18-C ) :   1.1677 B( 17-C , 36-H ) :   0.9106 B( 17-C , 37-H ) :   0.9311
B( 18-C , 38-H ) :   0.9399 B( 18-C , 39-H ) :   0.9473 B( 18-C , 40-H ) :   0.9357

Dispersion correction           -0.064411679
FINAL SINGLE POINT ENERGY     -2929.526665451944

DIPOLE MOMENT
-------------

Method             : SCF
Type of density    : Electron Density
Multiplicity       :   1
Irrep              :   0
Energy             : -2929.6471509604170933 Eh
Relativity type    :
Basis              : AO
                                X                 Y                 Z
Electronic contribution:     -3.635051907      10.216513589     -14.655554801
Nuclear contribution   :      3.754689469     -10.832460505      15.963784402
                        -----------------------------------------
Total Dipole Moment    :      0.119637561      -0.615946915       1.308229601
                        -----------------------------------------
Magnitude (a.u.)       :      1.450919859
Magnitude (Debye)      :      3.687945196

Rotational constants in cm-1:             0.013774             0.004573             0.004289
Rotational constants in MHz :           412.947977           137.109694           128.570493

                             ****ORCA TERMINATED NORMALLY****
TOTAL RUN TIME: 0 days 0 hours 0 minutes 21 seconds 46 msec
