                         Program Version 6.0.1  -  RELEASE   -
|  1> ! pbe def2-sv(p) def2/J RI DEFGRID1 loosescf d4 GCP(DFT/SV(P)) printgap
|  2> %output
|  3>     printlevel normal
|  4> end
|  5> * xyz 0 1
|  6> C 4.4089025042 -3.0890990013 -2.2403231452
|  7> C 3.0986625578 -3.1793214312 -1.4831705418
|  8> O 2.8563681472 -1.9044172674 -0.856205843
|  9> C 1.900473482 -1.8283212042 0.0420844351
| 10> O 1.2177797896 -2.7638974973 0.3987341113
| 11> C 1.7259791976 -0.4089792388 0.550474199
| 12> C 1.0352228364 0.4175904349 -0.5402299668
| 13> H 1.7169232714 0.5708913937 -1.3801832939
| 14> C 0.5703150986 1.758377628 -0.002550933
| 15> O -0.6018452076 2.0808795457 0.0115729333
| 16> O 1.5586576261 2.4744575385 0.4459995147
| 17> C 1.2682020312 3.768290032 1.0230330837
| 18> C 1.1696619648 4.8331022687 -0.0562438594
| 19> S -0.4162337221 -0.4305479144 -1.2576543932
| 20> P -1.8896261676 -0.1110964692 0.2369560727
| 21> S -1.4384972828 0.1765334994 2.1327103436
| 22> O -3.0315852687 0.785551422 -0.3979339509
| 23> C -3.4081186313 2.0895075164 0.0508387446
| 24> O -2.7037216338 -1.4805864014 0.0412402146
| 25> C -2.1980157831 -2.7139380775 0.5565815637
| 26> H 4.3507706435 -2.307463084 -2.9913778515
| 27> H 5.2209155635 -2.8606181462 -1.5565782617
| 28> H 4.6073931858 -4.0384221091 -2.7263123897
| 29> H 3.1253507525 -3.9483855245 -0.705047147
| 30> H 2.257867459 -3.3916716211 -2.1506496266
| 31> H 2.6976531038 0.0340403489 0.7660256355
| 32> H 1.1158175333 -0.4379498699 1.4552785588
| 33> H 0.3369699697 3.6936893043 1.5908357731
| 34> H 2.10792422 3.9535892079 1.692211381
| 35> H 0.3334744269 4.6228813603 -0.7190153215
| 36> H 1.0121869333 5.7994934056 0.4108769305
| 37> H 2.086027305 4.8621126021 -0.6388949711
| 38> H -2.9405370372 2.8359684882 -0.5881593727
| 39> H -3.0946292405 2.2417327648 1.0848728994
| 40> H -4.492192253 2.1326240596 -0.028006594
| 41> H -2.1729130351 -2.6765549095 1.6469740321
| 42> H -1.1912665911 -2.9158937764 0.1849770768
| 43> H -2.8899017672 -3.4792524529 0.2159503781
| 44> *
| 45>
| 46>                          ****END OF INPUT****

CARTESIAN COORDINATES (ANGSTROEM)
---------------------------------
  C      4.408903   -3.089099   -2.240323
  C      3.098663   -3.179321   -1.483171
  O      2.856368   -1.904417   -0.856206
  C      1.900473   -1.828321    0.042084
  O      1.217780   -2.763897    0.398734
  C      1.725979   -0.408979    0.550474
  C      1.035223    0.417590   -0.540230
  H      1.716923    0.570891   -1.380183
  C      0.570315    1.758378   -0.002551
  O     -0.601845    2.080880    0.011573
  O      1.558658    2.474458    0.446000
  C      1.268202    3.768290    1.023033
  C      1.169662    4.833102   -0.056244
  S     -0.416234   -0.430548   -1.257654
  P     -1.889626   -0.111096    0.236956
  S     -1.438497    0.176533    2.132710
  O     -3.031585    0.785551   -0.397934
  C     -3.408119    2.089508    0.050839
  O     -2.703722   -1.480586    0.041240
  C     -2.198016   -2.713938    0.556582
  H      4.350771   -2.307463   -2.991378
  H      5.220916   -2.860618   -1.556578
  H      4.607393   -4.038422   -2.726312
  H      3.125351   -3.948386   -0.705047
  H      2.257867   -3.391672   -2.150650
  H      2.697653    0.034040    0.766026
  H      1.115818   -0.437950    1.455279
  H      0.336970    3.693689    1.590836
  H      2.107924    3.953589    1.692211
  H      0.333474    4.622881   -0.719015
  H      1.012187    5.799493    0.410877
  H      2.086027    4.862113   -0.638895
  H     -2.940537    2.835968   -0.588159
  H     -3.094629    2.241733    1.084873
  H     -4.492192    2.132624   -0.028007
  H     -2.172913   -2.676555    1.646974
  H     -1.191267   -2.915894    0.184977
  H     -2.889902   -3.479252    0.215950

 Total Charge           Charge          ....    0
 Multiplicity           Mult            ....    1
 Number of Electrons    NEL             ....  174
 Basis Dimension        Dim             ....  316

ORBITAL ENERGIES
----------------

  NO   OCC          E(Eh)            E(eV)
   0   2.0000     -88.032734     -2395.4925
   1   2.0000     -87.970932     -2393.8107
   2   2.0000     -76.415805     -2079.3798
   3   2.0000     -18.828532      -512.3504
   4   2.0000     -18.807231      -511.7708
   5   2.0000     -18.775695      -510.9126
   6   2.0000     -18.765706      -510.6408
   7   2.0000     -18.761621      -510.5296
   8   2.0000     -18.738922      -509.9120
   9   2.0000     -10.032845      -273.0076
  10   2.0000     -10.010659      -272.4039
  11   2.0000      -9.963701      -271.1261
  12   2.0000      -9.955512      -270.9033
  13   2.0000      -9.952072      -270.8096
  14   2.0000      -9.930337      -270.2182
  15   2.0000      -9.916721      -269.8477
  16   2.0000      -9.907029      -269.5840
  17   2.0000      -9.900043      -269.3939
  18   2.0000      -9.893651      -269.2199
  19   2.0000      -7.677667      -208.9199
  20   2.0000      -7.616015      -207.2423
  21   2.0000      -6.411516      -174.4662
  22   2.0000      -5.705824      -155.2634
  23   2.0000      -5.702278      -155.1669
  24   2.0000      -5.694222      -154.9477
  25   2.0000      -5.645110      -153.6113
  26   2.0000      -5.636967      -153.3897
  27   2.0000      -5.635629      -153.3533
  28   2.0000      -4.633848      -126.0934
  29   2.0000      -4.633727      -126.0901
  30   2.0000      -4.632158      -126.0474
  31   2.0000      -1.037830       -28.2408
  32   2.0000      -1.014928       -27.6176
  33   2.0000      -0.967233       -26.3197
  34   2.0000      -0.941578       -25.6216
  35   2.0000      -0.920625       -25.0515
  36   2.0000      -0.915610       -24.9150
  37   2.0000      -0.768834       -20.9210
  38   2.0000      -0.721287       -19.6272
  39   2.0000      -0.713100       -19.4044
  40   2.0000      -0.684541       -18.6273
  41   2.0000      -0.651960       -17.7407
  42   2.0000      -0.632248       -17.2044
  43   2.0000      -0.619548       -16.8588
  44   2.0000      -0.602171       -16.3859
  45   2.0000      -0.593320       -16.1450
  46   2.0000      -0.568088       -15.4584
  47   2.0000      -0.517098       -14.0710
  48   2.0000      -0.514203       -13.9922
  49   2.0000      -0.500314       -13.6142
  50   2.0000      -0.486074       -13.2267
  51   2.0000      -0.459950       -12.5159
  52   2.0000      -0.455721       -12.4008
  53   2.0000      -0.449905       -12.2425
  54   2.0000      -0.447489       -12.1768
  55   2.0000      -0.434557       -11.8249
  56   2.0000      -0.423373       -11.5206
  57   2.0000      -0.418682       -11.3929
  58   2.0000      -0.408686       -11.1209
  59   2.0000      -0.408057       -11.1038
  60   2.0000      -0.398542       -10.8449
  61   2.0000      -0.392289       -10.6747
  62   2.0000      -0.383321       -10.4307
  63   2.0000      -0.381386       -10.3780
  64   2.0000      -0.373454       -10.1622
  65   2.0000      -0.367709       -10.0059
  66   2.0000      -0.365672        -9.9505
  67   2.0000      -0.359610        -9.7855
  68   2.0000      -0.353176        -9.6104
  69   2.0000      -0.348498        -9.4831
  70   2.0000      -0.340381        -9.2622
  71   2.0000      -0.334319        -9.0973
  72   2.0000      -0.322665        -8.7802
  73   2.0000      -0.312978        -8.5166
  74   2.0000      -0.307416        -8.3652
  75   2.0000      -0.300850        -8.1865
  76   2.0000      -0.289564        -7.8794
  77   2.0000      -0.285535        -7.7698
  78   2.0000      -0.272997        -7.4286
  79   2.0000      -0.265282        -7.2187
  80   2.0000      -0.259267        -7.0550
  81   2.0000      -0.244589        -6.6556
  82   2.0000      -0.239530        -6.5179
  83   2.0000      -0.221365        -6.0237
  84   2.0000      -0.212462        -5.7814
  85   2.0000      -0.191795        -5.2190
  86   2.0000      -0.183553        -4.9947
  87   0.0000      -0.049744        -1.3536
  88   0.0000      -0.036339        -0.9888
  89   0.0000      -0.018720        -0.5094
  90   0.0000       0.007655         0.2083
  91   0.0000       0.032229         0.8770

MULLIKEN ATOMIC CHARGES
-----------------------
   0 C :   -0.274274
   1 C :   -0.029639
   2 O :   -0.235928
   3 C :    0.121537
   4 O :   -0.188800
   5 C :   -0.046785
   6 C :   -0.344821
   7 H :    0.149541
   8 C :    0.233221
   9 O :   -0.190410
  10 O :   -0.217535
  11 C :   -0.010037
  12 C :   -0.312069
  13 S :   -0.084181
  14 P :    0.627416
  15 S :   -0.352576
  16 O :   -0.368195
  17 C :   -0.085140
  18 O :   -0.375458
  19 C :   -0.121770
  20 H :    0.113866
  21 H :    0.115932
  22 H :    0.114010
  23 H :    0.112042
  24 H :    0.108997
  25 H :    0.109689
  26 H :    0.121104
  27 H :    0.122667
  28 H :    0.111148
  29 H :    0.130994
  30 H :    0.120870
  31 H :    0.118186
  32 H :    0.112857
  33 H :    0.114794
  34 H :    0.118261
  35 H :    0.112513
  36 H :    0.135928
  37 H :    0.112042
Sum of atomic charges:    0.0000000

LOEWDIN ATOMIC CHARGES
----------------------
   0 C :   -0.350719
   1 C :   -0.107072
   2 O :   -0.063819
   3 C :    0.021473
   4 O :   -0.154973
   5 C :   -0.253929
   6 C :   -0.261365
   7 H :    0.148211
   8 C :    0.026558
   9 O :   -0.153567
  10 O :   -0.034227
  11 C :   -0.104905
  12 C :   -0.356034
  13 S :    0.109997
  14 P :    0.590775
  15 S :   -0.335276
  16 O :   -0.239135
  17 C :   -0.207628
  18 O :   -0.259353
  19 C :   -0.227145
  20 H :    0.126162
  21 H :    0.127052
  22 H :    0.131879
  23 H :    0.119406
  24 H :    0.118786
  25 H :    0.139178
  26 H :    0.134803
  27 H :    0.127020
  28 H :    0.122708
  29 H :    0.131336
  30 H :    0.134975
  31 H :    0.127029
  32 H :    0.110997
  33 H :    0.107944
  34 H :    0.116958
  35 H :    0.109185
  36 H :    0.110559
  37 H :    0.116154

  Mayer bond orders larger than 0.100000
B(  0-C ,  1-C ) :   1.1525 B(  0-C , 20-H ) :   0.9488 B(  0-C , 21-H ) :   0.9512
B(  0-C , 22-H ) :   0.9440 B(  1-C ,  2-O ) :   0.9028 B(  1-C , 23-H ) :   0.9264
B(  1-C , 24-H ) :   0.9334 B(  2-O ,  3-C ) :   1.2184 B(  3-C ,  4-O ) :   2.0201
B(  3-C ,  5-C ) :   1.0299 B(  5-C ,  6-C ) :   1.0406 B(  5-C , 25-H ) :   0.8765
B(  5-C , 26-H ) :   0.8694 B(  6-C ,  7-H ) :   0.8641 B(  6-C ,  8-C ) :   0.9170
B(  6-C , 13-S ) :   1.0407 B(  8-C ,  9-O ) :   1.9375 B(  8-C , 10-O ) :   1.2835
B(  9-O , 14-P ) :   0.1050 B( 10-O , 11-C ) :   0.8968 B( 11-C , 12-C ) :   1.1739
B( 11-C , 27-H ) :   0.9153 B( 11-C , 28-H ) :   0.9361 B( 12-C , 29-H ) :   0.9454
B( 12-C , 30-H ) :   0.9430 B( 12-C , 31-H ) :   0.9473 B( 13-S , 14-P ) :   0.9255
B( 13-S , 15-S ) :   0.1183 B( 14-P , 15-S ) :   1.5487 B( 14-P , 16-O ) :   1.1385
B( 14-P , 18-O ) :   1.0951 B( 16-O , 17-C ) :   0.9302 B( 17-C , 32-H ) :   0.9541
B( 17-C , 33-H ) :   0.9336 B( 17-C , 34-H ) :   0.9549 B( 18-O , 19-C ) :   0.9341
B( 19-C , 35-H ) :   0.9433 B( 19-C , 36-H ) :   0.9236 B( 19-C , 37-H ) :   0.9570

Dispersion correction           -0.051957280
FINAL SINGLE POINT ENERGY     -1979.014200916415

DIPOLE MOMENT
-------------

Method             : SCF
Type of density    : Electron Density
Multiplicity       :   1
Irrep              :   0
Energy             : -1979.1447428962992490 Eh
Relativity type    :
Basis              : AO
                                X                 Y                 Z
Electronic contribution:    -13.370748837      -3.393107518       3.644622829
Nuclear contribution   :     15.042273321       4.495436958      -4.404271259
                        -----------------------------------------
Total Dipole Moment    :      1.671524485       1.102329440      -0.759648430
                        -----------------------------------------
Magnitude (a.u.)       :      2.141539174
Magnitude (Debye)      :      5.443359990

Rotational constants in cm-1:             0.011580             0.007728             0.005429
Rotational constants in MHz :           347.148637           231.693930           162.746683

                             ****ORCA TERMINATED NORMALLY****
TOTAL RUN TIME: 0 days 0 hours 0 minutes 37 seconds 428 msec
