                         Program Version 6.0.0  -   RELEASE  -
|  1> ! pbe def2-sv(p) def2/J RI DEFGRID1 loosescf d4 GCP(DFT/SV(P)) printgap
|  2> %output
|  3>     printlevel normal
|  4> end
|  5> * xyz 0 1
|  6> C 1.6485689364 -1.4832580734 -2.3723574051
|  7> C 2.9392128331 -0.7747480558 -2.0141963942
|  8> O 2.7539867599 0.1846136761 -0.9461231959
|  9> P 2.649024724 -0.1174541813 0.5973944889
| 10> S 2.9431488608 1.5554834422 1.5741279318
| 11> O 3.6922949356 -1.3016968946 0.7653914418
| 12> C 3.7621010263 -2.1938131358 1.8945108886
| 13> C 3.9134493413 -1.4612586425 3.2107505383
| 14> S 0.7762829083 -1.0497789163 1.0353552924
| 15> C -0.1771959645 0.4766389635 1.1273964185
| 16> S -0.5522323113 1.1648782718 -0.5163451042
| 17> P -2.5575117532 0.4420602254 -0.6487390718
| 18> S -3.4382865021 0.8126225169 -2.3560550892
| 19> O -3.2834672401 0.972161805 0.6584205095
| 20> C -4.0415100567 2.1936666492 0.6492052693
| 21> C -3.1473792224 3.4149768376 0.5618072625
| 22> O -2.4569639239 -1.0663115161 -0.1728312005
| 23> C -2.0096769489 -2.10366146 -1.0700744737
| 24> C -3.1971055017 -2.8589994003 -1.6327175585
| 25> H 1.3307488331 -2.1371116499 -1.5634869528
| 26> H 0.8678563116 -0.750922458 -2.5689127321
| 27> H 1.8079916703 -2.0783470873 -3.2660852193
| 28> H 3.29614041 -0.1597832179 -2.8419264024
| 29> H 3.7130304665 -1.4841191105 -1.7166104933
| 30> H 2.8603390831 -2.811930494 1.8969546986
| 31> H 4.6363070507 -2.8106551659 1.6787674645
| 32> H 3.0258587363 -0.8639089263 3.413745178
| 33> H 4.0463473634 -2.1818059368 4.0112426202
| 34> H 4.7728132455 -0.7956470733 3.1785342951
| 35> H 0.4158691486 1.2229446434 1.6595928878
| 36> H -1.1061430526 0.2542803983 1.6471062209
| 37> H -4.7367776798 2.1668222765 -0.1959888227
| 38> H -4.5972751912 2.1667953462 1.5875773844
| 39> H -3.7546982198 4.3111326357 0.6388511332
| 40> H -2.4129610993 3.4102693576 1.3636739777
| 41> H -2.6243687268 3.4255755874 -0.3943958393
| 42> H -1.4178529349 -1.6598866658 -1.8766689793
| 43> H -1.3738496839 -2.7483605046 -0.4594800148
| 44> H -3.8111406039 -2.1924612205 -2.2348484256
| 45> H -2.8417012672 -3.6738440297 -2.2548965843
| 46> H -3.8018653163 -3.2577728158 -0.8235681593
| 47> *
| 48>
| 49>                          ****END OF INPUT****

CARTESIAN COORDINATES (ANGSTROEM)
---------------------------------
  C      1.648569   -1.483258   -2.372357
  C      2.939213   -0.774748   -2.014196
  O      2.753987    0.184614   -0.946123
  P      2.649025   -0.117454    0.597394
  S      2.943149    1.555483    1.574128
  O      3.692295   -1.301697    0.765391
  C      3.762101   -2.193813    1.894511
  C      3.913449   -1.461259    3.210751
  S      0.776283   -1.049779    1.035355
  C     -0.177196    0.476639    1.127396
  S     -0.552232    1.164878   -0.516345
  P     -2.557512    0.442060   -0.648739
  S     -3.438287    0.812623   -2.356055
  O     -3.283467    0.972162    0.658421
  C     -4.041510    2.193667    0.649205
  C     -3.147379    3.414977    0.561807
  O     -2.456964   -1.066312   -0.172831
  C     -2.009677   -2.103661   -1.070074
  C     -3.197106   -2.858999   -1.632718
  H      1.330749   -2.137112   -1.563487
  H      0.867856   -0.750922   -2.568913
  H      1.807992   -2.078347   -3.266085
  H      3.296140   -0.159783   -2.841926
  H      3.713030   -1.484119   -1.716610
  H      2.860339   -2.811930    1.896955
  H      4.636307   -2.810655    1.678767
  H      3.025859   -0.863909    3.413745
  H      4.046347   -2.181806    4.011243
  H      4.772813   -0.795647    3.178534
  H      0.415869    1.222945    1.659593
  H     -1.106143    0.254280    1.647106
  H     -4.736778    2.166822   -0.195989
  H     -4.597275    2.166795    1.587577
  H     -3.754698    4.311133    0.638851
  H     -2.412961    3.410269    1.363674
  H     -2.624369    3.425576   -0.394396
  H     -1.417853   -1.659887   -1.876669
  H     -1.373850   -2.748361   -0.459480
  H     -3.811141   -2.192461   -2.234848
  H     -2.841701   -3.673844   -2.254897
  H     -3.801865   -3.257773   -0.823568

 Total Charge           Charge          ....    0
 Multiplicity           Mult            ....    1
 Number of Electrons    NEL             ....  202
 Basis Dimension        Dim             ....  334

ORBITAL ENERGIES
----------------

  NO   OCC          E(Eh)            E(eV)
   0   2.0000     -88.048955     -2395.9339
   1   2.0000     -88.042451     -2395.7569
   2   2.0000     -87.990881     -2394.3536
   3   2.0000     -87.985107     -2394.1965
   4   2.0000     -76.431360     -2079.8030
   5   2.0000     -76.428481     -2079.7247
   6   2.0000     -18.803679      -511.6741
   7   2.0000     -18.794077      -511.4128
   8   2.0000     -18.793612      -511.4002
   9   2.0000     -18.793113      -511.3866
  10   2.0000      -9.966082      -271.1909
  11   2.0000      -9.957515      -270.9578
  12   2.0000      -9.955697      -270.9083
  13   2.0000      -9.954992      -270.8891
  14   2.0000      -9.953529      -270.8493
  15   2.0000      -9.888114      -269.0692
  16   2.0000      -9.888016      -269.0666
  17   2.0000      -9.883495      -268.9436
  18   2.0000      -9.882857      -268.9262
  19   2.0000      -7.693607      -209.3537
  20   2.0000      -7.687081      -209.1761
  21   2.0000      -7.636013      -207.7865
  22   2.0000      -7.630412      -207.6341
  23   2.0000      -6.428507      -174.9286
  24   2.0000      -6.425967      -174.8595
  25   2.0000      -5.721182      -155.6813
  26   2.0000      -5.718208      -155.6003
  27   2.0000      -5.715115      -155.5162
  28   2.0000      -5.711472      -155.4170
  29   2.0000      -5.710875      -155.4008
  30   2.0000      -5.704119      -155.2170
  31   2.0000      -5.664965      -154.1515
  32   2.0000      -5.659524      -154.0035
  33   2.0000      -5.656667      -153.9257
  34   2.0000      -5.656131      -153.9112
  35   2.0000      -5.651025      -153.7722
  36   2.0000      -5.650347      -153.7538
  37   2.0000      -4.651568      -126.5756
  38   2.0000      -4.650364      -126.5428
  39   2.0000      -4.648469      -126.4913
  40   2.0000      -4.648301      -126.4867
  41   2.0000      -4.648201      -126.4840
  42   2.0000      -4.646214      -126.4299
  43   2.0000      -0.994486       -27.0613
  44   2.0000      -0.992263       -27.0009
  45   2.0000      -0.949478       -25.8366
  46   2.0000      -0.948362       -25.8062
  47   2.0000      -0.765527       -20.8311
  48   2.0000      -0.724818       -19.7233
  49   2.0000      -0.714557       -19.4441
  50   2.0000      -0.695919       -18.9369
  51   2.0000      -0.684245       -18.6193
  52   2.0000      -0.679926       -18.5017
  53   2.0000      -0.657033       -17.8788
  54   2.0000      -0.639792       -17.4096
  55   2.0000      -0.598419       -16.2838
  56   2.0000      -0.595246       -16.1975
  57   2.0000      -0.585489       -15.9320
  58   2.0000      -0.568235       -15.4625
  59   2.0000      -0.563306       -15.3283
  60   2.0000      -0.507524       -13.8104
  61   2.0000      -0.501516       -13.6469
  62   2.0000      -0.477009       -12.9801
  63   2.0000      -0.473928       -12.8962
  64   2.0000      -0.462168       -12.5762
  65   2.0000      -0.449518       -12.2320
  66   2.0000      -0.447049       -12.1648
  67   2.0000      -0.440568       -11.9885
  68   2.0000      -0.425944       -11.5905
  69   2.0000      -0.425249       -11.5716
  70   2.0000      -0.415697       -11.3117
  71   2.0000      -0.407998       -11.1022
  72   2.0000      -0.395638       -10.7659
  73   2.0000      -0.390589       -10.6285
  74   2.0000      -0.389139       -10.5890
  75   2.0000      -0.369879       -10.0649
  76   2.0000      -0.362065        -9.8523
  77   2.0000      -0.358923        -9.7668
  78   2.0000      -0.358085        -9.7440
  79   2.0000      -0.354469        -9.6456
  80   2.0000      -0.348378        -9.4798
  81   2.0000      -0.346493        -9.4285
  82   2.0000      -0.345067        -9.3897
  83   2.0000      -0.337460        -9.1827
  84   2.0000      -0.334098        -9.0913
  85   2.0000      -0.328137        -8.9291
  86   2.0000      -0.323103        -8.7921
  87   2.0000      -0.304082        -8.2745
  88   2.0000      -0.301166        -8.1951
  89   2.0000      -0.295113        -8.0304
  90   2.0000      -0.292207        -7.9514
  91   2.0000      -0.281473        -7.6593
  92   2.0000      -0.271935        -7.3997
  93   2.0000      -0.267222        -7.2715
  94   2.0000      -0.259341        -7.0570
  95   2.0000      -0.238563        -6.4916
  96   2.0000      -0.223156        -6.0724
  97   2.0000      -0.208531        -5.6744
  98   2.0000      -0.206659        -5.6235
  99   2.0000      -0.204737        -5.5712
 100   2.0000      -0.197515        -5.3747
 101   0.0000      -0.044970        -1.2237
 102   0.0000      -0.031554        -0.8586
 103   0.0000      -0.017544        -0.4774
 104   0.0000       0.001799         0.0490
 105   0.0000       0.005613         0.1527

MULLIKEN ATOMIC CHARGES
-----------------------
   0 C :   -0.339950
   1 C :    0.002915
   2 O :   -0.350170
   3 P :    0.614893
   4 S :   -0.307259
   5 O :   -0.384489
   6 C :   -0.013192
   7 C :   -0.308338
   8 S :   -0.119176
   9 C :   -0.365950
  10 S :   -0.055512
  11 P :    0.559695
  12 S :   -0.314087
  13 O :   -0.364177
  14 C :   -0.005198
  15 C :   -0.312198
  16 O :   -0.364886
  17 C :   -0.033221
  18 C :   -0.278348
  19 H :    0.121130
  20 H :    0.146426
  21 H :    0.110648
  22 H :    0.112541
  23 H :    0.108037
  24 H :    0.113779
  25 H :    0.110979
  26 H :    0.127173
  27 H :    0.112945
  28 H :    0.128658
  29 H :    0.196885
  30 H :    0.195610
  31 H :    0.113989
  32 H :    0.107319
  33 H :    0.113466
  34 H :    0.116573
  35 H :    0.129445
  36 H :    0.116664
  37 H :    0.110884
  38 H :    0.125395
  39 H :    0.106218
  40 H :    0.113883
Sum of atomic charges:   -0.0000000

LOEWDIN ATOMIC CHARGES
----------------------
   0 C :   -0.372338
   1 C :   -0.108710
   2 O :   -0.232283
   3 P :    0.569467
   4 S :   -0.302544
   5 O :   -0.243921
   6 C :   -0.114012
   7 C :   -0.368584
   8 S :    0.071531
   9 C :   -0.487729
  10 S :    0.087909
  11 P :    0.564870
  12 S :   -0.317598
  13 O :   -0.238404
  14 C :   -0.118810
  15 C :   -0.366797
  16 O :   -0.240822
  17 C :   -0.120679
  18 C :   -0.359280
  19 H :    0.114613
  20 H :    0.127387
  21 H :    0.129666
  22 H :    0.123909
  23 H :    0.112050
  24 H :    0.107989
  25 H :    0.121937
  26 H :    0.122305
  27 H :    0.131057
  28 H :    0.131771
  29 H :    0.126723
  30 H :    0.135415
  31 H :    0.111348
  32 H :    0.119394
  33 H :    0.131216
  34 H :    0.125078
  35 H :    0.123028
  36 H :    0.110516
  37 H :    0.112792
  38 H :    0.126147
  39 H :    0.128284
  40 H :    0.126109

  Mayer bond orders larger than 0.100000
B(  0-C ,  1-C ) :   1.1674 B(  0-C , 19-H ) :   0.9383 B(  0-C , 20-H ) :   0.9306
B(  0-C , 21-H ) :   0.9358 B(  1-C ,  2-O ) :   0.9004 B(  1-C , 22-H ) :   0.9339
B(  1-C , 23-H ) :   0.9247 B(  2-O ,  3-P ) :   1.1451 B(  3-P ,  4-S ) :   1.6459
B(  3-P ,  5-O ) :   1.0862 B(  3-P ,  8-S ) :   0.9270 B(  4-S ,  8-S ) :   0.1126
B(  4-S , 29-H ) :   0.1058 B(  5-O ,  6-C ) :   0.9087 B(  6-C ,  7-C ) :   1.1673
B(  6-C , 24-H ) :   0.9260 B(  6-C , 25-H ) :   0.9330 B(  7-C , 26-H ) :   0.9314
B(  7-C , 27-H ) :   0.9348 B(  7-C , 28-H ) :   0.9433 B(  8-S ,  9-C ) :   1.0081
B(  9-C , 10-S ) :   0.9749 B(  9-C , 29-H ) :   0.8558 B(  9-C , 30-H ) :   0.8861
B( 10-S , 11-P ) :   0.9853 B( 11-P , 12-S ) :   1.6404 B( 11-P , 13-O ) :   1.0946
B( 11-P , 16-O ) :   1.0993 B( 13-O , 14-C ) :   0.9081 B( 14-C , 15-C ) :   1.1631
B( 14-C , 31-H ) :   0.9148 B( 14-C , 32-H ) :   0.9341 B( 15-C , 33-H ) :   0.9386
B( 15-C , 34-H ) :   0.9466 B( 15-C , 35-H ) :   0.9366 B( 16-O , 17-C ) :   0.9015
B( 17-C , 18-C ) :   1.1629 B( 17-C , 36-H ) :   0.9054 B( 17-C , 37-H ) :   0.9285
B( 18-C , 38-H ) :   0.9356 B( 18-C , 39-H ) :   0.9403 B( 18-C , 40-H ) :   0.9472

Dispersion correction           -0.064365610
FINAL SINGLE POINT ENERGY     -2929.517431911526

DIPOLE MOMENT
-------------

Method             : SCF
Type of density    : Electron Density
Multiplicity       :   1
Irrep              :   0
Energy             : -2929.6384016458341648 Eh
Relativity type    :
Basis              : AO
                                X                 Y                 Z
Electronic contribution:      1.915883830      10.634674157      -0.471806392
Nuclear contribution   :     -1.663360160     -12.246545329       0.882821565
                        -----------------------------------------
Total Dipole Moment    :      0.252523670      -1.611871172       0.411015173
                        -----------------------------------------
Magnitude (a.u.)       :      1.682507162
Magnitude (Debye)      :      4.276593340

Rotational constants in cm-1:             0.012483             0.004576             0.004117
Rotational constants in MHz :           374.242541           137.186162           123.417168

                             ****ORCA TERMINATED NORMALLY****
TOTAL RUN TIME: 0 days 0 hours 0 minutes 21 seconds 50 msec
