                         Program Version 6.0.0  -   RELEASE  -
|  1> ! r2scan-3c def2/J RI DEFGRID2 scfconv6 printgap
|  2> %output
|  3>     printlevel normal
|  4> end
|  5> * xyz 0 1
|  6> C 4.906430676 -2.7408485089 -1.653701542
|  7> C 3.997920999 -1.5293619817 -1.7077155347
|  8> O 3.1008508045 -1.5979097978 -0.5800263658
|  9> P 2.2952703503 -0.3250950593 -0.0841236429
| 10> S 3.3649516955 1.3022519483 0.1770967797
| 11> O 1.5478649691 -0.8904231604 1.1892434142
| 12> C 2.0665471883 -0.7068628858 2.5230181181
| 13> C 3.312003529 -1.5371680615 2.7482403729
| 14> S 0.7115307544 -0.1763013901 -1.4775833009
| 15> C 0.2034489311 1.4985954322 -1.0111068751
| 16> S -0.5949441535 1.5628260524 0.6144435337
| 17> P -2.483641673 0.7934313917 0.0387085516
| 18> S -2.9281815959 1.0102057586 -1.8636304492
| 19> O -3.3145878121 1.5915424816 1.1205604383
| 20> C -4.6156441692 1.1894216998 1.6038162709
| 21> C -5.6599394501 1.1864082464 0.5063837797
| 22> O -2.6221583911 -0.7014422869 0.5709118301
| 23> C -2.3875685245 -1.8809688709 -0.2226325088
| 24> C -1.3149940717 -2.7329318533 0.4253597974
| 25> H 5.5007977657 -2.7246460586 -0.7446793431
| 26> H 4.3116183627 -3.6492158318 -1.6701168481
| 27> H 5.5678681744 -2.7276200741 -2.5137118639
| 28> H 3.3971956158 -1.5200966333 -2.621152525
| 29> H 4.5671893423 -0.5957705243 -1.6445218815
| 30> H 2.2733536292 0.3577990415 2.6715812111
| 31> H 1.2446055358 -1.0160370242 3.1696041962
| 32> H 3.6286346368 -1.4414388331 3.782058091
| 33> H 3.1134070288 -2.5814356527 2.5226908152
| 34> H 4.1110190919 -1.1819004318 2.0983676045
| 35> H -0.4960159793 1.8390865576 -1.775358513
| 36> H 1.0832216227 2.1399956434 -0.9578902146
| 37> H -4.5239691229 0.2018838052 2.0611446691
| 38> H -4.8414685852 1.9341358848 2.3688799373
| 39> H -6.6305785883 0.9510123103 0.9315066839
| 40> H -5.7043037072 2.1603475056 0.0246371555
| 41> H -5.4109413336 0.4417380298 -0.248661551
| 42> H -3.3414123235 -2.4127908069 -0.254843436
| 43> H -2.1095310428 -1.5845521546 -1.2392046991
| 44> H -0.3674889156 -2.20089565 0.4558491194
| 45> H -1.6065410171 -2.9878043252 1.4403814749
| 46> H -1.1894056772 -3.6422495381 -0.153130141
| 47> *
| 48>
| 49>                          ****END OF INPUT****

CARTESIAN COORDINATES (ANGSTROEM)
---------------------------------
  C      4.906431   -2.740849   -1.653702
  C      3.997921   -1.529362   -1.707716
  O      3.100851   -1.597910   -0.580026
  P      2.295270   -0.325095   -0.084124
  S      3.364952    1.302252    0.177097
  O      1.547865   -0.890423    1.189243
  C      2.066547   -0.706863    2.523018
  C      3.312004   -1.537168    2.748240
  S      0.711531   -0.176301   -1.477583
  C      0.203449    1.498595   -1.011107
  S     -0.594944    1.562826    0.614444
  P     -2.483642    0.793431    0.038709
  S     -2.928182    1.010206   -1.863630
  O     -3.314588    1.591542    1.120560
  C     -4.615644    1.189422    1.603816
  C     -5.659939    1.186408    0.506384
  O     -2.622158   -0.701442    0.570912
  C     -2.387569   -1.880969   -0.222633
  C     -1.314994   -2.732932    0.425360
  H      5.500798   -2.724646   -0.744679
  H      4.311618   -3.649216   -1.670117
  H      5.567868   -2.727620   -2.513712
  H      3.397196   -1.520097   -2.621153
  H      4.567189   -0.595771   -1.644522
  H      2.273354    0.357799    2.671581
  H      1.244606   -1.016037    3.169604
  H      3.628635   -1.441439    3.782058
  H      3.113407   -2.581436    2.522691
  H      4.111019   -1.181900    2.098368
  H     -0.496016    1.839087   -1.775359
  H      1.083222    2.139996   -0.957890
  H     -4.523969    0.201884    2.061145
  H     -4.841469    1.934136    2.368880
  H     -6.630579    0.951012    0.931507
  H     -5.704304    2.160348    0.024637
  H     -5.410941    0.441738   -0.248662
  H     -3.341412   -2.412791   -0.254843
  H     -2.109531   -1.584552   -1.239205
  H     -0.367489   -2.200896    0.455849
  H     -1.606541   -2.987804    1.440381
  H     -1.189406   -3.642250   -0.153130

 Total Charge           Charge          ....    0
 Multiplicity           Mult            ....    1
 Number of Electrons    NEL             ....  202
 Basis Dimension        Dim             ....  539

ORBITAL ENERGIES
----------------

  NO   OCC          E(Eh)            E(eV)
   0   2.0000     -88.576027     -2410.2762
   1   2.0000     -88.571463     -2410.1520
   2   2.0000     -88.523246     -2408.8400
   3   2.0000     -88.519349     -2408.7340
   4   2.0000     -76.915758     -2092.9842
   5   2.0000     -76.913765     -2092.9300
   6   2.0000     -18.996662      -516.9254
   7   2.0000     -18.993487      -516.8391
   8   2.0000     -18.991456      -516.7838
   9   2.0000     -18.990397      -516.7550
  10   2.0000     -10.102257      -274.8964
  11   2.0000     -10.102104      -274.8922
  12   2.0000     -10.099458      -274.8202
  13   2.0000     -10.099076      -274.8098
  14   2.0000     -10.094602      -274.6881
  15   2.0000     -10.036390      -273.1041
  16   2.0000     -10.030537      -272.9448
  17   2.0000     -10.028902      -272.9003
  18   2.0000     -10.022835      -272.7352
  19   2.0000      -7.870321      -214.1623
  20   2.0000      -7.865533      -214.0320
  21   2.0000      -7.817972      -212.7378
  22   2.0000      -7.814192      -212.6350
  23   2.0000      -6.594546      -179.4467
  24   2.0000      -6.591886      -179.3743
  25   2.0000      -5.817087      -158.2910
  26   2.0000      -5.814169      -158.2116
  27   2.0000      -5.812459      -158.1651
  28   2.0000      -5.809390      -158.0815
  29   2.0000      -5.807577      -158.0322
  30   2.0000      -5.802647      -157.8981
  31   2.0000      -5.765524      -156.8879
  32   2.0000      -5.761806      -156.7867
  33   2.0000      -5.758264      -156.6903
  34   2.0000      -5.758061      -156.6848
  35   2.0000      -5.754590      -156.5904
  36   2.0000      -5.754102      -156.5771
  37   2.0000      -4.739912      -128.9796
  38   2.0000      -4.739499      -128.9683
  39   2.0000      -4.738317      -128.9362
  40   2.0000      -4.737646      -128.9179
  41   2.0000      -4.736634      -128.8904
  42   2.0000      -4.735595      -128.8621
  43   2.0000      -1.054141       -28.6846
  44   2.0000      -1.049771       -28.5657
  45   2.0000      -1.015357       -27.6293
  46   2.0000      -1.007876       -27.4257
  47   2.0000      -0.800314       -21.7776
  48   2.0000      -0.761704       -20.7270
  49   2.0000      -0.750243       -20.4152
  50   2.0000      -0.735403       -20.0113
  51   2.0000      -0.731655       -19.9093
  52   2.0000      -0.709148       -19.2969
  53   2.0000      -0.684729       -18.6324
  54   2.0000      -0.667776       -18.1711
  55   2.0000      -0.633378       -17.2351
  56   2.0000      -0.624592       -16.9960
  57   2.0000      -0.606025       -16.4908
  58   2.0000      -0.602628       -16.3984
  59   2.0000      -0.589104       -16.0303
  60   2.0000      -0.532123       -14.4798
  61   2.0000      -0.523703       -14.2507
  62   2.0000      -0.500204       -13.6113
  63   2.0000      -0.492964       -13.4142
  64   2.0000      -0.478628       -13.0241
  65   2.0000      -0.467200       -12.7131
  66   2.0000      -0.456919       -12.4334
  67   2.0000      -0.450013       -12.2455
  68   2.0000      -0.443121       -12.0579
  69   2.0000      -0.433373       -11.7927
  70   2.0000      -0.429066       -11.6755
  71   2.0000      -0.416271       -11.3273
  72   2.0000      -0.406679       -11.0663
  73   2.0000      -0.399805       -10.8792
  74   2.0000      -0.397963       -10.8291
  75   2.0000      -0.390030       -10.6133
  76   2.0000      -0.382124       -10.3981
  77   2.0000      -0.375931       -10.2296
  78   2.0000      -0.367416        -9.9979
  79   2.0000      -0.365378        -9.9424
  80   2.0000      -0.363988        -9.9046
  81   2.0000      -0.362137        -9.8543
  82   2.0000      -0.357421        -9.7259
  83   2.0000      -0.353336        -9.6147
  84   2.0000      -0.346529        -9.4295
  85   2.0000      -0.337742        -9.1904
  86   2.0000      -0.324581        -8.8323
  87   2.0000      -0.318601        -8.6696
  88   2.0000      -0.308230        -8.3874
  89   2.0000      -0.306832        -8.3493
  90   2.0000      -0.302949        -8.2437
  91   2.0000      -0.293121        -7.9762
  92   2.0000      -0.289918        -7.8891
  93   2.0000      -0.281064        -7.6481
  94   2.0000      -0.271436        -7.3861
  95   2.0000      -0.246718        -6.7135
  96   2.0000      -0.230355        -6.2683
  97   2.0000      -0.227712        -6.1963
  98   2.0000      -0.217821        -5.9272
  99   2.0000      -0.215198        -5.8558
 100   2.0000      -0.211773        -5.7626
 101   0.0000      -0.045914        -1.2494
 102   0.0000      -0.025193        -0.6855
 103   0.0000      -0.003115        -0.0848
 104   0.0000       0.000928         0.0253
 105   0.0000       0.016086         0.4377

MULLIKEN ATOMIC CHARGES
-----------------------
   0 C :   -0.438580
   1 C :   -0.157443
   2 O :   -0.285853
   3 P :    0.688434
   4 S :   -0.484669
   5 O :   -0.270847
   6 C :   -0.147373
   7 C :   -0.442825
   8 S :   -0.155813
   9 C :   -0.226272
  10 S :   -0.110821
  11 P :    0.676942
  12 S :   -0.466185
  13 O :   -0.308392
  14 C :   -0.146344
  15 C :   -0.438032
  16 O :   -0.287400
  17 C :   -0.116927
  18 C :   -0.463174
  19 H :    0.155016
  20 H :    0.153911
  21 H :    0.148247
  22 H :    0.153612
  23 H :    0.171181
  24 H :    0.174305
  25 H :    0.153783
  26 H :    0.148002
  27 H :    0.155611
  28 H :    0.168051
  29 H :    0.215594
  30 H :    0.217029
  31 H :    0.158438
  32 H :    0.149580
  33 H :    0.145983
  34 H :    0.163591
  35 H :    0.165418
  36 H :    0.145507
  37 H :    0.168964
  38 H :    0.180686
  39 H :    0.145406
  40 H :    0.143659
Sum of atomic charges:    0.0000000

LOEWDIN ATOMIC CHARGES
----------------------
   0 C :   -0.385197
   1 C :    0.020778
   2 O :   -0.663901
   3 P :    0.372180
   4 S :   -0.133468
   5 O :   -0.681605
   6 C :    0.020669
   7 C :   -0.399049
   8 S :    0.155596
   9 C :   -0.425454
  10 S :    0.185157
  11 P :    0.388214
  12 S :   -0.132040
  13 O :   -0.663148
  14 C :    0.031912
  15 C :   -0.401499
  16 O :   -0.668766
  17 C :    0.017334
  18 C :   -0.399641
  19 H :    0.160237
  20 H :    0.160159
  21 H :    0.160680
  22 H :    0.172730
  23 H :    0.180943
  24 H :    0.182016
  25 H :    0.181035
  26 H :    0.159990
  27 H :    0.160422
  28 H :    0.165287
  29 H :    0.194046
  30 H :    0.192364
  31 H :    0.175451
  32 H :    0.181560
  33 H :    0.157957
  34 H :    0.164916
  35 H :    0.165061
  36 H :    0.172831
  37 H :    0.182014
  38 H :    0.176695
  39 H :    0.156494
  40 H :    0.159040

  Mayer bond orders larger than 0.100000
B(  0-C ,  1-C ) :   0.9565 B(  0-C , 19-H ) :   0.9711 B(  0-C , 20-H ) :   0.9715
B(  0-C , 21-H ) :   0.9642 B(  1-C ,  2-O ) :   0.7784 B(  1-C , 22-H ) :   0.9454
B(  1-C , 23-H ) :   0.9512 B(  2-O ,  3-P ) :   1.0927 B(  3-P ,  4-S ) :   1.7510
B(  3-P ,  5-O ) :   1.1478 B(  3-P ,  8-S ) :   1.0605 B(  5-O ,  6-C ) :   0.7836
B(  6-C ,  7-C ) :   0.9241 B(  6-C , 24-H ) :   0.9617 B(  6-C , 25-H ) :   0.9618
B(  7-C , 26-H ) :   0.9625 B(  7-C , 27-H ) :   0.9720 B(  7-C , 28-H ) :   0.9595
B(  8-S ,  9-C ) :   0.8993 B(  9-C , 10-S ) :   0.9128 B(  9-C , 29-H ) :   0.8998
B(  9-C , 30-H ) :   0.9032 B( 10-S , 11-P ) :   1.0877 B( 11-P , 12-S ) :   1.7689
B( 11-P , 13-O ) :   1.1684 B( 11-P , 16-O ) :   1.0424 B( 13-O , 14-C ) :   0.7934
B( 14-C , 15-C ) :   0.9428 B( 14-C , 31-H ) :   0.9698 B( 14-C , 32-H ) :   0.9582
B( 15-C , 33-H ) :   0.9636 B( 15-C , 34-H ) :   0.9671 B( 15-C , 35-H ) :   0.9543
B( 16-O , 17-C ) :   0.7443 B( 17-C , 18-C ) :   0.9501 B( 17-C , 36-H ) :   0.9606
B( 17-C , 37-H ) :   0.9544 B( 18-C , 38-H ) :   0.9536 B( 18-C , 39-H ) :   0.9719
B( 18-C , 40-H ) :   0.9693

Dispersion correction           -0.021043445
FINAL SINGLE POINT ENERGY     -2932.464580077718

DIPOLE MOMENT
-------------

Method             : SCF
Type of density    : Electron Density
Multiplicity       :   1
Irrep              :   0
Energy             : -2932.4901451202349563 Eh
Relativity type    :
Basis              : AO
                                X                 Y                 Z
Electronic contribution:     -2.605450304      17.992628429      -6.579263676
Nuclear contribution   :      2.551124110     -19.538230300       7.375599013
                        -----------------------------------------
Total Dipole Moment    :     -0.054326194      -1.545601870       0.796335337
                        -----------------------------------------
Magnitude (a.u.)       :      1.739536273
Magnitude (Debye)      :      4.421549820

Rotational constants in cm-1:             0.014371             0.004256             0.004208
Rotational constants in MHz :           430.833829           127.583496           126.155079

                             ****ORCA TERMINATED NORMALLY****
TOTAL RUN TIME: 0 days 0 hours 1 minutes 18 seconds 655 msec
