                         Program Version 6.0.0  -   RELEASE  -
|  1> ! r2scan-3c def2/J RI DEFGRID2 scfconv6 printgap
|  2> %output
|  3>     printlevel normal
|  4> end
|  5> %cpcm
|  6>     smd true
|  7>     smdsolvent "water"
|  8> end
|  9> * xyz 0 1
| 10> C 4.906430676 -2.7408485089 -1.653701542
| 11> C 3.997920999 -1.5293619817 -1.7077155347
| 12> O 3.1008508045 -1.5979097978 -0.5800263658
| 13> P 2.2952703503 -0.3250950593 -0.0841236429
| 14> S 3.3649516955 1.3022519483 0.1770967797
| 15> O 1.5478649691 -0.8904231604 1.1892434142
| 16> C 2.0665471883 -0.7068628858 2.5230181181
| 17> C 3.312003529 -1.5371680615 2.7482403729
| 18> S 0.7115307544 -0.1763013901 -1.4775833009
| 19> C 0.2034489311 1.4985954322 -1.0111068751
| 20> S -0.5949441535 1.5628260524 0.6144435337
| 21> P -2.483641673 0.7934313917 0.0387085516
| 22> S -2.9281815959 1.0102057586 -1.8636304492
| 23> O -3.3145878121 1.5915424816 1.1205604383
| 24> C -4.6156441692 1.1894216998 1.6038162709
| 25> C -5.6599394501 1.1864082464 0.5063837797
| 26> O -2.6221583911 -0.7014422869 0.5709118301
| 27> C -2.3875685245 -1.8809688709 -0.2226325088
| 28> C -1.3149940717 -2.7329318533 0.4253597974
| 29> H 5.5007977657 -2.7246460586 -0.7446793431
| 30> H 4.3116183627 -3.6492158318 -1.6701168481
| 31> H 5.5678681744 -2.7276200741 -2.5137118639
| 32> H 3.3971956158 -1.5200966333 -2.621152525
| 33> H 4.5671893423 -0.5957705243 -1.6445218815
| 34> H 2.2733536292 0.3577990415 2.6715812111
| 35> H 1.2446055358 -1.0160370242 3.1696041962
| 36> H 3.6286346368 -1.4414388331 3.782058091
| 37> H 3.1134070288 -2.5814356527 2.5226908152
| 38> H 4.1110190919 -1.1819004318 2.0983676045
| 39> H -0.4960159793 1.8390865576 -1.775358513
| 40> H 1.0832216227 2.1399956434 -0.9578902146
| 41> H -4.5239691229 0.2018838052 2.0611446691
| 42> H -4.8414685852 1.9341358848 2.3688799373
| 43> H -6.6305785883 0.9510123103 0.9315066839
| 44> H -5.7043037072 2.1603475056 0.0246371555
| 45> H -5.4109413336 0.4417380298 -0.248661551
| 46> H -3.3414123235 -2.4127908069 -0.254843436
| 47> H -2.1095310428 -1.5845521546 -1.2392046991
| 48> H -0.3674889156 -2.20089565 0.4558491194
| 49> H -1.6065410171 -2.9878043252 1.4403814749
| 50> H -1.1894056772 -3.6422495381 -0.153130141
| 51> *
| 52>
| 53>                          ****END OF INPUT****

CARTESIAN COORDINATES (ANGSTROEM)
---------------------------------
  C      4.906431   -2.740849   -1.653702
  C      3.997921   -1.529362   -1.707716
  O      3.100851   -1.597910   -0.580026
  P      2.295270   -0.325095   -0.084124
  S      3.364952    1.302252    0.177097
  O      1.547865   -0.890423    1.189243
  C      2.066547   -0.706863    2.523018
  C      3.312004   -1.537168    2.748240
  S      0.711531   -0.176301   -1.477583
  C      0.203449    1.498595   -1.011107
  S     -0.594944    1.562826    0.614444
  P     -2.483642    0.793431    0.038709
  S     -2.928182    1.010206   -1.863630
  O     -3.314588    1.591542    1.120560
  C     -4.615644    1.189422    1.603816
  C     -5.659939    1.186408    0.506384
  O     -2.622158   -0.701442    0.570912
  C     -2.387569   -1.880969   -0.222633
  C     -1.314994   -2.732932    0.425360
  H      5.500798   -2.724646   -0.744679
  H      4.311618   -3.649216   -1.670117
  H      5.567868   -2.727620   -2.513712
  H      3.397196   -1.520097   -2.621153
  H      4.567189   -0.595771   -1.644522
  H      2.273354    0.357799    2.671581
  H      1.244606   -1.016037    3.169604
  H      3.628635   -1.441439    3.782058
  H      3.113407   -2.581436    2.522691
  H      4.111019   -1.181900    2.098368
  H     -0.496016    1.839087   -1.775359
  H      1.083222    2.139996   -0.957890
  H     -4.523969    0.201884    2.061145
  H     -4.841469    1.934136    2.368880
  H     -6.630579    0.951012    0.931507
  H     -5.704304    2.160348    0.024637
  H     -5.410941    0.441738   -0.248662
  H     -3.341412   -2.412791   -0.254843
  H     -2.109531   -1.584552   -1.239205
  H     -0.367489   -2.200896    0.455849
  H     -1.606541   -2.987804    1.440381
  H     -1.189406   -3.642250   -0.153130

 Total Charge           Charge          ....    0
 Multiplicity           Mult            ....    1
 Number of Electrons    NEL             ....  202
 Basis Dimension        Dim             ....  539

ORBITAL ENERGIES
----------------

  NO   OCC          E(Eh)            E(eV)
   0   2.0000     -88.580791     -2410.4059
   1   2.0000     -88.579828     -2410.3797
   2   2.0000     -88.530021     -2409.0244
   3   2.0000     -88.529250     -2409.0034
   4   2.0000     -76.921265     -2093.1340
   5   2.0000     -76.920224     -2093.1057
   6   2.0000     -18.997543      -516.9494
   7   2.0000     -18.995737      -516.9003
   8   2.0000     -18.995199      -516.8856
   9   2.0000     -18.994278      -516.8606
  10   2.0000     -10.103136      -274.9203
  11   2.0000     -10.091655      -274.6079
  12   2.0000     -10.091178      -274.5949
  13   2.0000     -10.090213      -274.5686
  14   2.0000     -10.088805      -274.5303
  15   2.0000     -10.019994      -272.6579
  16   2.0000     -10.019089      -272.6333
  17   2.0000     -10.018803      -272.6255
  18   2.0000     -10.015630      -272.5392
  19   2.0000      -7.875123      -214.2930
  20   2.0000      -7.873980      -214.2619
  21   2.0000      -7.825030      -212.9299
  22   2.0000      -7.824376      -212.9121
  23   2.0000      -6.599415      -179.5792
  24   2.0000      -6.599029      -179.5687
  25   2.0000      -5.821876      -158.4213
  26   2.0000      -5.820843      -158.3932
  27   2.0000      -5.818977      -158.3424
  28   2.0000      -5.817781      -158.3099
  29   2.0000      -5.812380      -158.1629
  30   2.0000      -5.811214      -158.1312
  31   2.0000      -5.772521      -157.0783
  32   2.0000      -5.771927      -157.0621
  33   2.0000      -5.765315      -156.8822
  34   2.0000      -5.765137      -156.8773
  35   2.0000      -5.764717      -156.8659
  36   2.0000      -5.764353      -156.8560
  37   2.0000      -4.745117      -129.1212
  38   2.0000      -4.744338      -129.1000
  39   2.0000      -4.744168      -129.0954
  40   2.0000      -4.743980      -129.0903
  41   2.0000      -4.743208      -129.0693
  42   2.0000      -4.742895      -129.0607
  43   2.0000      -1.055154       -28.7122
  44   2.0000      -1.053395       -28.6643
  45   2.0000      -1.015653       -27.6373
  46   2.0000      -1.010920       -27.5085
  47   2.0000      -0.805333       -21.9142
  48   2.0000      -0.759167       -20.6580
  49   2.0000      -0.744521       -20.2595
  50   2.0000      -0.725248       -19.7350
  51   2.0000      -0.724990       -19.7280
  52   2.0000      -0.709331       -19.3019
  53   2.0000      -0.688958       -18.7475
  54   2.0000      -0.675316       -18.3763
  55   2.0000      -0.631556       -17.1855
  56   2.0000      -0.621619       -16.9151
  57   2.0000      -0.601270       -16.3614
  58   2.0000      -0.593545       -16.1512
  59   2.0000      -0.589592       -16.0436
  60   2.0000      -0.528618       -14.3844
  61   2.0000      -0.521410       -14.1883
  62   2.0000      -0.497004       -13.5242
  63   2.0000      -0.489986       -13.3332
  64   2.0000      -0.478871       -13.0308
  65   2.0000      -0.463270       -12.6062
  66   2.0000      -0.450432       -12.2569
  67   2.0000      -0.446502       -12.1499
  68   2.0000      -0.439058       -11.9474
  69   2.0000      -0.433018       -11.7830
  70   2.0000      -0.428189       -11.6516
  71   2.0000      -0.411561       -11.1991
  72   2.0000      -0.404902       -11.0180
  73   2.0000      -0.399139       -10.8611
  74   2.0000      -0.397980       -10.8296
  75   2.0000      -0.385732       -10.4963
  76   2.0000      -0.382556       -10.4099
  77   2.0000      -0.364635        -9.9222
  78   2.0000      -0.362090        -9.8530
  79   2.0000      -0.360075        -9.7981
  80   2.0000      -0.357564        -9.7298
  81   2.0000      -0.353578        -9.6214
  82   2.0000      -0.351112        -9.5543
  83   2.0000      -0.347871        -9.4661
  84   2.0000      -0.342036        -9.3073
  85   2.0000      -0.333623        -9.0783
  86   2.0000      -0.322906        -8.7867
  87   2.0000      -0.314222        -8.5504
  88   2.0000      -0.306831        -8.3493
  89   2.0000      -0.303711        -8.2644
  90   2.0000      -0.300424        -8.1750
  91   2.0000      -0.291641        -7.9359
  92   2.0000      -0.289392        -7.8748
  93   2.0000      -0.280643        -7.6367
  94   2.0000      -0.274567        -7.4713
  95   2.0000      -0.251817        -6.8523
  96   2.0000      -0.239020        -6.5041
  97   2.0000      -0.235941        -6.4203
  98   2.0000      -0.226133        -6.1534
  99   2.0000      -0.224218        -6.1013
 100   2.0000      -0.221111        -6.0167
 101   0.0000      -0.053246        -1.4489
 102   0.0000      -0.032982        -0.8975
 103   0.0000      -0.009205        -0.2505
 104   0.0000      -0.004392        -0.1195
 105   0.0000       0.013693         0.3726

MULLIKEN ATOMIC CHARGES
-----------------------
   0 C :   -0.482032
   1 C :   -0.147055
   2 O :   -0.311192
   3 P :    0.718545
   4 S :   -0.531007
   5 O :   -0.292834
   6 C :   -0.141494
   7 C :   -0.483916
   8 S :   -0.158150
   9 C :   -0.238095
  10 S :   -0.134424
  11 P :    0.699060
  12 S :   -0.508781
  13 O :   -0.338444
  14 C :   -0.135537
  15 C :   -0.484826
  16 O :   -0.306604
  17 C :   -0.104615
  18 C :   -0.502742
  19 H :    0.166483
  20 H :    0.166400
  21 H :    0.170134
  22 H :    0.172141
  23 H :    0.172724
  24 H :    0.176917
  25 H :    0.179407
  26 H :    0.172884
  27 H :    0.170728
  28 H :    0.167852
  29 H :    0.230612
  30 H :    0.235250
  31 H :    0.175597
  32 H :    0.174396
  33 H :    0.172416
  34 H :    0.170892
  35 H :    0.166434
  36 H :    0.173437
  37 H :    0.165756
  38 H :    0.168747
  39 H :    0.165540
  40 H :    0.169396
Sum of atomic charges:   -0.0000000

LOEWDIN ATOMIC CHARGES
----------------------
   0 C :   -0.388667
   1 C :    0.025835
   2 O :   -0.674387
   3 P :    0.376972
   4 S :   -0.162872
   5 O :   -0.691996
   6 C :    0.024718
   7 C :   -0.401909
   8 S :    0.154721
   9 C :   -0.421829
  10 S :    0.169519
  11 P :    0.389355
  12 S :   -0.160881
  13 O :   -0.679604
  14 C :    0.038732
  15 C :   -0.404956
  16 O :   -0.673555
  17 C :    0.022345
  18 C :   -0.402993
  19 H :    0.162877
  20 H :    0.163614
  21 H :    0.169280
  22 H :    0.180216
  23 H :    0.181928
  24 H :    0.182619
  25 H :    0.191218
  26 H :    0.169268
  27 H :    0.164403
  28 H :    0.162905
  29 H :    0.198153
  30 H :    0.197289
  31 H :    0.183445
  32 H :    0.191970
  33 H :    0.168539
  34 H :    0.163714
  35 H :    0.162681
  36 H :    0.184493
  37 H :    0.181092
  38 H :    0.170596
  39 H :    0.162425
  40 H :    0.168723

  Mayer bond orders larger than 0.100000
B(  0-C ,  1-C ) :   0.9524 B(  0-C , 19-H ) :   0.9688 B(  0-C , 20-H ) :   0.9688
B(  0-C , 21-H ) :   0.9583 B(  1-C ,  2-O ) :   0.7712 B(  1-C , 22-H ) :   0.9365
B(  1-C , 23-H ) :   0.9479 B(  2-O ,  3-P ) :   1.1014 B(  3-P ,  4-S ) :   1.7119
B(  3-P ,  5-O ) :   1.1580 B(  3-P ,  8-S ) :   1.0723 B(  5-O ,  6-C ) :   0.7711
B(  6-C ,  7-C ) :   0.9148 B(  6-C , 24-H ) :   0.9573 B(  6-C , 25-H ) :   0.9517
B(  7-C , 26-H ) :   0.9564 B(  7-C , 27-H ) :   0.9708 B(  7-C , 28-H ) :   0.9588
B(  8-S ,  9-C ) :   0.8961 B(  9-C , 10-S ) :   0.9037 B(  9-C , 29-H ) :   0.8971
B(  9-C , 30-H ) :   0.8985 B( 10-S , 11-P ) :   1.0943 B( 11-P , 12-S ) :   1.7401
B( 11-P , 13-O ) :   1.1759 B( 11-P , 16-O ) :   1.0519 B( 13-O , 14-C ) :   0.7845
B( 14-C , 15-C ) :   0.9239 B( 14-C , 31-H ) :   0.9612 B( 14-C , 32-H ) :   0.9500
B( 15-C , 33-H ) :   0.9564 B( 15-C , 34-H ) :   0.9695 B( 15-C , 35-H ) :   0.9560
B( 16-O , 17-C ) :   0.7338 B( 17-C , 18-C ) :   0.9427 B( 17-C , 36-H ) :   0.9507
B( 17-C , 37-H ) :   0.9526 B( 18-C , 38-H ) :   0.9573 B( 18-C , 39-H ) :   0.9689
B( 18-C , 40-H ) :   0.9634

Dispersion correction           -0.021043445
FINAL SINGLE POINT ENERGY     -2932.472088663657

DIPOLE MOMENT
-------------

Method             : SCF
Type of density    : Electron Density
Multiplicity       :   1
Irrep              :   0
Energy             : -2932.4976537061738782 Eh
Relativity type    :
Basis              : AO
                                X                 Y                 Z
Electronic contribution:     -2.712351542      17.437588282      -6.381364538
Nuclear contribution   :      2.551124110     -19.538230300       7.375599013
                        -----------------------------------------
Total Dipole Moment    :     -0.161227433      -2.100642018       0.994234475
                        -----------------------------------------
Magnitude (a.u.)       :      2.329633741
Magnitude (Debye)      :      5.921458383

Rotational constants in cm-1:             0.014371             0.004256             0.004208
Rotational constants in MHz :           430.833829           127.583496           126.155079

                             ****ORCA TERMINATED NORMALLY****
TOTAL RUN TIME: 0 days 0 hours 1 minutes 45 seconds 911 msec
