                         Program Version 6.0.1  -  RELEASE   -
|  1> ! r2scan-3c def2/J RI DEFGRID2 scfconv6 printgap
|  2> %output
|  3>     printlevel normal
|  4> end
|  5> * xyz 0 1
|  6> C 2.8445854992 -3.2921460061 0.0100835002
|  7> C 3.3003247786 -1.8420516015 -0.0100248101
|  8> O 2.3060006535 -1.0033301222 -0.629679258
|  9> C 2.2962738717 -0.9169650118 -1.9493221009
| 10> O 3.1133862819 -1.4429713572 -2.6710893852
| 11> C 1.1487478451 -0.0768396306 -2.4704833822
| 12> C 0.2413081754 0.4528371402 -1.3709352339
| 13> H -0.5289873468 1.1051057836 -1.8020672764
| 14> C 1.0218752764 1.2929642627 -0.3756482406
| 15> O 1.9366636168 2.0128173149 -0.7029389683
| 16> O 0.5466589451 1.1819647043 0.8469141751
| 17> C 1.1560033221 1.9561951706 1.8988589666
| 18> C 2.3268041998 1.2056133238 2.5098138186
| 19> S -0.6384551767 -0.9076534865 -0.5317584681
| 20> P -2.0623984455 0.2639002955 0.5287579824
| 21> S -2.4276357614 2.0562947273 -0.1730777178
| 22> O -3.339577932 -0.7059235285 0.5370988832
| 23> C -4.0697825696 -0.9817953096 -0.6622949341
| 24> O -1.7128264201 0.2573734419 2.0686709003
| 25> C -1.4264578178 -0.9617630972 2.7818336417
| 26> H 3.5628385634 -3.8855691141 0.5658146146
| 27> H 1.8679063738 -3.3705050914 0.4799832882
| 28> H 2.7781446324 -3.6751369541 -1.0053446049
| 29> H 4.2385759951 -1.7349752936 -0.5616159963
| 30> H 3.4064924156 -1.4429179148 0.9990000609
| 31> H 0.5842747316 -0.6827162644 -3.1808282284
| 32> H 1.5829556327 0.7657948614 -3.0141829452
| 33> H 1.4774762394 2.9126643232 1.4773992959
| 34> H 0.351425131 2.1119903241 2.6187524677
| 35> H 2.7226964909 1.7804215433 3.3404054337
| 36> H 2.0029684403 0.2322696059 2.8681920942
| 37> H 3.1095723998 1.0736570327 1.7660285508
| 38> H -3.4797793268 -1.6237858513 -1.3161729803
| 39> H -4.3149700125 -0.0504703393 -1.1753504189
| 40> H -4.9769841751 -1.4886545401 -0.3435701255
| 41> H -0.6086871067 -1.4919811568 2.2939479417
| 42> H -2.3132604374 -1.5917087696 2.8123351374
| 43> H -1.1416840066 -0.6469421686 3.7824108197
| 44> *
| 45>
| 46>                          ****END OF INPUT****

CARTESIAN COORDINATES (ANGSTROEM)
---------------------------------
  C      2.844585   -3.292146    0.010084
  C      3.300325   -1.842052   -0.010025
  O      2.306001   -1.003330   -0.629679
  C      2.296274   -0.916965   -1.949322
  O      3.113386   -1.442971   -2.671089
  C      1.148748   -0.076840   -2.470483
  C      0.241308    0.452837   -1.370935
  H     -0.528987    1.105106   -1.802067
  C      1.021875    1.292964   -0.375648
  O      1.936664    2.012817   -0.702939
  O      0.546659    1.181965    0.846914
  C      1.156003    1.956195    1.898859
  C      2.326804    1.205613    2.509814
  S     -0.638455   -0.907653   -0.531758
  P     -2.062398    0.263900    0.528758
  S     -2.427636    2.056295   -0.173078
  O     -3.339578   -0.705924    0.537099
  C     -4.069783   -0.981795   -0.662295
  O     -1.712826    0.257373    2.068671
  C     -1.426458   -0.961763    2.781834
  H      3.562839   -3.885569    0.565815
  H      1.867906   -3.370505    0.479983
  H      2.778145   -3.675137   -1.005345
  H      4.238576   -1.734975   -0.561616
  H      3.406492   -1.442918    0.999000
  H      0.584275   -0.682716   -3.180828
  H      1.582956    0.765795   -3.014183
  H      1.477476    2.912664    1.477399
  H      0.351425    2.111990    2.618752
  H      2.722696    1.780422    3.340405
  H      2.002968    0.232270    2.868192
  H      3.109572    1.073657    1.766029
  H     -3.479779   -1.623786   -1.316173
  H     -4.314970   -0.050470   -1.175350
  H     -4.976984   -1.488655   -0.343570
  H     -0.608687   -1.491981    2.293948
  H     -2.313260   -1.591709    2.812335
  H     -1.141684   -0.646942    3.782411

 Total Charge           Charge          ....    0
 Multiplicity           Mult            ....    1
 Number of Electrons    NEL             ....  174
 Basis Dimension        Dim             ....  510

ORBITAL ENERGIES
----------------

  NO   OCC          E(Eh)            E(eV)
   0   2.0000     -88.577721     -2410.3223
   1   2.0000     -88.520345     -2408.7610
   2   2.0000     -76.916734     -2093.0107
   3   2.0000     -19.009307      -517.2695
   4   2.0000     -19.005004      -517.1525
   5   2.0000     -18.998875      -516.9857
   6   2.0000     -18.993424      -516.8373
   7   2.0000     -18.938414      -515.3404
   8   2.0000     -18.935968      -515.2739
   9   2.0000     -10.165194      -276.6090
  10   2.0000     -10.164535      -276.5911
  11   2.0000     -10.104076      -274.9459
  12   2.0000     -10.100524      -274.8492
  13   2.0000     -10.096700      -274.7452
  14   2.0000     -10.096447      -274.7383
  15   2.0000     -10.093544      -274.6593
  16   2.0000     -10.065576      -273.8983
  17   2.0000     -10.037122      -273.1240
  18   2.0000     -10.035653      -273.0840
  19   2.0000      -7.871995      -214.2079
  20   2.0000      -7.815025      -212.6576
  21   2.0000      -6.594954      -179.4578
  22   2.0000      -5.818796      -158.3375
  23   2.0000      -5.815942      -158.2598
  24   2.0000      -5.809105      -158.0738
  25   2.0000      -5.762912      -156.8168
  26   2.0000      -5.755244      -156.6082
  27   2.0000      -5.754865      -156.5978
  28   2.0000      -4.740672      -129.0002
  29   2.0000      -4.740013      -128.9823
  30   2.0000      -4.738425      -128.9391
  31   2.0000      -1.087126       -29.5822
  32   2.0000      -1.082057       -29.4443
  33   2.0000      -1.054627       -28.6978
  34   2.0000      -1.012207       -27.5436
  35   2.0000      -0.989168       -26.9166
  36   2.0000      -0.986338       -26.8396
  37   2.0000      -0.816361       -22.2143
  38   2.0000      -0.759046       -20.6547
  39   2.0000      -0.746316       -20.3083
  40   2.0000      -0.736417       -20.0389
  41   2.0000      -0.702451       -19.1147
  42   2.0000      -0.679574       -18.4921
  43   2.0000      -0.662246       -18.0206
  44   2.0000      -0.653177       -17.7738
  45   2.0000      -0.637317       -17.3423
  46   2.0000      -0.607804       -16.5392
  47   2.0000      -0.545124       -14.8336
  48   2.0000      -0.536224       -14.5914
  49   2.0000      -0.527585       -14.3563
  50   2.0000      -0.506241       -13.7755
  51   2.0000      -0.497556       -13.5392
  52   2.0000      -0.490984       -13.3604
  53   2.0000      -0.468210       -12.7407
  54   2.0000      -0.457050       -12.4370
  55   2.0000      -0.456017       -12.4088
  56   2.0000      -0.451093       -12.2749
  57   2.0000      -0.447174       -12.1682
  58   2.0000      -0.438093       -11.9211
  59   2.0000      -0.432147       -11.7593
  60   2.0000      -0.423887       -11.5346
  61   2.0000      -0.422927       -11.5084
  62   2.0000      -0.419162       -11.4060
  63   2.0000      -0.410707       -11.1759
  64   2.0000      -0.397084       -10.8052
  65   2.0000      -0.392622       -10.6838
  66   2.0000      -0.379784       -10.3344
  67   2.0000      -0.375483       -10.2174
  68   2.0000      -0.364611        -9.9216
  69   2.0000      -0.359532        -9.7834
  70   2.0000      -0.353134        -9.6093
  71   2.0000      -0.347786        -9.4637
  72   2.0000      -0.341753        -9.2996
  73   2.0000      -0.337448        -9.1824
  74   2.0000      -0.326368        -8.8809
  75   2.0000      -0.320617        -8.7244
  76   2.0000      -0.316623        -8.6157
  77   2.0000      -0.312828        -8.5125
  78   2.0000      -0.291329        -7.9275
  79   2.0000      -0.285990        -7.7822
  80   2.0000      -0.282004        -7.6737
  81   2.0000      -0.275642        -7.5006
  82   2.0000      -0.262069        -7.1313
  83   2.0000      -0.245775        -6.6879
  84   2.0000      -0.228815        -6.2264
  85   2.0000      -0.218756        -5.9527
  86   2.0000      -0.215944        -5.8761
  87   0.0000      -0.046498        -1.2653
  88   0.0000      -0.023379        -0.6362
  89   0.0000      -0.020699        -0.5632
  90   0.0000       0.002855         0.0777
  91   0.0000       0.012959         0.3526

MULLIKEN ATOMIC CHARGES
-----------------------
   0 C :   -0.460303
   1 C :   -0.160492
   2 O :   -0.108959
   3 C :    0.290845
   4 O :   -0.397512
   5 C :   -0.399104
   6 C :    0.079188
   7 H :    0.256883
   8 C :    0.190627
   9 O :   -0.388525
  10 O :   -0.111855
  11 C :   -0.137321
  12 C :   -0.497198
  13 S :   -0.241107
  14 P :    0.783721
  15 S :   -0.447443
  16 O :   -0.352359
  17 C :   -0.296382
  18 O :   -0.314841
  19 C :   -0.296681
  20 H :    0.149914
  21 H :    0.153218
  22 H :    0.176202
  23 H :    0.173638
  24 H :    0.151864
  25 H :    0.194638
  26 H :    0.201257
  27 H :    0.173982
  28 H :    0.171114
  29 H :    0.154726
  30 H :    0.151194
  31 H :    0.175704
  32 H :    0.158050
  33 H :    0.174926
  34 H :    0.151906
  35 H :    0.168714
  36 H :    0.170575
  37 H :    0.157196
Sum of atomic charges:   -0.0000000

LOEWDIN ATOMIC CHARGES
----------------------
   0 C :   -0.387947
   1 C :    0.034359
   2 O :   -0.614308
   3 C :    0.364939
   4 O :   -0.416616
   5 C :   -0.201806
   6 C :   -0.197548
   7 H :    0.211861
   8 C :    0.352145
   9 O :   -0.412876
  10 O :   -0.621898
  11 C :    0.037064
  12 C :   -0.389449
  13 S :    0.217998
  14 P :    0.399089
  15 S :   -0.092351
  16 O :   -0.685728
  17 C :   -0.060779
  18 O :   -0.649930
  19 C :   -0.054003
  20 H :    0.160044
  21 H :    0.158385
  22 H :    0.167230
  23 H :    0.191234
  24 H :    0.179320
  25 H :    0.192683
  26 H :    0.208589
  27 H :    0.192948
  28 H :    0.186795
  29 H :    0.160829
  30 H :    0.154893
  31 H :    0.164960
  32 H :    0.168686
  33 H :    0.176659
  34 H :    0.177059
  35 H :    0.172660
  36 H :    0.175251
  37 H :    0.179558

  Mayer bond orders larger than 0.100000
B(  0-C ,  1-C ) :   0.9272 B(  0-C , 20-H ) :   0.9644 B(  0-C , 21-H ) :   0.9740
B(  0-C , 22-H ) :   0.9703 B(  1-C ,  2-O ) :   0.7954 B(  1-C , 23-H ) :   0.9624
B(  1-C , 24-H ) :   0.9626 B(  2-O ,  3-C ) :   1.0950 B(  2-O ,  8-C ) :   0.1120
B(  3-C ,  4-O ) :   1.9063 B(  3-C ,  5-C ) :   0.9569 B(  5-C ,  6-C ) :   0.9619
B(  5-C , 25-H ) :   0.9538 B(  5-C , 26-H ) :   0.9143 B(  6-C ,  7-H ) :   0.8925
B(  6-C ,  8-C ) :   0.8591 B(  6-C , 13-S ) :   0.7765 B(  8-C ,  9-O ) :   1.8876
B(  8-C , 10-O ) :   1.1486 B( 10-O , 11-C ) :   0.7672 B( 11-C , 12-C ) :   0.9009
B( 11-C , 27-H ) :   0.9604 B( 11-C , 28-H ) :   0.9635 B( 12-C , 29-H ) :   0.9671
B( 12-C , 30-H ) :   0.9791 B( 12-C , 31-H ) :   0.9722 B( 13-S , 14-P ) :   0.9782
B( 14-P , 15-S ) :   1.8041 B( 14-P , 16-O ) :   1.0282 B( 14-P , 18-O ) :   1.1528
B( 16-O , 17-C ) :   0.8319 B( 17-C , 32-H ) :   0.9564 B( 17-C , 33-H ) :   0.9592
B( 17-C , 34-H ) :   0.9674 B( 18-O , 19-C ) :   0.7902 B( 19-C , 35-H ) :   0.9585
B( 19-C , 36-H ) :   0.9602 B( 19-C , 37-H ) :   0.9653

Dispersion correction           -0.018337182
FINAL SINGLE POINT ENERGY     -1981.453495662188

DIPOLE MOMENT
-------------

Method             : SCF
Type of density    : Electron Density
Multiplicity       :   1
Irrep              :   0
Energy             : -1981.4728135583777657 Eh
Relativity type    :
Basis              : AO
                                X                 Y                 Z
Electronic contribution:    -11.881411981       9.786482139      -8.066484406
Nuclear contribution   :     11.656581387     -11.244456994       9.489230484
                        -----------------------------------------
Total Dipole Moment    :     -0.224830594      -1.457974855       1.422746079
                        -----------------------------------------
Magnitude (a.u.)       :      2.049498934
Magnitude (Debye)      :      5.209412291

Rotational constants in cm-1:             0.013831             0.007344             0.006849
Rotational constants in MHz :           414.634331           220.179839           205.328013

                             ****ORCA TERMINATED NORMALLY****
TOTAL RUN TIME: 0 days 0 hours 1 minutes 27 seconds 820 msec
