                         Program Version 6.0.1  -  RELEASE   -
|  1> ! r2scan-3c def2/J RI DEFGRID2 scfconv6 printgap
|  2> %output
|  3>     printlevel normal
|  4> end
|  5> %cpcm
|  6>     smd true
|  7>     smdsolvent "water"
|  8> end
|  9> * xyz 0 1
| 10> C 2.8445854992 -3.2921460061 0.0100835002
| 11> C 3.3003247786 -1.8420516015 -0.0100248101
| 12> O 2.3060006535 -1.0033301222 -0.629679258
| 13> C 2.2962738717 -0.9169650118 -1.9493221009
| 14> O 3.1133862819 -1.4429713572 -2.6710893852
| 15> C 1.1487478451 -0.0768396306 -2.4704833822
| 16> C 0.2413081754 0.4528371402 -1.3709352339
| 17> H -0.5289873468 1.1051057836 -1.8020672764
| 18> C 1.0218752764 1.2929642627 -0.3756482406
| 19> O 1.9366636168 2.0128173149 -0.7029389683
| 20> O 0.5466589451 1.1819647043 0.8469141751
| 21> C 1.1560033221 1.9561951706 1.8988589666
| 22> C 2.3268041998 1.2056133238 2.5098138186
| 23> S -0.6384551767 -0.9076534865 -0.5317584681
| 24> P -2.0623984455 0.2639002955 0.5287579824
| 25> S -2.4276357614 2.0562947273 -0.1730777178
| 26> O -3.339577932 -0.7059235285 0.5370988832
| 27> C -4.0697825696 -0.9817953096 -0.6622949341
| 28> O -1.7128264201 0.2573734419 2.0686709003
| 29> C -1.4264578178 -0.9617630972 2.7818336417
| 30> H 3.5628385634 -3.8855691141 0.5658146146
| 31> H 1.8679063738 -3.3705050914 0.4799832882
| 32> H 2.7781446324 -3.6751369541 -1.0053446049
| 33> H 4.2385759951 -1.7349752936 -0.5616159963
| 34> H 3.4064924156 -1.4429179148 0.9990000609
| 35> H 0.5842747316 -0.6827162644 -3.1808282284
| 36> H 1.5829556327 0.7657948614 -3.0141829452
| 37> H 1.4774762394 2.9126643232 1.4773992959
| 38> H 0.351425131 2.1119903241 2.6187524677
| 39> H 2.7226964909 1.7804215433 3.3404054337
| 40> H 2.0029684403 0.2322696059 2.8681920942
| 41> H 3.1095723998 1.0736570327 1.7660285508
| 42> H -3.4797793268 -1.6237858513 -1.3161729803
| 43> H -4.3149700125 -0.0504703393 -1.1753504189
| 44> H -4.9769841751 -1.4886545401 -0.3435701255
| 45> H -0.6086871067 -1.4919811568 2.2939479417
| 46> H -2.3132604374 -1.5917087696 2.8123351374
| 47> H -1.1416840066 -0.6469421686 3.7824108197
| 48> *
| 49>
| 50>                          ****END OF INPUT****

CARTESIAN COORDINATES (ANGSTROEM)
---------------------------------
  C      2.844585   -3.292146    0.010084
  C      3.300325   -1.842052   -0.010025
  O      2.306001   -1.003330   -0.629679
  C      2.296274   -0.916965   -1.949322
  O      3.113386   -1.442971   -2.671089
  C      1.148748   -0.076840   -2.470483
  C      0.241308    0.452837   -1.370935
  H     -0.528987    1.105106   -1.802067
  C      1.021875    1.292964   -0.375648
  O      1.936664    2.012817   -0.702939
  O      0.546659    1.181965    0.846914
  C      1.156003    1.956195    1.898859
  C      2.326804    1.205613    2.509814
  S     -0.638455   -0.907653   -0.531758
  P     -2.062398    0.263900    0.528758
  S     -2.427636    2.056295   -0.173078
  O     -3.339578   -0.705924    0.537099
  C     -4.069783   -0.981795   -0.662295
  O     -1.712826    0.257373    2.068671
  C     -1.426458   -0.961763    2.781834
  H      3.562839   -3.885569    0.565815
  H      1.867906   -3.370505    0.479983
  H      2.778145   -3.675137   -1.005345
  H      4.238576   -1.734975   -0.561616
  H      3.406492   -1.442918    0.999000
  H      0.584275   -0.682716   -3.180828
  H      1.582956    0.765795   -3.014183
  H      1.477476    2.912664    1.477399
  H      0.351425    2.111990    2.618752
  H      2.722696    1.780422    3.340405
  H      2.002968    0.232270    2.868192
  H      3.109572    1.073657    1.766029
  H     -3.479779   -1.623786   -1.316173
  H     -4.314970   -0.050470   -1.175350
  H     -4.976984   -1.488655   -0.343570
  H     -0.608687   -1.491981    2.293948
  H     -2.313260   -1.591709    2.812335
  H     -1.141684   -0.646942    3.782411

 Total Charge           Charge          ....    0
 Multiplicity           Mult            ....    1
 Number of Electrons    NEL             ....  174
 Basis Dimension        Dim             ....  510

ORBITAL ENERGIES
----------------

  NO   OCC          E(Eh)            E(eV)
   0   2.0000     -88.577371     -2410.3128
   1   2.0000     -88.528170     -2408.9740
   2   2.0000     -76.919552     -2093.0874
   3   2.0000     -19.010923      -517.3135
   4   2.0000     -19.008820      -517.2563
   5   2.0000     -18.996944      -516.9331
   6   2.0000     -18.992950      -516.8244
   7   2.0000     -18.951161      -515.6873
   8   2.0000     -18.948312      -515.6098
   9   2.0000     -10.174482      -276.8617
  10   2.0000     -10.172456      -276.8066
  11   2.0000     -10.095858      -274.7223
  12   2.0000     -10.087264      -274.4884
  13   2.0000     -10.087204      -274.4868
  14   2.0000     -10.084784      -274.4209
  15   2.0000     -10.080860      -274.3142
  16   2.0000     -10.060475      -273.7594
  17   2.0000     -10.020313      -272.6666
  18   2.0000     -10.019786      -272.6522
  19   2.0000      -7.871566      -214.1962
  20   2.0000      -7.823239      -212.8812
  21   2.0000      -6.597839      -179.5363
  22   2.0000      -5.818435      -158.3277
  23   2.0000      -5.815563      -158.2495
  24   2.0000      -5.808564      -158.0591
  25   2.0000      -5.770980      -157.0363
  26   2.0000      -5.763498      -156.8328
  27   2.0000      -5.763109      -156.8222
  28   2.0000      -4.743506      -129.0774
  29   2.0000      -4.742846      -129.0594
  30   2.0000      -4.741454      -129.0215
  31   2.0000      -1.091701       -29.7067
  32   2.0000      -1.086386       -29.5621
  33   2.0000      -1.053097       -28.6562
  34   2.0000      -1.010206       -27.4891
  35   2.0000      -0.999946       -27.2099
  36   2.0000      -0.996467       -27.1152
  37   2.0000      -0.815043       -22.1784
  38   2.0000      -0.752456       -20.4754
  39   2.0000      -0.738591       -20.0981
  40   2.0000      -0.729797       -19.8588
  41   2.0000      -0.696467       -18.9518
  42   2.0000      -0.669471       -18.2172
  43   2.0000      -0.659593       -17.9484
  44   2.0000      -0.651315       -17.7232
  45   2.0000      -0.628607       -17.1053
  46   2.0000      -0.602499       -16.3948
  47   2.0000      -0.540139       -14.6979
  48   2.0000      -0.528901       -14.3921
  49   2.0000      -0.523236       -14.2380
  50   2.0000      -0.505299       -13.7499
  51   2.0000      -0.491566       -13.3762
  52   2.0000      -0.488736       -13.2992
  53   2.0000      -0.470181       -12.7943
  54   2.0000      -0.459626       -12.5071
  55   2.0000      -0.453544       -12.3416
  56   2.0000      -0.449142       -12.2218
  57   2.0000      -0.447038       -12.1645
  58   2.0000      -0.438124       -11.9220
  59   2.0000      -0.426686       -11.6107
  60   2.0000      -0.418832       -11.3970
  61   2.0000      -0.413719       -11.2579
  62   2.0000      -0.410565       -11.1720
  63   2.0000      -0.404833       -11.0161
  64   2.0000      -0.392094       -10.6694
  65   2.0000      -0.387635       -10.5481
  66   2.0000      -0.370460       -10.0807
  67   2.0000      -0.368845       -10.0368
  68   2.0000      -0.359310        -9.7773
  69   2.0000      -0.354436        -9.6447
  70   2.0000      -0.347108        -9.4453
  71   2.0000      -0.343117        -9.3367
  72   2.0000      -0.337271        -9.1776
  73   2.0000      -0.332658        -9.0521
  74   2.0000      -0.319543        -8.6952
  75   2.0000      -0.315265        -8.5788
  76   2.0000      -0.310078        -8.4376
  77   2.0000      -0.307862        -8.3774
  78   2.0000      -0.289606        -7.8806
  79   2.0000      -0.287409        -7.8208
  80   2.0000      -0.283346        -7.7102
  81   2.0000      -0.277815        -7.5597
  82   2.0000      -0.269921        -7.3449
  83   2.0000      -0.258596        -7.0368
  84   2.0000      -0.235630        -6.4118
  85   2.0000      -0.227267        -6.1843
  86   2.0000      -0.222685        -6.0596
  87   0.0000      -0.048747        -1.3265
  88   0.0000      -0.029843        -0.8121
  89   0.0000      -0.026484        -0.7207
  90   0.0000       0.004712         0.1282
  91   0.0000       0.011700         0.3184

MULLIKEN ATOMIC CHARGES
-----------------------
   0 C :   -0.484911
   1 C :   -0.165907
   2 O :   -0.121321
   3 C :    0.334610
   4 O :   -0.472614
   5 C :   -0.455190
   6 C :    0.097951
   7 H :    0.279437
   8 C :    0.191534
   9 O :   -0.449705
  10 O :   -0.123556
  11 C :   -0.137631
  12 C :   -0.517169
  13 S :   -0.225073
  14 P :    0.803188
  15 S :   -0.510286
  16 O :   -0.379739
  17 C :   -0.307522
  18 O :   -0.351158
  19 C :   -0.299358
  20 H :    0.173459
  21 H :    0.167406
  22 H :    0.171749
  23 H :    0.176098
  24 H :    0.182031
  25 H :    0.229969
  26 H :    0.228472
  27 H :    0.177610
  28 H :    0.183319
  29 H :    0.176107
  30 H :    0.173204
  31 H :    0.174666
  32 H :    0.174869
  33 H :    0.176414
  34 H :    0.178888
  35 H :    0.181151
  36 H :    0.184447
  37 H :    0.184560
Sum of atomic charges:   -0.0000000

LOEWDIN ATOMIC CHARGES
----------------------
   0 C :   -0.389597
   1 C :    0.040074
   2 O :   -0.610809
   3 C :    0.371682
   4 O :   -0.473034
   5 C :   -0.197264
   6 C :   -0.192171
   7 H :    0.219459
   8 C :    0.354790
   9 O :   -0.461707
  10 O :   -0.623125
  11 C :    0.040383
  12 C :   -0.388675
  13 S :    0.233611
  14 P :    0.401173
  15 S :   -0.139339
  16 O :   -0.696526
  17 C :   -0.056623
  18 O :   -0.668859
  19 C :   -0.044185
  20 H :    0.169012
  21 H :    0.163351
  22 H :    0.163865
  23 H :    0.192080
  24 H :    0.192069
  25 H :    0.206790
  26 H :    0.215804
  27 H :    0.193302
  28 H :    0.193027
  29 H :    0.169106
  30 H :    0.163761
  31 H :    0.164248
  32 H :    0.175837
  33 H :    0.177124
  34 H :    0.188358
  35 H :    0.179636
  36 H :    0.181683
  37 H :    0.191690

  Mayer bond orders larger than 0.100000
B(  0-C ,  1-C ) :   0.9239 B(  0-C , 20-H ) :   0.9589 B(  0-C , 21-H ) :   0.9703
B(  0-C , 22-H ) :   0.9691 B(  1-C ,  2-O ) :   0.7817 B(  1-C , 23-H ) :   0.9567
B(  1-C , 24-H ) :   0.9521 B(  2-O ,  3-C ) :   1.1258 B(  2-O ,  8-C ) :   0.1101
B(  3-C ,  4-O ) :   1.8430 B(  3-C ,  5-C ) :   0.9373 B(  5-C ,  6-C ) :   0.9446
B(  5-C , 25-H ) :   0.9386 B(  5-C , 26-H ) :   0.9223 B(  6-C ,  7-H ) :   0.8812
B(  6-C ,  8-C ) :   0.8564 B(  6-C , 13-S ) :   0.7764 B(  8-C ,  9-O ) :   1.8325
B(  8-C , 10-O ) :   1.1669 B( 10-O , 11-C ) :   0.7534 B( 11-C , 12-C ) :   0.9045
B( 11-C , 27-H ) :   0.9558 B( 11-C , 28-H ) :   0.9536 B( 12-C , 29-H ) :   0.9613
B( 12-C , 30-H ) :   0.9721 B( 12-C , 31-H ) :   0.9674 B( 13-S , 14-P ) :   0.9960
B( 14-P , 15-S ) :   1.7726 B( 14-P , 16-O ) :   1.0341 B( 14-P , 18-O ) :   1.1609
B( 16-O , 17-C ) :   0.8244 B( 17-C , 32-H ) :   0.9502 B( 17-C , 33-H ) :   0.9557
B( 17-C , 34-H ) :   0.9575 B( 18-O , 19-C ) :   0.7828 B( 19-C , 35-H ) :   0.9491
B( 19-C , 36-H ) :   0.9520 B( 19-C , 37-H ) :   0.9542

Dispersion correction           -0.018337182
FINAL SINGLE POINT ENERGY     -1981.469065625949

DIPOLE MOMENT
-------------

Method             : SCF
Type of density    : Electron Density
Multiplicity       :   1
Irrep              :   0
Energy             : -1981.4883835221385198 Eh
Relativity type    :
Basis              : AO
                                X                 Y                 Z
Electronic contribution:    -12.030679570       9.112919153      -7.578325918
Nuclear contribution   :     11.656581387     -11.244456994       9.489230484
                        -----------------------------------------
Total Dipole Moment    :     -0.374098183      -2.131537841       1.910904567
                        -----------------------------------------
Magnitude (a.u.)       :      2.887032955
Magnitude (Debye)      :      7.338254590

Rotational constants in cm-1:             0.013831             0.007344             0.006849
Rotational constants in MHz :           414.634331           220.179839           205.328013

                             ****ORCA TERMINATED NORMALLY****
TOTAL RUN TIME: 0 days 0 hours 1 minutes 57 seconds 395 msec
