                         Program Version 6.0.0  -   RELEASE  -
|  1> ! pbe def2-sv(p) def2/J RI DEFGRID1 loosescf d4 GCP(DFT/SV(P)) printgap
|  2> %output
|  3>     printlevel normal
|  4> end
|  5> * xyz 0 1
|  6> C 2.1846798494 2.3787322311 -0.7608776156
|  7> C 2.0894775502 0.997056641 -1.3699428368
|  8> O 1.3573278957 0.0656872002 -0.5428949157
|  9> P 1.7315319316 -0.2411826543 0.985865518
| 10> S 1.0177368531 0.9813046244 2.3310627814
| 11> O 3.3084399105 -0.2865744451 1.1098899377
| 12> C 4.1604827654 -1.2360848212 0.4131715651
| 13> C 5.4938717642 -0.565299103 0.1528910751
| 14> S 1.172092014 -2.2811291828 1.0863551827
| 15> C -0.4079347084 -2.2595734397 0.1898643553
| 16> S -1.6097631043 -1.0746927624 0.8416713015
| 17> P -1.7470345216 0.2599542905 -0.8252162601
| 18> S -0.9864660861 -0.3621920456 -2.5147281366
| 19> O -1.1372794468 1.6515972709 -0.4047324254
| 20> C -1.6753113823 2.4553206336 0.6739022834
| 21> C -2.5074019627 3.5909608387 0.1167219694
| 22> O -3.3007556765 0.6088706407 -0.82686136
| 23> C -4.3775353399 -0.3455181447 -0.805598757
| 24> C -4.2995347439 -1.3520063642 -1.9344240357
| 25> H 2.7225355921 3.0323498692 -1.440686667
| 26> H 1.1889674589 2.7795478053 -0.5881864813
| 27> H 2.7128548695 2.3349235914 0.1917401068
| 28> H 3.0834500505 0.5844808528 -1.5564689823
| 29> H 1.5168599754 1.0058813934 -2.3004210775
| 30> H 4.2729376996 -2.1036213203 1.0670727639
| 31> H 3.6746684253 -1.5512386917 -0.5139930201
| 32> H 6.1609399232 -1.2772689399 -0.3224934425
| 33> H 5.3713211556 0.2988652164 -0.494924328
| 34> H 5.929131243 -0.2359577992 1.0919642763
| 35> H -0.8168192793 -3.2588469698 0.3200102404
| 36> H -0.2339202424 -2.0336181631 -0.8665126174
| 37> H -2.2615871081 1.8166285997 1.3395706461
| 38> H -0.8029215375 2.820571085 1.2204408485
| 39> H -2.8562603481 4.2078208869 0.9387609773
| 40> H -1.908053699 4.1963302543 -0.5576902159
| 41> H -3.3613073336 3.1981865764 -0.4291831023
| 42> H -4.3689800262 -0.8501130709 0.1646381979
| 43> H -5.270331168 0.2767271942 -0.8899458057
| 44> H -5.1888432507 -1.9738076874 -1.9215934649
| 45> H -4.2291901573 -0.8430214256 -2.8927611153
| 46> H -3.4215844564 -1.9852458032 -1.8171775298
| 47> *
| 48>
| 49>                          ****END OF INPUT****

CARTESIAN COORDINATES (ANGSTROEM)
---------------------------------
  C      2.184680    2.378732   -0.760878
  C      2.089478    0.997057   -1.369943
  O      1.357328    0.065687   -0.542895
  P      1.731532   -0.241183    0.985866
  S      1.017737    0.981305    2.331063
  O      3.308440   -0.286574    1.109890
  C      4.160483   -1.236085    0.413172
  C      5.493872   -0.565299    0.152891
  S      1.172092   -2.281129    1.086355
  C     -0.407935   -2.259573    0.189864
  S     -1.609763   -1.074693    0.841671
  P     -1.747035    0.259954   -0.825216
  S     -0.986466   -0.362192   -2.514728
  O     -1.137279    1.651597   -0.404732
  C     -1.675311    2.455321    0.673902
  C     -2.507402    3.590961    0.116722
  O     -3.300756    0.608871   -0.826861
  C     -4.377535   -0.345518   -0.805599
  C     -4.299535   -1.352006   -1.934424
  H      2.722536    3.032350   -1.440687
  H      1.188967    2.779548   -0.588186
  H      2.712855    2.334924    0.191740
  H      3.083450    0.584481   -1.556469
  H      1.516860    1.005881   -2.300421
  H      4.272938   -2.103621    1.067073
  H      3.674668   -1.551239   -0.513993
  H      6.160940   -1.277269   -0.322493
  H      5.371321    0.298865   -0.494924
  H      5.929131   -0.235958    1.091964
  H     -0.816819   -3.258847    0.320010
  H     -0.233920   -2.033618   -0.866513
  H     -2.261587    1.816629    1.339571
  H     -0.802922    2.820571    1.220441
  H     -2.856260    4.207821    0.938761
  H     -1.908054    4.196330   -0.557690
  H     -3.361307    3.198187   -0.429183
  H     -4.368980   -0.850113    0.164638
  H     -5.270331    0.276727   -0.889946
  H     -5.188843   -1.973808   -1.921593
  H     -4.229190   -0.843021   -2.892761
  H     -3.421584   -1.985246   -1.817178

 Total Charge           Charge          ....    0
 Multiplicity           Mult            ....    1
 Number of Electrons    NEL             ....  202
 Basis Dimension        Dim             ....  334

ORBITAL ENERGIES
----------------

  NO   OCC          E(Eh)            E(eV)
   0   2.0000     -88.043803     -2395.7937
   1   2.0000     -88.037368     -2395.6186
   2   2.0000     -87.985250     -2394.2004
   3   2.0000     -87.974789     -2393.9157
   4   2.0000     -76.426649     -2079.6748
   5   2.0000     -76.421397     -2079.5319
   6   2.0000     -18.794214      -511.4166
   7   2.0000     -18.793705      -511.4027
   8   2.0000     -18.786565      -511.2084
   9   2.0000     -18.782857      -511.1075
  10   2.0000      -9.960979      -271.0520
  11   2.0000      -9.957171      -270.9484
  12   2.0000      -9.954780      -270.8833
  13   2.0000      -9.947454      -270.6840
  14   2.0000      -9.945868      -270.6408
  15   2.0000      -9.894788      -269.2509
  16   2.0000      -9.883901      -268.9546
  17   2.0000      -9.880760      -268.8691
  18   2.0000      -9.874973      -268.7117
  19   2.0000      -7.688288      -209.2089
  20   2.0000      -7.683101      -209.0678
  21   2.0000      -7.630360      -207.6326
  22   2.0000      -7.620175      -207.3555
  23   2.0000      -6.423621      -174.7956
  24   2.0000      -6.418874      -174.6664
  25   2.0000      -5.716060      -155.5419
  26   2.0000      -5.712779      -155.4526
  27   2.0000      -5.711179      -155.4091
  28   2.0000      -5.707481      -155.3084
  29   2.0000      -5.705467      -155.2536
  30   2.0000      -5.699894      -155.1020
  31   2.0000      -5.659411      -154.0004
  32   2.0000      -5.651031      -153.7724
  33   2.0000      -5.650222      -153.7504
  34   2.0000      -5.649255      -153.7240
  35   2.0000      -5.640785      -153.4936
  36   2.0000      -5.640114      -153.4753
  37   2.0000      -4.646407      -126.4352
  38   2.0000      -4.645492      -126.4103
  39   2.0000      -4.643886      -126.3666
  40   2.0000      -4.642504      -126.3290
  41   2.0000      -4.640500      -126.2744
  42   2.0000      -4.638569      -126.2219
  43   2.0000      -0.987383       -26.8681
  44   2.0000      -0.981923       -26.7195
  45   2.0000      -0.941830       -25.6285
  46   2.0000      -0.938164       -25.5287
  47   2.0000      -0.760613       -20.6973
  48   2.0000      -0.721481       -19.6325
  49   2.0000      -0.710961       -19.3462
  50   2.0000      -0.689895       -18.7730
  51   2.0000      -0.687914       -18.7191
  52   2.0000      -0.671034       -18.2598
  53   2.0000      -0.648295       -17.6410
  54   2.0000      -0.638845       -17.3838
  55   2.0000      -0.590979       -16.0814
  56   2.0000      -0.578944       -15.7539
  57   2.0000      -0.576562       -15.6891
  58   2.0000      -0.570347       -15.5199
  59   2.0000      -0.564522       -15.3614
  60   2.0000      -0.510668       -13.8960
  61   2.0000      -0.500394       -13.6164
  62   2.0000      -0.473895       -12.8953
  63   2.0000      -0.471053       -12.8180
  64   2.0000      -0.453517       -12.3408
  65   2.0000      -0.452564       -12.3149
  66   2.0000      -0.434926       -11.8349
  67   2.0000      -0.432181       -11.7602
  68   2.0000      -0.425221       -11.5709
  69   2.0000      -0.412506       -11.2248
  70   2.0000      -0.407214       -11.0809
  71   2.0000      -0.404619       -11.0102
  72   2.0000      -0.399417       -10.8687
  73   2.0000      -0.383188       -10.4271
  74   2.0000      -0.381504       -10.3812
  75   2.0000      -0.364444        -9.9170
  76   2.0000      -0.358001        -9.7417
  77   2.0000      -0.356762        -9.7080
  78   2.0000      -0.354267        -9.6401
  79   2.0000      -0.349308        -9.5051
  80   2.0000      -0.346609        -9.4317
  81   2.0000      -0.342182        -9.3113
  82   2.0000      -0.336621        -9.1599
  83   2.0000      -0.333631        -9.0786
  84   2.0000      -0.331361        -9.0168
  85   2.0000      -0.319753        -8.7009
  86   2.0000      -0.315847        -8.5946
  87   2.0000      -0.308313        -8.3896
  88   2.0000      -0.296993        -8.0816
  89   2.0000      -0.289378        -7.8744
  90   2.0000      -0.281352        -7.6560
  91   2.0000      -0.274614        -7.4726
  92   2.0000      -0.267609        -7.2820
  93   2.0000      -0.261526        -7.1165
  94   2.0000      -0.256120        -6.9694
  95   2.0000      -0.235878        -6.4186
  96   2.0000      -0.222165        -6.0454
  97   2.0000      -0.203278        -5.5315
  98   2.0000      -0.199443        -5.4271
  99   2.0000      -0.188055        -5.1172
 100   2.0000      -0.185839        -5.0569
 101   0.0000      -0.045733        -1.2445
 102   0.0000      -0.034239        -0.9317
 103   0.0000      -0.009000        -0.2449
 104   0.0000       0.004935         0.1343
 105   0.0000       0.016174         0.4401

MULLIKEN ATOMIC CHARGES
-----------------------
   0 C :   -0.329532
   1 C :   -0.014594
   2 O :   -0.386504
   3 P :    0.622582
   4 S :   -0.305859
   5 O :   -0.377351
   6 C :   -0.034789
   7 C :   -0.282584
   8 S :   -0.111583
   9 C :   -0.338185
  10 S :   -0.105959
  11 P :    0.620001
  12 S :   -0.305343
  13 O :   -0.355738
  14 C :   -0.018189
  15 C :   -0.281924
  16 O :   -0.381408
  17 C :   -0.005052
  18 C :   -0.306673
  19 H :    0.103798
  20 H :    0.140300
  21 H :    0.126709
  22 H :    0.098130
  23 H :    0.115648
  24 H :    0.116591
  25 H :    0.117539
  26 H :    0.114135
  27 H :    0.121290
  28 H :    0.125999
  29 H :    0.179547
  30 H :    0.199248
  31 H :    0.099696
  32 H :    0.127959
  33 H :    0.108611
  34 H :    0.114968
  35 H :    0.116253
  36 H :    0.110538
  37 H :    0.106364
  38 H :    0.110325
  39 H :    0.126430
  40 H :    0.118607
Sum of atomic charges:   -0.0000000

LOEWDIN ATOMIC CHARGES
----------------------
   0 C :   -0.371283
   1 C :   -0.115550
   2 O :   -0.256110
   3 P :    0.563826
   4 S :   -0.300714
   5 O :   -0.248628
   6 C :   -0.119826
   7 C :   -0.350621
   8 S :    0.066297
   9 C :   -0.480201
  10 S :    0.078452
  11 P :    0.578971
  12 S :   -0.286693
  13 O :   -0.226534
  14 C :   -0.119661
  15 C :   -0.358032
  16 O :   -0.245478
  17 C :   -0.117891
  18 C :   -0.368711
  19 H :    0.127062
  20 H :    0.130887
  21 H :    0.120723
  22 H :    0.103254
  23 H :    0.116675
  24 H :    0.117478
  25 H :    0.109260
  26 H :    0.131941
  27 H :    0.124923
  28 H :    0.132610
  29 H :    0.136624
  30 H :    0.122119
  31 H :    0.105665
  32 H :    0.115119
  33 H :    0.129207
  34 H :    0.126325
  35 H :    0.124281
  36 H :    0.106397
  37 H :    0.119625
  38 H :    0.129451
  39 H :    0.129944
  40 H :    0.118815

  Mayer bond orders larger than 0.100000
B(  0-C ,  1-C ) :   1.1699 B(  0-C , 19-H ) :   0.9339 B(  0-C , 20-H ) :   0.9352
B(  0-C , 21-H ) :   0.9307 B(  1-C ,  2-O ) :   0.9038 B(  1-C , 22-H ) :   0.9235
B(  1-C , 23-H ) :   0.9118 B(  2-O ,  3-P ) :   1.0675 B(  3-P ,  4-S ) :   1.6832
B(  3-P ,  5-O ) :   1.0979 B(  3-P ,  8-S ) :   0.9576 B(  4-S ,  8-S ) :   0.1114
B(  5-O ,  6-C ) :   0.8893 B(  6-C ,  7-C ) :   1.1624 B(  6-C , 24-H ) :   0.9314
B(  6-C , 25-H ) :   0.9149 B(  7-C , 26-H ) :   0.9403 B(  7-C , 27-H ) :   0.9473
B(  7-C , 28-H ) :   0.9460 B(  8-S ,  9-C ) :   0.9952 B(  9-C , 10-S ) :   1.0119
B(  9-C , 29-H ) :   0.9126 B(  9-C , 30-H ) :   0.8470 B( 10-S , 11-P ) :   0.9476
B( 10-S , 12-S ) :   0.1182 B( 11-P , 12-S ) :   1.6125 B( 11-P , 13-O ) :   1.1389
B( 11-P , 16-O ) :   1.0726 B( 12-S , 30-H ) :   0.1203 B( 13-O , 14-C ) :   0.8751
B( 14-C , 15-C ) :   1.1627 B( 14-C , 31-H ) :   0.9218 B( 14-C , 32-H ) :   0.9135
B( 15-C , 33-H ) :   0.9408 B( 15-C , 34-H ) :   0.9488 B( 15-C , 35-H ) :   0.9421
B( 16-O , 17-C ) :   0.9145 B( 17-C , 18-C ) :   1.1674 B( 17-C , 36-H ) :   0.9223
B( 17-C , 37-H ) :   0.9325 B( 18-C , 38-H ) :   0.9352 B( 18-C , 39-H ) :   0.9433
B( 18-C , 40-H ) :   0.9351

Dispersion correction           -0.069013444
FINAL SINGLE POINT ENERGY     -2929.508233778540

DIPOLE MOMENT
-------------

Method             : SCF
Type of density    : Electron Density
Multiplicity       :   1
Irrep              :   0
Energy             : -2929.6278905886961184 Eh
Relativity type    :
Basis              : AO
                                X                 Y                 Z
Electronic contribution:     -1.890233942     -10.194180406       9.259862166
Nuclear contribution   :      1.824525366       9.886767584      -9.827494152
                        -----------------------------------------
Total Dipole Moment    :     -0.065708576      -0.307412822      -0.567631986
                        -----------------------------------------
Magnitude (a.u.)       :      0.648865419
Magnitude (Debye)      :      1.649284824

Rotational constants in cm-1:             0.012649             0.005640             0.005163
Rotational constants in MHz :           379.195343           169.070592           154.774605

                             ****ORCA TERMINATED NORMALLY****
TOTAL RUN TIME: 0 days 0 hours 0 minutes 22 seconds 314 msec
