                         Program Version 6.0.0  -   RELEASE  -
|  1> ! r2scan-3c def2/J RI DEFGRID2 scfconv6 printgap
|  2> %output
|  3>     printlevel normal
|  4> end
|  5> * xyz 0 1
|  6> C 5.7931261297 -0.3507665263 0.2227236434
|  7> C 4.4466675505 -0.7742205286 -0.3287283102
|  8> O 3.4322512213 0.0206733878 0.3160808816
|  9> P 1.9709481167 0.1598856805 -0.295177356
| 10> S 1.9358183527 0.5785435269 -2.2139388391
| 11> O 1.322192878 1.1901686004 0.7127324355
| 12> C 1.3706267571 2.6146264034 0.4996293752
| 13> C 2.7833282308 3.1504621851 0.5784950645
| 14> S 1.0965328403 -1.6621900345 0.2862832263
| 15> C -0.1531500614 -1.8883730547 -1.027613034
| 16> S -1.8373110892 -1.9839667815 -0.3847172799
| 17> P -2.051004148 0.054398184 0.1773341944
| 18> S -1.4446261149 1.3791262299 -1.1295592731
| 19> O -1.297617383 0.2127513092 1.5524395795
| 20> C -1.3747127121 -0.6919757375 2.6815061329
| 21> C -2.6148385576 -0.4493012852 3.5151996551
| 22> O -3.5817294376 0.17299383 0.5858563709
| 23> C -4.6180621535 0.4792828493 -0.3642065748
| 24> C -4.838609516 -0.6428566754 -1.3577187197
| 25> H 5.809275172 -0.4841476094 1.3003903099
| 26> H 6.5690683683 -0.960518742 -0.2280615059
| 27> H 5.9808296704 0.6945193089 -0.0059195225
| 28> H 4.2411516266 -1.8267403258 -0.1154316
| 29> H 4.3829793176 -0.6089806313 -1.4097368467
| 30> H 0.9199050509 2.8343776595 -0.4742764678
| 31> H 0.7327105912 3.0139381813 1.2897647594
| 32> H 3.2465988457 2.8498182842 1.5145797619
| 33> H 3.3717819209 2.7586284297 -0.2504691187
| 34> H 2.7593495256 4.233776272 0.5134103147
| 35> H 0.0406879631 -2.8413764452 -1.5127221024
| 36> H -0.0667459607 -1.0600854863 -1.7366955063
| 37> H -1.3423562652 -1.7210715442 2.3120211434
| 38> H -0.46254028 -0.4768515874 3.2414140464
| 39> H -2.5671315029 -1.0717817258 4.4033617642
| 40> H -2.6688198831 0.5949782702 3.8111513894
| 41> H -3.5075867431 -0.7007241711 2.9492897128
| 42> H -5.4983432187 0.6456335618 0.2582616764
| 43> H -4.3485681578 1.4051008563 -0.8819394599
| 44> H -5.7200670853 -0.4250219889 -1.9522238155
| 45> H -3.9800777777 -0.7288050907 -2.0217300004
| 46> H -4.9766469948 -1.5876728892 -0.8382676094
| 47> *
| 48>
| 49>                          ****END OF INPUT****

CARTESIAN COORDINATES (ANGSTROEM)
---------------------------------
  C      5.793126   -0.350767    0.222724
  C      4.446668   -0.774221   -0.328728
  O      3.432251    0.020673    0.316081
  P      1.970948    0.159886   -0.295177
  S      1.935818    0.578544   -2.213939
  O      1.322193    1.190169    0.712732
  C      1.370627    2.614626    0.499629
  C      2.783328    3.150462    0.578495
  S      1.096533   -1.662190    0.286283
  C     -0.153150   -1.888373   -1.027613
  S     -1.837311   -1.983967   -0.384717
  P     -2.051004    0.054398    0.177334
  S     -1.444626    1.379126   -1.129559
  O     -1.297617    0.212751    1.552440
  C     -1.374713   -0.691976    2.681506
  C     -2.614839   -0.449301    3.515200
  O     -3.581729    0.172994    0.585856
  C     -4.618062    0.479283   -0.364207
  C     -4.838610   -0.642857   -1.357719
  H      5.809275   -0.484148    1.300390
  H      6.569068   -0.960519   -0.228062
  H      5.980830    0.694519   -0.005920
  H      4.241152   -1.826740   -0.115432
  H      4.382979   -0.608981   -1.409737
  H      0.919905    2.834378   -0.474276
  H      0.732711    3.013938    1.289765
  H      3.246599    2.849818    1.514580
  H      3.371782    2.758628   -0.250469
  H      2.759350    4.233776    0.513410
  H      0.040688   -2.841376   -1.512722
  H     -0.066746   -1.060085   -1.736696
  H     -1.342356   -1.721072    2.312021
  H     -0.462540   -0.476852    3.241414
  H     -2.567132   -1.071782    4.403362
  H     -2.668820    0.594978    3.811151
  H     -3.507587   -0.700724    2.949290
  H     -5.498343    0.645634    0.258262
  H     -4.348568    1.405101   -0.881939
  H     -5.720067   -0.425022   -1.952224
  H     -3.980078   -0.728805   -2.021730
  H     -4.976647   -1.587673   -0.838268

 Total Charge           Charge          ....    0
 Multiplicity           Mult            ....    1
 Number of Electrons    NEL             ....  202
 Basis Dimension        Dim             ....  539

ORBITAL ENERGIES
----------------

  NO   OCC          E(Eh)            E(eV)
   0   2.0000     -88.576426     -2410.2871
   1   2.0000     -88.572778     -2410.1878
   2   2.0000     -88.513037     -2408.5622
   3   2.0000     -88.512671     -2408.5522
   4   2.0000     -76.911448     -2092.8669
   5   2.0000     -76.907345     -2092.7553
   6   2.0000     -18.992579      -516.8143
   7   2.0000     -18.987121      -516.6658
   8   2.0000     -18.985756      -516.6287
   9   2.0000     -18.980161      -516.4764
  10   2.0000     -10.105716      -274.9905
  11   2.0000     -10.098546      -274.7954
  12   2.0000     -10.097106      -274.7562
  13   2.0000     -10.093067      -274.6463
  14   2.0000     -10.085360      -274.4366
  15   2.0000     -10.030090      -272.9326
  16   2.0000     -10.028963      -272.9019
  17   2.0000     -10.028782      -272.8970
  18   2.0000     -10.020171      -272.6627
  19   2.0000      -7.870984      -214.1804
  20   2.0000      -7.867380      -214.0823
  21   2.0000      -7.807911      -212.4640
  22   2.0000      -7.807394      -212.4500
  23   2.0000      -6.589758      -179.3164
  24   2.0000      -6.585859      -179.2103
  25   2.0000      -5.817823      -158.3110
  26   2.0000      -5.814632      -158.2242
  27   2.0000      -5.814179      -158.2119
  28   2.0000      -5.811225      -158.1315
  29   2.0000      -5.808288      -158.0515
  30   2.0000      -5.804524      -157.9491
  31   2.0000      -5.755684      -156.6201
  32   2.0000      -5.755044      -156.6027
  33   2.0000      -5.748088      -156.4134
  34   2.0000      -5.747899      -156.4083
  35   2.0000      -5.747875      -156.4076
  36   2.0000      -5.747178      -156.3887
  37   2.0000      -4.735582      -128.8617
  38   2.0000      -4.734802      -128.8405
  39   2.0000      -4.733107      -128.7944
  40   2.0000      -4.731165      -128.7415
  41   2.0000      -4.730740      -128.7300
  42   2.0000      -4.729803      -128.7045
  43   2.0000      -1.048299       -28.5257
  44   2.0000      -1.042681       -28.3728
  45   2.0000      -1.008798       -27.4508
  46   2.0000      -1.002499       -27.2794
  47   2.0000      -0.798869       -21.7383
  48   2.0000      -0.756050       -20.5732
  49   2.0000      -0.747455       -20.3393
  50   2.0000      -0.733404       -19.9569
  51   2.0000      -0.726114       -19.7586
  52   2.0000      -0.708965       -19.2919
  53   2.0000      -0.682664       -18.5762
  54   2.0000      -0.661414       -17.9980
  55   2.0000      -0.628593       -17.1049
  56   2.0000      -0.620617       -16.8878
  57   2.0000      -0.607532       -16.5318
  58   2.0000      -0.595146       -16.1947
  59   2.0000      -0.589680       -16.0460
  60   2.0000      -0.524791       -14.2803
  61   2.0000      -0.516949       -14.0669
  62   2.0000      -0.492070       -13.3899
  63   2.0000      -0.487158       -13.2563
  64   2.0000      -0.467332       -12.7168
  65   2.0000      -0.461784       -12.5658
  66   2.0000      -0.460553       -12.5323
  67   2.0000      -0.449031       -12.2187
  68   2.0000      -0.443178       -12.0595
  69   2.0000      -0.433785       -11.8039
  70   2.0000      -0.426814       -11.6142
  71   2.0000      -0.411750       -11.2043
  72   2.0000      -0.404146       -10.9974
  73   2.0000      -0.397426       -10.8145
  74   2.0000      -0.393934       -10.7195
  75   2.0000      -0.385464       -10.4890
  76   2.0000      -0.381484       -10.3807
  77   2.0000      -0.372547       -10.1375
  78   2.0000      -0.368524       -10.0280
  79   2.0000      -0.364888        -9.9291
  80   2.0000      -0.363239        -9.8842
  81   2.0000      -0.355599        -9.6763
  82   2.0000      -0.351859        -9.5746
  83   2.0000      -0.350104        -9.5268
  84   2.0000      -0.345603        -9.4043
  85   2.0000      -0.326792        -8.8925
  86   2.0000      -0.320662        -8.7257
  87   2.0000      -0.311137        -8.4665
  88   2.0000      -0.307690        -8.3727
  89   2.0000      -0.303488        -8.2583
  90   2.0000      -0.291009        -7.9188
  91   2.0000      -0.285376        -7.7655
  92   2.0000      -0.277263        -7.5447
  93   2.0000      -0.275988        -7.5100
  94   2.0000      -0.270175        -7.3518
  95   2.0000      -0.248841        -6.7713
  96   2.0000      -0.232913        -6.3379
  97   2.0000      -0.226588        -6.1658
  98   2.0000      -0.214758        -5.8439
  99   2.0000      -0.205272        -5.5857
 100   2.0000      -0.196836        -5.3562
 101   0.0000      -0.041133        -1.1193
 102   0.0000      -0.028830        -0.7845
 103   0.0000      -0.007965        -0.2167
 104   0.0000       0.014893         0.4053
 105   0.0000       0.021110         0.5744

MULLIKEN ATOMIC CHARGES
-----------------------
   0 C :   -0.442435
   1 C :   -0.159571
   2 O :   -0.279369
   3 P :    0.670377
   4 S :   -0.467233
   5 O :   -0.268836
   6 C :   -0.151360
   7 C :   -0.451610
   8 S :   -0.152239
   9 C :   -0.218040
  10 S :   -0.160574
  11 P :    0.661641
  12 S :   -0.418556
  13 O :   -0.251999
  14 C :   -0.136708
  15 C :   -0.447048
  16 O :   -0.300715
  17 C :   -0.166090
  18 C :   -0.458501
  19 H :    0.152636
  20 H :    0.145879
  21 H :    0.154901
  22 H :    0.151054
  23 H :    0.172317
  24 H :    0.181533
  25 H :    0.154703
  26 H :    0.153923
  27 H :    0.168004
  28 H :    0.146164
  29 H :    0.196471
  30 H :    0.218819
  31 H :    0.167193
  32 H :    0.160707
  33 H :    0.146174
  34 H :    0.156991
  35 H :    0.161484
  36 H :    0.147579
  37 H :    0.177105
  38 H :    0.148806
  39 H :    0.183249
  40 H :    0.153178
Sum of atomic charges:    0.0000000

LOEWDIN ATOMIC CHARGES
----------------------
   0 C :   -0.386758
   1 C :    0.015675
   2 O :   -0.671406
   3 P :    0.368968
   4 S :   -0.129534
   5 O :   -0.661074
   6 C :    0.014240
   7 C :   -0.401778
   8 S :    0.167877
   9 C :   -0.412260
  10 S :    0.126981
  11 P :    0.381781
  12 S :   -0.073688
  13 O :   -0.656020
  14 C :    0.015069
  15 C :   -0.396567
  16 O :   -0.672701
  17 C :    0.020339
  18 C :   -0.408719
  19 H :    0.159289
  20 H :    0.159261
  21 H :    0.159916
  22 H :    0.171274
  23 H :    0.180856
  24 H :    0.184781
  25 H :    0.182842
  26 H :    0.160040
  27 H :    0.164935
  28 H :    0.158771
  29 H :    0.180764
  30 H :    0.202737
  31 H :    0.177505
  32 H :    0.183825
  33 H :    0.158212
  34 H :    0.162096
  35 H :    0.166054
  36 H :    0.178889
  37 H :    0.181631
  38 H :    0.159806
  39 H :    0.167091
  40 H :    0.159000

  Mayer bond orders larger than 0.100000
B(  0-C ,  1-C ) :   0.9547 B(  0-C , 19-H ) :   0.9720 B(  0-C , 20-H ) :   0.9653
B(  0-C , 21-H ) :   0.9717 B(  1-C ,  2-O ) :   0.7885 B(  1-C , 22-H ) :   0.9465
B(  1-C , 23-H ) :   0.9503 B(  2-O ,  3-P ) :   1.0763 B(  3-P ,  4-S ) :   1.7498
B(  3-P ,  5-O ) :   1.1926 B(  3-P ,  8-S ) :   1.0934 B(  5-O ,  6-C ) :   0.8029
B(  6-C ,  7-C ) :   0.9111 B(  6-C , 24-H ) :   0.9627 B(  6-C , 25-H ) :   0.9621
B(  7-C , 26-H ) :   0.9720 B(  7-C , 27-H ) :   0.9626 B(  7-C , 28-H ) :   0.9610
B(  8-S ,  9-C ) :   0.8965 B(  9-C , 10-S ) :   0.9118 B(  9-C , 29-H ) :   0.9135
B(  9-C , 30-H ) :   0.9053 B( 10-S , 11-P ) :   1.0149 B( 11-P , 12-S ) :   1.8289
B( 11-P , 13-O ) :   1.1371 B( 11-P , 16-O ) :   1.0514 B( 13-O , 14-C ) :   0.7657
B( 14-C , 15-C ) :   0.9346 B( 14-C , 31-H ) :   0.9572 B( 14-C , 32-H ) :   0.9648
B( 15-C , 33-H ) :   0.9657 B( 15-C , 34-H ) :   0.9748 B( 15-C , 35-H ) :   0.9619
B( 16-O , 17-C ) :   0.8196 B( 17-C , 18-C ) :   0.9120 B( 17-C , 36-H ) :   0.9617
B( 17-C , 37-H ) :   0.9671 B( 18-C , 38-H ) :   0.9575 B( 18-C , 39-H ) :   0.9630
B( 18-C , 40-H ) :   0.9685

Dispersion correction           -0.021997624
FINAL SINGLE POINT ENERGY     -2932.459446175275

DIPOLE MOMENT
-------------

Method             : SCF
Type of density    : Electron Density
Multiplicity       :   1
Irrep              :   0
Energy             : -2932.4840495850880870 Eh
Relativity type    :
Basis              : AO
                                X                 Y                 Z
Electronic contribution:     -3.072826490      -4.766454370      -8.621583931
Nuclear contribution   :      2.812102280       4.137537516       9.789448662
                        -----------------------------------------
Total Dipole Moment    :     -0.260724210      -0.628916854       1.167864731
                        -----------------------------------------
Magnitude (a.u.)       :      1.351821568
Magnitude (Debye)      :      3.436057358

Rotational constants in cm-1:             0.013459             0.004950             0.004905
Rotational constants in MHz :           403.502588           148.393854           147.050562

                             ****ORCA TERMINATED NORMALLY****
TOTAL RUN TIME: 0 days 0 hours 1 minutes 21 seconds 166 msec
