                         Program Version 6.0.0  -   RELEASE  -
|  1> ! r2scan-3c def2/J RI DEFGRID2 scfconv6 printgap
|  2> %output
|  3>     printlevel normal
|  4> end
|  5> %cpcm
|  6>     smd true
|  7>     smdsolvent "water"
|  8> end
|  9> * xyz 0 1
| 10> C 5.7931261297 -0.3507665263 0.2227236434
| 11> C 4.4466675505 -0.7742205286 -0.3287283102
| 12> O 3.4322512213 0.0206733878 0.3160808816
| 13> P 1.9709481167 0.1598856805 -0.295177356
| 14> S 1.9358183527 0.5785435269 -2.2139388391
| 15> O 1.322192878 1.1901686004 0.7127324355
| 16> C 1.3706267571 2.6146264034 0.4996293752
| 17> C 2.7833282308 3.1504621851 0.5784950645
| 18> S 1.0965328403 -1.6621900345 0.2862832263
| 19> C -0.1531500614 -1.8883730547 -1.027613034
| 20> S -1.8373110892 -1.9839667815 -0.3847172799
| 21> P -2.051004148 0.054398184 0.1773341944
| 22> S -1.4446261149 1.3791262299 -1.1295592731
| 23> O -1.297617383 0.2127513092 1.5524395795
| 24> C -1.3747127121 -0.6919757375 2.6815061329
| 25> C -2.6148385576 -0.4493012852 3.5151996551
| 26> O -3.5817294376 0.17299383 0.5858563709
| 27> C -4.6180621535 0.4792828493 -0.3642065748
| 28> C -4.838609516 -0.6428566754 -1.3577187197
| 29> H 5.809275172 -0.4841476094 1.3003903099
| 30> H 6.5690683683 -0.960518742 -0.2280615059
| 31> H 5.9808296704 0.6945193089 -0.0059195225
| 32> H 4.2411516266 -1.8267403258 -0.1154316
| 33> H 4.3829793176 -0.6089806313 -1.4097368467
| 34> H 0.9199050509 2.8343776595 -0.4742764678
| 35> H 0.7327105912 3.0139381813 1.2897647594
| 36> H 3.2465988457 2.8498182842 1.5145797619
| 37> H 3.3717819209 2.7586284297 -0.2504691187
| 38> H 2.7593495256 4.233776272 0.5134103147
| 39> H 0.0406879631 -2.8413764452 -1.5127221024
| 40> H -0.0667459607 -1.0600854863 -1.7366955063
| 41> H -1.3423562652 -1.7210715442 2.3120211434
| 42> H -0.46254028 -0.4768515874 3.2414140464
| 43> H -2.5671315029 -1.0717817258 4.4033617642
| 44> H -2.6688198831 0.5949782702 3.8111513894
| 45> H -3.5075867431 -0.7007241711 2.9492897128
| 46> H -5.4983432187 0.6456335618 0.2582616764
| 47> H -4.3485681578 1.4051008563 -0.8819394599
| 48> H -5.7200670853 -0.4250219889 -1.9522238155
| 49> H -3.9800777777 -0.7288050907 -2.0217300004
| 50> H -4.9766469948 -1.5876728892 -0.8382676094
| 51> *
| 52>
| 53>                          ****END OF INPUT****

CARTESIAN COORDINATES (ANGSTROEM)
---------------------------------
  C      5.793126   -0.350767    0.222724
  C      4.446668   -0.774221   -0.328728
  O      3.432251    0.020673    0.316081
  P      1.970948    0.159886   -0.295177
  S      1.935818    0.578544   -2.213939
  O      1.322193    1.190169    0.712732
  C      1.370627    2.614626    0.499629
  C      2.783328    3.150462    0.578495
  S      1.096533   -1.662190    0.286283
  C     -0.153150   -1.888373   -1.027613
  S     -1.837311   -1.983967   -0.384717
  P     -2.051004    0.054398    0.177334
  S     -1.444626    1.379126   -1.129559
  O     -1.297617    0.212751    1.552440
  C     -1.374713   -0.691976    2.681506
  C     -2.614839   -0.449301    3.515200
  O     -3.581729    0.172994    0.585856
  C     -4.618062    0.479283   -0.364207
  C     -4.838610   -0.642857   -1.357719
  H      5.809275   -0.484148    1.300390
  H      6.569068   -0.960519   -0.228062
  H      5.980830    0.694519   -0.005920
  H      4.241152   -1.826740   -0.115432
  H      4.382979   -0.608981   -1.409737
  H      0.919905    2.834378   -0.474276
  H      0.732711    3.013938    1.289765
  H      3.246599    2.849818    1.514580
  H      3.371782    2.758628   -0.250469
  H      2.759350    4.233776    0.513410
  H      0.040688   -2.841376   -1.512722
  H     -0.066746   -1.060085   -1.736696
  H     -1.342356   -1.721072    2.312021
  H     -0.462540   -0.476852    3.241414
  H     -2.567132   -1.071782    4.403362
  H     -2.668820    0.594978    3.811151
  H     -3.507587   -0.700724    2.949290
  H     -5.498343    0.645634    0.258262
  H     -4.348568    1.405101   -0.881939
  H     -5.720067   -0.425022   -1.952224
  H     -3.980078   -0.728805   -2.021730
  H     -4.976647   -1.587673   -0.838268

 Total Charge           Charge          ....    0
 Multiplicity           Mult            ....    1
 Number of Electrons    NEL             ....  202
 Basis Dimension        Dim             ....  539

ORBITAL ENERGIES
----------------

  NO   OCC          E(Eh)            E(eV)
   0   2.0000     -88.579348     -2410.3666
   1   2.0000     -88.578248     -2410.3367
   2   2.0000     -88.524681     -2408.8790
   3   2.0000     -88.523075     -2408.8353
   4   2.0000     -76.917792     -2093.0395
   5   2.0000     -76.917112     -2093.0210
   6   2.0000     -18.994345      -516.8624
   7   2.0000     -18.992605      -516.8151
   8   2.0000     -18.992340      -516.8079
   9   2.0000     -18.990666      -516.7623
  10   2.0000     -10.105389      -274.9816
  11   2.0000     -10.090135      -274.5665
  12   2.0000     -10.089586      -274.5516
  13   2.0000     -10.088008      -274.5087
  14   2.0000     -10.086965      -274.4803
  15   2.0000     -10.019068      -272.6327
  16   2.0000     -10.018526      -272.6180
  17   2.0000     -10.017614      -272.5931
  18   2.0000     -10.017569      -272.5919
  19   2.0000      -7.873814      -214.2574
  20   2.0000      -7.872789      -214.2295
  21   2.0000      -7.819734      -212.7858
  22   2.0000      -7.818294      -212.7466
  23   2.0000      -6.596158      -179.4906
  24   2.0000      -6.595677      -179.4775
  25   2.0000      -5.820682      -158.3888
  26   2.0000      -5.819591      -158.3591
  27   2.0000      -5.817490      -158.3020
  28   2.0000      -5.816641      -158.2789
  29   2.0000      -5.811074      -158.1274
  30   2.0000      -5.809939      -158.0965
  31   2.0000      -5.767309      -156.9365
  32   2.0000      -5.765959      -156.8997
  33   2.0000      -5.760227      -156.7437
  34   2.0000      -5.759541      -156.7251
  35   2.0000      -5.758550      -156.6981
  36   2.0000      -5.758220      -156.6891
  37   2.0000      -4.741946      -129.0349
  38   2.0000      -4.741155      -129.0134
  39   2.0000      -4.740955      -129.0079
  40   2.0000      -4.740561      -128.9972
  41   2.0000      -4.739677      -128.9732
  42   2.0000      -4.739622      -128.9717
  43   2.0000      -1.051955       -28.6252
  44   2.0000      -1.050509       -28.5858
  45   2.0000      -1.012066       -27.5397
  46   2.0000      -1.010142       -27.4874
  47   2.0000      -0.801346       -21.8057
  48   2.0000      -0.755935       -20.5700
  49   2.0000      -0.744666       -20.2634
  50   2.0000      -0.725369       -19.7383
  51   2.0000      -0.723325       -19.6827
  52   2.0000      -0.710227       -19.3263
  53   2.0000      -0.688107       -18.7243
  54   2.0000      -0.669494       -18.2179
  55   2.0000      -0.630504       -17.1569
  56   2.0000      -0.620167       -16.8756
  57   2.0000      -0.603350       -16.4180
  58   2.0000      -0.592288       -16.1170
  59   2.0000      -0.589264       -16.0347
  60   2.0000      -0.525644       -14.3035
  61   2.0000      -0.515316       -14.0225
  62   2.0000      -0.492093       -13.3905
  63   2.0000      -0.488679       -13.2976
  64   2.0000      -0.470191       -12.7946
  65   2.0000      -0.462021       -12.5722
  66   2.0000      -0.459229       -12.4963
  67   2.0000      -0.446085       -12.1386
  68   2.0000      -0.440277       -11.9806
  69   2.0000      -0.435440       -11.8489
  70   2.0000      -0.424773       -11.5587
  71   2.0000      -0.412144       -11.2150
  72   2.0000      -0.401601       -10.9281
  73   2.0000      -0.398777       -10.8513
  74   2.0000      -0.392905       -10.6915
  75   2.0000      -0.386449       -10.5158
  76   2.0000      -0.381238       -10.3740
  77   2.0000      -0.368403       -10.0248
  78   2.0000      -0.362224        -9.8566
  79   2.0000      -0.360256        -9.8031
  80   2.0000      -0.354223        -9.6389
  81   2.0000      -0.352516        -9.5924
  82   2.0000      -0.350565        -9.5394
  83   2.0000      -0.346123        -9.4185
  84   2.0000      -0.343967        -9.3598
  85   2.0000      -0.323629        -8.8064
  86   2.0000      -0.322380        -8.7724
  87   2.0000      -0.311398        -8.4736
  88   2.0000      -0.305861        -8.3229
  89   2.0000      -0.301115        -8.1937
  90   2.0000      -0.296036        -8.0555
  91   2.0000      -0.287849        -7.8328
  92   2.0000      -0.282505        -7.6874
  93   2.0000      -0.277179        -7.5424
  94   2.0000      -0.273692        -7.4475
  95   2.0000      -0.253037        -6.8855
  96   2.0000      -0.240883        -6.5548
  97   2.0000      -0.237527        -6.4634
  98   2.0000      -0.226091        -6.1522
  99   2.0000      -0.215015        -5.8508
 100   2.0000      -0.208746        -5.6803
 101   0.0000      -0.046100        -1.2545
 102   0.0000      -0.035714        -0.9718
 103   0.0000      -0.011974        -0.3258
 104   0.0000       0.009141         0.2488
 105   0.0000       0.017006         0.4628

MULLIKEN ATOMIC CHARGES
-----------------------
   0 C :   -0.484327
   1 C :   -0.150434
   2 O :   -0.307525
   3 P :    0.701975
   4 S :   -0.522967
   5 O :   -0.297863
   6 C :   -0.148440
   7 C :   -0.494707
   8 S :   -0.148808
   9 C :   -0.219316
  10 S :   -0.156668
  11 P :    0.677743
  12 S :   -0.471644
  13 O :   -0.287775
  14 C :   -0.117054
  15 C :   -0.495774
  16 O :   -0.320867
  17 C :   -0.159310
  18 C :   -0.493920
  19 H :    0.165499
  20 H :    0.169087
  21 H :    0.165579
  22 H :    0.170337
  23 H :    0.172408
  24 H :    0.180607
  25 H :    0.177489
  26 H :    0.169410
  27 H :    0.169431
  28 H :    0.171688
  29 H :    0.238040
  30 H :    0.211971
  31 H :    0.175047
  32 H :    0.179655
  33 H :    0.170649
  34 H :    0.169487
  35 H :    0.168557
  36 H :    0.175187
  37 H :    0.178920
  38 H :    0.173130
  39 H :    0.175642
  40 H :    0.169860
Sum of atomic charges:    0.0000000

LOEWDIN ATOMIC CHARGES
----------------------
   0 C :   -0.390011
   1 C :    0.020575
   2 O :   -0.684877
   3 P :    0.372543
   4 S :   -0.164991
   5 O :   -0.680110
   6 C :    0.014948
   7 C :   -0.403691
   8 S :    0.172700
   9 C :   -0.406605
  10 S :    0.137800
  11 P :    0.384108
  12 S :   -0.112054
  13 O :   -0.678256
  14 C :    0.021579
  15 C :   -0.398946
  16 O :   -0.679109
  17 C :    0.025457
  18 C :   -0.411240
  19 H :    0.162971
  20 H :    0.168503
  21 H :    0.162241
  22 H :    0.179068
  23 H :    0.181309
  24 H :    0.183563
  25 H :    0.190848
  26 H :    0.164195
  27 H :    0.163233
  28 H :    0.168534
  29 H :    0.197355
  30 H :    0.199695
  31 H :    0.181880
  32 H :    0.191054
  33 H :    0.168165
  34 H :    0.164423
  35 H :    0.166677
  36 H :    0.190689
  37 H :    0.181600
  38 H :    0.168627
  39 H :    0.161866
  40 H :    0.163688

  Mayer bond orders larger than 0.100000
B(  0-C ,  1-C ) :   0.9513 B(  0-C , 19-H ) :   0.9690 B(  0-C , 20-H ) :   0.9589
B(  0-C , 21-H ) :   0.9694 B(  1-C ,  2-O ) :   0.7810 B(  1-C , 22-H ) :   0.9376
B(  1-C , 23-H ) :   0.9473 B(  2-O ,  3-P ) :   1.0834 B(  3-P ,  4-S ) :   1.6974
B(  3-P ,  5-O ) :   1.1888 B(  3-P ,  8-S ) :   1.1239 B(  5-O ,  6-C ) :   0.7877
B(  6-C ,  7-C ) :   0.9078 B(  6-C , 24-H ) :   0.9591 B(  6-C , 25-H ) :   0.9501
B(  7-C , 26-H ) :   0.9703 B(  7-C , 27-H ) :   0.9618 B(  7-C , 28-H ) :   0.9543
B(  8-S ,  9-C ) :   0.8903 B(  9-C , 10-S ) :   0.9074 B(  9-C , 29-H ) :   0.8973
B(  9-C , 30-H ) :   0.9099 B( 10-S , 11-P ) :   1.0336 B( 11-P , 12-S ) :   1.8033
B( 11-P , 13-O ) :   1.1374 B( 11-P , 16-O ) :   1.0604 B( 13-O , 14-C ) :   0.7554
B( 14-C , 15-C ) :   0.9264 B( 14-C , 31-H ) :   0.9488 B( 14-C , 32-H ) :   0.9550
B( 15-C , 33-H ) :   0.9585 B( 15-C , 34-H ) :   0.9740 B( 15-C , 35-H ) :   0.9613
B( 16-O , 17-C ) :   0.8090 B( 17-C , 18-C ) :   0.9011 B( 17-C , 36-H ) :   0.9512
B( 17-C , 37-H ) :   0.9657 B( 18-C , 38-H ) :   0.9522 B( 18-C , 39-H ) :   0.9651
B( 18-C , 40-H ) :   0.9654

Dispersion correction           -0.021997624
FINAL SINGLE POINT ENERGY     -2932.468543024509

DIPOLE MOMENT
-------------

Method             : SCF
Type of density    : Electron Density
Multiplicity       :   1
Irrep              :   0
Energy             : -2932.4931464343217158 Eh
Relativity type    :
Basis              : AO
                                X                 Y                 Z
Electronic contribution:     -3.202489430      -5.293868939      -8.253649303
Nuclear contribution   :      2.812102280       4.137537516       9.789448662
                        -----------------------------------------
Total Dipole Moment    :     -0.390387149      -1.156331422       1.535799359
                        -----------------------------------------
Magnitude (a.u.)       :      1.961678913
Magnitude (Debye)      :      4.986191537

Rotational constants in cm-1:             0.013459             0.004950             0.004905
Rotational constants in MHz :           403.502588           148.393854           147.050562

                             ****ORCA TERMINATED NORMALLY****
TOTAL RUN TIME: 0 days 0 hours 1 minutes 50 seconds 34 msec
