                         Program Version 6.0.0  -   RELEASE  -
|  1> ! pbe def2-sv(p) def2/J RI DEFGRID1 loosescf d4 GCP(DFT/SV(P)) printgap
|  2> %output
|  3>     printlevel normal
|  4> end
|  5> * xyz 0 1
|  6> C 4.9489766206 0.4641508474 -1.8258857672
|  7> C 4.1203358237 -0.7953236237 -1.9828516692
|  8> O 3.2966160526 -1.0416780953 -0.8300301937
|  9> P 2.0076186319 -0.1451905897 -0.4882031203
| 10> S 1.0553375874 0.4619760839 -2.0831211656
| 11> O 2.5132346117 1.0498963313 0.4125962709
| 12> C 3.1442000285 0.8643670254 1.7037565004
| 13> C 2.843741162 2.0843622415 2.5479577768
| 14> S 1.0835275515 -1.5475152667 0.7900666213
| 15> C -0.2546342789 -2.0753107158 -0.3281483881
| 16> S -1.9170608862 -1.7551902049 0.3124827376
| 17> P -2.0074501071 0.3758407991 0.2656811362
| 18> S -0.588122971 1.4220611273 1.1193701024
| 19> O -3.4657135586 0.650020042 0.8258658255
| 20> C -4.0242509581 0.0898542207 2.0295438645
| 21> C -3.1221677262 0.2514796484 3.2346421049
| 22> O -2.1201288556 0.8211922067 -1.2397019133
| 23> C -2.8321897139 0.1623337979 -2.3144817592
| 24> C -4.292192819 -0.0917282875 -2.0070131076
| 25> H 4.2912746514 1.3282943748 -1.729158337
| 26> H 5.5775029491 0.397809549 -0.9414318502
| 27> H 5.5756853566 0.594810867 -2.7024971733
| 28> H 4.74518095 -1.6864500128 -2.0562478513
| 29> H 3.4716193518 -0.7206623123 -2.8616199265
| 30> H 2.7446608482 -0.0431797041 2.1663006797
| 31> H 4.2161593315 0.7420307149 1.5316612741
| 32> H 3.2910183213 1.9608590282 3.5286028963
| 33> H 3.2435495195 2.9754234754 2.0728708281
| 34> H 1.7669719665 2.2000337381 2.6507665987
| 35> H -0.1938305608 -3.1552472239 -0.4355711424
| 36> H -0.1209677161 -1.5687921847 -1.287605272
| 37> H -4.9596899443 0.6377845552 2.1557681662
| 38> H -4.2337342556 -0.9671964046 1.8440593956
| 39> H -2.8656354522 1.2984349865 3.3793917483
| 40> H -3.6309462122 -0.1213685686 4.1177026329
| 41> H -2.1993626014 -0.3098633965 3.0926053986
| 42> H -2.7081641404 0.8568698002 -3.1472164976
| 43> H -2.3118977602 -0.7710381109 -2.5455948374
| 44> H -4.3945350138 -0.8447859066 -1.2288977664
| 45> H -4.7712701372 0.8266599895 -1.6781033166
| 46> H -4.7801486315 -0.4478871074 -2.9091935249
| 47> *
| 48>
| 49>                          ****END OF INPUT****

CARTESIAN COORDINATES (ANGSTROEM)
---------------------------------
  C      4.948977    0.464151   -1.825886
  C      4.120336   -0.795324   -1.982852
  O      3.296616   -1.041678   -0.830030
  P      2.007619   -0.145191   -0.488203
  S      1.055338    0.461976   -2.083121
  O      2.513235    1.049896    0.412596
  C      3.144200    0.864367    1.703757
  C      2.843741    2.084362    2.547958
  S      1.083528   -1.547515    0.790067
  C     -0.254634   -2.075311   -0.328148
  S     -1.917061   -1.755190    0.312483
  P     -2.007450    0.375841    0.265681
  S     -0.588123    1.422061    1.119370
  O     -3.465714    0.650020    0.825866
  C     -4.024251    0.089854    2.029544
  C     -3.122168    0.251480    3.234642
  O     -2.120129    0.821192   -1.239702
  C     -2.832190    0.162334   -2.314482
  C     -4.292193   -0.091728   -2.007013
  H      4.291275    1.328294   -1.729158
  H      5.577503    0.397810   -0.941432
  H      5.575685    0.594811   -2.702497
  H      4.745181   -1.686450   -2.056248
  H      3.471619   -0.720662   -2.861620
  H      2.744661   -0.043180    2.166301
  H      4.216159    0.742031    1.531661
  H      3.291018    1.960859    3.528603
  H      3.243550    2.975423    2.072871
  H      1.766972    2.200034    2.650767
  H     -0.193831   -3.155247   -0.435571
  H     -0.120968   -1.568792   -1.287605
  H     -4.959690    0.637785    2.155768
  H     -4.233734   -0.967196    1.844059
  H     -2.865635    1.298435    3.379392
  H     -3.630946   -0.121369    4.117703
  H     -2.199363   -0.309863    3.092605
  H     -2.708164    0.856870   -3.147216
  H     -2.311898   -0.771038   -2.545595
  H     -4.394535   -0.844786   -1.228898
  H     -4.771270    0.826660   -1.678103
  H     -4.780149   -0.447887   -2.909194

 Total Charge           Charge          ....    0
 Multiplicity           Mult            ....    1
 Number of Electrons    NEL             ....  202
 Basis Dimension        Dim             ....  334

ORBITAL ENERGIES
----------------

  NO   OCC          E(Eh)            E(eV)
   0   2.0000     -88.044119     -2395.8023
   1   2.0000     -88.036321     -2395.5901
   2   2.0000     -87.981068     -2394.0866
   3   2.0000     -87.969912     -2393.7830
   4   2.0000     -76.419524     -2079.4810
   5   2.0000     -76.418811     -2079.4616
   6   2.0000     -18.787691      -511.2391
   7   2.0000     -18.785753      -511.1863
   8   2.0000     -18.780082      -511.0320
   9   2.0000     -18.777510      -510.9620
  10   2.0000      -9.957310      -270.9522
  11   2.0000      -9.955940      -270.9149
  12   2.0000      -9.955253      -270.8962
  13   2.0000      -9.950881      -270.7773
  14   2.0000      -9.943781      -270.5840
  15   2.0000      -9.883871      -268.9538
  16   2.0000      -9.881733      -268.8956
  17   2.0000      -9.881169      -268.8803
  18   2.0000      -9.879295      -268.8293
  19   2.0000      -7.688843      -209.2241
  20   2.0000      -7.681674      -209.0290
  21   2.0000      -7.626288      -207.5218
  22   2.0000      -7.614874      -207.2113
  23   2.0000      -6.416628      -174.6053
  24   2.0000      -6.416314      -174.5968
  25   2.0000      -5.716439      -155.5522
  26   2.0000      -5.713256      -155.4656
  27   2.0000      -5.709608      -155.3663
  28   2.0000      -5.706502      -155.2818
  29   2.0000      -5.706258      -155.2752
  30   2.0000      -5.698174      -155.0552
  31   2.0000      -5.655214      -153.8862
  32   2.0000      -5.647373      -153.6728
  33   2.0000      -5.645861      -153.6317
  34   2.0000      -5.644027      -153.5818
  35   2.0000      -5.635349      -153.3456
  36   2.0000      -5.634932      -153.3343
  37   2.0000      -4.639444      -126.2457
  38   2.0000      -4.639133      -126.2372
  39   2.0000      -4.638661      -126.2244
  40   2.0000      -4.638070      -126.2083
  41   2.0000      -4.637182      -126.1841
  42   2.0000      -4.636120      -126.1552
  43   2.0000      -0.979627       -26.6570
  44   2.0000      -0.977201       -26.5910
  45   2.0000      -0.937801       -25.5189
  46   2.0000      -0.935417       -25.4540
  47   2.0000      -0.760036       -20.6816
  48   2.0000      -0.716799       -19.5051
  49   2.0000      -0.708460       -19.2782
  50   2.0000      -0.687302       -18.7025
  51   2.0000      -0.687100       -18.6970
  52   2.0000      -0.671070       -18.2607
  53   2.0000      -0.646767       -17.5994
  54   2.0000      -0.633007       -17.2250
  55   2.0000      -0.588623       -16.0172
  56   2.0000      -0.582574       -15.8527
  57   2.0000      -0.574404       -15.6303
  58   2.0000      -0.568950       -15.4819
  59   2.0000      -0.562146       -15.2968
  60   2.0000      -0.502285       -13.6679
  61   2.0000      -0.490259       -13.3406
  62   2.0000      -0.472646       -12.8614
  63   2.0000      -0.467325       -12.7166
  64   2.0000      -0.451882       -12.2963
  65   2.0000      -0.448673       -12.2090
  66   2.0000      -0.434996       -11.8368
  67   2.0000      -0.432898       -11.7798
  68   2.0000      -0.427452       -11.6316
  69   2.0000      -0.411366       -11.1938
  70   2.0000      -0.400392       -10.8952
  71   2.0000      -0.398611       -10.8468
  72   2.0000      -0.393978       -10.7207
  73   2.0000      -0.387789       -10.5523
  74   2.0000      -0.384137       -10.4529
  75   2.0000      -0.362748        -9.8709
  76   2.0000      -0.357579        -9.7302
  77   2.0000      -0.352459        -9.5909
  78   2.0000      -0.347616        -9.4591
  79   2.0000      -0.346599        -9.4314
  80   2.0000      -0.342739        -9.3264
  81   2.0000      -0.341002        -9.2791
  82   2.0000      -0.336991        -9.1700
  83   2.0000      -0.334970        -9.1150
  84   2.0000      -0.329467        -8.9653
  85   2.0000      -0.316550        -8.6138
  86   2.0000      -0.312270        -8.4973
  87   2.0000      -0.307189        -8.3590
  88   2.0000      -0.290588        -7.9073
  89   2.0000      -0.280455        -7.6316
  90   2.0000      -0.272180        -7.4064
  91   2.0000      -0.269265        -7.3271
  92   2.0000      -0.266855        -7.2615
  93   2.0000      -0.260296        -7.0830
  94   2.0000      -0.255573        -6.9545
  95   2.0000      -0.238176        -6.4811
  96   2.0000      -0.214700        -5.8423
  97   2.0000      -0.204376        -5.5614
  98   2.0000      -0.198338        -5.3970
  99   2.0000      -0.180023        -4.8987
 100   2.0000      -0.176423        -4.8007
 101   0.0000      -0.041500        -1.1293
 102   0.0000      -0.028172        -0.7666
 103   0.0000      -0.010454        -0.2845
 104   0.0000       0.002391         0.0651
 105   0.0000       0.025304         0.6886

MULLIKEN ATOMIC CHARGES
-----------------------
   0 C :   -0.318431
   1 C :   -0.004273
   2 O :   -0.389672
   3 P :    0.623126
   4 S :   -0.299365
   5 O :   -0.362543
   6 C :   -0.028296
   7 C :   -0.284681
   8 S :   -0.088874
   9 C :   -0.333572
  10 S :   -0.139458
  11 P :    0.604448
  12 S :   -0.305904
  13 O :   -0.374705
  14 C :   -0.011315
  15 C :   -0.308873
  16 O :   -0.346099
  17 C :    0.003731
  18 C :   -0.307580
  19 H :    0.131817
  20 H :    0.112308
  21 H :    0.110587
  22 H :    0.100292
  23 H :    0.105907
  24 H :    0.116255
  25 H :    0.105531
  26 H :    0.107290
  27 H :    0.118856
  28 H :    0.141530
  29 H :    0.182559
  30 H :    0.191645
  31 H :    0.109074
  32 H :    0.110724
  33 H :    0.128010
  34 H :    0.107942
  35 H :    0.126400
  36 H :    0.112344
  37 H :    0.105357
  38 H :    0.113324
  39 H :    0.123797
  40 H :    0.110786
Sum of atomic charges:    0.0000000

LOEWDIN ATOMIC CHARGES
----------------------
   0 C :   -0.366026
   1 C :   -0.122999
   2 O :   -0.267162
   3 P :    0.576298
   4 S :   -0.290858
   5 O :   -0.233658
   6 C :   -0.112774
   7 C :   -0.351710
   8 S :    0.082221
   9 C :   -0.477802
  10 S :    0.055881
  11 P :    0.562655
  12 S :   -0.302412
  13 O :   -0.243504
  14 C :   -0.114004
  15 C :   -0.371603
  16 O :   -0.225977
  17 C :   -0.109503
  18 C :   -0.367441
  19 H :    0.126600
  20 H :    0.121039
  21 H :    0.129859
  22 H :    0.115925
  23 H :    0.106292
  24 H :    0.106629
  25 H :    0.112000
  26 H :    0.128717
  27 H :    0.129116
  28 H :    0.130908
  29 H :    0.138160
  30 H :    0.119394
  31 H :    0.121371
  32 H :    0.106596
  33 H :    0.130201
  34 H :    0.128348
  35 H :    0.121201
  36 H :    0.124088
  37 H :    0.108467
  38 H :    0.116368
  39 H :    0.129284
  40 H :    0.129816

  Mayer bond orders larger than 0.100000
B(  0-C ,  1-C ) :   1.1593 B(  0-C , 19-H ) :   0.9371 B(  0-C , 20-H ) :   0.9450
B(  0-C , 21-H ) :   0.9394 B(  1-C ,  2-O ) :   0.9258 B(  1-C , 22-H ) :   0.9348
B(  1-C , 23-H ) :   0.9111 B(  2-O ,  3-P ) :   1.0667 B(  3-P ,  4-S ) :   1.6118
B(  3-P ,  5-O ) :   1.1188 B(  3-P ,  8-S ) :   0.9550 B(  4-S ,  8-S ) :   0.1081
B(  4-S , 30-H ) :   0.1180 B(  5-O ,  6-C ) :   0.8944 B(  6-C ,  7-C ) :   1.1636
B(  6-C , 24-H ) :   0.9131 B(  6-C , 25-H ) :   0.9279 B(  7-C , 26-H ) :   0.9398
B(  7-C , 27-H ) :   0.9488 B(  7-C , 28-H ) :   0.9409 B(  8-S ,  9-C ) :   1.0128
B(  9-C , 10-S ) :   0.9901 B(  9-C , 29-H ) :   0.9112 B(  9-C , 30-H ) :   0.8478
B( 10-S , 11-P ) :   0.9253 B( 10-S , 12-S ) :   0.1186 B( 11-P , 12-S ) :   1.6571
B( 11-P , 13-O ) :   1.0886 B( 11-P , 16-O ) :   1.1430 B( 13-O , 14-C ) :   0.9153
B( 14-C , 15-C ) :   1.1679 B( 14-C , 31-H ) :   0.9339 B( 14-C , 32-H ) :   0.9267
B( 15-C , 33-H ) :   0.9405 B( 15-C , 34-H ) :   0.9337 B( 15-C , 35-H ) :   0.9320
B( 16-O , 17-C ) :   0.9040 B( 17-C , 18-C ) :   1.1659 B( 17-C , 36-H ) :   0.9353
B( 17-C , 37-H ) :   0.9215 B( 18-C , 38-H ) :   0.9400 B( 18-C , 39-H ) :   0.9428
B( 18-C , 40-H ) :   0.9364

Dispersion correction           -0.067670826
FINAL SINGLE POINT ENERGY     -2929.504610475140

DIPOLE MOMENT
-------------

Method             : SCF
Type of density    : Electron Density
Multiplicity       :   1
Irrep              :   0
Energy             : -2929.6219003494234130 Eh
Relativity type    :
Basis              : AO
                                X                 Y                 Z
Electronic contribution:     -1.755289530      -3.813916105      -2.820252438
Nuclear contribution   :      1.658799637       2.842659370       3.012577211
                        -----------------------------------------
Total Dipole Moment    :     -0.096489893      -0.971256734       0.192324773
                        -----------------------------------------
Magnitude (a.u.)       :      0.994805892
Magnitude (Debye)      :      2.528595626

Rotational constants in cm-1:             0.012837             0.005395             0.004724
Rotational constants in MHz :           384.835981           161.729238           141.610872

                             ****ORCA TERMINATED NORMALLY****
TOTAL RUN TIME: 0 days 0 hours 0 minutes 21 seconds 279 msec
