                         Program Version 6.0.0  -   RELEASE  -
|  1> ! pbe def2-sv(p) def2/J RI DEFGRID1 loosescf d4 GCP(DFT/SV(P)) printgap
|  2> %output
|  3>     printlevel normal
|  4> end
|  5> * xyz 0 1
|  6> C 1.8279912617 -0.1174387295 1.61265e-05
|  7> C 0.6036497017 0.3991563502 1.97598e-05
|  8> C -0.6036510198 -0.3991538484 -0.0001296228
|  9> C -1.827990135 0.1174368364 5.4623e-05
| 10> H 2.7085550048 0.5009604284 6.12176e-05
| 11> H 1.9888695251 -1.1830406451 8.35121e-05
| 12> H 0.4638284609 1.4723702028 2.11975e-05
| 13> H -0.4638289534 -1.4723683008 0.0001811724
| 14> H -2.7085536746 -0.5009677815 0.0003571696
| 15> H -1.9888680805 1.1830388425 -0.0002381882
| 16> *
| 17>
| 18>                          ****END OF INPUT****

CARTESIAN COORDINATES (ANGSTROEM)
---------------------------------
  C      1.827991   -0.117439    0.000016
  C      0.603650    0.399156    0.000020
  C     -0.603651   -0.399154   -0.000130
  C     -1.827990    0.117437    0.000055
  H      2.708555    0.500960    0.000061
  H      1.988870   -1.183041    0.000084
  H      0.463828    1.472370    0.000021
  H     -0.463829   -1.472368    0.000181
  H     -2.708554   -0.500968    0.000357
  H     -1.988868    1.183039   -0.000238

 Total Charge           Charge          ....    0
 Multiplicity           Mult            ....    1
 Number of Electrons    NEL             ....   30
 Basis Dimension        Dim             ....   68

ORBITAL ENERGIES
----------------

  NO   OCC          E(Eh)            E(eV)
   0   2.0000      -9.897719      -269.3306
   1   2.0000      -9.897701      -269.3301
   2   2.0000      -9.885274      -268.9920
   3   2.0000      -9.885244      -268.9912
   4   2.0000      -0.728413       -19.8211
   5   2.0000      -0.658772       -17.9261
   6   2.0000      -0.541369       -14.7314
   7   2.0000      -0.496742       -13.5170
   8   2.0000      -0.419029       -11.4024
   9   2.0000      -0.416150       -11.3240
  10   2.0000      -0.349360        -9.5066
  11   2.0000      -0.342194        -9.3116
  12   2.0000      -0.304265        -8.2795
  13   2.0000      -0.295094        -8.0299
  14   2.0000      -0.210701        -5.7335
  15   0.0000      -0.058911        -1.6031
  16   0.0000       0.038137         1.0378
  17   0.0000       0.058607         1.5948
  18   0.0000       0.069758         1.8982
  19   0.0000       0.077987         2.1221

MULLIKEN ATOMIC CHARGES
-----------------------
   0 C :   -0.206528
   1 C :   -0.060043
   2 C :   -0.060043
   3 C :   -0.206528
   4 H :    0.102988
   5 H :    0.098111
   6 H :    0.065471
   7 H :    0.065471
   8 H :    0.102988
   9 H :    0.098111
Sum of atomic charges:   -0.0000000

LOEWDIN ATOMIC CHARGES
----------------------
   0 C :   -0.240105
   1 C :   -0.129994
   2 C :   -0.129994
   3 C :   -0.240105
   4 H :    0.124230
   5 H :    0.122153
   6 H :    0.123716
   7 H :    0.123716
   8 H :    0.124230
   9 H :    0.122153

  Mayer bond orders larger than 0.100000
B(  0-C ,  1-C ) :   1.9349 B(  0-C ,  3-C ) :   0.1505 B(  0-C ,  4-H ) :   0.9246
B(  0-C ,  5-H ) :   0.9224 B(  1-C ,  2-C ) :   1.1551 B(  1-C ,  6-H ) :   0.9363
B(  2-C ,  3-C ) :   1.9350 B(  2-C ,  7-H ) :   0.9363 B(  3-C ,  8-H ) :   0.9246
B(  3-C ,  9-H ) :   0.9224

Dispersion correction           -0.005779846
FINAL SINGLE POINT ENERGY      -155.611030516190

DIPOLE MOMENT
-------------

Method             : SCF
Type of density    : Electron Density
Multiplicity       :   1
Irrep              :   0
Energy             :  -155.6402403299807702 Eh
Relativity type    :
Basis              : AO
                                X                 Y                 Z
Electronic contribution:     -0.000001669       0.000006566      -0.000345727
Nuclear contribution   :      0.000002141      -0.000006805       0.000437264
                        -----------------------------------------
Total Dipole Moment    :      0.000000472      -0.000000239       0.000091537
                        -----------------------------------------
Magnitude (a.u.)       :      0.000091539
Magnitude (Debye)      :      0.000232672

Rotational constants in cm-1:             1.421802             0.150217             0.135862
Rotational constants in MHz :         42624.545369          4503.378425          4073.051474

                             ****ORCA TERMINATED NORMALLY****
TOTAL RUN TIME: 0 days 0 hours 0 minutes 5 seconds 328 msec
