                         Program Version 6.0.0  -   RELEASE  -
|  1> ! pbe def2-sv(p) def2/J RI DEFGRID1 loosescf d4 GCP(DFT/SV(P)) printgap
|  2> %output
|  3>     printlevel normal
|  4> end
|  5> * xyz 0 1
|  6> C 4.4776893444 -1.6286887775 -0.9037928038
|  7> C 4.6081869186 -0.205451703 -0.4003897998
|  8> O 3.5040047646 0.1849917495 0.4322514942
|  9> P 2.0235086428 0.3565355809 -0.1286471741
| 10> S 1.9319625136 1.1242307221 -1.9336895351
| 11> O 1.36098072 1.171823269 1.058373955
| 12> C 1.3497888031 2.6143438181 1.067652301
| 13> C 2.7421229827 3.1991049243 1.1688778765
| 14> S 1.1719056993 -1.5511754307 0.1712620159
| 15> C 0.1112716465 -1.6707054622 -1.3120826752
| 16> S -1.597054467 -2.1105506971 -0.9179122172
| 17> P -2.1126005891 -0.3964238324 0.19295821
| 18> S -1.4612161277 1.3168641066 -0.526878127
| 19> O -1.6137572903 -0.8589290482 1.6227212367
| 20> C -2.082714698 -0.3290903599 2.8811740562
| 21> C -1.4993605094 1.0393047578 3.1670969928
| 22> O -3.6895782036 -0.4566976968 0.3715364493
| 23> C -4.5950971662 0.1429210663 -0.5717258833
| 24> C -4.6090880278 -0.5985324977 -1.892290475
| 25> H 3.6454326258 -1.6992287652 -1.602921092
| 26> H 5.3917125717 -1.9126652116 -1.4153775333
| 27> H 4.2991373974 -2.3088343985 -0.0748301027
| 28> H 4.6681660368 0.4924812217 -1.2418176071
| 29> H 5.4780603963 -0.0848273603 0.2466460272
| 30> H 0.8426148089 2.95840959 0.1597759888
| 31> H 0.74078791 2.8665080215 1.936896885
| 32> H 2.668731371 4.2756775347 1.2870467555
| 33> H 3.2664839651 2.7729851306 2.0203525605
| 34> H 3.3041455041 2.9809451247 0.2615140281
| 35> H 0.4843886565 -2.4765092507 -1.9389876535
| 36> H 0.1430886343 -0.7140476451 -1.8412167207
| 37> H -3.1743500163 -0.3003868537 2.8621987588
| 38> H -1.7420172351 -1.0677172687 3.6088092262
| 39> H -1.8137449378 1.3684830422 4.152471866
| 40> H -0.4133202971 0.9911281196 3.1299458997
| 41> H -1.8417427277 1.7575540218 2.4232964291
| 42> H -5.563123734 0.0956191589 -0.0712213521
| 43> H -4.2999639575 1.1869320097 -0.718797513
| 44> H -4.7851786377 -1.658521283 -1.7285952295
| 45> H -5.3934613862 -0.1934846528 -2.5235144146
| 46> H -3.6517862847 -0.4771651768 -2.397370133
| 47> *
| 48>
| 49>                          ****END OF INPUT****

CARTESIAN COORDINATES (ANGSTROEM)
---------------------------------
  C      4.477689   -1.628689   -0.903793
  C      4.608187   -0.205452   -0.400390
  O      3.504005    0.184992    0.432251
  P      2.023509    0.356536   -0.128647
  S      1.931963    1.124231   -1.933690
  O      1.360981    1.171823    1.058374
  C      1.349789    2.614344    1.067652
  C      2.742123    3.199105    1.168878
  S      1.171906   -1.551175    0.171262
  C      0.111272   -1.670705   -1.312083
  S     -1.597054   -2.110551   -0.917912
  P     -2.112601   -0.396424    0.192958
  S     -1.461216    1.316864   -0.526878
  O     -1.613757   -0.858929    1.622721
  C     -2.082715   -0.329090    2.881174
  C     -1.499361    1.039305    3.167097
  O     -3.689578   -0.456698    0.371536
  C     -4.595097    0.142921   -0.571726
  C     -4.609088   -0.598532   -1.892290
  H      3.645433   -1.699229   -1.602921
  H      5.391713   -1.912665   -1.415378
  H      4.299137   -2.308834   -0.074830
  H      4.668166    0.492481   -1.241818
  H      5.478060   -0.084827    0.246646
  H      0.842615    2.958410    0.159776
  H      0.740788    2.866508    1.936897
  H      2.668731    4.275678    1.287047
  H      3.266484    2.772985    2.020353
  H      3.304146    2.980945    0.261514
  H      0.484389   -2.476509   -1.938988
  H      0.143089   -0.714048   -1.841217
  H     -3.174350   -0.300387    2.862199
  H     -1.742017   -1.067717    3.608809
  H     -1.813745    1.368483    4.152472
  H     -0.413320    0.991128    3.129946
  H     -1.841743    1.757554    2.423296
  H     -5.563124    0.095619   -0.071221
  H     -4.299964    1.186932   -0.718798
  H     -4.785179   -1.658521   -1.728595
  H     -5.393461   -0.193485   -2.523514
  H     -3.651786   -0.477165   -2.397370

 Total Charge           Charge          ....    0
 Multiplicity           Mult            ....    1
 Number of Electrons    NEL             ....  202
 Basis Dimension        Dim             ....  334

ORBITAL ENERGIES
----------------

  NO   OCC          E(Eh)            E(eV)
   0   2.0000     -88.040918     -2395.7152
   1   2.0000     -88.037471     -2395.6214
   2   2.0000     -87.984111     -2394.1694
   3   2.0000     -87.982912     -2394.1368
   4   2.0000     -76.425144     -2079.6339
   5   2.0000     -76.421535     -2079.5357
   6   2.0000     -18.796242      -511.4717
   7   2.0000     -18.787151      -511.2244
   8   2.0000     -18.784445      -511.1507
   9   2.0000     -18.782950      -511.1100
  10   2.0000      -9.952982      -270.8344
  11   2.0000      -9.952141      -270.8115
  12   2.0000      -9.951832      -270.8031
  13   2.0000      -9.948206      -270.7044
  14   2.0000      -9.942770      -270.5565
  15   2.0000      -9.884030      -268.9581
  16   2.0000      -9.880669      -268.8667
  17   2.0000      -9.879166      -268.8258
  18   2.0000      -9.877664      -268.7849
  19   2.0000      -7.686569      -209.1622
  20   2.0000      -7.682523      -209.0521
  21   2.0000      -7.629023      -207.5963
  22   2.0000      -7.627469      -207.5540
  23   2.0000      -6.422463      -174.7641
  24   2.0000      -6.419007      -174.6700
  25   2.0000      -5.714591      -155.5019
  26   2.0000      -5.711016      -155.4047
  27   2.0000      -5.710413      -155.3882
  28   2.0000      -5.707200      -155.3008
  29   2.0000      -5.703360      -155.1963
  30   2.0000      -5.699261      -155.0848
  31   2.0000      -5.657852      -153.9580
  32   2.0000      -5.656271      -153.9150
  33   2.0000      -5.649829      -153.7397
  34   2.0000      -5.649089      -153.7195
  35   2.0000      -5.648235      -153.6963
  36   2.0000      -5.647643      -153.6802
  37   2.0000      -4.645417      -126.4082
  38   2.0000      -4.644036      -126.3706
  39   2.0000      -4.642780      -126.3365
  40   2.0000      -4.641246      -126.2947
  41   2.0000      -4.640632      -126.2780
  42   2.0000      -4.639913      -126.2585
  43   2.0000      -0.986994       -26.8575
  44   2.0000      -0.980753       -26.6876
  45   2.0000      -0.942567       -25.6486
  46   2.0000      -0.938472       -25.5371
  47   2.0000      -0.760520       -20.6948
  48   2.0000      -0.718108       -19.5407
  49   2.0000      -0.704543       -19.1716
  50   2.0000      -0.687147       -18.6982
  51   2.0000      -0.682086       -18.5605
  52   2.0000      -0.671801       -18.2806
  53   2.0000      -0.650317       -17.6960
  54   2.0000      -0.632381       -17.2080
  55   2.0000      -0.600317       -16.3355
  56   2.0000      -0.590264       -16.0619
  57   2.0000      -0.576501       -15.6874
  58   2.0000      -0.566576       -15.4173
  59   2.0000      -0.555531       -15.1168
  60   2.0000      -0.497467       -13.5368
  61   2.0000      -0.486835       -13.2474
  62   2.0000      -0.469279       -12.7697
  63   2.0000      -0.466007       -12.6807
  64   2.0000      -0.451251       -12.2792
  65   2.0000      -0.444852       -12.1050
  66   2.0000      -0.434976       -11.8363
  67   2.0000      -0.432414       -11.7666
  68   2.0000      -0.425395       -11.5756
  69   2.0000      -0.413116       -11.2415
  70   2.0000      -0.410437       -11.1686
  71   2.0000      -0.403044       -10.9674
  72   2.0000      -0.388650       -10.5757
  73   2.0000      -0.384723       -10.4688
  74   2.0000      -0.377897       -10.2831
  75   2.0000      -0.375211       -10.2100
  76   2.0000      -0.367284        -9.9943
  77   2.0000      -0.353404        -9.6166
  78   2.0000      -0.350184        -9.5290
  79   2.0000      -0.347278        -9.4499
  80   2.0000      -0.343694        -9.3524
  81   2.0000      -0.340225        -9.2580
  82   2.0000      -0.336772        -9.1640
  83   2.0000      -0.334255        -9.0955
  84   2.0000      -0.330405        -8.9908
  85   2.0000      -0.314447        -8.5565
  86   2.0000      -0.307343        -8.3632
  87   2.0000      -0.295748        -8.0477
  88   2.0000      -0.290676        -7.9097
  89   2.0000      -0.287358        -7.8194
  90   2.0000      -0.278806        -7.5867
  91   2.0000      -0.273973        -7.4552
  92   2.0000      -0.265510        -7.2249
  93   2.0000      -0.260432        -7.0867
  94   2.0000      -0.258357        -7.0302
  95   2.0000      -0.232605        -6.3295
  96   2.0000      -0.216768        -5.8986
  97   2.0000      -0.213668        -5.8142
  98   2.0000      -0.200801        -5.4641
  99   2.0000      -0.192759        -5.2452
 100   2.0000      -0.188597        -5.1320
 101   0.0000      -0.041789        -1.1371
 102   0.0000      -0.029967        -0.8154
 103   0.0000      -0.007803        -0.2123
 104   0.0000       0.015974         0.4347
 105   0.0000       0.020734         0.5642

MULLIKEN ATOMIC CHARGES
-----------------------
   0 C :   -0.308562
   1 C :   -0.002215
   2 O :   -0.374788
   3 P :    0.615519
   4 S :   -0.321541
   5 O :   -0.359368
   6 C :   -0.010148
   7 C :   -0.299708
   8 S :   -0.080391
   9 C :   -0.365040
  10 S :   -0.086885
  11 P :    0.626995
  12 S :   -0.320396
  13 O :   -0.359675
  14 C :   -0.000269
  15 C :   -0.327630
  16 O :   -0.380399
  17 C :   -0.004111
  18 C :   -0.317797
  19 H :    0.118227
  20 H :    0.110341
  21 H :    0.118502
  22 H :    0.108322
  23 H :    0.102950
  24 H :    0.121448
  25 H :    0.103926
  26 H :    0.108874
  27 H :    0.113357
  28 H :    0.121355
  29 H :    0.180898
  30 H :    0.211498
  31 H :    0.105412
  32 H :    0.106933
  33 H :    0.104601
  34 H :    0.137494
  35 H :    0.125077
  36 H :    0.103361
  37 H :    0.111617
  38 H :    0.117717
  39 H :    0.114200
  40 H :    0.130299
Sum of atomic charges:    0.0000000

LOEWDIN ATOMIC CHARGES
----------------------
   0 C :   -0.369158
   1 C :   -0.119827
   2 O :   -0.246985
   3 P :    0.576222
   4 S :   -0.309078
   5 O :   -0.236320
   6 C :   -0.118335
   7 C :   -0.366125
   8 S :    0.091211
   9 C :   -0.479648
  10 S :    0.088044
  11 P :    0.568187
  12 S :   -0.301807
  13 O :   -0.240260
  14 C :   -0.107535
  15 C :   -0.368759
  16 O :   -0.244942
  17 C :   -0.120524
  18 C :   -0.369364
  19 H :    0.118674
  20 H :    0.129312
  21 H :    0.124121
  22 H :    0.108810
  23 H :    0.117584
  24 H :    0.109751
  25 H :    0.115872
  26 H :    0.129257
  27 H :    0.124767
  28 H :    0.120886
  29 H :    0.135025
  30 H :    0.124971
  31 H :    0.110588
  32 H :    0.120578
  33 H :    0.126311
  34 H :    0.130689
  35 H :    0.120779
  36 H :    0.117596
  37 H :    0.110277
  38 H :    0.124553
  39 H :    0.131860
  40 H :    0.122739

  Mayer bond orders larger than 0.100000
B(  0-C ,  1-C ) :   1.1669 B(  0-C , 19-H ) :   0.9376 B(  0-C , 20-H ) :   0.9378
B(  0-C , 21-H ) :   0.9433 B(  1-C ,  2-O ) :   0.9156 B(  1-C , 22-H ) :   0.9151
B(  1-C , 23-H ) :   0.9342 B(  2-O ,  3-P ) :   1.0955 B(  3-P ,  4-S ) :   1.5828
B(  3-P ,  5-O ) :   1.1330 B(  3-P ,  8-S ) :   0.9695 B(  4-S ,  8-S ) :   0.1178
B(  5-O ,  6-C ) :   0.9042 B(  6-C ,  7-C ) :   1.1616 B(  6-C , 24-H ) :   0.9161
B(  6-C , 25-H ) :   0.9303 B(  7-C , 26-H ) :   0.9384 B(  7-C , 27-H ) :   0.9445
B(  7-C , 28-H ) :   0.9352 B(  8-S ,  9-C ) :   0.9983 B(  9-C , 10-S ) :   1.0053
B(  9-C , 29-H ) :   0.9106 B(  9-C , 30-H ) :   0.8485 B( 10-S , 11-P ) :   0.9527
B( 10-S , 12-S ) :   0.1151 B( 11-P , 12-S ) :   1.6191 B( 11-P , 13-O ) :   1.1265
B( 11-P , 16-O ) :   1.0897 B( 13-O , 14-C ) :   0.9109 B( 14-C , 15-C ) :   1.1647
B( 14-C , 31-H ) :   0.9270 B( 14-C , 32-H ) :   0.9354 B( 15-C , 33-H ) :   0.9364
B( 15-C , 34-H ) :   0.9342 B( 15-C , 35-H ) :   0.9350 B( 16-O , 17-C ) :   0.9060
B( 17-C , 18-C ) :   1.1661 B( 17-C , 36-H ) :   0.9329 B( 17-C , 37-H ) :   0.9122
B( 18-C , 38-H ) :   0.9453 B( 18-C , 39-H ) :   0.9379 B( 18-C , 40-H ) :   0.9344

Dispersion correction           -0.068062047
FINAL SINGLE POINT ENERGY     -2929.519353903170

DIPOLE MOMENT
-------------

Method             : SCF
Type of density    : Electron Density
Multiplicity       :   1
Irrep              :   0
Energy             : -2929.6370596427759665 Eh
Relativity type    :
Basis              : AO
                                X                 Y                 Z
Electronic contribution:     -2.477238619      -8.514838552      -5.467773267
Nuclear contribution   :      2.186488209       8.377533626       6.217290422
                        -----------------------------------------
Total Dipole Moment    :     -0.290750410      -0.137304927       0.749517155
                        -----------------------------------------
Magnitude (a.u.)       :      0.815576121
Magnitude (Debye)      :      2.073029754

Rotational constants in cm-1:             0.012563             0.005476             0.004924
Rotational constants in MHz :           376.614325           164.151746           147.607222

                             ****ORCA TERMINATED NORMALLY****
TOTAL RUN TIME: 0 days 0 hours 0 minutes 21 seconds 721 msec
