                         Program Version 6.0.1  -  RELEASE   -
|  1> ! r2scan-3c def2/J RI DEFGRID2 scfconv6 printgap
|  2> %output
|  3>     printlevel normal
|  4> end
|  5> * xyz 0 1
|  6> C 2.0357332268 -3.2609251591 -2.8137581068
|  7> C 3.0484322545 -3.0555313715 -1.6982739709
|  8> O 2.8666559578 -1.7627136455 -1.0890131521
|  9> C 2.0483600091 -1.6607216385 -0.0626844296
| 10> O 1.4841618241 -2.5902710118 0.4700648792
| 11> C 1.8654720378 -0.2122473385 0.3532302771
| 12> C 0.9916245807 0.4819166376 -0.6927200523
| 13> H 1.5501960069 0.5986110448 -1.6265402979
| 14> C 0.4945703317 1.8487628727 -0.2527092029
| 15> O -0.6311872234 2.2412521285 -0.4896945296
| 16> O 1.4159814838 2.5340263848 0.3619986052
| 17> C 1.0566215403 3.8406956078 0.8611006288
| 18> C 2.2951589516 4.4615216127 1.4736020546
| 19> S -0.4663729458 -0.5094877814 -1.1657706991
| 20> P -1.7785615428 -0.0632199726 0.4446272498
| 21> S -1.0724140902 0.6308073144 2.1335522163
| 22> O -2.987493915 0.787108214 -0.1060118371
| 23> C -3.6806820487 0.4656107118 -1.3274798403
| 24> O -2.5033995548 -1.4865511724 0.6173159618
| 25> C -1.8444554414 -2.5784518965 1.2661271681
| 26> H 2.1960909858 -4.2315055414 -3.2709956062
| 27> H 1.0249386561 -3.2177697399 -2.413785862
| 28> H 2.1440489348 -2.4863417262 -3.5673849323
| 29> H 4.0684767331 -3.0412739667 -2.0823560861
| 30> H 2.9410838812 -3.82321445 -0.9270476154
| 31> H 2.8303026636 0.2910637664 0.3978683877
| 32> H 1.385520568 -0.1859279515 1.3330495786
| 33> H 0.6672623112 4.4321206981 0.0270664248
| 34> H 0.2563212946 3.7085833098 1.5963104778
| 35> H 3.0774951346 4.5496102421 0.7260263452
| 36> H 2.0481021308 5.4473209398 1.8528175982
| 37> H 2.6537235689 3.8439107739 2.2911626935
| 38> H -4.4405739502 1.2358898225 -1.428902017
| 39> H -4.1320266452 -0.522007544 -1.2496975149
| 40> H -2.9852340327 0.4993532957 -2.1661051056
| 41> H -2.5364406518 -3.413829638 1.2063839528
| 42> H -1.6397362277 -2.3215239001 2.3061159257
| 43> H -0.9050708417 -2.8198826203 0.7662901732
| 44> *
| 45>
| 46>                          ****END OF INPUT****

CARTESIAN COORDINATES (ANGSTROEM)
---------------------------------
  C      2.035733   -3.260925   -2.813758
  C      3.048432   -3.055531   -1.698274
  O      2.866656   -1.762714   -1.089013
  C      2.048360   -1.660722   -0.062684
  O      1.484162   -2.590271    0.470065
  C      1.865472   -0.212247    0.353230
  C      0.991625    0.481917   -0.692720
  H      1.550196    0.598611   -1.626540
  C      0.494570    1.848763   -0.252709
  O     -0.631187    2.241252   -0.489695
  O      1.415981    2.534026    0.361999
  C      1.056622    3.840696    0.861101
  C      2.295159    4.461522    1.473602
  S     -0.466373   -0.509488   -1.165771
  P     -1.778562   -0.063220    0.444627
  S     -1.072414    0.630807    2.133552
  O     -2.987494    0.787108   -0.106012
  C     -3.680682    0.465611   -1.327480
  O     -2.503400   -1.486551    0.617316
  C     -1.844455   -2.578452    1.266127
  H      2.196091   -4.231506   -3.270996
  H      1.024939   -3.217770   -2.413786
  H      2.144049   -2.486342   -3.567385
  H      4.068477   -3.041274   -2.082356
  H      2.941084   -3.823214   -0.927048
  H      2.830303    0.291064    0.397868
  H      1.385521   -0.185928    1.333050
  H      0.667262    4.432121    0.027066
  H      0.256321    3.708583    1.596310
  H      3.077495    4.549610    0.726026
  H      2.048102    5.447321    1.852818
  H      2.653724    3.843911    2.291163
  H     -4.440574    1.235890   -1.428902
  H     -4.132027   -0.522008   -1.249698
  H     -2.985234    0.499353   -2.166105
  H     -2.536441   -3.413830    1.206384
  H     -1.639736   -2.321524    2.306116
  H     -0.905071   -2.819883    0.766290

 Total Charge           Charge          ....    0
 Multiplicity           Mult            ....    1
 Number of Electrons    NEL             ....  174
 Basis Dimension        Dim             ....  510

ORBITAL ENERGIES
----------------

  NO   OCC          E(Eh)            E(eV)
   0   2.0000     -88.570840     -2410.1351
   1   2.0000     -88.510545     -2408.4944
   2   2.0000     -76.907435     -2092.7577
   3   2.0000     -19.012105      -517.3457
   4   2.0000     -19.006668      -517.1977
   5   2.0000     -18.982411      -516.5377
   6   2.0000     -18.977712      -516.4098
   7   2.0000     -18.935852      -515.2707
   8   2.0000     -18.934598      -515.2366
   9   2.0000     -10.167406      -276.6692
  10   2.0000     -10.160652      -276.4854
  11   2.0000     -10.102789      -274.9109
  12   2.0000     -10.097629      -274.7704
  13   2.0000     -10.097269      -274.7607
  14   2.0000     -10.088376      -274.5187
  15   2.0000     -10.072472      -274.0859
  16   2.0000     -10.052405      -273.5399
  17   2.0000     -10.035614      -273.0829
  18   2.0000     -10.034030      -273.0399
  19   2.0000      -7.865463      -214.0301
  20   2.0000      -7.805655      -212.4027
  21   2.0000      -6.585370      -179.1970
  22   2.0000      -5.812537      -158.1672
  23   2.0000      -5.809334      -158.0800
  24   2.0000      -5.802282      -157.8881
  25   2.0000      -5.753600      -156.5634
  26   2.0000      -5.746029      -156.3574
  27   2.0000      -5.745209      -156.3351
  28   2.0000      -4.730973      -128.7363
  29   2.0000      -4.730536      -128.7244
  30   2.0000      -4.728940      -128.6810
  31   2.0000      -1.090301       -29.6686
  32   2.0000      -1.082599       -29.4590
  33   2.0000      -1.038748       -28.2658
  34   2.0000      -0.996068       -27.1044
  35   2.0000      -0.988688       -26.9036
  36   2.0000      -0.984654       -26.7938
  37   2.0000      -0.812397       -22.1064
  38   2.0000      -0.757092       -20.6015
  39   2.0000      -0.750933       -20.4339
  40   2.0000      -0.724320       -19.7098
  41   2.0000      -0.693605       -18.8739
  42   2.0000      -0.663703       -18.0603
  43   2.0000      -0.656857       -17.8740
  44   2.0000      -0.649088       -17.6626
  45   2.0000      -0.627224       -17.0676
  46   2.0000      -0.598161       -16.2768
  47   2.0000      -0.544600       -14.8193
  48   2.0000      -0.533065       -14.5054
  49   2.0000      -0.525571       -14.3015
  50   2.0000      -0.501948       -13.6587
  51   2.0000      -0.482474       -13.1288
  52   2.0000      -0.477654       -12.9976
  53   2.0000      -0.472410       -12.8549
  54   2.0000      -0.464390       -12.6367
  55   2.0000      -0.450845       -12.2681
  56   2.0000      -0.440196       -11.9783
  57   2.0000      -0.440030       -11.9738
  58   2.0000      -0.434737       -11.8298
  59   2.0000      -0.425121       -11.5681
  60   2.0000      -0.417504       -11.3609
  61   2.0000      -0.411168       -11.1884
  62   2.0000      -0.407468       -11.0878
  63   2.0000      -0.397312       -10.8114
  64   2.0000      -0.391276       -10.6472
  65   2.0000      -0.383884       -10.4460
  66   2.0000      -0.378554       -10.3010
  67   2.0000      -0.376381       -10.2418
  68   2.0000      -0.361039        -9.8244
  69   2.0000      -0.351483        -9.5643
  70   2.0000      -0.349968        -9.5231
  71   2.0000      -0.345315        -9.3965
  72   2.0000      -0.336322        -9.1518
  73   2.0000      -0.325810        -8.8657
  74   2.0000      -0.325358        -8.8535
  75   2.0000      -0.314456        -8.5568
  76   2.0000      -0.309072        -8.4103
  77   2.0000      -0.303491        -8.2584
  78   2.0000      -0.284752        -7.7485
  79   2.0000      -0.280600        -7.6355
  80   2.0000      -0.277785        -7.5589
  81   2.0000      -0.265135        -7.2147
  82   2.0000      -0.255505        -6.9526
  83   2.0000      -0.237583        -6.4650
  84   2.0000      -0.229566        -6.2468
  85   2.0000      -0.210349        -5.7239
  86   2.0000      -0.205600        -5.5947
  87   0.0000      -0.044766        -1.2181
  88   0.0000      -0.031663        -0.8616
  89   0.0000      -0.014139        -0.3847
  90   0.0000       0.005492         0.1494
  91   0.0000       0.022827         0.6212

MULLIKEN ATOMIC CHARGES
-----------------------
   0 C :   -0.477317
   1 C :   -0.128279
   2 O :   -0.165701
   3 C :    0.394470
   4 O :   -0.394710
   5 C :   -0.479579
   6 C :    0.067440
   7 H :    0.196619
   8 C :    0.227378
   9 O :   -0.380562
  10 O :   -0.122312
  11 C :   -0.154416
  12 C :   -0.447055
  13 S :   -0.187077
  14 P :    0.793999
  15 S :   -0.460873
  16 O :   -0.299225
  17 C :   -0.301763
  18 O :   -0.359108
  19 C :   -0.301215
  20 H :    0.149236
  21 H :    0.176163
  22 H :    0.153120
  23 H :    0.149324
  24 H :    0.173825
  25 H :    0.175175
  26 H :    0.219959
  27 H :    0.158797
  28 H :    0.177164
  29 H :    0.151230
  30 H :    0.150936
  31 H :    0.157269
  32 H :    0.155607
  33 H :    0.167321
  34 H :    0.168323
  35 H :    0.142732
  36 H :    0.169109
  37 H :    0.183995
Sum of atomic charges:    0.0000000

LOEWDIN ATOMIC CHARGES
----------------------
   0 C :   -0.390521
   1 C :    0.030346
   2 O :   -0.590653
   3 C :    0.338949
   4 O :   -0.441834
   5 C :   -0.209651
   6 C :   -0.189456
   7 H :    0.204373
   8 C :    0.333994
   9 O :   -0.450397
  10 O :   -0.575362
  11 C :    0.039527
  12 C :   -0.384518
  13 S :    0.222986
  14 P :    0.417220
  15 S :   -0.070991
  16 O :   -0.639627
  17 C :   -0.051321
  18 O :   -0.689088
  19 C :   -0.061908
  20 H :    0.159932
  21 H :    0.166585
  22 H :    0.156849
  23 H :    0.178257
  24 H :    0.190778
  25 H :    0.189437
  26 H :    0.200601
  27 H :    0.181248
  28 H :    0.189413
  29 H :    0.158810
  30 H :    0.161745
  31 H :    0.161504
  32 H :    0.180777
  33 H :    0.171722
  34 H :    0.173830
  35 H :    0.172469
  36 H :    0.175494
  37 H :    0.188479

  Mayer bond orders larger than 0.100000
B(  0-C ,  1-C ) :   0.9291 B(  0-C , 20-H ) :   0.9649 B(  0-C , 21-H ) :   0.9685
B(  0-C , 22-H ) :   0.9728 B(  1-C ,  2-O ) :   0.8026 B(  1-C , 23-H ) :   0.9626
B(  1-C , 24-H ) :   0.9681 B(  2-O ,  3-C ) :   1.0319 B(  3-C ,  4-O ) :   1.8217
B(  3-C ,  5-C ) :   0.9172 B(  5-C ,  6-C ) :   0.9083 B(  5-C , 25-H ) :   0.9385
B(  5-C , 26-H ) :   0.9742 B(  6-C ,  7-H ) :   0.8783 B(  6-C ,  8-C ) :   0.9337
B(  6-C , 13-S ) :   0.8260 B(  8-C ,  9-O ) :   1.7785 B(  8-C , 10-O ) :   1.1679
B( 10-O , 11-C ) :   0.7790 B( 11-C , 12-C ) :   0.9432 B( 11-C , 27-H ) :   0.9532
B( 11-C , 28-H ) :   0.9456 B( 12-C , 29-H ) :   0.9745 B( 12-C , 30-H ) :   0.9668
B( 12-C , 31-H ) :   0.9707 B( 13-S , 14-P ) :   0.9887 B( 14-P , 15-S ) :   1.7430
B( 14-P , 16-O ) :   1.1925 B( 14-P , 18-O ) :   1.0285 B( 16-O , 17-C ) :   0.7990
B( 17-C , 32-H ) :   0.9649 B( 17-C , 33-H ) :   0.9633 B( 17-C , 34-H ) :   0.9572
B( 18-O , 19-C ) :   0.8349 B( 19-C , 35-H ) :   0.9690 B( 19-C , 36-H ) :   0.9582
B( 19-C , 37-H ) :   0.9424

Dispersion correction           -0.017697224
FINAL SINGLE POINT ENERGY     -1981.447849180718

DIPOLE MOMENT
-------------

Method             : SCF
Type of density    : Electron Density
Multiplicity       :   1
Irrep              :   0
Energy             : -1981.4676512495493625 Eh
Relativity type    :
Basis              : AO
                                X                 Y                 Z
Electronic contribution:    -10.140928872       1.349806244       4.941181070
Nuclear contribution   :     11.201991390      -1.317869501      -6.273326767
                        -----------------------------------------
Total Dipole Moment    :      1.061062518       0.031936743      -1.332145697
                        -----------------------------------------
Magnitude (a.u.)       :      1.703374821
Magnitude (Debye)      :      4.329634714

Rotational constants in cm-1:             0.010631             0.008560             0.005995
Rotational constants in MHz :           318.715921           256.608786           179.715086

                             ****ORCA TERMINATED NORMALLY****
TOTAL RUN TIME: 0 days 0 hours 1 minutes 18 seconds 771 msec
