                         Program Version 6.0.1  -  RELEASE   -
|  1> ! r2scan-3c def2/J RI DEFGRID2 scfconv6 printgap
|  2> %output
|  3>     printlevel normal
|  4> end
|  5> %cpcm
|  6>     smd true
|  7>     smdsolvent "water"
|  8> end
|  9> * xyz 0 1
| 10> C 2.0357332268 -3.2609251591 -2.8137581068
| 11> C 3.0484322545 -3.0555313715 -1.6982739709
| 12> O 2.8666559578 -1.7627136455 -1.0890131521
| 13> C 2.0483600091 -1.6607216385 -0.0626844296
| 14> O 1.4841618241 -2.5902710118 0.4700648792
| 15> C 1.8654720378 -0.2122473385 0.3532302771
| 16> C 0.9916245807 0.4819166376 -0.6927200523
| 17> H 1.5501960069 0.5986110448 -1.6265402979
| 18> C 0.4945703317 1.8487628727 -0.2527092029
| 19> O -0.6311872234 2.2412521285 -0.4896945296
| 20> O 1.4159814838 2.5340263848 0.3619986052
| 21> C 1.0566215403 3.8406956078 0.8611006288
| 22> C 2.2951589516 4.4615216127 1.4736020546
| 23> S -0.4663729458 -0.5094877814 -1.1657706991
| 24> P -1.7785615428 -0.0632199726 0.4446272498
| 25> S -1.0724140902 0.6308073144 2.1335522163
| 26> O -2.987493915 0.787108214 -0.1060118371
| 27> C -3.6806820487 0.4656107118 -1.3274798403
| 28> O -2.5033995548 -1.4865511724 0.6173159618
| 29> C -1.8444554414 -2.5784518965 1.2661271681
| 30> H 2.1960909858 -4.2315055414 -3.2709956062
| 31> H 1.0249386561 -3.2177697399 -2.413785862
| 32> H 2.1440489348 -2.4863417262 -3.5673849323
| 33> H 4.0684767331 -3.0412739667 -2.0823560861
| 34> H 2.9410838812 -3.82321445 -0.9270476154
| 35> H 2.8303026636 0.2910637664 0.3978683877
| 36> H 1.385520568 -0.1859279515 1.3330495786
| 37> H 0.6672623112 4.4321206981 0.0270664248
| 38> H 0.2563212946 3.7085833098 1.5963104778
| 39> H 3.0774951346 4.5496102421 0.7260263452
| 40> H 2.0481021308 5.4473209398 1.8528175982
| 41> H 2.6537235689 3.8439107739 2.2911626935
| 42> H -4.4405739502 1.2358898225 -1.428902017
| 43> H -4.1320266452 -0.522007544 -1.2496975149
| 44> H -2.9852340327 0.4993532957 -2.1661051056
| 45> H -2.5364406518 -3.413829638 1.2063839528
| 46> H -1.6397362277 -2.3215239001 2.3061159257
| 47> H -0.9050708417 -2.8198826203 0.7662901732
| 48> *
| 49>
| 50>                          ****END OF INPUT****

CARTESIAN COORDINATES (ANGSTROEM)
---------------------------------
  C      2.035733   -3.260925   -2.813758
  C      3.048432   -3.055531   -1.698274
  O      2.866656   -1.762714   -1.089013
  C      2.048360   -1.660722   -0.062684
  O      1.484162   -2.590271    0.470065
  C      1.865472   -0.212247    0.353230
  C      0.991625    0.481917   -0.692720
  H      1.550196    0.598611   -1.626540
  C      0.494570    1.848763   -0.252709
  O     -0.631187    2.241252   -0.489695
  O      1.415981    2.534026    0.361999
  C      1.056622    3.840696    0.861101
  C      2.295159    4.461522    1.473602
  S     -0.466373   -0.509488   -1.165771
  P     -1.778562   -0.063220    0.444627
  S     -1.072414    0.630807    2.133552
  O     -2.987494    0.787108   -0.106012
  C     -3.680682    0.465611   -1.327480
  O     -2.503400   -1.486551    0.617316
  C     -1.844455   -2.578452    1.266127
  H      2.196091   -4.231506   -3.270996
  H      1.024939   -3.217770   -2.413786
  H      2.144049   -2.486342   -3.567385
  H      4.068477   -3.041274   -2.082356
  H      2.941084   -3.823214   -0.927048
  H      2.830303    0.291064    0.397868
  H      1.385521   -0.185928    1.333050
  H      0.667262    4.432121    0.027066
  H      0.256321    3.708583    1.596310
  H      3.077495    4.549610    0.726026
  H      2.048102    5.447321    1.852818
  H      2.653724    3.843911    2.291163
  H     -4.440574    1.235890   -1.428902
  H     -4.132027   -0.522008   -1.249698
  H     -2.985234    0.499353   -2.166105
  H     -2.536441   -3.413830    1.206384
  H     -1.639736   -2.321524    2.306116
  H     -0.905071   -2.819883    0.766290

 Total Charge           Charge          ....    0
 Multiplicity           Mult            ....    1
 Number of Electrons    NEL             ....  174
 Basis Dimension        Dim             ....  510

ORBITAL ENERGIES
----------------

  NO   OCC          E(Eh)            E(eV)
   0   2.0000     -88.579074     -2410.3592
   1   2.0000     -88.527987     -2408.9690
   2   2.0000     -76.921507     -2093.1406
   3   2.0000     -19.016457      -517.4641
   4   2.0000     -19.008435      -517.2458
   5   2.0000     -18.996524      -516.9217
   6   2.0000     -18.990766      -516.7650
   7   2.0000     -18.950452      -515.6680
   8   2.0000     -18.947299      -515.5822
   9   2.0000     -10.178354      -276.9671
  10   2.0000     -10.169571      -276.7281
  11   2.0000     -10.103204      -274.9221
  12   2.0000     -10.089792      -274.5572
  13   2.0000     -10.085736      -274.4468
  14   2.0000     -10.084731      -274.4195
  15   2.0000     -10.077833      -274.2318
  16   2.0000     -10.052769      -273.5498
  17   2.0000     -10.020656      -272.6759
  18   2.0000     -10.019713      -272.6503
  19   2.0000      -7.873598      -214.2515
  20   2.0000      -7.823368      -212.8847
  21   2.0000      -6.599618      -179.5847
  22   2.0000      -5.820665      -158.3883
  23   2.0000      -5.817461      -158.3012
  24   2.0000      -5.810446      -158.1103
  25   2.0000      -5.771199      -157.0423
  26   2.0000      -5.763748      -156.8395
  27   2.0000      -5.762971      -156.8184
  28   2.0000      -4.745233      -129.1244
  29   2.0000      -4.744707      -129.1100
  30   2.0000      -4.743247      -129.0703
  31   2.0000      -1.096475       -29.8366
  32   2.0000      -1.086358       -29.5613
  33   2.0000      -1.052298       -28.6345
  34   2.0000      -1.009078       -27.4584
  35   2.0000      -1.001368       -27.2486
  36   2.0000      -0.995131       -27.0789
  37   2.0000      -0.815016       -22.1777
  38   2.0000      -0.749903       -20.4059
  39   2.0000      -0.748093       -20.3566
  40   2.0000      -0.728954       -19.8359
  41   2.0000      -0.695601       -18.9283
  42   2.0000      -0.667979       -18.1766
  43   2.0000      -0.662033       -18.0148
  44   2.0000      -0.654504       -17.8099
  45   2.0000      -0.620116       -16.8742
  46   2.0000      -0.595973       -16.2172
  47   2.0000      -0.544330       -14.8120
  48   2.0000      -0.533791       -14.5252
  49   2.0000      -0.525449       -14.2982
  50   2.0000      -0.505480       -13.7548
  51   2.0000      -0.491119       -13.3640
  52   2.0000      -0.480986       -13.0883
  53   2.0000      -0.476806       -12.9745
  54   2.0000      -0.464435       -12.6379
  55   2.0000      -0.458930       -12.4881
  56   2.0000      -0.448930       -12.2160
  57   2.0000      -0.446954       -12.1622
  58   2.0000      -0.438398       -11.9294
  59   2.0000      -0.425095       -11.5674
  60   2.0000      -0.423344       -11.5198
  61   2.0000      -0.411955       -11.2099
  62   2.0000      -0.410945       -11.1824
  63   2.0000      -0.400344       -10.8939
  64   2.0000      -0.390010       -10.6127
  65   2.0000      -0.383836       -10.4447
  66   2.0000      -0.371172       -10.1001
  67   2.0000      -0.365510        -9.9460
  68   2.0000      -0.359998        -9.7960
  69   2.0000      -0.353628        -9.6227
  70   2.0000      -0.348926        -9.4948
  71   2.0000      -0.340869        -9.2755
  72   2.0000      -0.335908        -9.1405
  73   2.0000      -0.329578        -8.9683
  74   2.0000      -0.324358        -8.8262
  75   2.0000      -0.316855        -8.6221
  76   2.0000      -0.313463        -8.5298
  77   2.0000      -0.307347        -8.3633
  78   2.0000      -0.291837        -7.9413
  79   2.0000      -0.286642        -7.7999
  80   2.0000      -0.283557        -7.7160
  81   2.0000      -0.276416        -7.5217
  82   2.0000      -0.268637        -7.3100
  83   2.0000      -0.251394        -6.8408
  84   2.0000      -0.241836        -6.5807
  85   2.0000      -0.226761        -6.1705
  86   2.0000      -0.224001        -6.0954
  87   0.0000      -0.053843        -1.4651
  88   0.0000      -0.041170        -1.1203
  89   0.0000      -0.021739        -0.5915
  90   0.0000      -0.001563        -0.0425
  91   0.0000       0.011370         0.3094

MULLIKEN ATOMIC CHARGES
-----------------------
   0 C :   -0.505770
   1 C :   -0.127684
   2 O :   -0.175489
   3 C :    0.416205
   4 O :   -0.461629
   5 C :   -0.493515
   6 C :    0.088604
   7 H :    0.245967
   8 C :    0.252759
   9 O :   -0.444209
  10 O :   -0.132012
  11 C :   -0.150477
  12 C :   -0.492536
  13 S :   -0.188909
  14 P :    0.793125
  15 S :   -0.499203
  16 O :   -0.350756
  17 C :   -0.305427
  18 O :   -0.381893
  19 C :   -0.318655
  20 H :    0.172482
  21 H :    0.169480
  22 H :    0.170858
  23 H :    0.176102
  24 H :    0.176426
  25 H :    0.205918
  26 H :    0.213821
  27 H :    0.177815
  28 H :    0.178063
  29 H :    0.167761
  30 H :    0.172432
  31 H :    0.166964
  32 H :    0.182470
  33 H :    0.186438
  34 H :    0.179637
  35 H :    0.176134
  36 H :    0.178790
  37 H :    0.179913
Sum of atomic charges:    0.0000000

LOEWDIN ATOMIC CHARGES
----------------------
   0 C :   -0.392574
   1 C :    0.037011
   2 O :   -0.585757
   3 C :    0.346358
   4 O :   -0.490586
   5 C :   -0.205212
   6 C :   -0.180542
   7 H :    0.224855
   8 C :    0.343807
   9 O :   -0.499084
  10 O :   -0.570880
  11 C :    0.042932
  12 C :   -0.386428
  13 S :    0.232134
  14 P :    0.410667
  15 S :   -0.102787
  16 O :   -0.671958
  17 C :   -0.043967
  18 O :   -0.700687
  19 C :   -0.060674
  20 H :    0.168637
  21 H :    0.162463
  22 H :    0.162646
  23 H :    0.190223
  24 H :    0.191728
  25 H :    0.203632
  26 H :    0.196737
  27 H :    0.188304
  28 H :    0.188739
  29 H :    0.164199
  30 H :    0.170163
  31 H :    0.163932
  32 H :    0.191956
  33 H :    0.181212
  34 H :    0.179672
  35 H :    0.186550
  36 H :    0.176901
  37 H :    0.185678

  Mayer bond orders larger than 0.100000
B(  0-C ,  1-C ) :   0.9231 B(  0-C , 20-H ) :   0.9596 B(  0-C , 21-H ) :   0.9679
B(  0-C , 22-H ) :   0.9690 B(  1-C ,  2-O ) :   0.7865 B(  1-C , 23-H ) :   0.9527
B(  1-C , 24-H ) :   0.9646 B(  2-O ,  3-C ) :   1.0647 B(  3-C ,  4-O ) :   1.7650
B(  3-C ,  5-C ) :   0.9240 B(  5-C ,  6-C ) :   0.8955 B(  5-C , 25-H ) :   0.9209
B(  5-C , 26-H ) :   0.9825 B(  6-C ,  7-H ) :   0.8519 B(  6-C ,  8-C ) :   0.9522
B(  6-C , 13-S ) :   0.8001 B(  8-C ,  9-O ) :   1.7352 B(  8-C , 10-O ) :   1.1881
B( 10-O , 11-C ) :   0.7672 B( 11-C , 12-C ) :   0.9458 B( 11-C , 27-H ) :   0.9462
B( 11-C , 28-H ) :   0.9390 B( 12-C , 29-H ) :   0.9715 B( 12-C , 30-H ) :   0.9606
B( 12-C , 31-H ) :   0.9682 B( 13-S , 14-P ) :   1.0125 B( 14-P , 15-S ) :   1.7447
B( 14-P , 16-O ) :   1.1782 B( 14-P , 18-O ) :   1.0201 B( 16-O , 17-C ) :   0.7925
B( 17-C , 32-H ) :   0.9541 B( 17-C , 33-H ) :   0.9533 B( 17-C , 34-H ) :   0.9474
B( 18-O , 19-C ) :   0.8262 B( 19-C , 35-H ) :   0.9581 B( 19-C , 36-H ) :   0.9550
B( 19-C , 37-H ) :   0.9422

Dispersion correction           -0.017697224
FINAL SINGLE POINT ENERGY     -1981.462297951681

DIPOLE MOMENT
-------------

Method             : SCF
Type of density    : Electron Density
Multiplicity       :   1
Irrep              :   0
Energy             : -1981.4821000205126893 Eh
Relativity type    :
Basis              : AO
                                X                 Y                 Z
Electronic contribution:     -9.464978892       1.282966709       4.269510414
Nuclear contribution   :     11.201991390      -1.317869501      -6.273326767
                        -----------------------------------------
Total Dipole Moment    :      1.737012498      -0.034902792      -2.003816353
                        -----------------------------------------
Magnitude (a.u.)       :      2.652114364
Magnitude (Debye)      :      6.741138987

Rotational constants in cm-1:             0.010631             0.008560             0.005995
Rotational constants in MHz :           318.715921           256.608786           179.715086

                             ****ORCA TERMINATED NORMALLY****
TOTAL RUN TIME: 0 days 0 hours 1 minutes 43 seconds 167 msec
