                         Program Version 6.0.0  -   RELEASE  -
|  1> ! pbe def2-sv(p) def2/J RI DEFGRID1 loosescf d4 GCP(DFT/SV(P)) printgap
|  2> %output
|  3>     printlevel normal
|  4> end
|  5> * xyz 0 1
|  6> C 4.624118354 1.8003193974 0.2785295779
|  7> C 4.0651180618 1.2604537002 -1.021657692
|  8> O 3.299103951 0.0533118429 -0.8466677157
|  9> P 2.116367072 -0.1508329837 0.1917885418
| 10> S 2.6035720572 -0.5084295128 2.0609063024
| 11> O 1.3121418797 -1.3259021532 -0.5049794958
| 12> C 1.4206520375 -2.6978451261 -0.0906969274
| 13> C 2.7436969561 -3.2931567869 -0.5222446182
| 14> S 0.8577436845 1.5022402525 -0.1556496226
| 15> C -0.1741282668 1.2880649218 1.3204712285
| 16> S -1.1004961218 -0.2726228421 1.341854874
| 17> P -2.1733710173 -0.0972366725 -0.4814045402
| 18> S -1.3539266655 -0.4709942985 -2.2144404806
| 19> O -2.7890862343 1.3672657459 -0.3063745007
| 20> C -2.8609197721 2.3600005896 -1.3511253603
| 21> C -2.0513915716 3.5832759357 -0.9696237311
| 22> O -3.3732799621 -1.1064079609 -0.2585417491
| 23> C -4.2691098786 -1.0586539247 0.8807458943
| 24> C -3.9798328033 -2.2077009566 1.8256535574
| 25> H 5.2586173192 2.6552512359 0.0682173414
| 26> H 3.8139404393 2.1125515034 0.9363706924
| 27> H 5.206564264 1.0361821642 0.7880499601
| 28> H 4.8609983064 0.9601932905 -1.7057123813
| 29> H 3.4226128693 2.001458721 -1.5061891056
| 30> H 1.3060745294 -2.7450107507 0.9981837849
| 31> H 0.5728417945 -3.1876523941 -0.5731959731
| 32> H 2.777799655 -4.3417832203 -0.2444798336
| 33> H 2.8637179562 -3.1952299879 -1.5979942883
| 34> H 3.5584854377 -2.764176646 -0.0280869212
| 35> H -0.8649969198 2.1266183727 1.34977602
| 36> H 0.4608189493 1.2615168595 2.2067888958
| 37> H -2.4949423958 1.9181656736 -2.2837953754
| 38> H -3.9204929104 2.6021658832 -1.4536990091
| 39> H -2.3877143804 3.9736374633 -0.0130438953
| 40> H -0.9931442068 3.3353456041 -0.9067679203
| 41> H -2.1881814392 4.3439339632 -1.7312751163
| 42> H -4.162371056 -0.0933792761 1.3803740367
| 43> H -5.2684881902 -1.1433260565 0.4506930022
| 44> H -4.045873956 -3.1520948591 1.292609456
| 45> H -2.9809678542 -2.1123313849 2.246568547
| 46> H -4.707495906 -2.1977696346 2.6308580537
| 47> *
| 48>
| 49>                          ****END OF INPUT****

CARTESIAN COORDINATES (ANGSTROEM)
---------------------------------
  C      4.624118    1.800319    0.278530
  C      4.065118    1.260454   -1.021658
  O      3.299104    0.053312   -0.846668
  P      2.116367   -0.150833    0.191789
  S      2.603572   -0.508430    2.060906
  O      1.312142   -1.325902   -0.504979
  C      1.420652   -2.697845   -0.090697
  C      2.743697   -3.293157   -0.522245
  S      0.857744    1.502240   -0.155650
  C     -0.174128    1.288065    1.320471
  S     -1.100496   -0.272623    1.341855
  P     -2.173371   -0.097237   -0.481405
  S     -1.353927   -0.470994   -2.214440
  O     -2.789086    1.367266   -0.306375
  C     -2.860920    2.360001   -1.351125
  C     -2.051392    3.583276   -0.969624
  O     -3.373280   -1.106408   -0.258542
  C     -4.269110   -1.058654    0.880746
  C     -3.979833   -2.207701    1.825654
  H      5.258617    2.655251    0.068217
  H      3.813940    2.112552    0.936371
  H      5.206564    1.036182    0.788050
  H      4.860998    0.960193   -1.705712
  H      3.422613    2.001459   -1.506189
  H      1.306075   -2.745011    0.998184
  H      0.572842   -3.187652   -0.573196
  H      2.777800   -4.341783   -0.244480
  H      2.863718   -3.195230   -1.597994
  H      3.558485   -2.764177   -0.028087
  H     -0.864997    2.126618    1.349776
  H      0.460819    1.261517    2.206789
  H     -2.494942    1.918166   -2.283795
  H     -3.920493    2.602166   -1.453699
  H     -2.387714    3.973637   -0.013044
  H     -0.993144    3.335346   -0.906768
  H     -2.188181    4.343934   -1.731275
  H     -4.162371   -0.093379    1.380374
  H     -5.268488   -1.143326    0.450693
  H     -4.045874   -3.152095    1.292609
  H     -2.980968   -2.112331    2.246569
  H     -4.707496   -2.197770    2.630858

 Total Charge           Charge          ....    0
 Multiplicity           Mult            ....    1
 Number of Electrons    NEL             ....  202
 Basis Dimension        Dim             ....  334

ORBITAL ENERGIES
----------------

  NO   OCC          E(Eh)            E(eV)
   0   2.0000     -88.045837     -2395.8490
   1   2.0000     -88.042370     -2395.7547
   2   2.0000     -87.984329     -2394.1753
   3   2.0000     -87.976060     -2393.9503
   4   2.0000     -76.424746     -2079.6231
   5   2.0000     -76.421924     -2079.5463
   6   2.0000     -18.792777      -511.3775
   7   2.0000     -18.790990      -511.3288
   8   2.0000     -18.788461      -511.2600
   9   2.0000     -18.778038      -510.9764
  10   2.0000      -9.960065      -271.0271
  11   2.0000      -9.957767      -270.9646
  12   2.0000      -9.955162      -270.8937
  13   2.0000      -9.952222      -270.8137
  14   2.0000      -9.938332      -270.4358
  15   2.0000      -9.890521      -269.1348
  16   2.0000      -9.887167      -269.0435
  17   2.0000      -9.883464      -268.9427
  18   2.0000      -9.873818      -268.6802
  19   2.0000      -7.690567      -209.2710
  20   2.0000      -7.687083      -209.1762
  21   2.0000      -7.629293      -207.6036
  22   2.0000      -7.621458      -207.3904
  23   2.0000      -6.421869      -174.7480
  24   2.0000      -6.419373      -174.6800
  25   2.0000      -5.718374      -155.6049
  26   2.0000      -5.715133      -155.5167
  27   2.0000      -5.715118      -155.5163
  28   2.0000      -5.711457      -155.4166
  29   2.0000      -5.707561      -155.3106
  30   2.0000      -5.704057      -155.2153
  31   2.0000      -5.658120      -153.9653
  32   2.0000      -5.650591      -153.7604
  33   2.0000      -5.650105      -153.7472
  34   2.0000      -5.649373      -153.7273
  35   2.0000      -5.641892      -153.5237
  36   2.0000      -5.641516      -153.5134
  37   2.0000      -4.644328      -126.3786
  38   2.0000      -4.643759      -126.3631
  39   2.0000      -4.642489      -126.3285
  40   2.0000      -4.642398      -126.3261
  41   2.0000      -4.640948      -126.2866
  42   2.0000      -4.639532      -126.2481
  43   2.0000      -0.982337       -26.7308
  44   2.0000      -0.981450       -26.7066
  45   2.0000      -0.942680       -25.6516
  46   2.0000      -0.938975       -25.5508
  47   2.0000      -0.766012       -20.8442
  48   2.0000      -0.720529       -19.6066
  49   2.0000      -0.708278       -19.2732
  50   2.0000      -0.693109       -18.8605
  51   2.0000      -0.683258       -18.5924
  52   2.0000      -0.670999       -18.2588
  53   2.0000      -0.648185       -17.6380
  54   2.0000      -0.638130       -17.3644
  55   2.0000      -0.595137       -16.1945
  56   2.0000      -0.587800       -15.9948
  57   2.0000      -0.574620       -15.6362
  58   2.0000      -0.571523       -15.5519
  59   2.0000      -0.561685       -15.2842
  60   2.0000      -0.505958       -13.7678
  61   2.0000      -0.491031       -13.3616
  62   2.0000      -0.478378       -13.0173
  63   2.0000      -0.465158       -12.6576
  64   2.0000      -0.460024       -12.5179
  65   2.0000      -0.443802       -12.0765
  66   2.0000      -0.439265       -11.9530
  67   2.0000      -0.432828       -11.7778
  68   2.0000      -0.426549       -11.6070
  69   2.0000      -0.416974       -11.3464
  70   2.0000      -0.409713       -11.1488
  71   2.0000      -0.393319       -10.7027
  72   2.0000      -0.387990       -10.5578
  73   2.0000      -0.382094       -10.3973
  74   2.0000      -0.379363       -10.3230
  75   2.0000      -0.377169       -10.2633
  76   2.0000      -0.369641       -10.0584
  77   2.0000      -0.359437        -9.7808
  78   2.0000      -0.355361        -9.6699
  79   2.0000      -0.352243        -9.5850
  80   2.0000      -0.346661        -9.4331
  81   2.0000      -0.341467        -9.2918
  82   2.0000      -0.339955        -9.2506
  83   2.0000      -0.337638        -9.1876
  84   2.0000      -0.333524        -9.0756
  85   2.0000      -0.317753        -8.6465
  86   2.0000      -0.310033        -8.4364
  87   2.0000      -0.301138        -8.1944
  88   2.0000      -0.294995        -8.0272
  89   2.0000      -0.283953        -7.7268
  90   2.0000      -0.280372        -7.6293
  91   2.0000      -0.269651        -7.3376
  92   2.0000      -0.267501        -7.2791
  93   2.0000      -0.263544        -7.1714
  94   2.0000      -0.260283        -7.0826
  95   2.0000      -0.235243        -6.4013
  96   2.0000      -0.220072        -5.9885
  97   2.0000      -0.205829        -5.6009
  98   2.0000      -0.199073        -5.4171
  99   2.0000      -0.192436        -5.2365
 100   2.0000      -0.186602        -5.0777
 101   0.0000      -0.049843        -1.3563
 102   0.0000      -0.024502        -0.6667
 103   0.0000      -0.007621        -0.2074
 104   0.0000      -0.000529        -0.0144
 105   0.0000       0.016930         0.4607

MULLIKEN ATOMIC CHARGES
-----------------------
   0 C :   -0.309625
   1 C :   -0.011631
   2 O :   -0.369206
   3 P :    0.629756
   4 S :   -0.339358
   5 O :   -0.341558
   6 C :   -0.003063
   7 C :   -0.303095
   8 S :   -0.106882
   9 C :   -0.348921
  10 S :   -0.101711
  11 P :    0.608717
  12 S :   -0.288289
  13 O :   -0.397286
  14 C :   -0.005934
  15 C :   -0.314583
  16 O :   -0.362401
  17 C :   -0.019709
  18 C :   -0.293671
  19 H :    0.110861
  20 H :    0.122399
  21 H :    0.127344
  22 H :    0.111251
  23 H :    0.114149
  24 H :    0.108508
  25 H :    0.105549
  26 H :    0.107660
  27 H :    0.117034
  28 H :    0.118656
  29 H :    0.187309
  30 H :    0.192865
  31 H :    0.114886
  32 H :    0.101590
  33 H :    0.116723
  34 H :    0.131715
  35 H :    0.114846
  36 H :    0.106292
  37 H :    0.109014
  38 H :    0.121142
  39 H :    0.128472
  40 H :    0.110187
Sum of atomic charges:    0.0000000

LOEWDIN ATOMIC CHARGES
----------------------
   0 C :   -0.370196
   1 C :   -0.113091
   2 O :   -0.241102
   3 P :    0.576186
   4 S :   -0.323980
   5 O :   -0.226489
   6 C :   -0.120767
   7 C :   -0.363298
   8 S :    0.090481
   9 C :   -0.475860
  10 S :    0.088328
  11 P :    0.558570
  12 S :   -0.294606
  13 O :   -0.261953
  14 C :   -0.118812
  15 C :   -0.361276
  16 O :   -0.244394
  17 C :   -0.119229
  18 C :   -0.359390
  19 H :    0.129696
  20 H :    0.119496
  21 H :    0.130107
  22 H :    0.122653
  23 H :    0.109935
  24 H :    0.105739
  25 H :    0.118621
  26 H :    0.128189
  27 H :    0.126448
  28 H :    0.120891
  29 H :    0.131180
  30 H :    0.131724
  31 H :    0.108916
  32 H :    0.115530
  33 H :    0.123431
  34 H :    0.116458
  35 H :    0.133314
  36 H :    0.108089
  37 H :    0.120518
  38 H :    0.129381
  39 H :    0.120417
  40 H :    0.130145

  Mayer bond orders larger than 0.100000
B(  0-C ,  1-C ) :   1.1631 B(  0-C , 19-H ) :   0.9348 B(  0-C , 20-H ) :   0.9329
B(  0-C , 21-H ) :   0.9422 B(  1-C ,  2-O ) :   0.9151 B(  1-C , 22-H ) :   0.9343
B(  1-C , 23-H ) :   0.9285 B(  2-O ,  3-P ) :   1.1172 B(  3-P ,  4-S ) :   1.5891
B(  3-P ,  5-O ) :   1.1454 B(  3-P ,  8-S ) :   0.9378 B(  4-S ,  8-S ) :   0.1054
B(  5-O ,  6-C ) :   0.9044 B(  6-C ,  7-C ) :   1.1637 B(  6-C , 24-H ) :   0.9124
B(  6-C , 25-H ) :   0.9293 B(  7-C , 26-H ) :   0.9408 B(  7-C , 27-H ) :   0.9467
B(  7-C , 28-H ) :   0.9376 B(  8-S ,  9-C ) :   1.0151 B(  9-C , 10-S ) :   0.9981
B(  9-C , 29-H ) :   0.8979 B(  9-C , 30-H ) :   0.8821 B( 10-S , 11-P ) :   0.9483
B( 10-S , 12-S ) :   0.1056 B( 11-P , 12-S ) :   1.6785 B( 11-P , 13-O ) :   1.0556
B( 11-P , 16-O ) :   1.1291 B( 13-O , 14-C ) :   0.9074 B( 14-C , 15-C ) :   1.1671
B( 14-C , 31-H ) :   0.8973 B( 14-C , 32-H ) :   0.9337 B( 15-C , 33-H ) :   0.9440
B( 15-C , 34-H ) :   0.9325 B( 15-C , 35-H ) :   0.9377 B( 16-O , 17-C ) :   0.8969
B( 17-C , 18-C ) :   1.1643 B( 17-C , 36-H ) :   0.9164 B( 17-C , 37-H ) :   0.9328
B( 18-C , 38-H ) :   0.9461 B( 18-C , 39-H ) :   0.9393 B( 18-C , 40-H ) :   0.9398

Dispersion correction           -0.066830347
FINAL SINGLE POINT ENERGY     -2929.515415362651

DIPOLE MOMENT
-------------

Method             : SCF
Type of density    : Electron Density
Multiplicity       :   1
Irrep              :   0
Energy             : -2929.6328970197751005 Eh
Relativity type    :
Basis              : AO
                                X                 Y                 Z
Electronic contribution:     -0.677363150      -2.394718806      -2.126139467
Nuclear contribution   :      0.081187842       3.383830314       2.362278052
                        -----------------------------------------
Total Dipole Moment    :     -0.596175308       0.989111509       0.236138585
                        -----------------------------------------
Magnitude (a.u.)       :      1.178782425
Magnitude (Debye)      :      2.996226810

Rotational constants in cm-1:             0.011604             0.005581             0.004832
Rotational constants in MHz :           347.890448           167.320374           144.873578

                             ****ORCA TERMINATED NORMALLY****
TOTAL RUN TIME: 0 days 0 hours 0 minutes 21 seconds 842 msec
