                         Program Version 6.0.0  -   RELEASE  -
|  1> ! pbe def2-sv(p) def2/J RI DEFGRID1 loosescf d4 GCP(DFT/SV(P)) printgap
|  2> %output
|  3>     printlevel normal
|  4> end
|  5> * xyz 0 1
|  6> C 4.6309840191 0.7091320766 -2.0363163902
|  7> C 4.6275098371 0.7669195131 -0.5225520482
|  8> O 3.7087716994 -0.1808601377 0.0458754945
|  9> P 2.1327048469 -0.023915704 -0.0898532489
| 10> S 1.5250206301 1.834281626 0.0975146801
| 11> O 1.5828940915 -1.0510113272 0.983433156
| 12> C 1.3749522941 -0.6902397999 2.3628932978
| 13> C 2.6729462242 -0.3685786634 3.0699361814
| 14> S 1.7311428009 -1.1122608803 -1.8504204165
| 15> C -0.0384350689 -1.4780755443 -1.7000192933
| 16> S -1.1119523284 -0.0149524953 -1.6722968068
| 17> P -1.9705185555 -0.2106249396 0.2770224067
| 18> S -1.6569297581 -1.9196562759 1.1733577563
| 19> O -3.4967581021 0.1331823902 -0.0010516272
| 20> C -4.3355590171 -0.7743123276 -0.7445987075
| 21> C -5.7654637877 -0.2894550194 -0.619741454
| 22> O -1.5084311998 1.0187590255 1.1415785822
| 23> C -1.8064998472 2.3908245776 0.7729640689
| 24> C -3.003794591 2.8976551739 1.5472380083
| 25> H 4.8147216269 -0.3072250265 -2.3752359682
| 26> H 3.6650578055 1.0353387911 -2.4215831861
| 27> H 5.4044821287 1.3657842008 -2.4213203463
| 28> H 4.3513064788 1.7685799421 -0.1763242122
| 29> H 5.5930623784 0.4808953964 -0.1036973589
| 30> H 0.6873006773 0.1622692391 2.3975652606
| 31> H 0.8818976414 -1.567259274 2.7863873272
| 32> H 2.4758453303 -0.222248572 4.12732076
| 33> H 3.3801881085 -1.1836080766 2.9405789151
| 34> H 3.1036194733 0.5438128164 2.6592509936
| 35> H -0.2229314558 -2.063624409 -0.7948405258
| 36> H -0.2808413475 -2.0476923007 -2.5941243524
| 37> H -4.002519611 -0.7740227219 -1.7863334777
| 38> H -4.2127463142 -1.7793976153 -0.3284038526
| 39> H -6.4157170024 -0.9544971274 -1.1782674227
| 40> H -6.0689173997 -0.2848182535 0.4233562668
| 41> H -5.8531218182 0.7170731384 -1.0183749182
| 42> H -0.8981194556 2.9450520044 1.0185972402
| 43> H -1.9733516589 2.438904353 -0.3061920975
| 44> H -3.8904907109 2.3260982847 1.2864493985
| 45> H -2.8234361694 2.8014826839 2.6143314386
| 46> H -3.163066162 3.9430534355 1.3027221167
| 47> *
| 48>
| 49>                          ****END OF INPUT****

CARTESIAN COORDINATES (ANGSTROEM)
---------------------------------
  C      4.630984    0.709132   -2.036316
  C      4.627510    0.766920   -0.522552
  O      3.708772   -0.180860    0.045875
  P      2.132705   -0.023916   -0.089853
  S      1.525021    1.834282    0.097515
  O      1.582894   -1.051011    0.983433
  C      1.374952   -0.690240    2.362893
  C      2.672946   -0.368579    3.069936
  S      1.731143   -1.112261   -1.850420
  C     -0.038435   -1.478076   -1.700019
  S     -1.111952   -0.014952   -1.672297
  P     -1.970519   -0.210625    0.277022
  S     -1.656930   -1.919656    1.173358
  O     -3.496758    0.133182   -0.001052
  C     -4.335559   -0.774312   -0.744599
  C     -5.765464   -0.289455   -0.619741
  O     -1.508431    1.018759    1.141579
  C     -1.806500    2.390825    0.772964
  C     -3.003795    2.897655    1.547238
  H      4.814722   -0.307225   -2.375236
  H      3.665058    1.035339   -2.421583
  H      5.404482    1.365784   -2.421320
  H      4.351306    1.768580   -0.176324
  H      5.593062    0.480895   -0.103697
  H      0.687301    0.162269    2.397565
  H      0.881898   -1.567259    2.786387
  H      2.475845   -0.222249    4.127321
  H      3.380188   -1.183608    2.940579
  H      3.103619    0.543813    2.659251
  H     -0.222931   -2.063624   -0.794841
  H     -0.280841   -2.047692   -2.594124
  H     -4.002520   -0.774023   -1.786333
  H     -4.212746   -1.779398   -0.328404
  H     -6.415717   -0.954497   -1.178267
  H     -6.068917   -0.284818    0.423356
  H     -5.853122    0.717073   -1.018375
  H     -0.898119    2.945052    1.018597
  H     -1.973352    2.438904   -0.306192
  H     -3.890491    2.326098    1.286449
  H     -2.823436    2.801483    2.614331
  H     -3.163066    3.943053    1.302722

 Total Charge           Charge          ....    0
 Multiplicity           Mult            ....    1
 Number of Electrons    NEL             ....  202
 Basis Dimension        Dim             ....  334

ORBITAL ENERGIES
----------------

  NO   OCC          E(Eh)            E(eV)
   0   2.0000     -88.041340     -2395.7266
   1   2.0000     -88.038110     -2395.6388
   2   2.0000     -87.988284     -2394.2829
   3   2.0000     -87.981271     -2394.0921
   4   2.0000     -76.426403     -2079.6682
   5   2.0000     -76.421476     -2079.5341
   6   2.0000     -18.796080      -511.4673
   7   2.0000     -18.792287      -511.3641
   8   2.0000     -18.788628      -511.2646
   9   2.0000     -18.783094      -511.1140
  10   2.0000      -9.955218      -270.8952
  11   2.0000      -9.952842      -270.8306
  12   2.0000      -9.952013      -270.8080
  13   2.0000      -9.949510      -270.7399
  14   2.0000      -9.936569      -270.3878
  15   2.0000      -9.891756      -269.1684
  16   2.0000      -9.884220      -268.9633
  17   2.0000      -9.883306      -268.9384
  18   2.0000      -9.874571      -268.7007
  19   2.0000      -7.686113      -209.1498
  20   2.0000      -7.683749      -209.0854
  21   2.0000      -7.633276      -207.7120
  22   2.0000      -7.626185      -207.5190
  23   2.0000      -6.424178      -174.8108
  24   2.0000      -6.419078      -174.6720
  25   2.0000      -5.713935      -155.4841
  26   2.0000      -5.711847      -155.4273
  27   2.0000      -5.710666      -155.3951
  28   2.0000      -5.708106      -155.3254
  29   2.0000      -5.703161      -155.1909
  30   2.0000      -5.700540      -155.1196
  31   2.0000      -5.662241      -154.0774
  32   2.0000      -5.654891      -153.8774
  33   2.0000      -5.653781      -153.8472
  34   2.0000      -5.653427      -153.8376
  35   2.0000      -5.646802      -153.6573
  36   2.0000      -5.646559      -153.6507
  37   2.0000      -4.646901      -126.4486
  38   2.0000      -4.645815      -126.4190
  39   2.0000      -4.644571      -126.3852
  40   2.0000      -4.641648      -126.3057
  41   2.0000      -4.640882      -126.2848
  42   2.0000      -4.639520      -126.2477
  43   2.0000      -0.991016       -26.9669
  44   2.0000      -0.981272       -26.7018
  45   2.0000      -0.946456       -25.7544
  46   2.0000      -0.940629       -25.5958
  47   2.0000      -0.758627       -20.6433
  48   2.0000      -0.720842       -19.6151
  49   2.0000      -0.705917       -19.2090
  50   2.0000      -0.693224       -18.8636
  51   2.0000      -0.682839       -18.5810
  52   2.0000      -0.669936       -18.2299
  53   2.0000      -0.648849       -17.6561
  54   2.0000      -0.637512       -17.3476
  55   2.0000      -0.596693       -16.2368
  56   2.0000      -0.588049       -16.0016
  57   2.0000      -0.569421       -15.4947
  58   2.0000      -0.566617       -15.4184
  59   2.0000      -0.562242       -15.2994
  60   2.0000      -0.511177       -13.9098
  61   2.0000      -0.486159       -13.2291
  62   2.0000      -0.481611       -13.1053
  63   2.0000      -0.466351       -12.6901
  64   2.0000      -0.448891       -12.2149
  65   2.0000      -0.444114       -12.0850
  66   2.0000      -0.442380       -12.0378
  67   2.0000      -0.434225       -11.8159
  68   2.0000      -0.428432       -11.6582
  69   2.0000      -0.414053       -11.2669
  70   2.0000      -0.409751       -11.1499
  71   2.0000      -0.391601       -10.6560
  72   2.0000      -0.388564       -10.5734
  73   2.0000      -0.384919       -10.4742
  74   2.0000      -0.380252       -10.3472
  75   2.0000      -0.372760       -10.1433
  76   2.0000      -0.365762        -9.9529
  77   2.0000      -0.357873        -9.7382
  78   2.0000      -0.354842        -9.6557
  79   2.0000      -0.351388        -9.5617
  80   2.0000      -0.345659        -9.4059
  81   2.0000      -0.342344        -9.3157
  82   2.0000      -0.341446        -9.2912
  83   2.0000      -0.336416        -9.1544
  84   2.0000      -0.327470        -8.9109
  85   2.0000      -0.316448        -8.6110
  86   2.0000      -0.308818        -8.4034
  87   2.0000      -0.302998        -8.2450
  88   2.0000      -0.293896        -7.9973
  89   2.0000      -0.291456        -7.9309
  90   2.0000      -0.276196        -7.5157
  91   2.0000      -0.272809        -7.4235
  92   2.0000      -0.266050        -7.2396
  93   2.0000      -0.260779        -7.0962
  94   2.0000      -0.257967        -7.0196
  95   2.0000      -0.239001        -6.5035
  96   2.0000      -0.221658        -6.0316
  97   2.0000      -0.206229        -5.6118
  98   2.0000      -0.204227        -5.5573
  99   2.0000      -0.195485        -5.3194
 100   2.0000      -0.192382        -5.2350
 101   0.0000      -0.040587        -1.1044
 102   0.0000      -0.030617        -0.8331
 103   0.0000      -0.013490        -0.3671
 104   0.0000       0.000722         0.0197
 105   0.0000       0.016072         0.4373

MULLIKEN ATOMIC CHARGES
-----------------------
   0 C :   -0.324026
   1 C :   -0.003632
   2 O :   -0.370995
   3 P :    0.618219
   4 S :   -0.338549
   5 O :   -0.365704
   6 C :   -0.018849
   7 C :   -0.298866
   8 S :   -0.095907
   9 C :   -0.346480
  10 S :   -0.102313
  11 P :    0.601771
  12 S :   -0.305792
  13 O :   -0.383309
  14 C :   -0.008811
  15 C :   -0.282822
  16 O :   -0.345927
  17 C :   -0.017113
  18 C :   -0.283867
  19 H :    0.121500
  20 H :    0.130289
  21 H :    0.114568
  22 H :    0.109976
  23 H :    0.105276
  24 H :    0.120232
  25 H :    0.111571
  26 H :    0.109196
  27 H :    0.114307
  28 H :    0.116098
  29 H :    0.207327
  30 H :    0.179501
  31 H :    0.100653
  32 H :    0.105095
  33 H :    0.113745
  34 H :    0.122532
  35 H :    0.116721
  36 H :    0.123148
  37 H :    0.102963
  38 H :    0.120175
  39 H :    0.118532
  40 H :    0.109563
Sum of atomic charges:   -0.0000000

LOEWDIN ATOMIC CHARGES
----------------------
   0 C :   -0.371335
   1 C :   -0.121636
   2 O :   -0.241570
   3 P :    0.567831
   4 S :   -0.320171
   5 O :   -0.235170
   6 C :   -0.125365
   7 C :   -0.366100
   8 S :    0.085600
   9 C :   -0.482230
  10 S :    0.067587
  11 P :    0.569417
  12 S :   -0.288003
  13 O :   -0.248559
  14 C :   -0.122337
  15 C :   -0.350587
  16 O :   -0.224361
  17 C :   -0.114706
  18 C :   -0.358946
  19 H :    0.125348
  20 H :    0.122296
  21 H :    0.132051
  22 H :    0.108912
  23 H :    0.118808
  24 H :    0.110687
  25 H :    0.117056
  26 H :    0.129305
  27 H :    0.125164
  28 H :    0.119323
  29 H :    0.124356
  30 H :    0.137344
  31 H :    0.105792
  32 H :    0.109689
  33 H :    0.131773
  34 H :    0.129046
  35 H :    0.126244
  36 H :    0.117335
  37 H :    0.106992
  38 H :    0.124692
  39 H :    0.128568
  40 H :    0.129856

  Mayer bond orders larger than 0.100000
B(  0-C ,  1-C ) :   1.1658 B(  0-C , 19-H ) :   0.9437 B(  0-C , 20-H ) :   0.9331
B(  0-C , 21-H ) :   0.9382 B(  1-C ,  2-O ) :   0.9103 B(  1-C , 22-H ) :   0.9122
B(  1-C , 23-H ) :   0.9327 B(  2-O ,  3-P ) :   1.0971 B(  3-P ,  4-S ) :   1.6107
B(  3-P ,  5-O ) :   1.1366 B(  3-P ,  8-S ) :   0.9662 B(  4-S ,  8-S ) :   0.1110
B(  5-O ,  6-C ) :   0.8918 B(  6-C ,  7-C ) :   1.1584 B(  6-C , 24-H ) :   0.9148
B(  6-C , 25-H ) :   0.9280 B(  7-C , 26-H ) :   0.9395 B(  7-C , 27-H ) :   0.9447
B(  7-C , 28-H ) :   0.9362 B(  8-S ,  9-C ) :   0.9965 B(  9-C , 10-S ) :   1.0051
B(  9-C , 29-H ) :   0.8452 B(  9-C , 30-H ) :   0.9120 B( 10-S , 11-P ) :   0.9563
B( 10-S , 12-S ) :   0.1199 B( 11-P , 12-S ) :   1.6334 B( 11-P , 13-O ) :   1.0706
B( 11-P , 16-O ) :   1.1490 B( 12-S , 29-H ) :   0.1151 B( 13-O , 14-C ) :   0.9066
B( 14-C , 15-C ) :   1.1598 B( 14-C , 31-H ) :   0.9212 B( 14-C , 32-H ) :   0.9134
B( 15-C , 33-H ) :   0.9419 B( 15-C , 34-H ) :   0.9509 B( 15-C , 35-H ) :   0.9507
B( 16-O , 17-C ) :   0.8800 B( 17-C , 18-C ) :   1.1633 B( 17-C , 36-H ) :   0.9218
B( 17-C , 37-H ) :   0.9202 B( 18-C , 38-H ) :   0.9411 B( 18-C , 39-H ) :   0.9468
B( 18-C , 40-H ) :   0.9400

Dispersion correction           -0.066632400
FINAL SINGLE POINT ENERGY     -2929.520799548097

DIPOLE MOMENT
-------------

Method             : SCF
Type of density    : Electron Density
Multiplicity       :   1
Irrep              :   0
Energy             : -2929.6406409227884069 Eh
Relativity type    :
Basis              : AO
                                X                 Y                 Z
Electronic contribution:      4.813021808      -8.623704711      -5.986875236
Nuclear contribution   :     -5.265728103       9.009711930       5.607769953
                        -----------------------------------------
Total Dipole Moment    :     -0.452706295       0.386007219      -0.379105283
                        -----------------------------------------
Magnitude (a.u.)       :      0.705454023
Magnitude (Debye)      :      1.793121624

Rotational constants in cm-1:             0.013220             0.005055             0.004802
Rotational constants in MHz :           396.328344           151.532933           143.945397

                             ****ORCA TERMINATED NORMALLY****
TOTAL RUN TIME: 0 days 0 hours 0 minutes 20 seconds 961 msec
