                         Program Version 6.0.0  -   RELEASE  -
|  1> ! pbe def2-sv(p) def2/J RI DEFGRID1 loosescf d4 GCP(DFT/SV(P)) printgap
|  2> %output
|  3>     printlevel normal
|  4> end
|  5> * xyz 0 1
|  6> C 5.8545276825 -0.9395636764 -0.8580335141
|  7> C 4.5323459372 -0.2184913801 -1.0256795929
|  8> O 3.6049130646 -0.7645498211 -0.0671329389
|  9> P 2.3063022925 0.0408080652 0.3674421723
| 10> S 2.6425777945 1.884789748 0.9221509186
| 11> O 1.7204664821 -0.8303779267 1.5412298998
| 12> C 1.1803351892 -2.1708062257 1.4385749789
| 13> C 2.2195465019 -3.2013858409 1.0525943528
| 14> S 0.9946566343 -0.216584906 -1.3035627459
| 15> C 0.1365143302 1.3722418283 -1.1782452513
| 16> S -0.9306858656 1.49923056 0.276591648
| 17> P -2.4425422778 0.1203679546 -0.3672176447
| 18> S -2.5469912024 -0.2418514658 -2.2831251169
| 19> O -3.7742323431 0.6773841798 0.3037851744
| 20> C -4.63208864 1.6224285953 -0.3604331598
| 21> C -3.9681956841 2.9709995367 -0.547832365
| 22> O -2.1823978481 -1.1847944475 0.4835522004
| 23> C -2.2740193162 -1.2167477109 1.9335951357
| 24> C -2.4797314347 -2.6589964265 2.3484210778
| 25> H 6.2388001745 -0.782879638 0.1458715483
| 26> H 5.7222327836 -2.0048136759 -1.0229485817
| 27> H 6.5659015616 -0.5498193612 -1.578630928
| 28> H 4.1166238733 -0.3704456786 -2.0255658511
| 29> H 4.6363157172 0.8557756462 -0.8391753671
| 30> H 0.7941310888 -2.3550166347 2.4428525604
| 31> H 0.3594287973 -2.1593273347 0.7148509496
| 32> H 2.5343628566 -3.0592732523 0.0221008573
| 33> H 3.0872649881 -3.1186331254 1.7015108959
| 34> H 1.7867400184 -4.1919801658 1.1560804789
| 35> H -0.4617790638 1.4628996405 -2.0842217368
| 36> H 0.8673702471 2.1753032072 -1.0896721807
| 37> H -4.9252948545 1.2005066978 -1.3265526086
| 38> H -5.5009015545 1.689075913 0.2959423766
| 39> H -3.1502704296 2.8876048381 -1.2620445792
| 40> H -4.6966096385 3.6783544344 -0.9309743848
| 41> H -3.5730202248 3.3354130221 0.3972667839
| 42> H -1.3456749364 -0.8015670975 2.3360227656
| 43> H -3.11142139 -0.5908011354 2.2455472199
| 44> H -3.4153760323 -3.031839729 1.9416246128
| 45> H -1.6683219481 -3.2788720371 1.9784183486
| 46> H -2.5120440421 -2.7146395972 3.4317679613
| 47> *
| 48>
| 49>                          ****END OF INPUT****

CARTESIAN COORDINATES (ANGSTROEM)
---------------------------------
  C      5.854528   -0.939564   -0.858034
  C      4.532346   -0.218491   -1.025680
  O      3.604913   -0.764550   -0.067133
  P      2.306302    0.040808    0.367442
  S      2.642578    1.884790    0.922151
  O      1.720466   -0.830378    1.541230
  C      1.180335   -2.170806    1.438575
  C      2.219547   -3.201386    1.052594
  S      0.994657   -0.216585   -1.303563
  C      0.136514    1.372242   -1.178245
  S     -0.930686    1.499231    0.276592
  P     -2.442542    0.120368   -0.367218
  S     -2.546991   -0.241851   -2.283125
  O     -3.774232    0.677384    0.303785
  C     -4.632089    1.622429   -0.360433
  C     -3.968196    2.971000   -0.547832
  O     -2.182398   -1.184794    0.483552
  C     -2.274019   -1.216748    1.933595
  C     -2.479731   -2.658996    2.348421
  H      6.238800   -0.782880    0.145872
  H      5.722233   -2.004814   -1.022949
  H      6.565902   -0.549819   -1.578631
  H      4.116624   -0.370446   -2.025566
  H      4.636316    0.855776   -0.839175
  H      0.794131   -2.355017    2.442853
  H      0.359429   -2.159327    0.714851
  H      2.534363   -3.059273    0.022101
  H      3.087265   -3.118633    1.701511
  H      1.786740   -4.191980    1.156080
  H     -0.461779    1.462900   -2.084222
  H      0.867370    2.175303   -1.089672
  H     -4.925295    1.200507   -1.326553
  H     -5.500902    1.689076    0.295942
  H     -3.150270    2.887605   -1.262045
  H     -4.696610    3.678354   -0.930974
  H     -3.573020    3.335413    0.397267
  H     -1.345675   -0.801567    2.336023
  H     -3.111421   -0.590801    2.245547
  H     -3.415376   -3.031840    1.941625
  H     -1.668322   -3.278872    1.978418
  H     -2.512044   -2.714640    3.431768

 Total Charge           Charge          ....    0
 Multiplicity           Mult            ....    1
 Number of Electrons    NEL             ....  202
 Basis Dimension        Dim             ....  334

ORBITAL ENERGIES
----------------

  NO   OCC          E(Eh)            E(eV)
   0   2.0000     -88.040448     -2395.7024
   1   2.0000     -88.039905     -2395.6876
   2   2.0000     -87.989796     -2394.3241
   3   2.0000     -87.983417     -2394.1505
   4   2.0000     -76.427466     -2079.6971
   5   2.0000     -76.424814     -2079.6249
   6   2.0000     -18.795902      -511.4625
   7   2.0000     -18.794117      -511.4139
   8   2.0000     -18.793120      -511.3868
   9   2.0000     -18.793046      -511.3848
  10   2.0000      -9.958370      -270.9810
  11   2.0000      -9.957157      -270.9480
  12   2.0000      -9.955541      -270.9041
  13   2.0000      -9.952239      -270.8142
  14   2.0000      -9.950880      -270.7772
  15   2.0000      -9.894488      -269.2427
  16   2.0000      -9.888392      -269.0768
  17   2.0000      -9.888180      -269.0710
  18   2.0000      -9.885057      -268.9861
  19   2.0000      -7.685033      -209.1204
  20   2.0000      -7.684480      -209.1053
  21   2.0000      -7.635056      -207.7604
  22   2.0000      -7.628744      -207.5887
  23   2.0000      -6.425064      -174.8349
  24   2.0000      -6.422407      -174.7626
  25   2.0000      -5.712758      -155.4520
  26   2.0000      -5.712277      -155.4390
  27   2.0000      -5.709532      -155.3643
  28   2.0000      -5.709119      -155.3530
  29   2.0000      -5.702286      -155.1671
  30   2.0000      -5.701499      -155.1457
  31   2.0000      -5.664011      -154.1256
  32   2.0000      -5.657725      -153.9545
  33   2.0000      -5.655422      -153.8919
  34   2.0000      -5.655404      -153.8914
  35   2.0000      -5.649188      -153.7222
  36   2.0000      -5.648960      -153.7160
  37   2.0000      -4.647932      -126.4766
  38   2.0000      -4.646623      -126.4410
  39   2.0000      -4.645450      -126.4091
  40   2.0000      -4.645153      -126.4010
  41   2.0000      -4.644255      -126.3766
  42   2.0000      -4.642619      -126.3321
  43   2.0000      -0.990670       -26.9575
  44   2.0000      -0.987698       -26.8766
  45   2.0000      -0.946677       -25.7604
  46   2.0000      -0.946260       -25.7490
  47   2.0000      -0.761122       -20.7112
  48   2.0000      -0.722703       -19.6657
  49   2.0000      -0.714799       -19.4507
  50   2.0000      -0.693481       -18.8706
  51   2.0000      -0.692376       -18.8405
  52   2.0000      -0.674144       -18.3444
  53   2.0000      -0.650035       -17.6884
  54   2.0000      -0.638773       -17.3819
  55   2.0000      -0.596599       -16.2343
  56   2.0000      -0.592766       -16.1300
  57   2.0000      -0.576585       -15.6897
  58   2.0000      -0.569436       -15.4951
  59   2.0000      -0.562733       -15.3127
  60   2.0000      -0.510731       -13.8977
  61   2.0000      -0.502339       -13.6693
  62   2.0000      -0.479656       -13.0521
  63   2.0000      -0.477271       -12.9872
  64   2.0000      -0.461909       -12.5692
  65   2.0000      -0.448254       -12.1976
  66   2.0000      -0.442974       -12.0539
  67   2.0000      -0.435774       -11.8580
  68   2.0000      -0.431950       -11.7540
  69   2.0000      -0.419739       -11.4217
  70   2.0000      -0.408564       -11.1176
  71   2.0000      -0.398437       -10.8420
  72   2.0000      -0.395185       -10.7535
  73   2.0000      -0.380170       -10.3450
  74   2.0000      -0.379840       -10.3360
  75   2.0000      -0.373134       -10.1535
  76   2.0000      -0.364536        -9.9195
  77   2.0000      -0.362298        -9.8586
  78   2.0000      -0.361351        -9.8329
  79   2.0000      -0.355013        -9.6604
  80   2.0000      -0.350446        -9.5361
  81   2.0000      -0.348359        -9.4793
  82   2.0000      -0.345768        -9.4088
  83   2.0000      -0.340056        -9.2534
  84   2.0000      -0.337145        -9.1742
  85   2.0000      -0.322002        -8.7621
  86   2.0000      -0.313299        -8.5253
  87   2.0000      -0.307611        -8.3705
  88   2.0000      -0.298690        -8.1278
  89   2.0000      -0.296912        -8.0794
  90   2.0000      -0.291212        -7.9243
  91   2.0000      -0.274448        -7.4681
  92   2.0000      -0.270673        -7.3654
  93   2.0000      -0.263409        -7.1677
  94   2.0000      -0.258069        -7.0224
  95   2.0000      -0.236323        -6.4307
  96   2.0000      -0.214117        -5.8264
  97   2.0000      -0.212511        -5.7827
  98   2.0000      -0.207637        -5.6501
  99   2.0000      -0.199918        -5.4400
 100   2.0000      -0.197955        -5.3866
 101   0.0000      -0.042583        -1.1587
 102   0.0000      -0.027022        -0.7353
 103   0.0000      -0.001150        -0.0313
 104   0.0000       0.005164         0.1405
 105   0.0000       0.009230         0.2512

MULLIKEN ATOMIC CHARGES
-----------------------
   0 C :   -0.280956
   1 C :   -0.008970
   2 O :   -0.380184
   3 P :    0.609752
   4 S :   -0.319018
   5 O :   -0.358107
   6 C :   -0.059001
   7 C :   -0.286401
   8 S :   -0.101195
   9 C :   -0.356707
  10 S :   -0.085458
  11 P :    0.610694
  12 S :   -0.311876
  13 O :   -0.387031
  14 C :   -0.000488
  15 C :   -0.313565
  16 O :   -0.367369
  17 C :   -0.032902
  18 C :   -0.286862
  19 H :    0.121127
  20 H :    0.115112
  21 H :    0.112497
  22 H :    0.102088
  23 H :    0.105195
  24 H :    0.110471
  25 H :    0.142908
  26 H :    0.120940
  27 H :    0.119910
  28 H :    0.111490
  29 H :    0.190027
  30 H :    0.191496
  31 H :    0.113190
  32 H :    0.104669
  33 H :    0.124700
  34 H :    0.113505
  35 H :    0.120520
  36 H :    0.125218
  37 H :    0.116638
  38 H :    0.122089
  39 H :    0.118991
  40 H :    0.112863
Sum of atomic charges:    0.0000000

LOEWDIN ATOMIC CHARGES
----------------------
   0 C :   -0.350194
   1 C :   -0.122144
   2 O :   -0.245859
   3 P :    0.568066
   4 S :   -0.311464
   5 O :   -0.233054
   6 C :   -0.121709
   7 C :   -0.362205
   8 S :    0.067968
   9 C :   -0.485499
  10 S :    0.078306
  11 P :    0.571368
  12 S :   -0.304189
  13 O :   -0.249520
  14 C :   -0.116209
  15 C :   -0.369327
  16 O :   -0.241324
  17 C :   -0.119150
  18 C :   -0.349526
  19 H :    0.129323
  20 H :    0.125708
  21 H :    0.131185
  22 H :    0.109244
  23 H :    0.108271
  24 H :    0.118843
  25 H :    0.111886
  26 H :    0.122618
  27 H :    0.128757
  28 H :    0.130468
  29 H :    0.127452
  30 H :    0.129114
  31 H :    0.112501
  32 H :    0.118579
  33 H :    0.120592
  34 H :    0.131199
  35 H :    0.125190
  36 H :    0.113325
  37 H :    0.114658
  38 H :    0.130663
  39 H :    0.124598
  40 H :    0.131491

  Mayer bond orders larger than 0.100000
B(  0-C ,  1-C ) :   1.1609 B(  0-C , 19-H ) :   0.9504 B(  0-C , 20-H ) :   0.9518
B(  0-C , 21-H ) :   0.9418 B(  1-C ,  2-O ) :   0.9009 B(  1-C , 22-H ) :   0.9279
B(  1-C , 23-H ) :   0.9069 B(  2-O ,  3-P ) :   1.0875 B(  3-P ,  4-S ) :   1.6370
B(  3-P ,  5-O ) :   1.1463 B(  3-P ,  8-S ) :   0.9390 B(  4-S ,  8-S ) :   0.1114
B(  5-O ,  6-C ) :   0.8946 B(  6-C ,  7-C ) :   1.1688 B(  6-C , 24-H ) :   0.9292
B(  6-C , 25-H ) :   0.8991 B(  7-C , 26-H ) :   0.9390 B(  7-C , 27-H ) :   0.9451
B(  7-C , 28-H ) :   0.9363 B(  8-S ,  9-C ) :   1.0046 B(  9-C , 10-S ) :   1.0105
B(  9-C , 29-H ) :   0.8776 B(  9-C , 30-H ) :   0.8766 B( 10-S , 11-P ) :   0.9394
B( 10-S , 12-S ) :   0.1127 B( 11-P , 12-S ) :   1.6363 B( 11-P , 13-O ) :   1.0822
B( 11-P , 16-O ) :   1.1231 B( 13-O , 14-C ) :   0.9073 B( 14-C , 15-C ) :   1.1658
B( 14-C , 31-H ) :   0.9184 B( 14-C , 32-H ) :   0.9343 B( 15-C , 33-H ) :   0.9363
B( 15-C , 34-H ) :   0.9368 B( 15-C , 35-H ) :   0.9431 B( 16-O , 17-C ) :   0.8829
B( 17-C , 18-C ) :   1.1694 B( 17-C , 36-H ) :   0.9159 B( 17-C , 37-H ) :   0.9167
B( 18-C , 38-H ) :   0.9475 B( 18-C , 39-H ) :   0.9482 B( 18-C , 40-H ) :   0.9404

Dispersion correction           -0.064213711
FINAL SINGLE POINT ENERGY     -2929.522860918131

DIPOLE MOMENT
-------------

Method             : SCF
Type of density    : Electron Density
Multiplicity       :   1
Irrep              :   0
Energy             : -2929.6436012614854008 Eh
Relativity type    :
Basis              : AO
                                X                 Y                 Z
Electronic contribution:     -2.619217211      10.571276537      -5.868670212
Nuclear contribution   :      2.311020443     -11.259876156       6.341325292
                        -----------------------------------------
Total Dipole Moment    :     -0.308196768      -0.688599619       0.472655079
                        -----------------------------------------
Magnitude (a.u.)       :      0.890256989
Magnitude (Debye)      :      2.262853434

Rotational constants in cm-1:             0.012755             0.004781             0.004264
Rotational constants in MHz :           382.394791           143.317404           127.827645

                             ****ORCA TERMINATED NORMALLY****
TOTAL RUN TIME: 0 days 0 hours 0 minutes 20 seconds 801 msec
