                         Program Version 6.0.0  -   RELEASE  -
|  1> ! pbe def2-sv(p) def2/J RI DEFGRID1 loosescf d4 GCP(DFT/SV(P)) printgap
|  2> %output
|  3>     printlevel normal
|  4> end
|  5> * xyz 0 1
|  6> C 2.4970039023 0.3237236626 -3.1420860895
|  7> C 3.50707366 0.7270333969 -2.0867999134
|  8> O 3.4300136636 -0.1130100685 -0.9245060456
|  9> P 2.1900026693 -0.0897518934 0.0727329213
| 10> S 1.5605914343 1.7334000572 0.4503304252
| 11> O 2.767384134 -0.8786059625 1.3142166856
| 12> C 3.1281237609 -0.2688186273 2.5738922543
| 13> C 2.2599483082 -0.8348429997 3.6801752546
| 14> S 0.9571065155 -1.6140109831 -0.7280909479
| 15> C -0.0060628612 -2.0235035018 0.7572280787
| 16> S -0.8571335042 -0.6023430648 1.502016718
| 17> P -1.9981051235 0.0488509981 -0.1552777395
| 18> S -1.2147370177 0.9535624118 -1.7160274286
| 19> O -3.1495325995 0.8934118202 0.5442432324
| 20> C -3.0520839259 2.3094552248 0.760545957
| 21> C -2.042595403 2.6443294237 1.8398006483
| 22> O -2.7100854868 -1.329685556 -0.4692603433
| 23> C -3.3518954213 -1.5920714944 -1.7341223073
| 24> C -4.6264033908 -0.7900036908 -1.8900833756
| 25> H 2.593687705 -0.7342267728 -3.3736859623
| 26> H 1.4837420822 0.5124757036 -2.7841855605
| 27> H 2.6591788857 0.9082554851 -4.0419006436
| 28> H 3.3462429881 1.7653140773 -1.7774625204
| 29> H 4.5317838312 0.597538113 -2.4376460965
| 30> H 4.1819588623 -0.5064898998 2.7272416074
| 31> H 3.0028126847 0.8157939348 2.4931580127
| 32> H 2.5662396031 -0.4002296413 4.6260169396
| 33> H 1.2144634567 -0.5905720339 3.4991785768
| 34> H 2.3712324737 -1.9143317406 3.7304968674
| 35> H 0.6577268799 -2.4151982409 1.5249567658
| 36> H -0.7366917341 -2.7677345688 0.4491392461
| 37> H -2.7778157139 2.7898285754 -0.1849403259
| 38> H -4.0628214223 2.6024118096 1.0479878895
| 39> H -1.0351372661 2.3978606137 1.5020899037
| 40> H -2.0825326545 3.7068567657 2.056655674
| 41> H -2.2560744143 2.0805956118 2.7445137204
| 42> H -2.6451227291 -1.3572807986 -2.5366212143
| 43> H -3.5479024698 -2.6647752449 -1.7111164178
| 44> H -5.1323159063 -1.090334561 -2.8022375737
| 45> H -5.2812547911 -0.9558644525 -1.0387453994
| 46> H -4.3892675218 0.2714645708 -1.949681528
| 47> *
| 48>
| 49>                          ****END OF INPUT****

CARTESIAN COORDINATES (ANGSTROEM)
---------------------------------
  C      2.497004    0.323724   -3.142086
  C      3.507074    0.727033   -2.086800
  O      3.430014   -0.113010   -0.924506
  P      2.190003   -0.089752    0.072733
  S      1.560591    1.733400    0.450330
  O      2.767384   -0.878606    1.314217
  C      3.128124   -0.268819    2.573892
  C      2.259948   -0.834843    3.680175
  S      0.957107   -1.614011   -0.728091
  C     -0.006063   -2.023504    0.757228
  S     -0.857134   -0.602343    1.502017
  P     -1.998105    0.048851   -0.155278
  S     -1.214737    0.953562   -1.716027
  O     -3.149533    0.893412    0.544243
  C     -3.052084    2.309455    0.760546
  C     -2.042595    2.644329    1.839801
  O     -2.710085   -1.329686   -0.469260
  C     -3.351895   -1.592071   -1.734122
  C     -4.626403   -0.790004   -1.890083
  H      2.593688   -0.734227   -3.373686
  H      1.483742    0.512476   -2.784186
  H      2.659179    0.908255   -4.041901
  H      3.346243    1.765314   -1.777463
  H      4.531784    0.597538   -2.437646
  H      4.181959   -0.506490    2.727242
  H      3.002813    0.815794    2.493158
  H      2.566240   -0.400230    4.626017
  H      1.214463   -0.590572    3.499179
  H      2.371232   -1.914332    3.730497
  H      0.657727   -2.415198    1.524957
  H     -0.736692   -2.767735    0.449139
  H     -2.777816    2.789829   -0.184940
  H     -4.062821    2.602412    1.047988
  H     -1.035137    2.397861    1.502090
  H     -2.082533    3.706857    2.056656
  H     -2.256074    2.080596    2.744514
  H     -2.645123   -1.357281   -2.536621
  H     -3.547902   -2.664775   -1.711116
  H     -5.132316   -1.090335   -2.802238
  H     -5.281255   -0.955864   -1.038745
  H     -4.389268    0.271465   -1.949682

 Total Charge           Charge          ....    0
 Multiplicity           Mult            ....    1
 Number of Electrons    NEL             ....  202
 Basis Dimension        Dim             ....  334

ORBITAL ENERGIES
----------------

  NO   OCC          E(Eh)            E(eV)
   0   2.0000     -88.040573     -2395.7058
   1   2.0000     -88.037898     -2395.6330
   2   2.0000     -87.980904     -2394.0821
   3   2.0000     -87.979532     -2394.0448
   4   2.0000     -76.423586     -2079.5915
   5   2.0000     -76.422076     -2079.5504
   6   2.0000     -18.791013      -511.3295
   7   2.0000     -18.789522      -511.2889
   8   2.0000     -18.789468      -511.2874
   9   2.0000     -18.784263      -511.1458
  10   2.0000      -9.958429      -270.9826
  11   2.0000      -9.950313      -270.7618
  12   2.0000      -9.949715      -270.7455
  13   2.0000      -9.947316      -270.6802
  14   2.0000      -9.944400      -270.6009
  15   2.0000      -9.886764      -269.0325
  16   2.0000      -9.882169      -268.9075
  17   2.0000      -9.877456      -268.7793
  18   2.0000      -9.875767      -268.7333
  19   2.0000      -7.685320      -209.1282
  20   2.0000      -7.683010      -209.0653
  21   2.0000      -7.625442      -207.4988
  22   2.0000      -7.624148      -207.4636
  23   2.0000      -6.421008      -174.7245
  24   2.0000      -6.419402      -174.6808
  25   2.0000      -5.713426      -155.4702
  26   2.0000      -5.711150      -155.4083
  27   2.0000      -5.709915      -155.3747
  28   2.0000      -5.707566      -155.3108
  29   2.0000      -5.701978      -155.1587
  30   2.0000      -5.699633      -155.0949
  31   2.0000      -5.654339      -153.8624
  32   2.0000      -5.652971      -153.8252
  33   2.0000      -5.645988      -153.6351
  34   2.0000      -5.645753      -153.6287
  35   2.0000      -5.644785      -153.6024
  36   2.0000      -5.644408      -153.5921
  37   2.0000      -4.643631      -126.3596
  38   2.0000      -4.642816      -126.3374
  39   2.0000      -4.642042      -126.3164
  40   2.0000      -4.641374      -126.2982
  41   2.0000      -4.641255      -126.2950
  42   2.0000      -4.639718      -126.2531
  43   2.0000      -0.985090       -26.8057
  44   2.0000      -0.981713       -26.7138
  45   2.0000      -0.945498       -25.7283
  46   2.0000      -0.941634       -25.6232
  47   2.0000      -0.762386       -20.7456
  48   2.0000      -0.718235       -19.5442
  49   2.0000      -0.705894       -19.2083
  50   2.0000      -0.683795       -18.6070
  51   2.0000      -0.681224       -18.5370
  52   2.0000      -0.667516       -18.1640
  53   2.0000      -0.650305       -17.6957
  54   2.0000      -0.634371       -17.2621
  55   2.0000      -0.598364       -16.2823
  56   2.0000      -0.589808       -16.0495
  57   2.0000      -0.570190       -15.5157
  58   2.0000      -0.568846       -15.4791
  59   2.0000      -0.559941       -15.2368
  60   2.0000      -0.496530       -13.5113
  61   2.0000      -0.491463       -13.3734
  62   2.0000      -0.472142       -12.8476
  63   2.0000      -0.466859       -12.7039
  64   2.0000      -0.458050       -12.4642
  65   2.0000      -0.437835       -11.9141
  66   2.0000      -0.436284       -11.8719
  67   2.0000      -0.433956       -11.8085
  68   2.0000      -0.423593       -11.5265
  69   2.0000      -0.412533       -11.2256
  70   2.0000      -0.409661       -11.1474
  71   2.0000      -0.392344       -10.6762
  72   2.0000      -0.390396       -10.6232
  73   2.0000      -0.387062       -10.5325
  74   2.0000      -0.384257       -10.4562
  75   2.0000      -0.371818       -10.1177
  76   2.0000      -0.366953        -9.9853
  77   2.0000      -0.356044        -9.6884
  78   2.0000      -0.352659        -9.5964
  79   2.0000      -0.349080        -9.4989
  80   2.0000      -0.345264        -9.3951
  81   2.0000      -0.343533        -9.3480
  82   2.0000      -0.339408        -9.2358
  83   2.0000      -0.335564        -9.1312
  84   2.0000      -0.328913        -8.9502
  85   2.0000      -0.318626        -8.6703
  86   2.0000      -0.302926        -8.2430
  87   2.0000      -0.293880        -7.9969
  88   2.0000      -0.290004        -7.8914
  89   2.0000      -0.282573        -7.6892
  90   2.0000      -0.278279        -7.5724
  91   2.0000      -0.273941        -7.4543
  92   2.0000      -0.266598        -7.2545
  93   2.0000      -0.259338        -7.0569
  94   2.0000      -0.256335        -6.9752
  95   2.0000      -0.248380        -6.7588
  96   2.0000      -0.219654        -5.9771
  97   2.0000      -0.209774        -5.7082
  98   2.0000      -0.189026        -5.1437
  99   2.0000      -0.186288        -5.0692
 100   2.0000      -0.183062        -4.9814
 101   0.0000      -0.050697        -1.3795
 102   0.0000      -0.029239        -0.7956
 103   0.0000      -0.006729        -0.1831
 104   0.0000      -0.006039        -0.1643
 105   0.0000       0.024988         0.6800

MULLIKEN ATOMIC CHARGES
-----------------------
   0 C :   -0.346524
   1 C :    0.002085
   2 O :   -0.367097
   3 P :    0.611729
   4 S :   -0.308015
   5 O :   -0.375343
   6 C :   -0.001959
   7 C :   -0.311472
   8 S :   -0.092687
   9 C :   -0.341322
  10 S :   -0.103782
  11 P :    0.625781
  12 S :   -0.301873
  13 O :   -0.371080
  14 C :   -0.002158
  15 C :   -0.345211
  16 O :   -0.376110
  17 C :   -0.005019
  18 C :   -0.303516
  19 H :    0.116683
  20 H :    0.155939
  21 H :    0.111874
  22 H :    0.109710
  23 H :    0.102126
  24 H :    0.105731
  25 H :    0.110317
  26 H :    0.113294
  27 H :    0.130816
  28 H :    0.116468
  29 H :    0.190090
  30 H :    0.187949
  31 H :    0.110416
  32 H :    0.102668
  33 H :    0.157997
  34 H :    0.112550
  35 H :    0.115420
  36 H :    0.112169
  37 H :    0.100977
  38 H :    0.111168
  39 H :    0.116540
  40 H :    0.122671
Sum of atomic charges:   -0.0000000

LOEWDIN ATOMIC CHARGES
----------------------
   0 C :   -0.374915
   1 C :   -0.120068
   2 O :   -0.245455
   3 P :    0.568921
   4 S :   -0.301305
   5 O :   -0.244435
   6 C :   -0.117242
   7 C :   -0.360144
   8 S :    0.087376
   9 C :   -0.472674
  10 S :    0.091382
  11 P :    0.571122
  12 S :   -0.300879
  13 O :   -0.242829
  14 C :   -0.120584
  15 C :   -0.374915
  16 O :   -0.243483
  17 C :   -0.119591
  18 C :   -0.363790
  19 H :    0.123169
  20 H :    0.123095
  21 H :    0.131325
  22 H :    0.109345
  23 H :    0.117151
  24 H :    0.117495
  25 H :    0.107289
  26 H :    0.132094
  27 H :    0.120756
  28 H :    0.123275
  29 H :    0.132519
  30 H :    0.134483
  31 H :    0.109689
  32 H :    0.117269
  33 H :    0.122686
  34 H :    0.131847
  35 H :    0.123065
  36 H :    0.110750
  37 H :    0.116307
  38 H :    0.129987
  39 H :    0.126507
  40 H :    0.123406

  Mayer bond orders larger than 0.100000
B(  0-C ,  1-C ) :   1.1622 B(  0-C , 19-H ) :   0.9438 B(  0-C , 20-H ) :   0.9225
B(  0-C , 21-H ) :   0.9379 B(  1-C ,  2-O ) :   0.9113 B(  1-C , 22-H ) :   0.9131
B(  1-C , 23-H ) :   0.9332 B(  2-O ,  3-P ) :   1.1182 B(  3-P ,  4-S ) :   1.6167
B(  3-P ,  5-O ) :   1.1140 B(  3-P ,  8-S ) :   0.9547 B(  4-S ,  8-S ) :   0.1131
B(  5-O ,  6-C ) :   0.8992 B(  6-C ,  7-C ) :   1.1680 B(  6-C , 24-H ) :   0.9329
B(  6-C , 25-H ) :   0.8984 B(  7-C , 26-H ) :   0.9391 B(  7-C , 27-H ) :   0.9365
B(  7-C , 28-H ) :   0.9458 B(  8-S ,  9-C ) :   1.0019 B(  9-C , 10-S ) :   1.0047
B(  9-C , 29-H ) :   0.8988 B(  9-C , 30-H ) :   0.9035 B( 10-S , 11-P ) :   0.9464
B( 10-S , 12-S ) :   0.1148 B( 11-P , 12-S ) :   1.6220 B( 11-P , 13-O ) :   1.1072
B( 11-P , 16-O ) :   1.1081 B( 13-O , 14-C ) :   0.9076 B( 14-C , 15-C ) :   1.1652
B( 14-C , 31-H ) :   0.9118 B( 14-C , 32-H ) :   0.9329 B( 15-C , 33-H ) :   0.9204
B( 15-C , 34-H ) :   0.9378 B( 15-C , 35-H ) :   0.9440 B( 16-O , 17-C ) :   0.9043
B( 17-C , 18-C ) :   1.1664 B( 17-C , 36-H ) :   0.9130 B( 17-C , 37-H ) :   0.9339
B( 18-C , 38-H ) :   0.9391 B( 18-C , 39-H ) :   0.9462 B( 18-C , 40-H ) :   0.9364

Dispersion correction           -0.068679224
FINAL SINGLE POINT ENERGY     -2929.515598204836

DIPOLE MOMENT
-------------

Method             : SCF
Type of density    : Electron Density
Multiplicity       :   1
Irrep              :   0
Energy             : -2929.6314633460242476 Eh
Relativity type    :
Basis              : AO
                                X                 Y                 Z
Electronic contribution:      4.945119727      -3.431360536      -1.386639001
Nuclear contribution   :     -5.187200772       2.864472544       1.749067509
                        -----------------------------------------
Total Dipole Moment    :     -0.242081045      -0.566887992       0.362428508
                        -----------------------------------------
Magnitude (a.u.)       :      0.715066186
Magnitude (Debye)      :      1.817553801

Rotational constants in cm-1:             0.011197             0.005947             0.005349
Rotational constants in MHz :           335.683996           178.299090           160.346799

                             ****ORCA TERMINATED NORMALLY****
TOTAL RUN TIME: 0 days 0 hours 0 minutes 21 seconds 658 msec
