                         Program Version 6.0.0  -   RELEASE  -
|  1> ! pbe def2-sv(p) def2/J RI DEFGRID1 loosescf d4 GCP(DFT/SV(P)) printgap
|  2> %output
|  3>     printlevel normal
|  4> end
|  5> * xyz 0 1
|  6> C 2.7830136525 0.8008306795 -0.0013736136
|  7> C 1.3393811473 0.394941712 0.0008174476
|  8> C 0.3274681184 1.3403919346 0.0034948491
|  9> C -1.0113753913 0.9626325889 0.0041109008
| 10> C -1.3241701271 -0.3864751815 0.001536044
| 11> C -0.3276259779 -1.3571266297 -0.0013262933
| 12> C 0.997069029 -0.9534520249 -0.0014877796
| 13> C -0.6978252254 -2.8103212037 -0.0001789015
| 14> C -2.08568581 2.0088785598 -0.00326923
| 15> H 2.8827813596 1.8824137274 0.0327749978
| 16> H 3.2970769064 0.3744631551 0.8585518537
| 17> H 3.2762997649 0.4333107583 -0.9000666018
| 18> H 0.5782331373 2.3921835994 0.0057695348
| 19> H -2.3604386095 -0.6951927147 0.0021461354
| 20> H 1.7827323069 -1.6963494223 -0.0029949477
| 21> H -1.3323081493 -3.0398874183 -0.8546764627
| 22> H 0.1886809006 -3.4372939131 -0.0443876119
| 23> H -1.2540555951 -3.0564291002 0.9032441426
| 24> H -3.0651465011 1.5611933591 0.1424917583
| 25> H -1.91132273 2.7391916046 0.7846283463
| 26> H -2.0855050404 2.538816122 -0.9551690475
| 27> *
| 28>
| 29>                          ****END OF INPUT****

CARTESIAN COORDINATES (ANGSTROEM)
---------------------------------
  C      2.783014    0.800831   -0.001374
  C      1.339381    0.394942    0.000817
  C      0.327468    1.340392    0.003495
  C     -1.011375    0.962633    0.004111
  C     -1.324170   -0.386475    0.001536
  C     -0.327626   -1.357127   -0.001326
  C      0.997069   -0.953452   -0.001488
  C     -0.697825   -2.810321   -0.000179
  C     -2.085686    2.008879   -0.003269
  H      2.882781    1.882414    0.032775
  H      3.297077    0.374463    0.858552
  H      3.276300    0.433311   -0.900067
  H      0.578233    2.392184    0.005770
  H     -2.360439   -0.695193    0.002146
  H      1.782732   -1.696349   -0.002995
  H     -1.332308   -3.039887   -0.854676
  H      0.188681   -3.437294   -0.044388
  H     -1.254056   -3.056429    0.903244
  H     -3.065147    1.561193    0.142492
  H     -1.911323    2.739192    0.784628
  H     -2.085505    2.538816   -0.955169

 Total Charge           Charge          ....    0
 Multiplicity           Mult            ....    1
 Number of Electrons    NEL             ....   66
 Basis Dimension        Dim             ....  150

ORBITAL ENERGIES
----------------

  NO   OCC          E(Eh)            E(eV)
   0   2.0000      -9.893560      -269.2174
   1   2.0000      -9.893520      -269.2164
   2   2.0000      -9.893500      -269.2158
   3   2.0000      -9.878405      -268.8051
   4   2.0000      -9.878376      -268.8043
   5   2.0000      -9.878372      -268.8042
   6   2.0000      -9.875899      -268.7369
   7   2.0000      -9.875894      -268.7367
   8   2.0000      -9.875828      -268.7349
   9   2.0000      -0.774555       -21.0767
  10   2.0000      -0.699309       -19.0292
  11   2.0000      -0.699297       -19.0289
  12   2.0000      -0.626218       -17.0403
  13   2.0000      -0.602961       -16.4074
  14   2.0000      -0.602924       -16.4064
  15   2.0000      -0.505605       -13.7582
  16   2.0000      -0.505599       -13.7580
  17   2.0000      -0.442049       -12.0288
  18   2.0000      -0.426247       -11.5988
  19   2.0000      -0.382000       -10.3947
  20   2.0000      -0.375764       -10.2251
  21   2.0000      -0.367428        -9.9982
  22   2.0000      -0.367362        -9.9964
  23   2.0000      -0.354468        -9.6456
  24   2.0000      -0.354417        -9.6442
  25   2.0000      -0.346284        -9.4229
  26   2.0000      -0.346162        -9.4196
  27   2.0000      -0.316787        -8.6202
  28   2.0000      -0.293438        -7.9849
  29   2.0000      -0.286482        -7.7956
  30   2.0000      -0.286457        -7.7949
  31   2.0000      -0.207244        -5.6394
  32   2.0000      -0.207091        -5.6352
  33   0.0000      -0.024267        -0.6603
  34   0.0000      -0.023857        -0.6492
  35   0.0000       0.046586         1.2677
  36   0.0000       0.064676         1.7599
  37   0.0000       0.064722         1.7612

MULLIKEN ATOMIC CHARGES
-----------------------
   0 C :   -0.221326
   1 C :    0.078920
   2 C :   -0.196187
   3 C :    0.077857
   4 C :   -0.196603
   5 C :    0.078784
   6 C :   -0.197408
   7 C :   -0.221085
   8 C :   -0.221658
   9 H :    0.098532
  10 H :    0.112055
  11 H :    0.113134
  12 H :    0.015629
  13 H :    0.015693
  14 H :    0.015719
  15 H :    0.111835
  16 H :    0.098453
  17 H :    0.113369
  18 H :    0.099085
  19 H :    0.110215
  20 H :    0.114988
Sum of atomic charges:    0.0000000

LOEWDIN ATOMIC CHARGES
----------------------
   0 C :   -0.322359
   1 C :   -0.044354
   2 C :   -0.133869
   3 C :   -0.044360
   4 C :   -0.133667
   5 C :   -0.044284
   6 C :   -0.133875
   7 C :   -0.322305
   8 C :   -0.322314
   9 H :    0.122514
  10 H :    0.130658
  11 H :    0.131287
  12 H :    0.116005
  13 H :    0.116012
  14 H :    0.116036
  15 H :    0.130554
  16 H :    0.122471
  17 H :    0.131392
  18 H :    0.122730
  19 H :    0.129500
  20 H :    0.132228

  Mayer bond orders larger than 0.100000
B(  0-C ,  1-C ) :   1.0924 B(  0-C ,  9-H ) :   0.9453 B(  0-C , 10-H ) :   0.9365
B(  0-C , 11-H ) :   0.9357 B(  1-C ,  2-C ) :   1.4017 B(  1-C ,  6-C ) :   1.3425
B(  2-C ,  3-C ) :   1.3427 B(  2-C , 12-H ) :   0.9622 B(  3-C ,  4-C ) :   1.4016
B(  3-C ,  8-C ) :   1.0928 B(  4-C ,  5-C ) :   1.3428 B(  4-C , 13-H ) :   0.9629
B(  5-C ,  6-C ) :   1.4024 B(  5-C ,  7-C ) :   1.0923 B(  6-C , 14-H ) :   0.9624
B(  7-C , 15-H ) :   0.9366 B(  7-C , 16-H ) :   0.9453 B(  7-C , 17-H ) :   0.9355
B(  8-C , 18-H ) :   0.9452 B(  8-C , 19-H ) :   0.9378 B(  8-C , 20-H ) :   0.9344

Dispersion correction           -0.020673197
FINAL SINGLE POINT ENERGY      -349.377551957131

DIPOLE MOMENT
-------------

Method             : SCF
Type of density    : Electron Density
Multiplicity       :   1
Irrep              :   0
Energy             :  -349.4359960630579849 Eh
Relativity type    :
Basis              : AO
                                X                 Y                 Z
Electronic contribution:      0.000548135       0.002020611       0.015762045
Nuclear contribution   :     -0.002788467      -0.003358866      -0.025975878
                        -----------------------------------------
Total Dipole Moment    :     -0.002240332      -0.001338254      -0.010213833
                        -----------------------------------------
Magnitude (a.u.)       :      0.010541935
Magnitude (Debye)      :      0.026795470

Rotational constants in cm-1:             0.059076             0.059051             0.030024
Rotational constants in MHz :          1771.065941          1770.295884           900.108087

                             ****ORCA TERMINATED NORMALLY****
TOTAL RUN TIME: 0 days 0 hours 0 minutes 55 seconds 90 msec
