                         Program Version 6.0.0  -   RELEASE  -
|  1> ! pbe def2-sv(p) def2/J RI DEFGRID1 loosescf d4 GCP(DFT/SV(P)) printgap
|  2> %output
|  3>     printlevel normal
|  4> end
|  5> * xyz 0 1
|  6> C 3.4064166231 2.119959635 -0.9823346911
|  7> C 3.5380656513 1.177798937 0.1972376135
|  8> O 3.0012163569 -0.1194268832 -0.1352890768
|  9> P 1.8365429886 -0.8711208226 0.6467974765
| 10> S 1.1411435988 0.0946488694 2.2076961521
| 11> O 2.4061274131 -2.3158535904 0.9922515946
| 12> C 3.0180898694 -2.6185707282 2.2595218482
| 13> C 4.3559495455 -1.9239585204 2.4163016185
| 14> S 0.6253452686 -1.5832285731 -0.9266883934
| 15> C 0.5268455408 -0.074125785 -1.9381245977
| 16> S -0.1050476183 1.3541014945 -1.020215447
| 17> P -2.0144062753 0.5580517954 -0.5978769161
| 18> S -2.8174729209 -0.4937666593 -2.0502576484
| 19> O -2.8891152361 1.7881518559 -0.1065050038
| 20> C -3.6668736287 2.5844793626 -1.0199187361
| 21> C -2.7908320514 3.4359535902 -1.9150972863
| 22> O -1.6909864325 -0.1790320353 0.7668272971
| 23> C -2.6488858907 -0.4557203048 1.8083460895
| 24> C -3.7300755167 -1.4113375953 1.3495800524
| 25> H 3.9066313486 3.0522007513 -0.7410941779
| 26> H 3.8709783987 1.6841706287 -1.8624564235
| 27> H 2.3585426278 2.3265930547 -1.1919996086
| 28> H 3.0092546137 1.5641899912 1.0753657782
| 29> H 4.5876698104 1.0090209676 0.4479234125
| 30> H 2.3324702984 -2.3178779455 3.0587837893
| 31> H 3.1227332642 -3.7043203848 2.248391083
| 32> H 4.9938556651 -2.1440831073 1.5641755192
| 33> H 4.2054219561 -0.8468266222 2.4817951572
| 34> H 4.8365309968 -2.2683075766 3.3265818995
| 35> H -0.1542098703 -0.3110440305 -2.7561269471
| 36> H 1.5145980079 0.190800684 -2.3067724749
| 37> H -4.2907370029 1.9122611401 -1.6178137994
| 38> H -4.2929236694 3.1938673137 -0.366911828
| 39> H -3.4159799472 4.1075817169 -2.4945315864
| 40> H -2.0914457787 4.0157598266 -1.3181361646
| 41> H -2.2275584074 2.8004230564 -2.5969188751
| 42> H -2.0367248886 -0.8849993979 2.6044092427
| 43> H -3.0735842618 0.4928910714 2.14415261
| 44> H -4.3776500301 -1.6512578682 2.1869187464
| 45> H -4.3233567418 -0.9542578947 0.5583406438
| 46> H -3.2857541454 -2.3258112821 0.9624969064
| 47> *
| 48>
| 49>                          ****END OF INPUT****

CARTESIAN COORDINATES (ANGSTROEM)
---------------------------------
  C      3.406417    2.119960   -0.982335
  C      3.538066    1.177799    0.197238
  O      3.001216   -0.119427   -0.135289
  P      1.836543   -0.871121    0.646797
  S      1.141144    0.094649    2.207696
  O      2.406127   -2.315854    0.992252
  C      3.018090   -2.618571    2.259522
  C      4.355950   -1.923959    2.416302
  S      0.625345   -1.583229   -0.926688
  C      0.526846   -0.074126   -1.938125
  S     -0.105048    1.354101   -1.020215
  P     -2.014406    0.558052   -0.597877
  S     -2.817473   -0.493767   -2.050258
  O     -2.889115    1.788152   -0.106505
  C     -3.666874    2.584479   -1.019919
  C     -2.790832    3.435954   -1.915097
  O     -1.690986   -0.179032    0.766827
  C     -2.648886   -0.455720    1.808346
  C     -3.730076   -1.411338    1.349580
  H      3.906631    3.052201   -0.741094
  H      3.870978    1.684171   -1.862456
  H      2.358543    2.326593   -1.192000
  H      3.009255    1.564190    1.075366
  H      4.587670    1.009021    0.447923
  H      2.332470   -2.317878    3.058784
  H      3.122733   -3.704320    2.248391
  H      4.993856   -2.144083    1.564176
  H      4.205422   -0.846827    2.481795
  H      4.836531   -2.268308    3.326582
  H     -0.154210   -0.311044   -2.756127
  H      1.514598    0.190801   -2.306772
  H     -4.290737    1.912261   -1.617814
  H     -4.292924    3.193867   -0.366912
  H     -3.415980    4.107582   -2.494532
  H     -2.091446    4.015760   -1.318136
  H     -2.227558    2.800423   -2.596919
  H     -2.036725   -0.884999    2.604409
  H     -3.073584    0.492891    2.144153
  H     -4.377650   -1.651258    2.186919
  H     -4.323357   -0.954258    0.558341
  H     -3.285754   -2.325811    0.962497

 Total Charge           Charge          ....    0
 Multiplicity           Mult            ....    1
 Number of Electrons    NEL             ....  202
 Basis Dimension        Dim             ....  334

ORBITAL ENERGIES
----------------

  NO   OCC          E(Eh)            E(eV)
   0   2.0000     -88.042209     -2395.7503
   1   2.0000     -88.035030     -2395.5550
   2   2.0000     -87.984882     -2394.1904
   3   2.0000     -87.981262     -2394.0918
   4   2.0000     -76.425518     -2079.6441
   5   2.0000     -76.421590     -2079.5372
   6   2.0000     -18.796902      -511.4897
   7   2.0000     -18.792299      -511.3645
   8   2.0000     -18.785313      -511.1744
   9   2.0000     -18.779762      -511.0233
  10   2.0000      -9.954540      -270.8768
  11   2.0000      -9.953794      -270.8565
  12   2.0000      -9.952193      -270.8129
  13   2.0000      -9.948348      -270.7083
  14   2.0000      -9.944907      -270.6147
  15   2.0000      -9.889573      -269.1090
  16   2.0000      -9.885235      -268.9909
  17   2.0000      -9.884991      -268.9843
  18   2.0000      -9.876153      -268.7438
  19   2.0000      -7.686912      -209.1715
  20   2.0000      -7.680352      -208.9930
  21   2.0000      -7.629915      -207.6205
  22   2.0000      -7.626244      -207.5207
  23   2.0000      -6.422735      -174.7715
  24   2.0000      -6.419035      -174.6708
  25   2.0000      -5.714786      -155.5072
  26   2.0000      -5.711577      -155.4199
  27   2.0000      -5.708566      -155.3380
  28   2.0000      -5.704902      -155.2383
  29   2.0000      -5.703745      -155.2068
  30   2.0000      -5.696874      -155.0198
  31   2.0000      -5.658709      -153.9813
  32   2.0000      -5.655028      -153.8811
  33   2.0000      -5.650679      -153.7628
  34   2.0000      -5.650086      -153.7467
  35   2.0000      -5.646765      -153.6563
  36   2.0000      -5.646615      -153.6522
  37   2.0000      -4.645776      -126.4180
  38   2.0000      -4.644208      -126.3753
  39   2.0000      -4.643110      -126.3455
  40   2.0000      -4.641775      -126.3091
  41   2.0000      -4.640669      -126.2790
  42   2.0000      -4.639488      -126.2469
  43   2.0000      -0.985888       -26.8274
  44   2.0000      -0.980522       -26.6814
  45   2.0000      -0.943122       -25.6636
  46   2.0000      -0.940063       -25.5804
  47   2.0000      -0.763133       -20.7659
  48   2.0000      -0.720922       -19.6173
  49   2.0000      -0.706179       -19.2161
  50   2.0000      -0.688738       -18.7415
  51   2.0000      -0.685584       -18.6557
  52   2.0000      -0.668001       -18.1772
  53   2.0000      -0.648566       -17.6484
  54   2.0000      -0.637276       -17.3412
  55   2.0000      -0.599192       -16.3049
  56   2.0000      -0.590721       -16.0743
  57   2.0000      -0.574532       -15.6338
  58   2.0000      -0.572859       -15.5883
  59   2.0000      -0.556948       -15.1553
  60   2.0000      -0.497192       -13.5293
  61   2.0000      -0.493999       -13.4424
  62   2.0000      -0.476364       -12.9625
  63   2.0000      -0.467863       -12.7312
  64   2.0000      -0.457764       -12.4564
  65   2.0000      -0.441000       -12.0002
  66   2.0000      -0.438054       -11.9201
  67   2.0000      -0.431134       -11.7317
  68   2.0000      -0.423754       -11.5309
  69   2.0000      -0.411386       -11.1944
  70   2.0000      -0.403714       -10.9856
  71   2.0000      -0.397517       -10.8170
  72   2.0000      -0.394404       -10.7323
  73   2.0000      -0.390576       -10.6281
  74   2.0000      -0.377059       -10.2603
  75   2.0000      -0.372681       -10.1412
  76   2.0000      -0.368590       -10.0299
  77   2.0000      -0.359498        -9.7824
  78   2.0000      -0.355766        -9.6809
  79   2.0000      -0.351527        -9.5655
  80   2.0000      -0.346400        -9.4260
  81   2.0000      -0.340264        -9.2590
  82   2.0000      -0.339038        -9.2257
  83   2.0000      -0.336254        -9.1499
  84   2.0000      -0.331409        -9.0181
  85   2.0000      -0.324093        -8.8190
  86   2.0000      -0.309179        -8.4132
  87   2.0000      -0.296579        -8.0703
  88   2.0000      -0.293024        -7.9736
  89   2.0000      -0.283839        -7.7236
  90   2.0000      -0.278017        -7.5652
  91   2.0000      -0.274607        -7.4724
  92   2.0000      -0.272038        -7.4025
  93   2.0000      -0.260213        -7.0807
  94   2.0000      -0.257470        -7.0061
  95   2.0000      -0.238103        -6.4791
  96   2.0000      -0.212068        -5.7707
  97   2.0000      -0.206134        -5.6092
  98   2.0000      -0.200162        -5.4467
  99   2.0000      -0.193342        -5.2611
 100   2.0000      -0.191949        -5.2232
 101   0.0000      -0.048574        -1.3218
 102   0.0000      -0.026623        -0.7245
 103   0.0000      -0.001853        -0.0504
 104   0.0000       0.003560         0.0969
 105   0.0000       0.022338         0.6079

MULLIKEN ATOMIC CHARGES
-----------------------
   0 C :   -0.304855
   1 C :   -0.017394
   2 O :   -0.385681
   3 P :    0.630933
   4 S :   -0.319575
   5 O :   -0.377442
   6 C :   -0.001836
   7 C :   -0.316502
   8 S :   -0.060592
   9 C :   -0.365476
  10 S :   -0.106143
  11 P :    0.648572
  12 S :   -0.334896
  13 O :   -0.378621
  14 C :   -0.005677
  15 C :   -0.314631
  16 O :   -0.350820
  17 C :    0.001462
  18 C :   -0.311366
  19 H :    0.113259
  20 H :    0.118142
  21 H :    0.132030
  22 H :    0.115280
  23 H :    0.103782
  24 H :    0.110231
  25 H :    0.104973
  26 H :    0.117455
  27 H :    0.121171
  28 H :    0.112796
  29 H :    0.192516
  30 H :    0.187735
  31 H :    0.112752
  32 H :    0.104990
  33 H :    0.113906
  34 H :    0.117882
  35 H :    0.125902
  36 H :    0.107611
  37 H :    0.104623
  38 H :    0.106699
  39 H :    0.121237
  40 H :    0.125565
Sum of atomic charges:    0.0000000

LOEWDIN ATOMIC CHARGES
----------------------
   0 C :   -0.359870
   1 C :   -0.121209
   2 O :   -0.251530
   3 P :    0.565660
   4 S :   -0.308502
   5 O :   -0.249880
   6 C :   -0.119964
   7 C :   -0.365786
   8 S :    0.105144
   9 C :   -0.479028
  10 S :    0.092400
  11 P :    0.577640
  12 S :   -0.321135
  13 O :   -0.242359
  14 C :   -0.119875
  15 C :   -0.369185
  16 O :   -0.233095
  17 C :   -0.110035
  18 C :   -0.366102
  19 H :    0.132966
  20 H :    0.125178
  21 H :    0.115380
  22 H :    0.107655
  23 H :    0.114266
  24 H :    0.109092
  25 H :    0.118773
  26 H :    0.126059
  27 H :    0.120352
  28 H :    0.130896
  29 H :    0.130686
  30 H :    0.131398
  31 H :    0.110782
  32 H :    0.118394
  33 H :    0.131669
  34 H :    0.124808
  35 H :    0.120960
  36 H :    0.119084
  37 H :    0.110921
  38 H :    0.127308
  39 H :    0.119370
  40 H :    0.130715

  Mayer bond orders larger than 0.100000
B(  0-C ,  1-C ) :   1.1668 B(  0-C , 19-H ) :   0.9377 B(  0-C , 20-H ) :   0.9443
B(  0-C , 21-H ) :   0.9310 B(  1-C ,  2-O ) :   0.9085 B(  1-C , 22-H ) :   0.8964
B(  1-C , 23-H ) :   0.9304 B(  2-O ,  3-P ) :   1.0902 B(  3-P ,  4-S ) :   1.6122
B(  3-P ,  5-O ) :   1.1127 B(  3-P ,  8-S ) :   0.9691 B(  4-S ,  8-S ) :   0.1051
B(  5-O ,  6-C ) :   0.9167 B(  6-C ,  7-C ) :   1.1606 B(  6-C , 24-H ) :   0.9133
B(  6-C , 25-H ) :   0.9341 B(  7-C , 26-H ) :   0.9465 B(  7-C , 27-H ) :   0.9330
B(  7-C , 28-H ) :   0.9391 B(  8-S ,  9-C ) :   1.0050 B(  9-C , 10-S ) :   1.0093
B(  9-C , 29-H ) :   0.8825 B(  9-C , 30-H ) :   0.8984 B( 10-S , 11-P ) :   0.9341
B( 10-S , 12-S ) :   0.1127 B( 11-P , 12-S ) :   1.6049 B( 11-P , 13-O ) :   1.0943
B( 11-P , 16-O ) :   1.1401 B( 13-O , 14-C ) :   0.9054 B( 14-C , 15-C ) :   1.1671
B( 14-C , 31-H ) :   0.9131 B( 14-C , 32-H ) :   0.9329 B( 15-C , 33-H ) :   0.9378
B( 15-C , 34-H ) :   0.9453 B( 15-C , 35-H ) :   0.9342 B( 16-O , 17-C ) :   0.9085
B( 17-C , 18-C ) :   1.1632 B( 17-C , 36-H ) :   0.9281 B( 17-C , 37-H ) :   0.9310
B( 18-C , 38-H ) :   0.9377 B( 18-C , 39-H ) :   0.9374 B( 18-C , 40-H ) :   0.9458

Dispersion correction           -0.067180617
FINAL SINGLE POINT ENERGY     -2929.517546056338

DIPOLE MOMENT
-------------

Method             : SCF
Type of density    : Electron Density
Multiplicity       :   1
Irrep              :   0
Energy             : -2929.6351097524529905 Eh
Relativity type    :
Basis              : AO
                                X                 Y                 Z
Electronic contribution:     -4.480650911      -7.857709993      -4.764571687
Nuclear contribution   :      5.053824183       8.673848981       5.102854917
                        -----------------------------------------
Total Dipole Moment    :      0.573173272       0.816138987       0.338283229
                        -----------------------------------------
Magnitude (a.u.)       :      1.053112525
Magnitude (Debye)      :      2.676799309

Rotational constants in cm-1:             0.012742             0.005328             0.004688
Rotational constants in MHz :           382.000787           159.723896           140.535894

                             ****ORCA TERMINATED NORMALLY****
TOTAL RUN TIME: 0 days 0 hours 0 minutes 21 seconds 216 msec
