                         Program Version 6.0.0  -   RELEASE  -
|  1> ! r2scan-3c def2/J RI DEFGRID2 scfconv6 printgap
|  2> %output
|  3>     printlevel normal
|  4> end
|  5> * xyz 0 1
|  6> C 0.9008425927 -0.6147906629 3.584731411
|  7> C 2.1248502913 -0.5175410882 2.6967892892
|  8> O 1.7500359062 0.1633290238 1.4778420468
|  9> P 2.4187792234 -0.1618988505 0.0777240044
| 10> S 2.8656911194 -2.0474654794 -0.2468582558
| 11> O 3.670644569 0.818880328 0.1019150672
| 12> C 4.7723330143 0.6863038405 -0.8134715172
| 13> C 4.3682591417 1.0040371866 -2.2385777674
| 14> S 1.0193447115 0.74760596 -1.2039342456
| 15> C -0.0594454943 -0.7037951055 -1.3801211417
| 16> S -0.9269035523 -1.1421147267 0.1461771914
| 17> P -2.5583386427 0.232248869 0.0066550755
| 18> S -2.9051535738 0.9462079998 -1.7918610637
| 19> O -2.3629880192 1.2497058863 1.2039258886
| 20> C -1.2195834047 2.094115912 1.4139363749
| 21> C -1.1551232514 3.2377192411 0.4203867295
| 22> O -3.780549372 -0.5202177605 0.6680032491
| 23> C -4.7092090438 -1.2916202286 -0.1130728657
| 24> C -4.0918514033 -2.5791866976 -0.6221657063
| 25> H 1.1680400199 -1.1309721837 4.5010602756
| 26> H 0.5324419849 0.378233315 3.8256654266
| 27> H 0.1147356843 -1.1697694701 3.0781385724
| 28> H 2.5075655332 -1.5109315961 2.4385869466
| 29> H 2.9194350053 0.0646811074 3.1684614265
| 30> H 5.5129493778 1.3925399349 -0.4361129539
| 31> H 5.1592586212 -0.3352239726 -0.7414401537
| 32> H 3.8858722083 1.9771074888 -2.2872180887
| 33> H 5.2502721887 1.0058618574 -2.8709359188
| 34> H 3.6731900353 0.2497147101 -2.6055654668
| 35> H 0.5436040216 -1.567484892 -1.6571568011
| 36> H -0.7869012958 -0.4521487576 -2.1534101573
| 37> H -1.3609650355 2.4647337214 2.4313152597
| 38> H -0.3085934025 1.4888524443 1.3719738288
| 39> H -0.3374569034 3.8985739968 0.6898672753
| 40> H -0.983014922 2.8620152167 -0.5867390623
| 41> H -2.0884544399 3.7948456687 0.4296044418
| 42> H -5.5325940278 -1.4855201013 0.5756153093
| 43> H -5.0609599843 -0.6765488016 -0.9479629833
| 44> H -4.8605024304 -3.1857369434 -1.090242731
| 45> H -3.3207259302 -2.357976362 -1.3587865622
| 46> H -3.6444117865 -3.1334085297 0.1990252445
| 47> *
| 48>
| 49>                          ****END OF INPUT****

CARTESIAN COORDINATES (ANGSTROEM)
---------------------------------
  C      0.900843   -0.614791    3.584731
  C      2.124850   -0.517541    2.696789
  O      1.750036    0.163329    1.477842
  P      2.418779   -0.161899    0.077724
  S      2.865691   -2.047465   -0.246858
  O      3.670645    0.818880    0.101915
  C      4.772333    0.686304   -0.813472
  C      4.368259    1.004037   -2.238578
  S      1.019345    0.747606   -1.203934
  C     -0.059445   -0.703795   -1.380121
  S     -0.926904   -1.142115    0.146177
  P     -2.558339    0.232249    0.006655
  S     -2.905154    0.946208   -1.791861
  O     -2.362988    1.249706    1.203926
  C     -1.219583    2.094116    1.413936
  C     -1.155123    3.237719    0.420387
  O     -3.780549   -0.520218    0.668003
  C     -4.709209   -1.291620   -0.113073
  C     -4.091851   -2.579187   -0.622166
  H      1.168040   -1.130972    4.501060
  H      0.532442    0.378233    3.825665
  H      0.114736   -1.169769    3.078139
  H      2.507566   -1.510932    2.438587
  H      2.919435    0.064681    3.168461
  H      5.512949    1.392540   -0.436113
  H      5.159259   -0.335224   -0.741440
  H      3.885872    1.977107   -2.287218
  H      5.250272    1.005862   -2.870936
  H      3.673190    0.249715   -2.605565
  H      0.543604   -1.567485   -1.657157
  H     -0.786901   -0.452149   -2.153410
  H     -1.360965    2.464734    2.431315
  H     -0.308593    1.488852    1.371974
  H     -0.337457    3.898574    0.689867
  H     -0.983015    2.862015   -0.586739
  H     -2.088454    3.794846    0.429604
  H     -5.532594   -1.485520    0.575615
  H     -5.060960   -0.676549   -0.947963
  H     -4.860502   -3.185737   -1.090243
  H     -3.320726   -2.357976   -1.358787
  H     -3.644412   -3.133409    0.199025

 Total Charge           Charge          ....    0
 Multiplicity           Mult            ....    1
 Number of Electrons    NEL             ....  202
 Basis Dimension        Dim             ....  539

ORBITAL ENERGIES
----------------

  NO   OCC          E(Eh)            E(eV)
   0   2.0000     -88.580467     -2410.3970
   1   2.0000     -88.576192     -2410.2807
   2   2.0000     -88.526145     -2408.9189
   3   2.0000     -88.523159     -2408.8376
   4   2.0000     -76.918367     -2093.0552
   5   2.0000     -76.914293     -2092.9443
   6   2.0000     -18.997373      -516.9448
   7   2.0000     -18.993392      -516.8365
   8   2.0000     -18.990462      -516.7567
   9   2.0000     -18.987838      -516.6853
  10   2.0000     -10.105945      -274.9967
  11   2.0000     -10.101893      -274.8865
  12   2.0000     -10.099933      -274.8331
  13   2.0000     -10.096506      -274.7399
  14   2.0000     -10.093036      -274.6455
  15   2.0000     -10.032506      -272.9984
  16   2.0000     -10.031836      -272.9801
  17   2.0000     -10.026958      -272.8474
  18   2.0000     -10.019887      -272.6550
  19   2.0000      -7.874905      -214.2871
  20   2.0000      -7.870359      -214.1634
  21   2.0000      -7.820859      -212.8164
  22   2.0000      -7.817959      -212.7375
  23   2.0000      -6.597020      -179.5140
  24   2.0000      -6.592737      -179.3975
  25   2.0000      -5.821734      -158.4174
  26   2.0000      -5.818785      -158.3372
  27   2.0000      -5.817275      -158.2961
  28   2.0000      -5.814157      -158.2112
  29   2.0000      -5.812020      -158.1531
  30   2.0000      -5.807526      -158.0308
  31   2.0000      -5.768404      -156.9662
  32   2.0000      -5.765562      -156.8889
  33   2.0000      -5.761163      -156.7692
  34   2.0000      -5.760946      -156.7633
  35   2.0000      -5.758209      -156.6888
  36   2.0000      -5.758041      -156.6843
  37   2.0000      -4.742463      -129.0490
  38   2.0000      -4.741906      -129.0338
  39   2.0000      -4.740809      -129.0040
  40   2.0000      -4.738033      -128.9284
  41   2.0000      -4.737937      -128.9258
  42   2.0000      -4.736415      -128.8844
  43   2.0000      -1.053701       -28.6727
  44   2.0000      -1.051393       -28.6099
  45   2.0000      -1.014348       -27.6018
  46   2.0000      -1.008065       -27.4308
  47   2.0000      -0.803745       -21.8710
  48   2.0000      -0.760670       -20.6989
  49   2.0000      -0.750843       -20.4315
  50   2.0000      -0.734335       -19.9823
  51   2.0000      -0.724380       -19.7114
  52   2.0000      -0.714303       -19.4372
  53   2.0000      -0.687986       -18.7210
  54   2.0000      -0.672107       -18.2890
  55   2.0000      -0.635264       -17.2864
  56   2.0000      -0.627119       -17.0648
  57   2.0000      -0.609039       -16.5728
  58   2.0000      -0.599550       -16.3146
  59   2.0000      -0.590593       -16.0708
  60   2.0000      -0.532816       -14.4987
  61   2.0000      -0.518244       -14.1021
  62   2.0000      -0.496758       -13.5175
  63   2.0000      -0.487003       -13.2520
  64   2.0000      -0.477482       -12.9929
  65   2.0000      -0.464010       -12.6264
  66   2.0000      -0.458953       -12.4887
  67   2.0000      -0.450853       -12.2683
  68   2.0000      -0.442429       -12.0391
  69   2.0000      -0.435777       -11.8581
  70   2.0000      -0.428632       -11.6637
  71   2.0000      -0.424655       -11.5554
  72   2.0000      -0.414003       -11.2656
  73   2.0000      -0.405838       -11.0434
  74   2.0000      -0.397489       -10.8162
  75   2.0000      -0.391286       -10.6474
  76   2.0000      -0.383928       -10.4472
  77   2.0000      -0.375029       -10.2051
  78   2.0000      -0.371907       -10.1201
  79   2.0000      -0.367620       -10.0034
  80   2.0000      -0.359351        -9.7784
  81   2.0000      -0.357770        -9.7354
  82   2.0000      -0.355825        -9.6825
  83   2.0000      -0.352798        -9.6001
  84   2.0000      -0.347451        -9.4546
  85   2.0000      -0.333941        -9.0870
  86   2.0000      -0.325706        -8.8629
  87   2.0000      -0.313854        -8.5404
  88   2.0000      -0.312178        -8.4948
  89   2.0000      -0.306203        -8.3322
  90   2.0000      -0.301317        -8.1993
  91   2.0000      -0.291978        -7.9451
  92   2.0000      -0.283523        -7.7151
  93   2.0000      -0.283138        -7.7046
  94   2.0000      -0.273067        -7.4305
  95   2.0000      -0.250569        -6.8183
  96   2.0000      -0.231954        -6.3118
  97   2.0000      -0.229945        -6.2571
  98   2.0000      -0.221335        -6.0228
  99   2.0000      -0.220242        -5.9931
 100   2.0000      -0.216705        -5.8968
 101   0.0000      -0.051030        -1.3886
 102   0.0000      -0.031682        -0.8621
 103   0.0000      -0.007980        -0.2172
 104   0.0000      -0.007188        -0.1956
 105   0.0000       0.010945         0.2978

MULLIKEN ATOMIC CHARGES
-----------------------
   0 C :   -0.454617
   1 C :   -0.136685
   2 O :   -0.270081
   3 P :    0.699172
   4 S :   -0.484470
   5 O :   -0.312250
   6 C :   -0.150746
   7 C :   -0.452173
   8 S :   -0.117454
   9 C :   -0.256894
  10 S :   -0.128143
  11 P :    0.682954
  12 S :   -0.469456
  13 O :   -0.271903
  14 C :   -0.164796
  15 C :   -0.426021
  16 O :   -0.313821
  17 C :   -0.150957
  18 C :   -0.436457
  19 H :    0.146455
  20 H :    0.149792
  21 H :    0.169875
  22 H :    0.169497
  23 H :    0.149424
  24 H :    0.148420
  25 H :    0.172789
  26 H :    0.156749
  27 H :    0.149304
  28 H :    0.176191
  29 H :    0.219685
  30 H :    0.216687
  31 H :    0.147232
  32 H :    0.182349
  33 H :    0.145458
  34 H :    0.168967
  35 H :    0.153147
  36 H :    0.149415
  37 H :    0.173033
  38 H :    0.147123
  39 H :    0.168220
  40 H :    0.154987
Sum of atomic charges:   -0.0000000

LOEWDIN ATOMIC CHARGES
----------------------
   0 C :   -0.390223
   1 C :    0.023368
   2 O :   -0.693274
   3 P :    0.372874
   4 S :   -0.133689
   5 O :   -0.657962
   6 C :    0.020364
   7 C :   -0.406017
   8 S :    0.170594
   9 C :   -0.425759
  10 S :    0.159134
  11 P :    0.393990
  12 S :   -0.130135
  13 O :   -0.646817
  14 C :    0.018381
  15 C :   -0.409049
  16 O :   -0.650821
  17 C :    0.021506
  18 C :   -0.405300
  19 H :    0.159573
  20 H :    0.157899
  21 H :    0.165664
  22 H :    0.182571
  23 H :    0.171909
  24 H :    0.179872
  25 H :    0.179924
  26 H :    0.160581
  27 H :    0.160095
  28 H :    0.165409
  29 H :    0.191257
  30 H :    0.195031
  31 H :    0.179368
  32 H :    0.191851
  33 H :    0.159104
  34 H :    0.165459
  35 H :    0.160757
  36 H :    0.180156
  37 H :    0.179983
  38 H :    0.158742
  39 H :    0.162721
  40 H :    0.160906

  Mayer bond orders larger than 0.100000
B(  0-C ,  1-C ) :   0.9557 B(  0-C , 19-H ) :   0.9637 B(  0-C , 20-H ) :   0.9690
B(  0-C , 21-H ) :   0.9684 B(  1-C ,  2-O ) :   0.7778 B(  1-C , 22-H ) :   0.9550
B(  1-C , 23-H ) :   0.9468 B(  2-O ,  3-P ) :   1.1515 B(  3-P ,  4-S ) :   1.7409
B(  3-P ,  5-O ) :   1.0659 B(  3-P ,  8-S ) :   1.0986 B(  5-O ,  6-C ) :   0.8163
B(  6-C ,  7-C ) :   0.9215 B(  6-C , 24-H ) :   0.9579 B(  6-C , 25-H ) :   0.9674
B(  7-C , 26-H ) :   0.9684 B(  7-C , 27-H ) :   0.9583 B(  7-C , 28-H ) :   0.9618
B(  8-S ,  9-C ) :   0.9024 B(  9-C , 10-S ) :   0.9073 B(  9-C , 29-H ) :   0.9090
B(  9-C , 30-H ) :   0.8965 B( 10-S , 11-P ) :   1.0512 B( 11-P , 12-S ) :   1.7403
B( 11-P , 13-O ) :   1.1471 B( 11-P , 16-O ) :   1.1287 B( 13-O , 14-C ) :   0.7921
B( 14-C , 15-C ) :   0.9299 B( 14-C , 31-H ) :   0.9637 B( 14-C , 32-H ) :   0.9509
B( 15-C , 33-H ) :   0.9665 B( 15-C , 34-H ) :   0.9528 B( 15-C , 35-H ) :   0.9696
B( 16-O , 17-C ) :   0.8171 B( 17-C , 18-C ) :   0.9223 B( 17-C , 36-H ) :   0.9591
B( 17-C , 37-H ) :   0.9680 B( 18-C , 38-H ) :   0.9608 B( 18-C , 39-H ) :   0.9658
B( 18-C , 40-H ) :   0.9676

Dispersion correction           -0.021772853
FINAL SINGLE POINT ENERGY     -2932.464566509815

DIPOLE MOMENT
-------------

Method             : SCF
Type of density    : Electron Density
Multiplicity       :   1
Irrep              :   0
Energy             : -2932.4895800640210837 Eh
Relativity type    :
Basis              : AO
                                X                 Y                 Z
Electronic contribution:     -2.283884116      -2.263889025      -4.966837939
Nuclear contribution   :      2.910822255       2.418241251       5.669758764
                        -----------------------------------------
Total Dipole Moment    :      0.626938139       0.154352226       0.702920825
                        -----------------------------------------
Magnitude (a.u.)       :      0.954449436
Magnitude (Debye)      :      2.426017667

Rotational constants in cm-1:             0.012496             0.004807             0.004696
Rotational constants in MHz :           374.623038           144.115065           140.773661

                             ****ORCA TERMINATED NORMALLY****
TOTAL RUN TIME: 0 days 0 hours 1 minutes 19 seconds 863 msec
