                         Program Version 6.0.0  -   RELEASE  -
|  1> ! r2scan-3c def2/J RI DEFGRID2 scfconv6 printgap
|  2> %output
|  3>     printlevel normal
|  4> end
|  5> %cpcm
|  6>     smd true
|  7>     smdsolvent "water"
|  8> end
|  9> * xyz 0 1
| 10> C 0.9008425927 -0.6147906629 3.584731411
| 11> C 2.1248502913 -0.5175410882 2.6967892892
| 12> O 1.7500359062 0.1633290238 1.4778420468
| 13> P 2.4187792234 -0.1618988505 0.0777240044
| 14> S 2.8656911194 -2.0474654794 -0.2468582558
| 15> O 3.670644569 0.818880328 0.1019150672
| 16> C 4.7723330143 0.6863038405 -0.8134715172
| 17> C 4.3682591417 1.0040371866 -2.2385777674
| 18> S 1.0193447115 0.74760596 -1.2039342456
| 19> C -0.0594454943 -0.7037951055 -1.3801211417
| 20> S -0.9269035523 -1.1421147267 0.1461771914
| 21> P -2.5583386427 0.232248869 0.0066550755
| 22> S -2.9051535738 0.9462079998 -1.7918610637
| 23> O -2.3629880192 1.2497058863 1.2039258886
| 24> C -1.2195834047 2.094115912 1.4139363749
| 25> C -1.1551232514 3.2377192411 0.4203867295
| 26> O -3.780549372 -0.5202177605 0.6680032491
| 27> C -4.7092090438 -1.2916202286 -0.1130728657
| 28> C -4.0918514033 -2.5791866976 -0.6221657063
| 29> H 1.1680400199 -1.1309721837 4.5010602756
| 30> H 0.5324419849 0.378233315 3.8256654266
| 31> H 0.1147356843 -1.1697694701 3.0781385724
| 32> H 2.5075655332 -1.5109315961 2.4385869466
| 33> H 2.9194350053 0.0646811074 3.1684614265
| 34> H 5.5129493778 1.3925399349 -0.4361129539
| 35> H 5.1592586212 -0.3352239726 -0.7414401537
| 36> H 3.8858722083 1.9771074888 -2.2872180887
| 37> H 5.2502721887 1.0058618574 -2.8709359188
| 38> H 3.6731900353 0.2497147101 -2.6055654668
| 39> H 0.5436040216 -1.567484892 -1.6571568011
| 40> H -0.7869012958 -0.4521487576 -2.1534101573
| 41> H -1.3609650355 2.4647337214 2.4313152597
| 42> H -0.3085934025 1.4888524443 1.3719738288
| 43> H -0.3374569034 3.8985739968 0.6898672753
| 44> H -0.983014922 2.8620152167 -0.5867390623
| 45> H -2.0884544399 3.7948456687 0.4296044418
| 46> H -5.5325940278 -1.4855201013 0.5756153093
| 47> H -5.0609599843 -0.6765488016 -0.9479629833
| 48> H -4.8605024304 -3.1857369434 -1.090242731
| 49> H -3.3207259302 -2.357976362 -1.3587865622
| 50> H -3.6444117865 -3.1334085297 0.1990252445
| 51> *
| 52>
| 53>                          ****END OF INPUT****

CARTESIAN COORDINATES (ANGSTROEM)
---------------------------------
  C      0.900843   -0.614791    3.584731
  C      2.124850   -0.517541    2.696789
  O      1.750036    0.163329    1.477842
  P      2.418779   -0.161899    0.077724
  S      2.865691   -2.047465   -0.246858
  O      3.670645    0.818880    0.101915
  C      4.772333    0.686304   -0.813472
  C      4.368259    1.004037   -2.238578
  S      1.019345    0.747606   -1.203934
  C     -0.059445   -0.703795   -1.380121
  S     -0.926904   -1.142115    0.146177
  P     -2.558339    0.232249    0.006655
  S     -2.905154    0.946208   -1.791861
  O     -2.362988    1.249706    1.203926
  C     -1.219583    2.094116    1.413936
  C     -1.155123    3.237719    0.420387
  O     -3.780549   -0.520218    0.668003
  C     -4.709209   -1.291620   -0.113073
  C     -4.091851   -2.579187   -0.622166
  H      1.168040   -1.130972    4.501060
  H      0.532442    0.378233    3.825665
  H      0.114736   -1.169769    3.078139
  H      2.507566   -1.510932    2.438587
  H      2.919435    0.064681    3.168461
  H      5.512949    1.392540   -0.436113
  H      5.159259   -0.335224   -0.741440
  H      3.885872    1.977107   -2.287218
  H      5.250272    1.005862   -2.870936
  H      3.673190    0.249715   -2.605565
  H      0.543604   -1.567485   -1.657157
  H     -0.786901   -0.452149   -2.153410
  H     -1.360965    2.464734    2.431315
  H     -0.308593    1.488852    1.371974
  H     -0.337457    3.898574    0.689867
  H     -0.983015    2.862015   -0.586739
  H     -2.088454    3.794846    0.429604
  H     -5.532594   -1.485520    0.575615
  H     -5.060960   -0.676549   -0.947963
  H     -4.860502   -3.185737   -1.090243
  H     -3.320726   -2.357976   -1.358787
  H     -3.644412   -3.133409    0.199025

 Total Charge           Charge          ....    0
 Multiplicity           Mult            ....    1
 Number of Electrons    NEL             ....  202
 Basis Dimension        Dim             ....  539

ORBITAL ENERGIES
----------------

  NO   OCC          E(Eh)            E(eV)
   0   2.0000     -88.581411     -2410.4227
   1   2.0000     -88.579385     -2410.3676
   2   2.0000     -88.531327     -2409.0599
   3   2.0000     -88.530088     -2409.0262
   4   2.0000     -76.920811     -2093.1217
   5   2.0000     -76.919900     -2093.0969
   6   2.0000     -18.996611      -516.9241
   7   2.0000     -18.995901      -516.9048
   8   2.0000     -18.994777      -516.8742
   9   2.0000     -18.991815      -516.7936
  10   2.0000     -10.104988      -274.9707
  11   2.0000     -10.089862      -274.5591
  12   2.0000     -10.089762      -274.5564
  13   2.0000     -10.089043      -274.5368
  14   2.0000     -10.088556      -274.5236
  15   2.0000     -10.019002      -272.6309
  16   2.0000     -10.018366      -272.6136
  17   2.0000     -10.018078      -272.6058
  18   2.0000     -10.016085      -272.5515
  19   2.0000      -7.875883      -214.3137
  20   2.0000      -7.873537      -214.2498
  21   2.0000      -7.826372      -212.9664
  22   2.0000      -7.825082      -212.9313
  23   2.0000      -6.599370      -179.5780
  24   2.0000      -6.598580      -179.5565
  25   2.0000      -5.822714      -158.4441
  26   2.0000      -5.820487      -158.3835
  27   2.0000      -5.819766      -158.3639
  28   2.0000      -5.817339      -158.2979
  29   2.0000      -5.812993      -158.1796
  30   2.0000      -5.810674      -158.1165
  31   2.0000      -5.773922      -157.1164
  32   2.0000      -5.772562      -157.0794
  33   2.0000      -5.766620      -156.9177
  34   2.0000      -5.766463      -156.9134
  35   2.0000      -5.765373      -156.8838
  36   2.0000      -5.765195      -156.8789
  37   2.0000      -4.744666      -129.1089
  38   2.0000      -4.744547      -129.1057
  39   2.0000      -4.743974      -129.0901
  40   2.0000      -4.743455      -129.0760
  41   2.0000      -4.743074      -129.0656
  42   2.0000      -4.742460      -129.0489
  43   2.0000      -1.057406       -28.7735
  44   2.0000      -1.052269       -28.6337
  45   2.0000      -1.013323       -27.5739
  46   2.0000      -1.012142       -27.5418
  47   2.0000      -0.804447       -21.8901
  48   2.0000      -0.757285       -20.6068
  49   2.0000      -0.746161       -20.3041
  50   2.0000      -0.723149       -19.6779
  51   2.0000      -0.719400       -19.5759
  52   2.0000      -0.712919       -19.3995
  53   2.0000      -0.690878       -18.7998
  54   2.0000      -0.676430       -18.4066
  55   2.0000      -0.633555       -17.2399
  56   2.0000      -0.623988       -16.9796
  57   2.0000      -0.600990       -16.3538
  58   2.0000      -0.596079       -16.2201
  59   2.0000      -0.587164       -15.9775
  60   2.0000      -0.526841       -14.3361
  61   2.0000      -0.516257       -14.0481
  62   2.0000      -0.490693       -13.3524
  63   2.0000      -0.487276       -13.2595
  64   2.0000      -0.478251       -13.0139
  65   2.0000      -0.460062       -12.5189
  66   2.0000      -0.455724       -12.4009
  67   2.0000      -0.444716       -12.1013
  68   2.0000      -0.437165       -11.8959
  69   2.0000      -0.433387       -11.7931
  70   2.0000      -0.426737       -11.6121
  71   2.0000      -0.425156       -11.5691
  72   2.0000      -0.409467       -11.1422
  73   2.0000      -0.400771       -10.9055
  74   2.0000      -0.395215       -10.7544
  75   2.0000      -0.389640       -10.6026
  76   2.0000      -0.383004       -10.4221
  77   2.0000      -0.369093       -10.0435
  78   2.0000      -0.363138        -9.8815
  79   2.0000      -0.357693        -9.7333
  80   2.0000      -0.354304        -9.6411
  81   2.0000      -0.351731        -9.5711
  82   2.0000      -0.349466        -9.5095
  83   2.0000      -0.346646        -9.4327
  84   2.0000      -0.343984        -9.3603
  85   2.0000      -0.332225        -9.0403
  86   2.0000      -0.322123        -8.7654
  87   2.0000      -0.310071        -8.4375
  88   2.0000      -0.306043        -8.3279
  89   2.0000      -0.303488        -8.2583
  90   2.0000      -0.301537        -8.2052
  91   2.0000      -0.287568        -7.8251
  92   2.0000      -0.284820        -7.7503
  93   2.0000      -0.280817        -7.6414
  94   2.0000      -0.276882        -7.5344
  95   2.0000      -0.251611        -6.8467
  96   2.0000      -0.237262        -6.4562
  97   2.0000      -0.235772        -6.4157
  98   2.0000      -0.227228        -6.1832
  99   2.0000      -0.226107        -6.1527
 100   2.0000      -0.222230        -6.0472
 101   0.0000      -0.054927        -1.4946
 102   0.0000      -0.036201        -0.9851
 103   0.0000      -0.011939        -0.3249
 104   0.0000      -0.009007        -0.2451
 105   0.0000       0.010073         0.2741

MULLIKEN ATOMIC CHARGES
-----------------------
   0 C :   -0.498395
   1 C :   -0.128123
   2 O :   -0.289621
   3 P :    0.733063
   4 S :   -0.532616
   5 O :   -0.337383
   6 C :   -0.150374
   7 C :   -0.488803
   8 S :   -0.123334
   9 C :   -0.262521
  10 S :   -0.131631
  11 P :    0.707361
  12 S :   -0.506297
  13 O :   -0.306122
  14 C :   -0.149175
  15 C :   -0.474962
  16 O :   -0.344538
  17 C :   -0.149147
  18 C :   -0.475108
  19 H :    0.168763
  20 H :    0.167952
  21 H :    0.169551
  22 H :    0.169794
  23 H :    0.172773
  24 H :    0.175110
  25 H :    0.178182
  26 H :    0.170339
  27 H :    0.173489
  28 H :    0.172426
  29 H :    0.239687
  30 H :    0.229875
  31 H :    0.177129
  32 H :    0.179113
  33 H :    0.172200
  34 H :    0.164485
  35 H :    0.165774
  36 H :    0.175375
  37 H :    0.177204
  38 H :    0.171703
  39 H :    0.169727
  40 H :    0.167073
Sum of atomic charges:   -0.0000000

LOEWDIN ATOMIC CHARGES
----------------------
   0 C :   -0.394402
   1 C :    0.028515
   2 O :   -0.700508
   3 P :    0.378290
   4 S :   -0.164103
   5 O :   -0.669003
   6 C :    0.025522
   7 C :   -0.409414
   8 S :    0.167536
   9 C :   -0.419005
  10 S :    0.159882
  11 P :    0.395620
  12 S :   -0.155576
  13 O :   -0.665310
  14 C :    0.023477
  15 C :   -0.414105
  16 O :   -0.668188
  17 C :    0.026051
  18 C :   -0.408310
  19 H :    0.167831
  20 H :    0.162821
  21 H :    0.163149
  22 H :    0.182637
  23 H :    0.181644
  24 H :    0.191103
  25 H :    0.181574
  26 H :    0.163845
  27 H :    0.168830
  28 H :    0.161561
  29 H :    0.197361
  30 H :    0.199616
  31 H :    0.191638
  32 H :    0.191915
  33 H :    0.168764
  34 H :    0.161022
  35 H :    0.162650
  36 H :    0.191060
  37 H :    0.181581
  38 H :    0.167861
  39 H :    0.160859
  40 H :    0.163712

  Mayer bond orders larger than 0.100000
B(  0-C ,  1-C ) :   0.9470 B(  0-C , 19-H ) :   0.9585 B(  0-C , 20-H ) :   0.9659
B(  0-C , 21-H ) :   0.9685 B(  1-C ,  2-O ) :   0.7686 B(  1-C , 22-H ) :   0.9537
B(  1-C , 23-H ) :   0.9374 B(  2-O ,  3-P ) :   1.1626 B(  3-P ,  4-S ) :   1.6990
B(  3-P ,  5-O ) :   1.0735 B(  3-P ,  8-S ) :   1.1058 B(  5-O ,  6-C ) :   0.8050
B(  6-C ,  7-C ) :   0.9090 B(  6-C , 24-H ) :   0.9484 B(  6-C , 25-H ) :   0.9658
B(  7-C , 26-H ) :   0.9657 B(  7-C , 27-H ) :   0.9530 B(  7-C , 28-H ) :   0.9628
B(  8-S ,  9-C ) :   0.8980 B(  9-C , 10-S ) :   0.8974 B(  9-C , 29-H ) :   0.9033
B(  9-C , 30-H ) :   0.8940 B( 10-S , 11-P ) :   1.0650 B( 11-P , 12-S ) :   1.7206
B( 11-P , 13-O ) :   1.1453 B( 11-P , 16-O ) :   1.1298 B( 13-O , 14-C ) :   0.7855
B( 14-C , 15-C ) :   0.9136 B( 14-C , 31-H ) :   0.9539 B( 14-C , 32-H ) :   0.9481
B( 15-C , 33-H ) :   0.9607 B( 15-C , 34-H ) :   0.9549 B( 15-C , 35-H ) :   0.9700
B( 16-O , 17-C ) :   0.8062 B( 17-C , 18-C ) :   0.9128 B( 17-C , 36-H ) :   0.9493
B( 17-C , 37-H ) :   0.9642 B( 18-C , 38-H ) :   0.9551 B( 18-C , 39-H ) :   0.9652
B( 18-C , 40-H ) :   0.9658

Dispersion correction           -0.021772853
FINAL SINGLE POINT ENERGY     -2932.470305229210

DIPOLE MOMENT
-------------

Method             : SCF
Type of density    : Electron Density
Multiplicity       :   1
Irrep              :   0
Energy             : -2932.4953187834162236 Eh
Relativity type    :
Basis              : AO
                                X                 Y                 Z
Electronic contribution:     -2.011415331      -2.244117510      -4.787618674
Nuclear contribution   :      2.910822255       2.418241251       5.669758764
                        -----------------------------------------
Total Dipole Moment    :      0.899406924       0.174123741       0.882140090
                        -----------------------------------------
Magnitude (a.u.)       :      1.271779474
Magnitude (Debye)      :      3.232606523

Rotational constants in cm-1:             0.012496             0.004807             0.004696
Rotational constants in MHz :           374.623038           144.115065           140.773661

                             ****ORCA TERMINATED NORMALLY****
TOTAL RUN TIME: 0 days 0 hours 1 minutes 48 seconds 723 msec
