                         Program Version 6.0.0  -   RELEASE  -
|  1> ! pbe def2-sv(p) def2/J RI DEFGRID1 loosescf d4 GCP(DFT/SV(P)) printgap
|  2> %output
|  3>     printlevel normal
|  4> end
|  5> * xyz 0 1
|  6> C 2.346524911 1.0284485803 -2.6640409936
|  7> C 1.3850945716 -0.1403813669 -2.588584649
|  8> O 0.9197555088 -0.3702854804 -1.2446120398
|  9> P 1.902858479 -1.007100998 -0.1641162831
| 10> S 3.3904053482 -2.0833064473 -0.840195136
| 11> O 0.8114070392 -1.8427595935 0.6365861595
| 12> C 1.1981405706 -2.8510232413 1.5915523364
| 13> C 1.5198124308 -2.2504023111 2.9462982265
| 14> S 2.4597928438 0.6227297045 1.0691561713
| 15> C 0.9393423236 1.6298707956 1.0655273454
| 16> S -0.5704981582 0.7395937192 1.5023441611
| 17> P -1.6405242105 0.8433132944 -0.3401468138
| 18> S -0.9612681235 2.1676194828 -1.6164008158
| 19> O -3.1210839362 1.1617086554 0.1594960439
| 20> C -3.457519743 2.4539930266 0.6989509039
| 21> C -4.9673446626 2.5413046382 0.7925933454
| 22> O -1.8336924689 -0.5943773146 -0.9555775704
| 23> C -2.8024003742 -1.5707616609 -0.5013033365
| 24> C -2.6392236711 -1.9202188555 0.962226544
| 25> H 3.218275889 0.8332260805 -2.0394733346
| 26> H 2.6701119624 1.1557035284 -3.6919904459
| 27> H 1.8599495738 1.9424813125 -2.3312383645
| 28> H 1.8618536924 -1.0565034213 -2.949460602
| 29> H 0.4734881176 0.0538223627 -3.1559999783
| 30> H 0.3352051413 -3.5172115678 1.6456611372
| 31> H 2.055996952 -3.4006974 1.1892134847
| 32> H 0.7066998319 -1.6064987423 3.2734555835
| 33> H 1.656352247 -3.0517599637 3.6652871497
| 34> H 2.4346935389 -1.6630907269 2.894050924
| 35> H 0.7957496419 2.0855610102 0.0820573512
| 36> H 1.1169129043 2.3872127404 1.8252265319
| 37> H -2.9900859123 2.5473252291 1.6832359263
| 38> H -3.0516572798 3.2248693224 0.0354722419
| 39> H -5.4100249948 2.4331142471 -0.1936454499
| 40> H -5.3476256231 1.7553141261 1.4384376776
| 41> H -5.2417631485 3.5074009857 1.2029879872
| 42> H -3.8007318004 -1.1775063992 -0.7034019683
| 43> H -2.6030108435 -2.4303947911 -1.1434854191
| 44> H -1.6169607949 -2.2309463635 1.1571693675
| 45> H -2.8679826663 -1.0588764169 1.5871491095
| 46> H -3.31704097 -2.7304575889 1.2124874929
| 47> *
| 48>
| 49>                          ****END OF INPUT****

CARTESIAN COORDINATES (ANGSTROEM)
---------------------------------
  C      2.346525    1.028449   -2.664041
  C      1.385095   -0.140381   -2.588585
  O      0.919756   -0.370285   -1.244612
  P      1.902858   -1.007101   -0.164116
  S      3.390405   -2.083306   -0.840195
  O      0.811407   -1.842760    0.636586
  C      1.198141   -2.851023    1.591552
  C      1.519812   -2.250402    2.946298
  S      2.459793    0.622730    1.069156
  C      0.939342    1.629871    1.065527
  S     -0.570498    0.739594    1.502344
  P     -1.640524    0.843313   -0.340147
  S     -0.961268    2.167619   -1.616401
  O     -3.121084    1.161709    0.159496
  C     -3.457520    2.453993    0.698951
  C     -4.967345    2.541305    0.792593
  O     -1.833692   -0.594377   -0.955578
  C     -2.802400   -1.570762   -0.501303
  C     -2.639224   -1.920219    0.962227
  H      3.218276    0.833226   -2.039473
  H      2.670112    1.155704   -3.691990
  H      1.859950    1.942481   -2.331238
  H      1.861854   -1.056503   -2.949461
  H      0.473488    0.053822   -3.156000
  H      0.335205   -3.517212    1.645661
  H      2.055997   -3.400697    1.189213
  H      0.706700   -1.606499    3.273456
  H      1.656352   -3.051760    3.665287
  H      2.434694   -1.663091    2.894051
  H      0.795750    2.085561    0.082057
  H      1.116913    2.387213    1.825227
  H     -2.990086    2.547325    1.683236
  H     -3.051657    3.224869    0.035472
  H     -5.410025    2.433114   -0.193645
  H     -5.347626    1.755314    1.438438
  H     -5.241763    3.507401    1.202988
  H     -3.800732   -1.177506   -0.703402
  H     -2.603011   -2.430395   -1.143485
  H     -1.616961   -2.230946    1.157169
  H     -2.867983   -1.058876    1.587149
  H     -3.317041   -2.730458    1.212487

 Total Charge           Charge          ....    0
 Multiplicity           Mult            ....    1
 Number of Electrons    NEL             ....  202
 Basis Dimension        Dim             ....  334

ORBITAL ENERGIES
----------------

  NO   OCC          E(Eh)            E(eV)
   0   2.0000     -88.047210     -2395.8864
   1   2.0000     -88.041495     -2395.7309
   2   2.0000     -87.989323     -2394.3112
   3   2.0000     -87.985581     -2394.2094
   4   2.0000     -76.431620     -2079.8101
   5   2.0000     -76.423698     -2079.5946
   6   2.0000     -18.799298      -511.5549
   7   2.0000     -18.794185      -511.4158
   8   2.0000     -18.787029      -511.2210
   9   2.0000     -18.786037      -511.1940
  10   2.0000      -9.959923      -271.0233
  11   2.0000      -9.955924      -270.9145
  12   2.0000      -9.955709      -270.9086
  13   2.0000      -9.950380      -270.7636
  14   2.0000      -9.938846      -270.4497
  15   2.0000      -9.892889      -269.1992
  16   2.0000      -9.891821      -269.1701
  17   2.0000      -9.882009      -268.9031
  18   2.0000      -9.869847      -268.5722
  19   2.0000      -7.691627      -209.2998
  20   2.0000      -7.686579      -209.1624
  21   2.0000      -7.634297      -207.7398
  22   2.0000      -7.630785      -207.6442
  23   2.0000      -6.428571      -174.9303
  24   2.0000      -6.421326      -174.7332
  25   2.0000      -5.719509      -155.6357
  26   2.0000      -5.716189      -155.5454
  27   2.0000      -5.714805      -155.5077
  28   2.0000      -5.710755      -155.3976
  29   2.0000      -5.708593      -155.3387
  30   2.0000      -5.703556      -155.2017
  31   2.0000      -5.663330      -154.1070
  32   2.0000      -5.659719      -154.0088
  33   2.0000      -5.654770      -153.8741
  34   2.0000      -5.654387      -153.8637
  35   2.0000      -5.651461      -153.7841
  36   2.0000      -5.650857      -153.7676
  37   2.0000      -4.651544      -126.5749
  38   2.0000      -4.650115      -126.5361
  39   2.0000      -4.648965      -126.5048
  40   2.0000      -4.643610      -126.3591
  41   2.0000      -4.643509      -126.3563
  42   2.0000      -4.641622      -126.3050
  43   2.0000      -0.993207       -27.0265
  44   2.0000      -0.982805       -26.7435
  45   2.0000      -0.947467       -25.7819
  46   2.0000      -0.940725       -25.5984
  47   2.0000      -0.761911       -20.7327
  48   2.0000      -0.722628       -19.6637
  49   2.0000      -0.707992       -19.2654
  50   2.0000      -0.697040       -18.9674
  51   2.0000      -0.681147       -18.5350
  52   2.0000      -0.673960       -18.3394
  53   2.0000      -0.653192       -17.7743
  54   2.0000      -0.637776       -17.3548
  55   2.0000      -0.600423       -16.3383
  56   2.0000      -0.593898       -16.1608
  57   2.0000      -0.576594       -15.6899
  58   2.0000      -0.564132       -15.3508
  59   2.0000      -0.561480       -15.2787
  60   2.0000      -0.509891       -13.8748
  61   2.0000      -0.490941       -13.3592
  62   2.0000      -0.478490       -13.0204
  63   2.0000      -0.463506       -12.6126
  64   2.0000      -0.456298       -12.4165
  65   2.0000      -0.450035       -12.2461
  66   2.0000      -0.445363       -12.1189
  67   2.0000      -0.436138       -11.8679
  68   2.0000      -0.430173       -11.7056
  69   2.0000      -0.417824       -11.3696
  70   2.0000      -0.408909       -11.1270
  71   2.0000      -0.403490       -10.9795
  72   2.0000      -0.392868       -10.6905
  73   2.0000      -0.386156       -10.5078
  74   2.0000      -0.383214       -10.4278
  75   2.0000      -0.373318       -10.1585
  76   2.0000      -0.367241        -9.9931
  77   2.0000      -0.359427        -9.7805
  78   2.0000      -0.356534        -9.7018
  79   2.0000      -0.350534        -9.5385
  80   2.0000      -0.347185        -9.4474
  81   2.0000      -0.343716        -9.3530
  82   2.0000      -0.341584        -9.2950
  83   2.0000      -0.330082        -8.9820
  84   2.0000      -0.329902        -8.9771
  85   2.0000      -0.320313        -8.7161
  86   2.0000      -0.318690        -8.6720
  87   2.0000      -0.304935        -8.2977
  88   2.0000      -0.297735        -8.1018
  89   2.0000      -0.295515        -8.0414
  90   2.0000      -0.286655        -7.8003
  91   2.0000      -0.271818        -7.3965
  92   2.0000      -0.266403        -7.2492
  93   2.0000      -0.262769        -7.1503
  94   2.0000      -0.256873        -6.9899
  95   2.0000      -0.228549        -6.2191
  96   2.0000      -0.223182        -6.0731
  97   2.0000      -0.211466        -5.7543
  98   2.0000      -0.205320        -5.5870
  99   2.0000      -0.201354        -5.4791
 100   2.0000      -0.197873        -5.3844
 101   0.0000      -0.043702        -1.1892
 102   0.0000      -0.033194        -0.9033
 103   0.0000      -0.020767        -0.5651
 104   0.0000      -0.000184        -0.0050
 105   0.0000       0.012743         0.3468

MULLIKEN ATOMIC CHARGES
-----------------------
   0 C :   -0.322003
   1 C :    0.005716
   2 O :   -0.372390
   3 P :    0.598984
   4 S :   -0.317707
   5 O :   -0.358949
   6 C :   -0.014353
   7 C :   -0.307318
   8 S :   -0.093578
   9 C :   -0.342698
  10 S :   -0.116508
  11 P :    0.640488
  12 S :   -0.317192
  13 O :   -0.389792
  14 C :   -0.006925
  15 C :   -0.281468
  16 O :   -0.357179
  17 C :    0.015041
  18 C :   -0.368215
  19 H :    0.120692
  20 H :    0.107259
  21 H :    0.127996
  22 H :    0.111389
  23 H :    0.109829
  24 H :    0.105910
  25 H :    0.113981
  26 H :    0.115416
  27 H :    0.109173
  28 H :    0.125659
  29 H :    0.206201
  30 H :    0.178143
  31 H :    0.098416
  32 H :    0.106302
  33 H :    0.120712
  34 H :    0.113828
  35 H :    0.113705
  36 H :    0.110197
  37 H :    0.111897
  38 H :    0.162171
  39 H :    0.122017
  40 H :    0.115156
Sum of atomic charges:   -0.0000000

LOEWDIN ATOMIC CHARGES
----------------------
   0 C :   -0.370789
   1 C :   -0.125010
   2 O :   -0.238157
   3 P :    0.569231
   4 S :   -0.312675
   5 O :   -0.240294
   6 C :   -0.122393
   7 C :   -0.367954
   8 S :    0.077180
   9 C :   -0.483796
  10 S :    0.084323
  11 P :    0.586706
  12 S :   -0.289098
  13 O :   -0.251745
  14 C :   -0.124211
  15 C :   -0.350516
  16 O :   -0.226897
  17 C :   -0.104434
  18 C :   -0.376509
  19 H :    0.118753
  20 H :    0.129852
  21 H :    0.119973
  22 H :    0.108261
  23 H :    0.116671
  24 H :    0.112686
  25 H :    0.108232
  26 H :    0.121460
  27 H :    0.128774
  28 H :    0.120537
  29 H :    0.122641
  30 H :    0.138270
  31 H :    0.105127
  32 H :    0.108572
  33 H :    0.128791
  34 H :    0.125084
  35 H :    0.131915
  36 H :    0.114718
  37 H :    0.124505
  38 H :    0.132236
  39 H :    0.117123
  40 H :    0.132858

  Mayer bond orders larger than 0.100000
B(  0-C ,  1-C ) :   1.1697 B(  0-C , 19-H ) :   0.9342 B(  0-C , 20-H ) :   0.9392
B(  0-C , 21-H ) :   0.9349 B(  1-C ,  2-O ) :   0.8894 B(  1-C , 22-H ) :   0.9162
B(  1-C , 23-H ) :   0.9172 B(  2-O ,  3-P ) :   1.0958 B(  3-P ,  4-S ) :   1.6414
B(  3-P ,  5-O ) :   1.0903 B(  3-P ,  8-S ) :   0.9777 B(  5-O ,  6-C ) :   0.9077
B(  6-C ,  7-C ) :   1.1698 B(  6-C , 24-H ) :   0.9236 B(  6-C , 25-H ) :   0.9081
B(  7-C , 26-H ) :   0.9449 B(  7-C , 27-H ) :   0.9387 B(  7-C , 28-H ) :   0.9373
B(  8-S ,  9-C ) :   0.9751 B(  9-C , 10-S ) :   1.0183 B(  9-C , 29-H ) :   0.8440
B(  9-C , 30-H ) :   0.9094 B( 10-S , 11-P ) :   0.9481 B( 10-S , 12-S ) :   0.1183
B( 11-P , 12-S ) :   1.6059 B( 11-P , 13-O ) :   1.0610 B( 11-P , 16-O ) :   1.1432
B( 12-S , 29-H ) :   0.1145 B( 13-O , 14-C ) :   0.9035 B( 14-C , 15-C ) :   1.1597
B( 14-C , 31-H ) :   0.9231 B( 14-C , 32-H ) :   0.9101 B( 15-C , 33-H ) :   0.9508
B( 15-C , 34-H ) :   0.9519 B( 15-C , 35-H ) :   0.9419 B( 16-O , 17-C ) :   0.8989
B( 17-C , 18-C ) :   1.1711 B( 17-C , 36-H ) :   0.9289 B( 17-C , 37-H ) :   0.9319
B( 18-C , 38-H ) :   0.9206 B( 18-C , 39-H ) :   0.9340 B( 18-C , 40-H ) :   0.9336

Dispersion correction           -0.069700404
FINAL SINGLE POINT ENERGY     -2929.515419268067

DIPOLE MOMENT
-------------

Method             : SCF
Type of density    : Electron Density
Multiplicity       :   1
Irrep              :   0
Energy             : -2929.6351740155687366 Eh
Relativity type    :
Basis              : AO
                                X                 Y                 Z
Electronic contribution:     14.680183615       1.770094336      -5.638770517
Nuclear contribution   :    -16.413852796      -1.794289528       6.696426854
                        -----------------------------------------
Total Dipole Moment    :     -1.733669181      -0.024195192       1.057656337
                        -----------------------------------------
Magnitude (a.u.)       :      2.030968036
Magnitude (Debye)      :      5.162310493

Rotational constants in cm-1:             0.012194             0.005983             0.005314
Rotational constants in MHz :           365.555477           179.369024           159.312403

                             ****ORCA TERMINATED NORMALLY****
TOTAL RUN TIME: 0 days 0 hours 0 minutes 22 seconds 680 msec
