                         Program Version 6.0.0  -   RELEASE  -
|  1> ! pbe def2-sv(p) def2/J RI DEFGRID1 loosescf d4 GCP(DFT/SV(P)) printgap
|  2> %output
|  3>     printlevel normal
|  4> end
|  5> * xyz 0 1
|  6> C 4.0032521997 -1.7818761422 -2.2629465329
|  7> C 4.6965356119 -1.377336347 -0.9786468324
|  8> O 3.7647906504 -1.1377732278 0.0922967314
|  9> P 2.7220056245 0.0565772999 0.0654388815
| 10> S 3.3512297838 1.7558490256 -0.6830909876
| 11> O 2.3279182824 0.2256171218 1.5813254896
| 12> C 2.3302673574 -0.8134510785 2.5927739027
| 13> C 1.3517117986 -1.9254216029 2.2839855427
| 14> S 1.0028176197 -0.7245516634 -0.9386980612
| 15> C 0.0552671496 0.8090721005 -0.8635180536
| 16> S -0.9403281185 0.9546954522 0.642811693
| 17> P -2.7800772428 0.3333727903 -0.2519023952
| 18> S -3.2143392995 1.1802907862 -1.9603924335
| 19> O -3.8449999218 0.492866642 0.9168490637
| 20> C -4.5673395221 1.7148761879 1.1547890898
| 21> C -3.6559613297 2.8498349851 1.5737817411
| 22> O -2.6673343124 -1.2291335379 -0.3984893846
| 23> C -2.4614329945 -2.1206164341 0.7299940036
| 24> C -1.6287079276 -3.2931940709 0.2562260553
| 25> H 3.4286926536 -0.9443788481 -2.6562727174
| 26> H 4.7487963447 -2.0695938701 -2.9972582894
| 27> H 3.3294052922 -2.6162601493 -2.0859920253
| 28> H 5.2884367397 -0.469753215 -1.1310767102
| 29> H 5.331749249 -2.1764918775 -0.5939203644
| 30> H 3.3477173864 -1.1983382552 2.6816717877
| 31> H 2.0534082426 -0.2727296661 3.4990370706
| 32> H 1.6582825175 -2.4600861433 1.3876023303
| 33> H 1.3268172389 -2.617368387 3.1198212349
| 34> H 0.3574498061 -1.5141211539 2.1309344851
| 35> H -0.6126025912 0.8389903947 -1.7261168434
| 36> H 0.7527514813 1.6485434422 -0.8892435403
| 37> H -5.1119507407 1.9763683871 0.2425687187
| 38> H -5.2705234104 1.4491168508 1.9453830193
| 39> H -3.0093055713 3.1342297442 0.7445427935
| 40> H -4.2577361181 3.7073172679 1.8573613347
| 41> H -3.0358796262 2.5491182203 2.4147036933
| 42> H -1.9643405997 -1.5638155963 1.5294371449
| 43> H -3.4478224585 -2.4357780178 1.0740347808
| 44> H -2.1479144309 -3.8176900061 -0.5403522525
| 45> H -0.6724862843 -2.9445385244 -0.1257831809
| 46> H -1.4620695943 -3.970997072 1.0869287713
| 47> *
| 48>
| 49>                          ****END OF INPUT****

CARTESIAN COORDINATES (ANGSTROEM)
---------------------------------
  C      4.003252   -1.781876   -2.262947
  C      4.696536   -1.377336   -0.978647
  O      3.764791   -1.137773    0.092297
  P      2.722006    0.056577    0.065439
  S      3.351230    1.755849   -0.683091
  O      2.327918    0.225617    1.581325
  C      2.330267   -0.813451    2.592774
  C      1.351712   -1.925422    2.283986
  S      1.002818   -0.724552   -0.938698
  C      0.055267    0.809072   -0.863518
  S     -0.940328    0.954695    0.642812
  P     -2.780077    0.333373   -0.251902
  S     -3.214339    1.180291   -1.960392
  O     -3.845000    0.492867    0.916849
  C     -4.567340    1.714876    1.154789
  C     -3.655961    2.849835    1.573782
  O     -2.667334   -1.229134   -0.398489
  C     -2.461433   -2.120616    0.729994
  C     -1.628708   -3.293194    0.256226
  H      3.428693   -0.944379   -2.656273
  H      4.748796   -2.069594   -2.997258
  H      3.329405   -2.616260   -2.085992
  H      5.288437   -0.469753   -1.131077
  H      5.331749   -2.176492   -0.593920
  H      3.347717   -1.198338    2.681672
  H      2.053408   -0.272730    3.499037
  H      1.658283   -2.460086    1.387602
  H      1.326817   -2.617368    3.119821
  H      0.357450   -1.514121    2.130934
  H     -0.612603    0.838990   -1.726117
  H      0.752751    1.648543   -0.889244
  H     -5.111951    1.976368    0.242569
  H     -5.270523    1.449117    1.945383
  H     -3.009306    3.134230    0.744543
  H     -4.257736    3.707317    1.857361
  H     -3.035880    2.549118    2.414704
  H     -1.964341   -1.563816    1.529437
  H     -3.447822   -2.435778    1.074035
  H     -2.147914   -3.817690   -0.540352
  H     -0.672486   -2.944539   -0.125783
  H     -1.462070   -3.970997    1.086929

 Total Charge           Charge          ....    0
 Multiplicity           Mult            ....    1
 Number of Electrons    NEL             ....  202
 Basis Dimension        Dim             ....  334

ORBITAL ENERGIES
----------------

  NO   OCC          E(Eh)            E(eV)
   0   2.0000     -88.043000     -2395.7718
   1   2.0000     -88.041804     -2395.7393
   2   2.0000     -87.986074     -2394.2228
   3   2.0000     -87.985607     -2394.2101
   4   2.0000     -76.430647     -2079.7836
   5   2.0000     -76.427245     -2079.6911
   6   2.0000     -18.804265      -511.6901
   7   2.0000     -18.797713      -511.5118
   8   2.0000     -18.794899      -511.4352
   9   2.0000     -18.793390      -511.3942
  10   2.0000      -9.961546      -271.0674
  11   2.0000      -9.960806      -271.0473
  12   2.0000      -9.957953      -270.9697
  13   2.0000      -9.956756      -270.9371
  14   2.0000      -9.949178      -270.7309
  15   2.0000      -9.892488      -269.1883
  16   2.0000      -9.889211      -269.0991
  17   2.0000      -9.887917      -269.0639
  18   2.0000      -9.886036      -269.0127
  19   2.0000      -7.687652      -209.1916
  20   2.0000      -7.686554      -209.1618
  21   2.0000      -7.631356      -207.6598
  22   2.0000      -7.630851      -207.6460
  23   2.0000      -6.428076      -174.9168
  24   2.0000      -6.424899      -174.8304
  25   2.0000      -5.715287      -155.5209
  26   2.0000      -5.714166      -155.4904
  27   2.0000      -5.712383      -155.4418
  28   2.0000      -5.711159      -155.4085
  29   2.0000      -5.704693      -155.2326
  30   2.0000      -5.703755      -155.2071
  31   2.0000      -5.660401      -154.0273
  32   2.0000      -5.659896      -154.0136
  33   2.0000      -5.652042      -153.7999
  34   2.0000      -5.651710      -153.7908
  35   2.0000      -5.651298      -153.7796
  36   2.0000      -5.650622      -153.7612
  37   2.0000      -4.651373      -126.5703
  38   2.0000      -4.649509      -126.5196
  39   2.0000      -4.648169      -126.4831
  40   2.0000      -4.647923      -126.4764
  41   2.0000      -4.646518      -126.4382
  42   2.0000      -4.645066      -126.3987
  43   2.0000      -0.995566       -27.0907
  44   2.0000      -0.991415       -26.9778
  45   2.0000      -0.951594       -25.8942
  46   2.0000      -0.948236       -25.8028
  47   2.0000      -0.763256       -20.7693
  48   2.0000      -0.725331       -19.7373
  49   2.0000      -0.715333       -19.4652
  50   2.0000      -0.697423       -18.9779
  51   2.0000      -0.692130       -18.8338
  52   2.0000      -0.680470       -18.5165
  53   2.0000      -0.652438       -17.7537
  54   2.0000      -0.636235       -17.3128
  55   2.0000      -0.602474       -16.3942
  56   2.0000      -0.593953       -16.1623
  57   2.0000      -0.585960       -15.9448
  58   2.0000      -0.574806       -15.6413
  59   2.0000      -0.556274       -15.1370
  60   2.0000      -0.508405       -13.8344
  61   2.0000      -0.501392       -13.6436
  62   2.0000      -0.477783       -13.0011
  63   2.0000      -0.476062       -12.9543
  64   2.0000      -0.464407       -12.6372
  65   2.0000      -0.453920       -12.3518
  66   2.0000      -0.442747       -12.0478
  67   2.0000      -0.440751       -11.9935
  68   2.0000      -0.433847       -11.8056
  69   2.0000      -0.431217       -11.7340
  70   2.0000      -0.414826       -11.2880
  71   2.0000      -0.406264       -11.0550
  72   2.0000      -0.392769       -10.6878
  73   2.0000      -0.389691       -10.6040
  74   2.0000      -0.376325       -10.2403
  75   2.0000      -0.371817       -10.1177
  76   2.0000      -0.367570       -10.0021
  77   2.0000      -0.363720        -9.8973
  78   2.0000      -0.359598        -9.7852
  79   2.0000      -0.357263        -9.7216
  80   2.0000      -0.354554        -9.6479
  81   2.0000      -0.347829        -9.4649
  82   2.0000      -0.345520        -9.4021
  83   2.0000      -0.339762        -9.2454
  84   2.0000      -0.337929        -9.1955
  85   2.0000      -0.324670        -8.8347
  86   2.0000      -0.315941        -8.5972
  87   2.0000      -0.304399        -8.2831
  88   2.0000      -0.302312        -8.2263
  89   2.0000      -0.300429        -8.1751
  90   2.0000      -0.296581        -8.0704
  91   2.0000      -0.278556        -7.5799
  92   2.0000      -0.272656        -7.4193
  93   2.0000      -0.266957        -7.2643
  94   2.0000      -0.257797        -7.0150
  95   2.0000      -0.237847        -6.4721
  96   2.0000      -0.223865        -6.0917
  97   2.0000      -0.210562        -5.7297
  98   2.0000      -0.206988        -5.6324
  99   2.0000      -0.199825        -5.4375
 100   2.0000      -0.192679        -5.2431
 101   0.0000      -0.041126        -1.1191
 102   0.0000      -0.033337        -0.9071
 103   0.0000      -0.011739        -0.3194
 104   0.0000       0.001646         0.0448
 105   0.0000       0.020146         0.5482

MULLIKEN ATOMIC CHARGES
-----------------------
   0 C :   -0.325290
   1 C :    0.000195
   2 O :   -0.385750
   3 P :    0.601924
   4 S :   -0.307296
   5 O :   -0.362337
   6 C :    0.016162
   7 C :   -0.354772
   8 S :   -0.091849
   9 C :   -0.357115
  10 S :   -0.090905
  11 P :    0.582565
  12 S :   -0.302768
  13 O :   -0.385214
  14 C :    0.000705
  15 C :   -0.323984
  16 O :   -0.358177
  17 C :   -0.022021
  18 C :   -0.292351
  19 H :    0.137137
  20 H :    0.118028
  21 H :    0.117636
  22 H :    0.116624
  23 H :    0.106108
  24 H :    0.109936
  25 H :    0.111099
  26 H :    0.126403
  27 H :    0.111762
  28 H :    0.147363
  29 H :    0.190992
  30 H :    0.192580
  31 H :    0.114599
  32 H :    0.105418
  33 H :    0.135183
  34 H :    0.116207
  35 H :    0.118135
  36 H :    0.113207
  37 H :    0.109226
  38 H :    0.120372
  39 H :    0.133903
  40 H :    0.106362
Sum of atomic charges:   -0.0000000

LOEWDIN ATOMIC CHARGES
----------------------
   0 C :   -0.371646
   1 C :   -0.114991
   2 O :   -0.244938
   3 P :    0.576301
   4 S :   -0.312156
   5 O :   -0.239678
   6 C :   -0.104455
   7 C :   -0.373719
   8 S :    0.084562
   9 C :   -0.491594
  10 S :    0.074921
  11 P :    0.571345
  12 S :   -0.309755
  13 O :   -0.248942
  14 C :   -0.114819
  15 C :   -0.371676
  16 O :   -0.239266
  17 C :   -0.112853
  18 C :   -0.356823
  19 H :    0.125364
  20 H :    0.134020
  21 H :    0.123589
  22 H :    0.115451
  23 H :    0.119146
  24 H :    0.115168
  25 H :    0.123576
  26 H :    0.119142
  27 H :    0.130510
  28 H :    0.122881
  29 H :    0.129235
  30 H :    0.128683
  31 H :    0.114670
  32 H :    0.118952
  33 H :    0.124763
  34 H :    0.132841
  35 H :    0.123442
  36 H :    0.102003
  37 H :    0.117826
  38 H :    0.129885
  39 H :    0.120674
  40 H :    0.128364

  Mayer bond orders larger than 0.100000
B(  0-C ,  1-C ) :   1.1665 B(  0-C , 19-H ) :   0.9321 B(  0-C , 20-H ) :   0.9365
B(  0-C , 21-H ) :   0.9444 B(  1-C ,  2-O ) :   0.8985 B(  1-C , 22-H ) :   0.9183
B(  1-C , 23-H ) :   0.9338 B(  2-O ,  3-P ) :   1.0827 B(  3-P ,  4-S ) :   1.6338
B(  3-P ,  5-O ) :   1.1364 B(  3-P ,  8-S ) :   0.9463 B(  4-S ,  8-S ) :   0.1102
B(  4-S , 30-H ) :   0.1032 B(  5-O ,  6-C ) :   0.8960 B(  6-C ,  7-C ) :   1.1702
B(  6-C , 24-H ) :   0.9289 B(  6-C , 25-H ) :   0.9340 B(  7-C , 26-H ) :   0.9375
B(  7-C , 27-H ) :   0.9336 B(  7-C , 28-H ) :   0.9241 B(  8-S ,  9-C ) :   1.0000
B(  9-C , 10-S ) :   0.9896 B(  9-C , 29-H ) :   0.8595 B(  9-C , 30-H ) :   0.8590
B( 10-S , 11-P ) :   0.9566 B( 10-S , 12-S ) :   0.1093 B( 11-P , 12-S ) :   1.6334
B( 11-P , 13-O ) :   1.0895 B( 11-P , 16-O ) :   1.1388 B( 12-S , 29-H ) :   0.1014
B( 13-O , 14-C ) :   0.9041 B( 14-C , 15-C ) :   1.1659 B( 14-C , 31-H ) :   0.9200
B( 14-C , 32-H ) :   0.9341 B( 15-C , 33-H ) :   0.9332 B( 15-C , 34-H ) :   0.9368
B( 15-C , 35-H ) :   0.9436 B( 16-O , 17-C ) :   0.8868 B( 17-C , 18-C ) :   1.1665
B( 17-C , 36-H ) :   0.9041 B( 17-C , 37-H ) :   0.9305 B( 18-C , 38-H ) :   0.9468
B( 18-C , 39-H ) :   0.9327 B( 18-C , 40-H ) :   0.9395

Dispersion correction           -0.064158819
FINAL SINGLE POINT ENERGY     -2929.516088131174

DIPOLE MOMENT
-------------

Method             : SCF
Type of density    : Electron Density
Multiplicity       :   1
Irrep              :   0
Energy             : -2929.6375109872769826 Eh
Relativity type    :
Basis              : AO
                                X                 Y                 Z
Electronic contribution:     -0.489511062      13.632868425      -8.959872082
Nuclear contribution   :      0.631770698     -15.257824681      10.574035381
                        -----------------------------------------
Total Dipole Moment    :      0.142259637      -1.624956255       1.614163299
                        -----------------------------------------
Magnitude (a.u.)       :      2.294829796
Magnitude (Debye)      :      5.832993785

Rotational constants in cm-1:             0.012782             0.004389             0.004209
Rotational constants in MHz :           383.198569           131.566637           126.192443

                             ****ORCA TERMINATED NORMALLY****
TOTAL RUN TIME: 0 days 0 hours 0 minutes 21 seconds 79 msec
