                         Program Version 6.0.0  -   RELEASE  -
|  1> ! pbe def2-sv(p) def2/J RI DEFGRID1 loosescf d4 GCP(DFT/SV(P)) printgap
|  2> %output
|  3>     printlevel normal
|  4> end
|  5> * xyz 0 1
|  6> C 3.5673045755 2.0004621719 -1.5825292237
|  7> C 3.8435320466 1.9569478434 -0.0935125188
|  8> O 3.5393954457 0.665692235 0.4593130376
|  9> P 2.0581110732 0.2370214654 0.8437478769
| 10> S 1.0350207995 1.6571520395 1.7265171208
| 11> O 2.285926743 -1.0315935607 1.7553013916
| 12> C 3.5026029197 -1.8213433934 1.8020872616
| 13> C 3.7473927849 -2.6024251149 0.5277174227
| 14> S 1.234871691 -0.5215211068 -0.9873663192
| 15> C 0.1698581079 -1.8207896913 -0.3110892661
| 16> S -1.0089746038 -1.2357487449 0.9401055759
| 17> P -2.2462998654 -0.1311780789 -0.3580182229
| 18> S -2.4647346485 -0.8533282033 -2.1694620166
| 19> O -1.6413246822 1.3202246399 -0.2562333743
| 20> C -1.8221231215 2.3399544966 -1.2664791744
| 21> C -0.4741853458 2.7265285621 -1.8397742131
| 22> O -3.5813690612 0.0391460142 0.4910839703
| 23> C -4.5214652356 -1.0412275262 0.670189342
| 24> C -5.6450558663 -0.9500720062 -0.3440838893
| 25> H 4.1353317647 1.2297320305 -2.0957565314
| 26> H 2.5078237446 1.8348550117 -1.7710434064
| 27> H 3.8470163079 2.973984365 -1.9715373922
| 28> H 3.2544953918 2.7109603458 0.4398251494
| 29> H 4.9037735402 2.0973654395 0.1222313247
| 30> H 4.3364365336 -1.1487818267 2.0084324378
| 31> H 3.3360390419 -2.4804520865 2.6554830074
| 32> H 2.9419426329 -3.3078514989 0.3404355956
| 33> H 3.8316635526 -1.9255458722 -0.319538232
| 34> H 4.6767758151 -3.154259051 0.6306950857
| 35> H 0.7703036738 -2.5840149652 0.1761177362
| 36> H -0.3771713131 -2.2275474573 -1.1630040464
| 37> H -2.4882840886 1.9575400627 -2.0462817439
| 38> H -2.294929534 3.1788529867 -0.7533330076
| 39> H -0.0488490043 1.8905682862 -2.3915709235
| 40> H -0.597463534 3.5722077585 -2.5080598026
| 41> H 0.1987962183 2.9997565865 -1.0300764879
| 42> H -3.9940833573 -1.9961003109 0.5880519291
| 43> H -4.892377179 -0.9176731266 1.6894164822
| 44> H -6.3711629301 -1.7310749555 -0.1430978368
| 45> H -6.1298190454 0.0197846309 -0.2760158734
| 46> H -5.2547516666 -1.0783208926 -1.351279542
| 47> *
| 48>
| 49>                          ****END OF INPUT****

CARTESIAN COORDINATES (ANGSTROEM)
---------------------------------
  C      3.567305    2.000462   -1.582529
  C      3.843532    1.956948   -0.093513
  O      3.539395    0.665692    0.459313
  P      2.058111    0.237021    0.843748
  S      1.035021    1.657152    1.726517
  O      2.285927   -1.031594    1.755301
  C      3.502603   -1.821343    1.802087
  C      3.747393   -2.602425    0.527717
  S      1.234872   -0.521521   -0.987366
  C      0.169858   -1.820790   -0.311089
  S     -1.008975   -1.235749    0.940106
  P     -2.246300   -0.131178   -0.358018
  S     -2.464735   -0.853328   -2.169462
  O     -1.641325    1.320225   -0.256233
  C     -1.822123    2.339954   -1.266479
  C     -0.474185    2.726529   -1.839774
  O     -3.581369    0.039146    0.491084
  C     -4.521465   -1.041228    0.670189
  C     -5.645056   -0.950072   -0.344084
  H      4.135332    1.229732   -2.095757
  H      2.507824    1.834855   -1.771043
  H      3.847016    2.973984   -1.971537
  H      3.254495    2.710960    0.439825
  H      4.903774    2.097365    0.122231
  H      4.336437   -1.148782    2.008432
  H      3.336039   -2.480452    2.655483
  H      2.941943   -3.307851    0.340436
  H      3.831664   -1.925546   -0.319538
  H      4.676776   -3.154259    0.630695
  H      0.770304   -2.584015    0.176118
  H     -0.377171   -2.227547   -1.163004
  H     -2.488284    1.957540   -2.046282
  H     -2.294930    3.178853   -0.753333
  H     -0.048849    1.890568   -2.391571
  H     -0.597464    3.572208   -2.508060
  H      0.198796    2.999757   -1.030076
  H     -3.994083   -1.996100    0.588052
  H     -4.892377   -0.917673    1.689416
  H     -6.371163   -1.731075   -0.143098
  H     -6.129819    0.019785   -0.276016
  H     -5.254752   -1.078321   -1.351280

 Total Charge           Charge          ....    0
 Multiplicity           Mult            ....    1
 Number of Electrons    NEL             ....  202
 Basis Dimension        Dim             ....  334

ORBITAL ENERGIES
----------------

  NO   OCC          E(Eh)            E(eV)
   0   2.0000     -88.039122     -2395.6663
   1   2.0000     -88.038613     -2395.6524
   2   2.0000     -87.984325     -2394.1752
   3   2.0000     -87.977016     -2393.9763
   4   2.0000     -76.425928     -2079.6552
   5   2.0000     -76.421743     -2079.5414
   6   2.0000     -18.796816      -511.4874
   7   2.0000     -18.795301      -511.4461
   8   2.0000     -18.786488      -511.2063
   9   2.0000     -18.780441      -511.0418
  10   2.0000      -9.962156      -271.0840
  11   2.0000      -9.955414      -270.9006
  12   2.0000      -9.955343      -270.8987
  13   2.0000      -9.950257      -270.7602
  14   2.0000      -9.943590      -270.5788
  15   2.0000      -9.894007      -269.2296
  16   2.0000      -9.889779      -269.1146
  17   2.0000      -9.877711      -268.7862
  18   2.0000      -9.872155      -268.6350
  19   2.0000      -7.684435      -209.1041
  20   2.0000      -7.683059      -209.0667
  21   2.0000      -7.629354      -207.6053
  22   2.0000      -7.622227      -207.4113
  23   2.0000      -6.423078      -174.7808
  24   2.0000      -6.419375      -174.6801
  25   2.0000      -5.712298      -155.4395
  26   2.0000      -5.711008      -155.4044
  27   2.0000      -5.708952      -155.3485
  28   2.0000      -5.707728      -155.3152
  29   2.0000      -5.701325      -155.1409
  30   2.0000      -5.699898      -155.1021
  31   2.0000      -5.658012      -153.9623
  32   2.0000      -5.651270      -153.7789
  33   2.0000      -5.650152      -153.7484
  34   2.0000      -5.649584      -153.7330
  35   2.0000      -5.643157      -153.5581
  36   2.0000      -5.641928      -153.5247
  37   2.0000      -4.646536      -126.4387
  38   2.0000      -4.644714      -126.3891
  39   2.0000      -4.642844      -126.3382
  40   2.0000      -4.641775      -126.3091
  41   2.0000      -4.641120      -126.2913
  42   2.0000      -4.640017      -126.2613
  43   2.0000      -0.991951       -26.9924
  44   2.0000      -0.979239       -26.6464
  45   2.0000      -0.948521       -25.8106
  46   2.0000      -0.937319       -25.5057
  47   2.0000      -0.761442       -20.7199
  48   2.0000      -0.720378       -19.6025
  49   2.0000      -0.708012       -19.2660
  50   2.0000      -0.696101       -18.9419
  51   2.0000      -0.679646       -18.4941
  52   2.0000      -0.671210       -18.2646
  53   2.0000      -0.648153       -17.6371
  54   2.0000      -0.634879       -17.2759
  55   2.0000      -0.595396       -16.2016
  56   2.0000      -0.587794       -15.9947
  57   2.0000      -0.583498       -15.8778
  58   2.0000      -0.567158       -15.4332
  59   2.0000      -0.555375       -15.1125
  60   2.0000      -0.500871       -13.6294
  61   2.0000      -0.498417       -13.5626
  62   2.0000      -0.478359       -13.0168
  63   2.0000      -0.471079       -12.8187
  64   2.0000      -0.462603       -12.5881
  65   2.0000      -0.447839       -12.1863
  66   2.0000      -0.434048       -11.8110
  67   2.0000      -0.430749       -11.7213
  68   2.0000      -0.425336       -11.5740
  69   2.0000      -0.418401       -11.3853
  70   2.0000      -0.405153       -11.0248
  71   2.0000      -0.399140       -10.8611
  72   2.0000      -0.391581       -10.6555
  73   2.0000      -0.383201       -10.4274
  74   2.0000      -0.378881       -10.3099
  75   2.0000      -0.369353       -10.0506
  76   2.0000      -0.368263       -10.0209
  77   2.0000      -0.362057        -9.8521
  78   2.0000      -0.357767        -9.7353
  79   2.0000      -0.348833        -9.4922
  80   2.0000      -0.346058        -9.4167
  81   2.0000      -0.343750        -9.3539
  82   2.0000      -0.340161        -9.2562
  83   2.0000      -0.331860        -9.0304
  84   2.0000      -0.329479        -8.9656
  85   2.0000      -0.325465        -8.8563
  86   2.0000      -0.304962        -8.2984
  87   2.0000      -0.302242        -8.2244
  88   2.0000      -0.294692        -8.0190
  89   2.0000      -0.293448        -7.9851
  90   2.0000      -0.281232        -7.6527
  91   2.0000      -0.275702        -7.5022
  92   2.0000      -0.269629        -7.3370
  93   2.0000      -0.259202        -7.0532
  94   2.0000      -0.256878        -6.9900
  95   2.0000      -0.232915        -6.3379
  96   2.0000      -0.217089        -5.9073
  97   2.0000      -0.206476        -5.6185
  98   2.0000      -0.200446        -5.4544
  99   2.0000      -0.192530        -5.2390
 100   2.0000      -0.184045        -5.0081
 101   0.0000      -0.047892        -1.3032
 102   0.0000      -0.019078        -0.5191
 103   0.0000      -0.013978        -0.3804
 104   0.0000      -0.000368        -0.0100
 105   0.0000       0.019269         0.5243

MULLIKEN ATOMIC CHARGES
-----------------------
   0 C :   -0.332276
   1 C :   -0.006040
   2 O :   -0.383491
   3 P :    0.614565
   4 S :   -0.284821
   5 O :   -0.377017
   6 C :    0.009339
   7 C :   -0.334211
   8 S :   -0.112389
   9 C :   -0.360601
  10 S :   -0.068782
  11 P :    0.616997
  12 S :   -0.348847
  13 O :   -0.345433
  14 C :    0.005582
  15 C :   -0.313822
  16 O :   -0.371319
  17 C :   -0.006093
  18 C :   -0.289988
  19 H :    0.118073
  20 H :    0.147791
  21 H :    0.116267
  22 H :    0.111192
  23 H :    0.104572
  24 H :    0.112561
  25 H :    0.112774
  26 H :    0.125180
  27 H :    0.134969
  28 H :    0.114671
  29 H :    0.184083
  30 H :    0.192787
  31 H :    0.102178
  32 H :    0.104225
  33 H :    0.131927
  34 H :    0.100302
  35 H :    0.124196
  36 H :    0.098113
  37 H :    0.107686
  38 H :    0.105734
  39 H :    0.111841
  40 H :    0.127523
Sum of atomic charges:   -0.0000000

LOEWDIN ATOMIC CHARGES
----------------------
   0 C :   -0.366305
   1 C :   -0.121174
   2 O :   -0.246024
   3 P :    0.567524
   4 S :   -0.294413
   5 O :   -0.244079
   6 C :   -0.107096
   7 C :   -0.367366
   8 S :    0.071121
   9 C :   -0.481876
  10 S :    0.097634
  11 P :    0.570308
  12 S :   -0.329752
  13 O :   -0.227413
  14 C :   -0.109589
  15 C :   -0.364171
  16 O :   -0.248022
  17 C :   -0.115852
  18 C :   -0.362669
  19 H :    0.126375
  20 H :    0.123567
  21 H :    0.133338
  22 H :    0.108924
  23 H :    0.118260
  24 H :    0.117063
  25 H :    0.123087
  26 H :    0.123606
  27 H :    0.123773
  28 H :    0.133317
  29 H :    0.124938
  30 H :    0.130040
  31 H :    0.105463
  32 H :    0.117507
  33 H :    0.121342
  34 H :    0.124804
  35 H :    0.122008
  36 H :    0.105675
  37 H :    0.118894
  38 H :    0.127787
  39 H :    0.125137
  40 H :    0.124309

  Mayer bond orders larger than 0.100000
B(  0-C ,  1-C ) :   1.1647 B(  0-C , 19-H ) :   0.9455 B(  0-C , 20-H ) :   0.9263
B(  0-C , 21-H ) :   0.9392 B(  1-C ,  2-O ) :   0.9088 B(  1-C , 22-H ) :   0.9051
B(  1-C , 23-H ) :   0.9324 B(  2-O ,  3-P ) :   1.0610 B(  3-P ,  4-S ) :   1.6942
B(  3-P ,  5-O ) :   1.1068 B(  3-P ,  8-S ) :   0.9342 B(  4-S ,  8-S ) :   0.1087
B(  5-O ,  6-C ) :   0.8957 B(  6-C ,  7-C ) :   1.1666 B(  6-C , 24-H ) :   0.9264
B(  6-C , 25-H ) :   0.9347 B(  7-C , 26-H ) :   0.9390 B(  7-C , 27-H ) :   0.9351
B(  7-C , 28-H ) :   0.9350 B(  8-S ,  9-C ) :   1.0017 B(  9-C , 10-S ) :   1.0127
B(  9-C , 29-H ) :   0.8901 B(  9-C , 30-H ) :   0.8753 B( 10-S , 11-P ) :   0.9655
B( 10-S , 12-S ) :   0.1099 B( 11-P , 12-S ) :   1.5804 B( 11-P , 13-O ) :   1.1648
B( 11-P , 16-O ) :   1.1161 B( 13-O , 14-C ) :   0.8952 B( 14-C , 15-C ) :   1.1694
B( 14-C , 31-H ) :   0.9077 B( 14-C , 32-H ) :   0.9324 B( 15-C , 33-H ) :   0.9365
B( 15-C , 34-H ) :   0.9367 B( 15-C , 35-H ) :   0.9347 B( 16-O , 17-C ) :   0.9045
B( 17-C , 18-C ) :   1.1665 B( 17-C , 36-H ) :   0.9142 B( 17-C , 37-H ) :   0.9359
B( 18-C , 38-H ) :   0.9399 B( 18-C , 39-H ) :   0.9476 B( 18-C , 40-H ) :   0.9330

Dispersion correction           -0.066870774
FINAL SINGLE POINT ENERGY     -2929.515945800179

DIPOLE MOMENT
-------------

Method             : SCF
Type of density    : Electron Density
Multiplicity       :   1
Irrep              :   0
Energy             : -2929.6336120528794709 Eh
Relativity type    :
Basis              : AO
                                X                 Y                 Z
Electronic contribution:     -5.090315068      -2.215248403       8.892419800
Nuclear contribution   :      6.114433907       1.743388707      -8.986482090
                        -----------------------------------------
Total Dipole Moment    :      1.024118839      -0.471859695      -0.094062290
                        -----------------------------------------
Magnitude (a.u.)       :      1.131511680
Magnitude (Debye)      :      2.876074125

Rotational constants in cm-1:             0.013145             0.005148             0.004601
Rotational constants in MHz :           394.065625           154.336256           137.929593

                             ****ORCA TERMINATED NORMALLY****
TOTAL RUN TIME: 0 days 0 hours 0 minutes 20 seconds 940 msec
