                         Program Version 6.0.0  -   RELEASE  -
|  1> ! pbe def2-sv(p) def2/J RI DEFGRID1 loosescf d4 GCP(DFT/SV(P)) printgap
|  2> %output
|  3>     printlevel normal
|  4> end
|  5> * xyz 0 1
|  6> C 3.8565576493 1.0216957763 -1.9815576303
|  7> C 2.4860827937 0.3850724206 -2.0841373168
|  8> O 2.243665729 -0.5289903064 -1.0014636514
|  9> P 2.0312338072 -0.0292366332 0.5052870492
| 10> S 1.1613468126 1.7063576977 0.7141445613
| 11> O 3.4511188359 -0.0003277063 1.2070911498
| 12> C 4.3711631851 -1.1195573946 1.1866050927
| 13> C 4.3515571663 -1.8481204759 2.5151168201
| 14> S 1.1207725446 -1.7687275393 1.2676717283
| 15> C -0.4266890806 -1.7476438548 0.3329755103
| 16> S -1.7239196799 -0.7243127191 1.1189448752
| 17> P -2.3837990912 0.3828616891 -0.5741442815
| 18> S -1.088607299 0.5319396138 -2.0468000778
| 19> O -2.9666401876 1.7458094627 -0.0368810232
| 20> C -2.1858691374 2.9100098772 0.2807620305
| 21> C -2.0075914981 3.0324779032 1.7809039207
| 22> O -3.8001081342 -0.2227876361 -0.9412298042
| 23> C -4.0941293119 -1.6259599905 -1.0506887789
| 24> C -3.4033496152 -2.2726416041 -2.2354888802
| 25> H 3.917682833 1.6196990903 -1.0722543085
| 26> H 4.6290253365 0.2571674437 -1.9579560796
| 27> H 4.0153842486 1.6680268405 -2.8388872233
| 28> H 2.3844996244 -0.2317163596 -2.9782518981
| 29> H 1.6992280926 1.1461213935 -2.082912258
| 30> H 4.1057281726 -1.7863898362 0.3626415984
| 31> H 5.3472105402 -0.6681490097 0.999338639
| 32> H 5.1054358717 -2.6288623785 2.5022000219
| 33> H 4.5672975469 -1.1533416443 3.3220024608
| 34> H 3.3758033674 -2.2965356796 2.6894311071
| 35> H -0.7697830336 -2.7784879848 0.3103415019
| 36> H -0.2387739121 -1.3566015207 -0.6709173766
| 37> H -1.2166227148 2.857430489 -0.2261650194
| 38> H -2.7587190537 3.7488094695 -0.1194578134
| 39> H -1.5082272899 3.9699145017 2.0023182485
| 40> H -2.9752819801 3.0065637716 2.2735305285
| 41> H -1.3929168304 2.2175433911 2.1567387831
| 42> H -3.8121656929 -2.1164882038 -0.1136359089
| 43> H -5.1794102472 -1.6511706075 -1.1636507848
| 44> H -2.3220924974 -2.2317830431 -2.1150209312
| 45> H -3.7150439012 -3.3093599779 -2.3119654382
| 46> H -3.6633513365 -1.7497818344 -3.1524404666
| 47> *
| 48>
| 49>                          ****END OF INPUT****

CARTESIAN COORDINATES (ANGSTROEM)
---------------------------------
  C      3.856558    1.021696   -1.981558
  C      2.486083    0.385072   -2.084137
  O      2.243666   -0.528990   -1.001464
  P      2.031234   -0.029237    0.505287
  S      1.161347    1.706358    0.714145
  O      3.451119   -0.000328    1.207091
  C      4.371163   -1.119557    1.186605
  C      4.351557   -1.848120    2.515117
  S      1.120773   -1.768728    1.267672
  C     -0.426689   -1.747644    0.332976
  S     -1.723920   -0.724313    1.118945
  P     -2.383799    0.382862   -0.574144
  S     -1.088607    0.531940   -2.046800
  O     -2.966640    1.745809   -0.036881
  C     -2.185869    2.910010    0.280762
  C     -2.007591    3.032478    1.780904
  O     -3.800108   -0.222788   -0.941230
  C     -4.094129   -1.625960   -1.050689
  C     -3.403350   -2.272642   -2.235489
  H      3.917683    1.619699   -1.072254
  H      4.629025    0.257167   -1.957956
  H      4.015384    1.668027   -2.838887
  H      2.384500   -0.231716   -2.978252
  H      1.699228    1.146121   -2.082912
  H      4.105728   -1.786390    0.362642
  H      5.347211   -0.668149    0.999339
  H      5.105436   -2.628862    2.502200
  H      4.567298   -1.153342    3.322002
  H      3.375803   -2.296536    2.689431
  H     -0.769783   -2.778488    0.310342
  H     -0.238774   -1.356602   -0.670917
  H     -1.216623    2.857430   -0.226165
  H     -2.758719    3.748809   -0.119458
  H     -1.508227    3.969915    2.002318
  H     -2.975282    3.006564    2.273531
  H     -1.392917    2.217543    2.156739
  H     -3.812166   -2.116488   -0.113636
  H     -5.179410   -1.651171   -1.163651
  H     -2.322092   -2.231783   -2.115021
  H     -3.715044   -3.309360   -2.311965
  H     -3.663351   -1.749782   -3.152440

 Total Charge           Charge          ....    0
 Multiplicity           Mult            ....    1
 Number of Electrons    NEL             ....  202
 Basis Dimension        Dim             ....  334

ORBITAL ENERGIES
----------------

  NO   OCC          E(Eh)            E(eV)
   0   2.0000     -88.046406     -2395.8645
   1   2.0000     -88.043496     -2395.7853
   2   2.0000     -87.984027     -2394.1671
   3   2.0000     -87.980246     -2394.0642
   4   2.0000     -76.424508     -2079.6166
   5   2.0000     -76.424376     -2079.6130
   6   2.0000     -18.795719      -511.4575
   7   2.0000     -18.789680      -511.2932
   8   2.0000     -18.785783      -511.1871
   9   2.0000     -18.784282      -511.1463
  10   2.0000      -9.960225      -271.0315
  11   2.0000      -9.958510      -270.9848
  12   2.0000      -9.954164      -270.8666
  13   2.0000      -9.944448      -270.6022
  14   2.0000      -9.941978      -270.5350
  15   2.0000      -9.891552      -269.1628
  16   2.0000      -9.884786      -268.9787
  17   2.0000      -9.882802      -268.9247
  18   2.0000      -9.871704      -268.6227
  19   2.0000      -7.691883      -209.3068
  20   2.0000      -7.688158      -209.2054
  21   2.0000      -7.628907      -207.5931
  22   2.0000      -7.625433      -207.4986
  23   2.0000      -6.422254      -174.7584
  24   2.0000      -6.421723      -174.7440
  25   2.0000      -5.719779      -155.6431
  26   2.0000      -5.716297      -155.5483
  27   2.0000      -5.715988      -155.5400
  28   2.0000      -5.712654      -155.4492
  29   2.0000      -5.708830      -155.3452
  30   2.0000      -5.705279      -155.2485
  31   2.0000      -5.657724      -153.9545
  32   2.0000      -5.654437      -153.8650
  33   2.0000      -5.649823      -153.7395
  34   2.0000      -5.648852      -153.7131
  35   2.0000      -5.646040      -153.6365
  36   2.0000      -5.645420      -153.6197
  37   2.0000      -4.645223      -126.4030
  38   2.0000      -4.643997      -126.3696
  39   2.0000      -4.643923      -126.3676
  40   2.0000      -4.643825      -126.3649
  41   2.0000      -4.642542      -126.3300
  42   2.0000      -4.642056      -126.3168
  43   2.0000      -0.985384       -26.8137
  44   2.0000      -0.984934       -26.8014
  45   2.0000      -0.944637       -25.7049
  46   2.0000      -0.939497       -25.5650
  47   2.0000      -0.763236       -20.7687
  48   2.0000      -0.721216       -19.6253
  49   2.0000      -0.711465       -19.3599
  50   2.0000      -0.692571       -18.8458
  51   2.0000      -0.680253       -18.5106
  52   2.0000      -0.674129       -18.3440
  53   2.0000      -0.651246       -17.7213
  54   2.0000      -0.634549       -17.2670
  55   2.0000      -0.595873       -16.2145
  56   2.0000      -0.587497       -15.9866
  57   2.0000      -0.579553       -15.7704
  58   2.0000      -0.568429       -15.4677
  59   2.0000      -0.558290       -15.1918
  60   2.0000      -0.502172       -13.6648
  61   2.0000      -0.494952       -13.4683
  62   2.0000      -0.477863       -13.0033
  63   2.0000      -0.467512       -12.7216
  64   2.0000      -0.456128       -12.4119
  65   2.0000      -0.449984       -12.2447
  66   2.0000      -0.441736       -12.0202
  67   2.0000      -0.427936       -11.6447
  68   2.0000      -0.420620       -11.4456
  69   2.0000      -0.414894       -11.2898
  70   2.0000      -0.410500       -11.1703
  71   2.0000      -0.407899       -11.0995
  72   2.0000      -0.398790       -10.8516
  73   2.0000      -0.381544       -10.3823
  74   2.0000      -0.380487       -10.3536
  75   2.0000      -0.371127       -10.0989
  76   2.0000      -0.362013        -9.8509
  77   2.0000      -0.359467        -9.7816
  78   2.0000      -0.355629        -9.6772
  79   2.0000      -0.350663        -9.5420
  80   2.0000      -0.346443        -9.4272
  81   2.0000      -0.343476        -9.3465
  82   2.0000      -0.340432        -9.2636
  83   2.0000      -0.336209        -9.1487
  84   2.0000      -0.326253        -8.8778
  85   2.0000      -0.316094        -8.6014
  86   2.0000      -0.312630        -8.5071
  87   2.0000      -0.306592        -8.3428
  88   2.0000      -0.293355        -7.9826
  89   2.0000      -0.284364        -7.7379
  90   2.0000      -0.276364        -7.5203
  91   2.0000      -0.274724        -7.4756
  92   2.0000      -0.266935        -7.2637
  93   2.0000      -0.264908        -7.2085
  94   2.0000      -0.257950        -7.0192
  95   2.0000      -0.239763        -6.5243
  96   2.0000      -0.224841        -6.1182
  97   2.0000      -0.207396        -5.6435
  98   2.0000      -0.203709        -5.5432
  99   2.0000      -0.195584        -5.3221
 100   2.0000      -0.184438        -5.0188
 101   0.0000      -0.040895        -1.1128
 102   0.0000      -0.032363        -0.8806
 103   0.0000      -0.017410        -0.4738
 104   0.0000       0.007955         0.2165
 105   0.0000       0.014849         0.4041

MULLIKEN ATOMIC CHARGES
-----------------------
   0 C :   -0.313905
   1 C :   -0.017159
   2 O :   -0.387851
   3 P :    0.618431
   4 S :   -0.308301
   5 O :   -0.365982
   6 C :   -0.033996
   7 C :   -0.292375
   8 S :   -0.098799
   9 C :   -0.361687
  10 S :   -0.096125
  11 P :    0.608109
  12 S :   -0.324533
  13 O :   -0.353819
  14 C :   -0.015469
  15 C :   -0.302284
  16 O :   -0.354071
  17 C :   -0.009696
  18 C :   -0.309634
  19 H :    0.129831
  20 H :    0.107936
  21 H :    0.114134
  22 H :    0.102905
  23 H :    0.132964
  24 H :    0.111314
  25 H :    0.112489
  26 H :    0.112320
  27 H :    0.124581
  28 H :    0.131576
  29 H :    0.181511
  30 H :    0.206396
  31 H :    0.125720
  32 H :    0.103001
  33 H :    0.108677
  34 H :    0.109330
  35 H :    0.136047
  36 H :    0.103775
  37 H :    0.109206
  38 H :    0.122519
  39 H :    0.108100
  40 H :    0.124815
Sum of atomic charges:   -0.0000000

LOEWDIN ATOMIC CHARGES
----------------------
   0 C :   -0.366628
   1 C :   -0.124632
   2 O :   -0.252915
   3 P :    0.567707
   4 S :   -0.297793
   5 O :   -0.240364
   6 C :   -0.120983
   7 C :   -0.359513
   8 S :    0.087801
   9 C :   -0.482443
  10 S :    0.076743
  11 P :    0.569641
  12 S :   -0.302590
  13 O :   -0.226949
  14 C :   -0.117431
  15 C :   -0.364158
  16 O :   -0.235267
  17 C :   -0.119189
  18 C :   -0.366551
  19 H :    0.125363
  20 H :    0.120192
  21 H :    0.131941
  22 H :    0.117737
  23 H :    0.110265
  24 H :    0.109762
  25 H :    0.121318
  26 H :    0.131500
  27 H :    0.131341
  28 H :    0.119817
  29 H :    0.133397
  30 H :    0.122460
  31 H :    0.107437
  32 H :    0.117412
  33 H :    0.130180
  34 H :    0.122757
  35 H :    0.122218
  36 H :    0.101185
  37 H :    0.121525
  38 H :    0.118337
  39 H :    0.128049
  40 H :    0.131321

  Mayer bond orders larger than 0.100000
B(  0-C ,  1-C ) :   1.1591 B(  0-C , 19-H ) :   0.9349 B(  0-C , 20-H ) :   0.9457
B(  0-C , 21-H ) :   0.9402 B(  1-C ,  2-O ) :   0.9008 B(  1-C , 22-H ) :   0.9358
B(  1-C , 23-H ) :   0.9058 B(  2-O ,  3-P ) :   1.0663 B(  3-P ,  4-S ) :   1.6646
B(  3-P ,  5-O ) :   1.1163 B(  3-P ,  8-S ) :   0.9629 B(  4-S ,  8-S ) :   0.1069
B(  5-O ,  6-C ) :   0.8961 B(  6-C ,  7-C ) :   1.1668 B(  6-C , 24-H ) :   0.9145
B(  6-C , 25-H ) :   0.9320 B(  7-C , 26-H ) :   0.9389 B(  7-C , 27-H ) :   0.9453
B(  7-C , 28-H ) :   0.9368 B(  8-S ,  9-C ) :   1.0049 B(  9-C , 10-S ) :   0.9913
B(  9-C , 29-H ) :   0.9092 B(  9-C , 30-H ) :   0.8376 B( 10-S , 11-P ) :   0.9405
B( 10-S , 12-S ) :   0.1243 B( 11-P , 12-S ) :   1.6086 B( 11-P , 13-O ) :   1.1551
B( 11-P , 16-O ) :   1.1127 B( 12-S , 30-H ) :   0.1107 B( 13-O , 14-C ) :   0.8996
B( 14-C , 15-C ) :   1.1711 B( 14-C , 31-H ) :   0.9028 B( 14-C , 32-H ) :   0.9336
B( 15-C , 33-H ) :   0.9411 B( 15-C , 34-H ) :   0.9469 B( 15-C , 35-H ) :   0.9328
B( 16-O , 17-C ) :   0.9295 B( 17-C , 18-C ) :   1.1589 B( 17-C , 36-H ) :   0.9142
B( 17-C , 37-H ) :   0.9343 B( 18-C , 38-H ) :   0.9357 B( 18-C , 39-H ) :   0.9374
B( 18-C , 40-H ) :   0.9444

Dispersion correction           -0.066439132
FINAL SINGLE POINT ENERGY     -2929.516916171434

DIPOLE MOMENT
-------------

Method             : SCF
Type of density    : Electron Density
Multiplicity       :   1
Irrep              :   0
Energy             : -2929.6355490954920242 Eh
Relativity type    :
Basis              : AO
                                X                 Y                 Z
Electronic contribution:     -8.706021319       2.326139219       3.744811502
Nuclear contribution   :      9.316168097      -3.546883886      -3.906648821
                        -----------------------------------------
Total Dipole Moment    :      0.610146779      -1.220744667      -0.161837319
                        -----------------------------------------
Magnitude (a.u.)       :      1.374295438
Magnitude (Debye)      :      3.493181396

Rotational constants in cm-1:             0.011938             0.005093             0.004854
Rotational constants in MHz :           357.895841           152.669725           145.515669

                             ****ORCA TERMINATED NORMALLY****
TOTAL RUN TIME: 0 days 0 hours 0 minutes 21 seconds 18 msec
