                         Program Version 6.0.1  -  RELEASE   -
|  1> ! pbe def2-sv(p) def2/J RI DEFGRID1 loosescf d4 GCP(DFT/SV(P)) printgap
|  2> %output
|  3>     printlevel normal
|  4> end
|  5> * xyz 0 1
|  6> C 4.6375665986 -3.4571050597 -1.877861923
|  7> C 3.7755015885 -3.6252417259 -0.6366000276
|  8> O 3.4234480768 -2.3459073486 -0.0754240342
|  9> C 2.3602502631 -1.7240051983 -0.5467386709
| 10> O 1.6282590276 -2.1617244653 -1.4057250642
| 11> C 2.176189686 -0.3782375233 0.1298750859
| 12> C 0.7588864278 0.1276957007 -0.0747169495
| 13> H 0.4744656941 0.0023916663 -1.1285698324
| 14> C 0.5412925489 1.5828820096 0.2819928763
| 15> O -0.5075033897 1.9701992185 0.7606216968
| 16> O 1.5564478961 2.3408166286 -0.019435125
| 17> C 1.4545787619 3.7617421887 0.2298558111
| 18> C 1.8370298303 4.0868096912 1.6640118922
| 19> S -0.4338545448 -0.8511402227 0.9132921404
| 20> P -2.210575385 0.0619692097 0.2114909652
| 21> S -2.1867208031 0.9217792029 -1.5582644174
| 22> O -3.1915112167 -1.2075606638 0.243846611
| 23> C -3.0195335698 -2.2872017694 -0.6759016458
| 24> O -2.9480548868 0.7972258704 1.4046999318
| 25> C -3.2050531768 2.2016353958 1.482154764
| 26> H 5.5197635491 -2.8677367931 -1.6440074116
| 27> H 4.944331189 -4.4340021991 -2.2366532723
| 28> H 4.0723183452 -2.956291474 -2.6605856168
| 29> H 4.3201203397 -4.1310293758 0.1606073668
| 30> H 2.8555852304 -4.1668408411 -0.8740794017
| 31> H 2.8779696154 0.3275924859 -0.3202089765
| 32> H 2.4141163854 -0.4811029138 1.1881585525
| 33> H 2.1507054168 4.2065258387 -0.4808240929
| 34> H 0.4318340476 4.0806499288 0.0128959672
| 35> H 1.7989161181 5.1615540248 1.807126704
| 36> H 1.1424573118 3.6151931062 2.3553042227
| 37> H 2.8422376067 3.7331796539 1.8745577258
| 38> H -3.8579155206 -2.9562904733 -0.5012764255
| 39> H -2.0746713194 -2.8010062634 -0.490800161
| 40> H -3.0370081308 -1.9121146156 -1.7012121406
| 41> H -4.2182317622 2.3025017988 1.865239335
| 42> H -3.1241049548 2.6593890897 0.4948557798
| 43> H -2.4844772903 2.6572028413 2.1581802343
| 44> *
| 45>
| 46>                          ****END OF INPUT****

CARTESIAN COORDINATES (ANGSTROEM)
---------------------------------
  C      4.637567   -3.457105   -1.877862
  C      3.775502   -3.625242   -0.636600
  O      3.423448   -2.345907   -0.075424
  C      2.360250   -1.724005   -0.546739
  O      1.628259   -2.161724   -1.405725
  C      2.176190   -0.378238    0.129875
  C      0.758886    0.127696   -0.074717
  H      0.474466    0.002392   -1.128570
  C      0.541293    1.582882    0.281993
  O     -0.507503    1.970199    0.760622
  O      1.556448    2.340817   -0.019435
  C      1.454579    3.761742    0.229856
  C      1.837030    4.086810    1.664012
  S     -0.433855   -0.851140    0.913292
  P     -2.210575    0.061969    0.211491
  S     -2.186721    0.921779   -1.558264
  O     -3.191511   -1.207561    0.243847
  C     -3.019534   -2.287202   -0.675902
  O     -2.948055    0.797226    1.404700
  C     -3.205053    2.201635    1.482155
  H      5.519764   -2.867737   -1.644007
  H      4.944331   -4.434002   -2.236653
  H      4.072318   -2.956291   -2.660586
  H      4.320120   -4.131029    0.160607
  H      2.855585   -4.166841   -0.874079
  H      2.877970    0.327592   -0.320209
  H      2.414116   -0.481103    1.188159
  H      2.150705    4.206526   -0.480824
  H      0.431834    4.080650    0.012896
  H      1.798916    5.161554    1.807127
  H      1.142457    3.615193    2.355304
  H      2.842238    3.733180    1.874558
  H     -3.857916   -2.956290   -0.501276
  H     -2.074671   -2.801006   -0.490800
  H     -3.037008   -1.912115   -1.701212
  H     -4.218232    2.302502    1.865239
  H     -3.124105    2.659389    0.494856
  H     -2.484477    2.657203    2.158180

 Total Charge           Charge          ....    0
 Multiplicity           Mult            ....    1
 Number of Electrons    NEL             ....  174
 Basis Dimension        Dim             ....  316

ORBITAL ENERGIES
----------------

  NO   OCC          E(Eh)            E(eV)
   0   2.0000     -88.030371     -2395.4282
   1   2.0000     -87.968753     -2393.7515
   2   2.0000     -76.413511     -2079.3174
   3   2.0000     -18.825998      -512.2815
   4   2.0000     -18.808391      -511.8023
   5   2.0000     -18.775453      -510.9060
   6   2.0000     -18.767838      -510.6988
   7   2.0000     -18.754920      -510.3473
   8   2.0000     -18.746350      -510.1141
   9   2.0000     -10.027464      -272.8612
  10   2.0000     -10.016926      -272.5744
  11   2.0000      -9.962808      -271.1018
  12   2.0000      -9.953308      -270.8433
  13   2.0000      -9.943931      -270.5881
  14   2.0000      -9.929345      -270.1912
  15   2.0000      -9.924337      -270.0549
  16   2.0000      -9.919438      -269.9216
  17   2.0000      -9.899243      -269.3721
  18   2.0000      -9.892125      -269.1784
  19   2.0000      -7.675444      -208.8594
  20   2.0000      -7.613879      -207.1842
  21   2.0000      -6.409372      -174.4079
  22   2.0000      -5.703340      -155.1958
  23   2.0000      -5.700262      -155.1120
  24   2.0000      -5.692126      -154.8906
  25   2.0000      -5.642945      -153.5523
  26   2.0000      -5.634728      -153.3287
  27   2.0000      -5.633645      -153.2993
  28   2.0000      -4.631647      -126.0335
  29   2.0000      -4.631570      -126.0314
  30   2.0000      -4.629992      -125.9885
  31   2.0000      -1.034027       -28.1373
  32   2.0000      -1.016778       -27.6679
  33   2.0000      -0.967721       -26.3330
  34   2.0000      -0.935965       -25.4689
  35   2.0000      -0.923114       -25.1192
  36   2.0000      -0.921963       -25.0879
  37   2.0000      -0.765404       -20.8277
  38   2.0000      -0.719505       -19.5787
  39   2.0000      -0.713128       -19.4052
  40   2.0000      -0.686794       -18.6886
  41   2.0000      -0.654065       -17.7980
  42   2.0000      -0.630274       -17.1506
  43   2.0000      -0.617005       -16.7896
  44   2.0000      -0.605523       -16.4771
  45   2.0000      -0.601418       -16.3654
  46   2.0000      -0.569001       -15.4833
  47   2.0000      -0.512241       -13.9388
  48   2.0000      -0.504016       -13.7150
  49   2.0000      -0.498897       -13.5757
  50   2.0000      -0.481061       -13.0903
  51   2.0000      -0.468142       -12.7388
  52   2.0000      -0.457008       -12.4358
  53   2.0000      -0.453764       -12.3475
  54   2.0000      -0.440586       -11.9890
  55   2.0000      -0.431408       -11.7392
  56   2.0000      -0.429734       -11.6937
  57   2.0000      -0.415325       -11.3016
  58   2.0000      -0.411788       -11.2053
  59   2.0000      -0.406729       -11.0677
  60   2.0000      -0.398097       -10.8328
  61   2.0000      -0.395202       -10.7540
  62   2.0000      -0.390405       -10.6235
  63   2.0000      -0.382193       -10.4000
  64   2.0000      -0.379268       -10.3204
  65   2.0000      -0.370264       -10.0754
  66   2.0000      -0.366135        -9.9630
  67   2.0000      -0.359856        -9.7922
  68   2.0000      -0.351004        -9.5513
  69   2.0000      -0.344017        -9.3612
  70   2.0000      -0.339321        -9.2334
  71   2.0000      -0.335395        -9.1266
  72   2.0000      -0.329711        -8.9719
  73   2.0000      -0.311233        -8.4691
  74   2.0000      -0.302751        -8.2383
  75   2.0000      -0.299709        -8.1555
  76   2.0000      -0.289252        -7.8709
  77   2.0000      -0.282357        -7.6833
  78   2.0000      -0.274454        -7.4683
  79   2.0000      -0.267070        -7.2673
  80   2.0000      -0.256600        -6.9824
  81   2.0000      -0.242465        -6.5978
  82   2.0000      -0.238918        -6.5013
  83   2.0000      -0.232351        -6.3226
  84   2.0000      -0.211016        -5.7420
  85   2.0000      -0.191282        -5.2050
  86   2.0000      -0.182733        -4.9724
  87   0.0000      -0.046154        -1.2559
  88   0.0000      -0.031371        -0.8537
  89   0.0000      -0.024114        -0.6562
  90   0.0000       0.014248         0.3877
  91   0.0000       0.031277         0.8511

MULLIKEN ATOMIC CHARGES
-----------------------
   0 C :   -0.306323
   1 C :   -0.012635
   2 O :   -0.231306
   3 C :    0.136132
   4 O :   -0.194068
   5 C :   -0.125018
   6 C :   -0.318425
   7 H :    0.169443
   8 C :    0.246348
   9 O :   -0.193746
  10 O :   -0.221690
  11 C :   -0.011253
  12 C :   -0.309623
  13 S :   -0.098674
  14 P :    0.629922
  15 S :   -0.356457
  16 O :   -0.373663
  17 C :   -0.100723
  18 O :   -0.367646
  19 C :   -0.083975
  20 H :    0.114092
  21 H :    0.116001
  22 H :    0.128429
  23 H :    0.105305
  24 H :    0.113395
  25 H :    0.137950
  26 H :    0.117951
  27 H :    0.110479
  28 H :    0.119894
  29 H :    0.119906
  30 H :    0.131338
  31 H :    0.117321
  32 H :    0.118104
  33 H :    0.113885
  34 H :    0.113131
  35 H :    0.117246
  36 H :    0.115145
  37 H :    0.113808
Sum of atomic charges:    0.0000000

LOEWDIN ATOMIC CHARGES
----------------------
   0 C :   -0.356158
   1 C :   -0.109964
   2 O :   -0.060601
   3 C :    0.032089
   4 O :   -0.157058
   5 C :   -0.255838
   6 C :   -0.269521
   7 H :    0.151359
   8 C :    0.026468
   9 O :   -0.157421
  10 O :   -0.036919
  11 C :   -0.105072
  12 C :   -0.355633
  13 S :    0.101472
  14 P :    0.588750
  15 S :   -0.342565
  16 O :   -0.258947
  17 C :   -0.222146
  18 O :   -0.238125
  19 C :   -0.207391
  20 H :    0.124824
  21 H :    0.132182
  22 H :    0.131138
  23 H :    0.119087
  24 H :    0.122192
  25 H :    0.154104
  26 H :    0.140059
  27 H :    0.122113
  28 H :    0.125784
  29 H :    0.134469
  30 H :    0.131843
  31 H :    0.126582
  32 H :    0.118533
  33 H :    0.105394
  34 H :    0.108489
  35 H :    0.116179
  36 H :    0.108623
  37 H :    0.111628

  Mayer bond orders larger than 0.100000
B(  0-C ,  1-C ) :   1.1743 B(  0-C , 20-H ) :   0.9488 B(  0-C , 21-H ) :   0.9440
B(  0-C , 22-H ) :   0.9460 B(  1-C ,  2-O ) :   0.9131 B(  1-C , 23-H ) :   0.9371
B(  1-C , 24-H ) :   0.9146 B(  2-O ,  3-C ) :   1.2411 B(  3-C ,  4-O ) :   2.0413
B(  3-C ,  5-C ) :   0.9949 B(  5-C ,  6-C ) :   1.0900 B(  5-C , 25-H ) :   0.8708
B(  5-C , 26-H ) :   0.9005 B(  6-C ,  7-H ) :   0.8219 B(  6-C ,  8-C ) :   0.9077
B(  6-C , 13-S ) :   1.0257 B(  8-C ,  9-O ) :   1.9506 B(  8-C , 10-O ) :   1.2797
B( 10-O , 11-C ) :   0.8989 B( 11-C , 12-C ) :   1.1746 B( 11-C , 27-H ) :   0.9363
B( 11-C , 28-H ) :   0.9158 B( 12-C , 29-H ) :   0.9430 B( 12-C , 30-H ) :   0.9451
B( 12-C , 31-H ) :   0.9478 B( 13-S , 14-P ) :   0.9351 B( 13-S , 15-S ) :   0.1160
B( 14-P , 15-S ) :   1.5723 B( 14-P , 16-O ) :   1.0888 B( 14-P , 18-O ) :   1.1400
B( 16-O , 17-C ) :   0.9447 B( 17-C , 32-H ) :   0.9593 B( 17-C , 33-H ) :   0.9403
B( 17-C , 34-H ) :   0.9371 B( 18-O , 19-C ) :   0.9276 B( 19-C , 35-H ) :   0.9546
B( 19-C , 36-H ) :   0.9334 B( 19-C , 37-H ) :   0.9543

Dispersion correction           -0.049697179
FINAL SINGLE POINT ENERGY     -1979.017001996832

DIPOLE MOMENT
-------------

Method             : SCF
Type of density    : Electron Density
Multiplicity       :   1
Irrep              :   0
Energy             : -1979.1490939950504071 Eh
Relativity type    :
Basis              : AO
                                X                 Y                 Z
Electronic contribution:    -16.072884289      -1.390878001       0.835505479
Nuclear contribution   :     18.044780592       1.847245739      -0.270633179
                        -----------------------------------------
Total Dipole Moment    :      1.971896303       0.456367739       0.564872300
                        -----------------------------------------
Magnitude (a.u.)       :      2.101363191
Magnitude (Debye)      :      5.341240756

Rotational constants in cm-1:             0.011698             0.006654             0.004808
Rotational constants in MHz :           350.690096           199.487655           144.149481

                             ****ORCA TERMINATED NORMALLY****
TOTAL RUN TIME: 0 days 0 hours 0 minutes 36 seconds 135 msec
