                         Program Version 6.0.1  -  RELEASE   -
|  1> ! r2scan-3c def2/J RI DEFGRID2 scfconv6 printgap
|  2> %output
|  3>     printlevel normal
|  4> end
|  5> * xyz 0 1
|  6> C 2.5285339902 -2.7942641496 0.7019557859
|  7> C 3.2664132857 -1.8448697701 -0.2261294474
|  8> O 2.3193346176 -0.9295228106 -0.8118356108
|  9> C 2.2035456385 -0.8664227509 -2.1254715665
| 10> O 2.8998292946 -1.4776963601 -2.9052900373
| 11> C 1.0973423532 0.072209925 -2.5621345406
| 12> C 0.2153400413 0.5354608782 -1.4118046975
| 13> H -0.5517445877 1.2259357062 -1.7838108966
| 14> C 1.0253752286 1.2973519788 -0.376973009
| 15> O 1.9042837315 2.0699682776 -0.6813973661
| 16> O 0.6164588602 1.0626291116 0.8517247255
| 17> C 1.2532636355 1.7669208905 1.9361832732
| 18> C 2.4809183118 1.0170551488 2.4228200191
| 19> S -0.6638746943 -0.8757669111 -0.6607987311
| 20> P -2.0074817665 0.2192984156 0.5723861436
| 21> S -2.3500460569 2.0824009988 0.0712074874
| 22> O -3.3121477016 -0.7127743892 0.5369554224
| 23> C -4.1020645097 -0.8390097806 -0.6493271401
| 24> O -1.5921457167 0.0387379457 2.0851657142
| 25> C -1.3544713201 -1.2629074537 2.6571232692
| 26> H 2.0084147315 -2.2312917939 1.4716011435
| 27> H 1.8012613282 -3.3759698391 0.1417356209
| 28> H 3.2422788484 -3.464717111 1.1686906965
| 29> H 3.7733574624 -2.3796764917 -1.0340403928
| 30> H 3.9899011849 -1.23550693 0.3206683997
| 31> H 0.5091209477 -0.4331331247 -3.3287711602
| 32> H 1.5722165716 0.9457897365 -3.0168300551
| 33> H 1.5178087584 2.7678638337 1.5838506241
| 34> H 0.4822721585 1.8300134097 2.7053311432
| 35> H 2.2116585797 0.0110764888 2.7316722027
| 36> H 3.2191417147 0.9621263283 1.6262495196
| 37> H 2.9099569453 1.5481222055 3.2660045235
| 38> H -3.5606058635 -1.4203212535 -1.395524312
| 39> H -4.3423839155 0.1481718877 -1.0474388368
| 40> H -5.0086870758 -1.3555252842 -0.3448189538
| 41> H -0.6655486724 -1.8262731344 2.0273855534
| 42> H -2.2950861261 -1.8018107342 2.7515341375
| 43> H -0.9191632335 -1.0715548285 3.6345265669
| 44> *
| 45>
| 46>                          ****END OF INPUT****

CARTESIAN COORDINATES (ANGSTROEM)
---------------------------------
  C      2.528534   -2.794264    0.701956
  C      3.266413   -1.844870   -0.226129
  O      2.319335   -0.929523   -0.811836
  C      2.203546   -0.866423   -2.125472
  O      2.899829   -1.477696   -2.905290
  C      1.097342    0.072210   -2.562135
  C      0.215340    0.535461   -1.411805
  H     -0.551745    1.225936   -1.783811
  C      1.025375    1.297352   -0.376973
  O      1.904284    2.069968   -0.681397
  O      0.616459    1.062629    0.851725
  C      1.253264    1.766921    1.936183
  C      2.480918    1.017055    2.422820
  S     -0.663875   -0.875767   -0.660799
  P     -2.007482    0.219298    0.572386
  S     -2.350046    2.082401    0.071207
  O     -3.312148   -0.712774    0.536955
  C     -4.102065   -0.839010   -0.649327
  O     -1.592146    0.038738    2.085166
  C     -1.354471   -1.262907    2.657123
  H      2.008415   -2.231292    1.471601
  H      1.801261   -3.375970    0.141736
  H      3.242279   -3.464717    1.168691
  H      3.773357   -2.379676   -1.034040
  H      3.989901   -1.235507    0.320668
  H      0.509121   -0.433133   -3.328771
  H      1.572217    0.945790   -3.016830
  H      1.517809    2.767864    1.583851
  H      0.482272    1.830013    2.705331
  H      2.211659    0.011076    2.731672
  H      3.219142    0.962126    1.626250
  H      2.909957    1.548122    3.266005
  H     -3.560606   -1.420321   -1.395524
  H     -4.342384    0.148172   -1.047439
  H     -5.008687   -1.355525   -0.344819
  H     -0.665549   -1.826273    2.027386
  H     -2.295086   -1.801811    2.751534
  H     -0.919163   -1.071555    3.634527

 Total Charge           Charge          ....    0
 Multiplicity           Mult            ....    1
 Number of Electrons    NEL             ....  174
 Basis Dimension        Dim             ....  510

ORBITAL ENERGIES
----------------

  NO   OCC          E(Eh)            E(eV)
   0   2.0000     -88.577917     -2410.3277
   1   2.0000     -88.520893     -2408.7760
   2   2.0000     -76.917486     -2093.0312
   3   2.0000     -19.009797      -517.2829
   4   2.0000     -19.004722      -517.1448
   5   2.0000     -18.999494      -517.0025
   6   2.0000     -18.993794      -516.8474
   7   2.0000     -18.937863      -515.3255
   8   2.0000     -18.935802      -515.2694
   9   2.0000     -10.165333      -276.6128
  10   2.0000     -10.165161      -276.6081
  11   2.0000     -10.104733      -274.9638
  12   2.0000     -10.100271      -274.8423
  13   2.0000     -10.097336      -274.7625
  14   2.0000     -10.096057      -274.7277
  15   2.0000     -10.093648      -274.6621
  16   2.0000     -10.065861      -273.9060
  17   2.0000     -10.040085      -273.2046
  18   2.0000     -10.036949      -273.1193
  19   2.0000      -7.872235      -214.2144
  20   2.0000      -7.815549      -212.6719
  21   2.0000      -6.595668      -179.4772
  22   2.0000      -5.819058      -158.3446
  23   2.0000      -5.816159      -158.2657
  24   2.0000      -5.809337      -158.0801
  25   2.0000      -5.763456      -156.8316
  26   2.0000      -5.755778      -156.6227
  27   2.0000      -5.755363      -156.6114
  28   2.0000      -4.741411      -129.0204
  29   2.0000      -4.740738      -129.0020
  30   2.0000      -4.739109      -128.9577
  31   2.0000      -1.087289       -29.5866
  32   2.0000      -1.081911       -29.4403
  33   2.0000      -1.055252       -28.7149
  34   2.0000      -1.012606       -27.5544
  35   2.0000      -0.988855       -26.9081
  36   2.0000      -0.986583       -26.8463
  37   2.0000      -0.816575       -22.2201
  38   2.0000      -0.761157       -20.7121
  39   2.0000      -0.747015       -20.3273
  40   2.0000      -0.737685       -20.0734
  41   2.0000      -0.702531       -19.1169
  42   2.0000      -0.680092       -18.5063
  43   2.0000      -0.662400       -18.0248
  44   2.0000      -0.653252       -17.7759
  45   2.0000      -0.636040       -17.3075
  46   2.0000      -0.606651       -16.5078
  47   2.0000      -0.545604       -14.8466
  48   2.0000      -0.542607       -14.7651
  49   2.0000      -0.528406       -14.3787
  50   2.0000      -0.505949       -13.7676
  51   2.0000      -0.498174       -13.5560
  52   2.0000      -0.489669       -13.3246
  53   2.0000      -0.470825       -12.8118
  54   2.0000      -0.461159       -12.5488
  55   2.0000      -0.456418       -12.4198
  56   2.0000      -0.450281       -12.2528
  57   2.0000      -0.446202       -12.1418
  58   2.0000      -0.437725       -11.9111
  59   2.0000      -0.431523       -11.7423
  60   2.0000      -0.428411       -11.6577
  61   2.0000      -0.423764       -11.5312
  62   2.0000      -0.417691       -11.3660
  63   2.0000      -0.404018       -10.9939
  64   2.0000      -0.398466       -10.8428
  65   2.0000      -0.392003       -10.6669
  66   2.0000      -0.383949       -10.4478
  67   2.0000      -0.375865       -10.2278
  68   2.0000      -0.364924        -9.9301
  69   2.0000      -0.360742        -9.8163
  70   2.0000      -0.351987        -9.5781
  71   2.0000      -0.350899        -9.5485
  72   2.0000      -0.345450        -9.4002
  73   2.0000      -0.335805        -9.1377
  74   2.0000      -0.326562        -8.8862
  75   2.0000      -0.320404        -8.7186
  76   2.0000      -0.317304        -8.6343
  77   2.0000      -0.312247        -8.4967
  78   2.0000      -0.291873        -7.9423
  79   2.0000      -0.286013        -7.7828
  80   2.0000      -0.282113        -7.6767
  81   2.0000      -0.275395        -7.4939
  82   2.0000      -0.261559        -7.1174
  83   2.0000      -0.246563        -6.7093
  84   2.0000      -0.228922        -6.2293
  85   2.0000      -0.219345        -5.9687
  86   2.0000      -0.216318        -5.8863
  87   0.0000      -0.047483        -1.2921
  88   0.0000      -0.021683        -0.5900
  89   0.0000      -0.020161        -0.5486
  90   0.0000       0.001562         0.0425
  91   0.0000       0.012044         0.3277

MULLIKEN ATOMIC CHARGES
-----------------------
   0 C :   -0.464281
   1 C :   -0.160521
   2 O :   -0.095288
   3 C :    0.282158
   4 O :   -0.403669
   5 C :   -0.386755
   6 C :    0.059732
   7 H :    0.254485
   8 C :    0.180815
   9 O :   -0.384655
  10 O :   -0.112905
  11 C :   -0.134162
  12 C :   -0.497171
  13 S :   -0.228540
  14 P :    0.780914
  15 S :   -0.445381
  16 O :   -0.352662
  17 C :   -0.296883
  18 O :   -0.313617
  19 C :   -0.294061
  20 H :    0.151473
  21 H :    0.160434
  22 H :    0.150987
  23 H :    0.194010
  24 H :    0.149786
  25 H :    0.193910
  26 H :    0.207479
  27 H :    0.174028
  28 H :    0.171469
  29 H :    0.149327
  30 H :    0.174667
  31 H :    0.154413
  32 H :    0.158361
  33 H :    0.174925
  34 H :    0.151857
  35 H :    0.167385
  36 H :    0.170339
  37 H :    0.157598
Sum of atomic charges:   -0.0000000

LOEWDIN ATOMIC CHARGES
----------------------
   0 C :   -0.389095
   1 C :    0.037247
   2 O :   -0.612706
   3 C :    0.366343
   4 O :   -0.423168
   5 C :   -0.200972
   6 C :   -0.197301
   7 H :    0.210954
   8 C :    0.349921
   9 O :   -0.414407
  10 O :   -0.623203
  11 C :    0.036891
  12 C :   -0.387928
  13 S :    0.217943
  14 P :    0.400354
  15 S :   -0.088469
  16 O :   -0.685405
  17 C :   -0.060703
  18 O :   -0.649538
  19 C :   -0.053164
  20 H :    0.155635
  21 H :    0.161343
  22 H :    0.160128
  23 H :    0.199209
  24 H :    0.178025
  25 H :    0.192233
  26 H :    0.209620
  27 H :    0.193199
  28 H :    0.186939
  29 H :    0.154055
  30 H :    0.165381
  31 H :    0.160958
  32 H :    0.168843
  33 H :    0.176677
  34 H :    0.177066
  35 H :    0.172729
  36 H :    0.175272
  37 H :    0.179095

  Mayer bond orders larger than 0.100000
B(  0-C ,  1-C ) :   0.9249 B(  0-C , 20-H ) :   0.9743 B(  0-C , 21-H ) :   0.9715
B(  0-C , 22-H ) :   0.9670 B(  1-C ,  2-O ) :   0.7452 B(  1-C , 23-H ) :   0.9604
B(  1-C , 24-H ) :   0.9568 B(  2-O ,  3-C ) :   1.1019 B(  2-O ,  8-C ) :   0.1300
B(  3-C ,  4-O ) :   1.9086 B(  3-C ,  5-C ) :   0.9662 B(  5-C ,  6-C ) :   0.9395
B(  5-C , 25-H ) :   0.9613 B(  5-C , 26-H ) :   0.9159 B(  6-C ,  7-H ) :   0.8952
B(  6-C ,  8-C ) :   0.8479 B(  6-C , 13-S ) :   0.7959 B(  8-C ,  9-O ) :   1.8907
B(  8-C , 10-O ) :   1.1526 B( 10-O , 11-C ) :   0.7695 B( 11-C , 12-C ) :   0.9019
B( 11-C , 27-H ) :   0.9614 B( 11-C , 28-H ) :   0.9627 B( 12-C , 29-H ) :   0.9782
B( 12-C , 30-H ) :   0.9712 B( 12-C , 31-H ) :   0.9673 B( 13-S , 14-P ) :   0.9802
B( 14-P , 15-S ) :   1.8041 B( 14-P , 16-O ) :   1.0245 B( 14-P , 18-O ) :   1.1483
B( 16-O , 17-C ) :   0.8322 B( 17-C , 32-H ) :   0.9564 B( 17-C , 33-H ) :   0.9590
B( 17-C , 34-H ) :   0.9674 B( 18-O , 19-C ) :   0.7909 B( 19-C , 35-H ) :   0.9579
B( 19-C , 36-H ) :   0.9597 B( 19-C , 37-H ) :   0.9658

Dispersion correction           -0.018681671
FINAL SINGLE POINT ENERGY     -1981.452661528669

DIPOLE MOMENT
-------------

Method             : SCF
Type of density    : Electron Density
Multiplicity       :   1
Irrep              :   0
Energy             : -1981.4717386955526308 Eh
Relativity type    :
Basis              : AO
                                X                 Y                 Z
Electronic contribution:    -11.399224204       9.245465370      -8.915323928
Nuclear contribution   :     11.205369041     -10.696992940      10.260287892
                        -----------------------------------------
Total Dipole Moment    :     -0.193855163      -1.451527570       1.344963964
                        -----------------------------------------
Magnitude (a.u.)       :      1.988325973
Magnitude (Debye)      :      5.053922982

Rotational constants in cm-1:             0.013785             0.007574             0.007136
Rotational constants in MHz :           413.266297           227.048725           213.927340

                             ****ORCA TERMINATED NORMALLY****
TOTAL RUN TIME: 0 days 0 hours 1 minutes 28 seconds 749 msec
