                         Program Version 6.0.1  -  RELEASE   -
|  1> ! r2scan-3c def2/J RI DEFGRID2 scfconv6 printgap
|  2> %output
|  3>     printlevel normal
|  4> end
|  5> %cpcm
|  6>     smd true
|  7>     smdsolvent "water"
|  8> end
|  9> * xyz 0 1
| 10> C 2.5285339902 -2.7942641496 0.7019557859
| 11> C 3.2664132857 -1.8448697701 -0.2261294474
| 12> O 2.3193346176 -0.9295228106 -0.8118356108
| 13> C 2.2035456385 -0.8664227509 -2.1254715665
| 14> O 2.8998292946 -1.4776963601 -2.9052900373
| 15> C 1.0973423532 0.072209925 -2.5621345406
| 16> C 0.2153400413 0.5354608782 -1.4118046975
| 17> H -0.5517445877 1.2259357062 -1.7838108966
| 18> C 1.0253752286 1.2973519788 -0.376973009
| 19> O 1.9042837315 2.0699682776 -0.6813973661
| 20> O 0.6164588602 1.0626291116 0.8517247255
| 21> C 1.2532636355 1.7669208905 1.9361832732
| 22> C 2.4809183118 1.0170551488 2.4228200191
| 23> S -0.6638746943 -0.8757669111 -0.6607987311
| 24> P -2.0074817665 0.2192984156 0.5723861436
| 25> S -2.3500460569 2.0824009988 0.0712074874
| 26> O -3.3121477016 -0.7127743892 0.5369554224
| 27> C -4.1020645097 -0.8390097806 -0.6493271401
| 28> O -1.5921457167 0.0387379457 2.0851657142
| 29> C -1.3544713201 -1.2629074537 2.6571232692
| 30> H 2.0084147315 -2.2312917939 1.4716011435
| 31> H 1.8012613282 -3.3759698391 0.1417356209
| 32> H 3.2422788484 -3.464717111 1.1686906965
| 33> H 3.7733574624 -2.3796764917 -1.0340403928
| 34> H 3.9899011849 -1.23550693 0.3206683997
| 35> H 0.5091209477 -0.4331331247 -3.3287711602
| 36> H 1.5722165716 0.9457897365 -3.0168300551
| 37> H 1.5178087584 2.7678638337 1.5838506241
| 38> H 0.4822721585 1.8300134097 2.7053311432
| 39> H 2.2116585797 0.0110764888 2.7316722027
| 40> H 3.2191417147 0.9621263283 1.6262495196
| 41> H 2.9099569453 1.5481222055 3.2660045235
| 42> H -3.5606058635 -1.4203212535 -1.395524312
| 43> H -4.3423839155 0.1481718877 -1.0474388368
| 44> H -5.0086870758 -1.3555252842 -0.3448189538
| 45> H -0.6655486724 -1.8262731344 2.0273855534
| 46> H -2.2950861261 -1.8018107342 2.7515341375
| 47> H -0.9191632335 -1.0715548285 3.6345265669
| 48> *
| 49>
| 50>                          ****END OF INPUT****

CARTESIAN COORDINATES (ANGSTROEM)
---------------------------------
  C      2.528534   -2.794264    0.701956
  C      3.266413   -1.844870   -0.226129
  O      2.319335   -0.929523   -0.811836
  C      2.203546   -0.866423   -2.125472
  O      2.899829   -1.477696   -2.905290
  C      1.097342    0.072210   -2.562135
  C      0.215340    0.535461   -1.411805
  H     -0.551745    1.225936   -1.783811
  C      1.025375    1.297352   -0.376973
  O      1.904284    2.069968   -0.681397
  O      0.616459    1.062629    0.851725
  C      1.253264    1.766921    1.936183
  C      2.480918    1.017055    2.422820
  S     -0.663875   -0.875767   -0.660799
  P     -2.007482    0.219298    0.572386
  S     -2.350046    2.082401    0.071207
  O     -3.312148   -0.712774    0.536955
  C     -4.102065   -0.839010   -0.649327
  O     -1.592146    0.038738    2.085166
  C     -1.354471   -1.262907    2.657123
  H      2.008415   -2.231292    1.471601
  H      1.801261   -3.375970    0.141736
  H      3.242279   -3.464717    1.168691
  H      3.773357   -2.379676   -1.034040
  H      3.989901   -1.235507    0.320668
  H      0.509121   -0.433133   -3.328771
  H      1.572217    0.945790   -3.016830
  H      1.517809    2.767864    1.583851
  H      0.482272    1.830013    2.705331
  H      2.211659    0.011076    2.731672
  H      3.219142    0.962126    1.626250
  H      2.909957    1.548122    3.266005
  H     -3.560606   -1.420321   -1.395524
  H     -4.342384    0.148172   -1.047439
  H     -5.008687   -1.355525   -0.344819
  H     -0.665549   -1.826273    2.027386
  H     -2.295086   -1.801811    2.751534
  H     -0.919163   -1.071555    3.634527

 Total Charge           Charge          ....    0
 Multiplicity           Mult            ....    1
 Number of Electrons    NEL             ....  174
 Basis Dimension        Dim             ....  510

ORBITAL ENERGIES
----------------

  NO   OCC          E(Eh)            E(eV)
   0   2.0000     -88.577285     -2410.3105
   1   2.0000     -88.528375     -2408.9796
   2   2.0000     -76.919999     -2093.0996
   3   2.0000     -19.010964      -517.3146
   4   2.0000     -19.008688      -517.2527
   5   2.0000     -18.997137      -516.9384
   6   2.0000     -18.993100      -516.8285
   7   2.0000     -18.950734      -515.6757
   8   2.0000     -18.947800      -515.5959
   9   2.0000     -10.174559      -276.8638
  10   2.0000     -10.172986      -276.8210
  11   2.0000     -10.096290      -274.7340
  12   2.0000     -10.087167      -274.4858
  13   2.0000     -10.086312      -274.4625
  14   2.0000     -10.085116      -274.4300
  15   2.0000     -10.080876      -274.3146
  16   2.0000     -10.060745      -273.7668
  17   2.0000     -10.020147      -272.6621
  18   2.0000     -10.019585      -272.6468
  19   2.0000      -7.871528      -214.1952
  20   2.0000      -7.823419      -212.8861
  21   2.0000      -6.598246      -179.5474
  22   2.0000      -5.818418      -158.3272
  23   2.0000      -5.815504      -158.2479
  24   2.0000      -5.808517      -158.0578
  25   2.0000      -5.771181      -157.0418
  26   2.0000      -5.763686      -156.8379
  27   2.0000      -5.763267      -156.8265
  28   2.0000      -4.743938      -129.0891
  29   2.0000      -4.743264      -129.0708
  30   2.0000      -4.741832      -129.0318
  31   2.0000      -1.091691       -29.7064
  32   2.0000      -1.086072       -29.5535
  33   2.0000      -1.053393       -28.6643
  34   2.0000      -1.010316       -27.4921
  35   2.0000      -0.999768       -27.2051
  36   2.0000      -0.996464       -27.1152
  37   2.0000      -0.815064       -22.1790
  38   2.0000      -0.753226       -20.4963
  39   2.0000      -0.738623       -20.0990
  40   2.0000      -0.730884       -19.8884
  41   2.0000      -0.696050       -18.9405
  42   2.0000      -0.669748       -18.2248
  43   2.0000      -0.659686       -17.9510
  44   2.0000      -0.651072       -17.7166
  45   2.0000      -0.625854       -17.0303
  46   2.0000      -0.600439       -16.3388
  47   2.0000      -0.540413       -14.7054
  48   2.0000      -0.534455       -14.5433
  49   2.0000      -0.524463       -14.2714
  50   2.0000      -0.504557       -13.7297
  51   2.0000      -0.491736       -13.3808
  52   2.0000      -0.487538       -13.2666
  53   2.0000      -0.470387       -12.7999
  54   2.0000      -0.460567       -12.5327
  55   2.0000      -0.458600       -12.4791
  56   2.0000      -0.448816       -12.2129
  57   2.0000      -0.443333       -12.0637
  58   2.0000      -0.438155       -11.9228
  59   2.0000      -0.426904       -11.6166
  60   2.0000      -0.422982       -11.5099
  61   2.0000      -0.413018       -11.2388
  62   2.0000      -0.410730       -11.1765
  63   2.0000      -0.398394       -10.8408
  64   2.0000      -0.389708       -10.6045
  65   2.0000      -0.387228       -10.5370
  66   2.0000      -0.374264       -10.1842
  67   2.0000      -0.364430        -9.9167
  68   2.0000      -0.358941        -9.7673
  69   2.0000      -0.353895        -9.6300
  70   2.0000      -0.349377        -9.5070
  71   2.0000      -0.344863        -9.3842
  72   2.0000      -0.338564        -9.2128
  73   2.0000      -0.330005        -8.9799
  74   2.0000      -0.319707        -8.6997
  75   2.0000      -0.315146        -8.5756
  76   2.0000      -0.312060        -8.4916
  77   2.0000      -0.306450        -8.3389
  78   2.0000      -0.289254        -7.8710
  79   2.0000      -0.287503        -7.8234
  80   2.0000      -0.282419        -7.6850
  81   2.0000      -0.277530        -7.5520
  82   2.0000      -0.269329        -7.3288
  83   2.0000      -0.259177        -7.0526
  84   2.0000      -0.235602        -6.4111
  85   2.0000      -0.227244        -6.1836
  86   2.0000      -0.222960        -6.0671
  87   0.0000      -0.049571        -1.3489
  88   0.0000      -0.028439        -0.7739
  89   0.0000      -0.025406        -0.6913
  90   0.0000       0.003777         0.1028
  91   0.0000       0.011228         0.3055

MULLIKEN ATOMIC CHARGES
-----------------------
   0 C :   -0.506160
   1 C :   -0.147378
   2 O :   -0.108006
   3 C :    0.323858
   4 O :   -0.480042
   5 C :   -0.438283
   6 C :    0.075873
   7 H :    0.278311
   8 C :    0.182584
   9 O :   -0.446565
  10 O :   -0.124996
  11 C :   -0.132860
  12 C :   -0.523786
  13 S :   -0.213388
  14 P :    0.801221
  15 S :   -0.508275
  16 O :   -0.380434
  17 C :   -0.307872
  18 O :   -0.349015
  19 C :   -0.298592
  20 H :    0.171227
  21 H :    0.168719
  22 H :    0.171660
  23 H :    0.186640
  24 H :    0.177261
  25 H :    0.226748
  26 H :    0.234213
  27 H :    0.177422
  28 H :    0.183416
  29 H :    0.174491
  30 H :    0.175819
  31 H :    0.175704
  32 H :    0.174819
  33 H :    0.176312
  34 H :    0.178926
  35 H :    0.180715
  36 H :    0.184039
  37 H :    0.185673
Sum of atomic charges:   -0.0000000

LOEWDIN ATOMIC CHARGES
----------------------
   0 C :   -0.390244
   1 C :    0.043623
   2 O :   -0.609151
   3 C :    0.373221
   4 O :   -0.480626
   5 C :   -0.196430
   6 C :   -0.192169
   7 H :    0.218892
   8 C :    0.352248
   9 O :   -0.463372
  10 O :   -0.624720
  11 C :    0.040104
  12 C :   -0.388121
  13 S :    0.233395
  14 P :    0.402484
  15 S :   -0.135319
  16 O :   -0.696240
  17 C :   -0.056621
  18 O :   -0.667858
  19 C :   -0.043662
  20 H :    0.161893
  21 H :    0.162733
  22 H :    0.168386
  23 H :    0.197719
  24 H :    0.189107
  25 H :    0.205169
  26 H :    0.217245
  27 H :    0.193341
  28 H :    0.193029
  29 H :    0.163723
  30 H :    0.164964
  31 H :    0.169164
  32 H :    0.175819
  33 H :    0.177123
  34 H :    0.188373
  35 H :    0.179671
  36 H :    0.181562
  37 H :    0.191541

  Mayer bond orders larger than 0.100000
B(  0-C ,  1-C ) :   0.9170 B(  0-C , 20-H ) :   0.9696 B(  0-C , 21-H ) :   0.9699
B(  0-C , 22-H ) :   0.9612 B(  1-C ,  2-O ) :   0.7356 B(  1-C , 23-H ) :   0.9555
B(  1-C , 24-H ) :   0.9468 B(  2-O ,  3-C ) :   1.1350 B(  2-O ,  8-C ) :   0.1276
B(  3-C ,  4-O ) :   1.8452 B(  3-C ,  5-C ) :   0.9470 B(  5-C ,  6-C ) :   0.9246
B(  5-C , 25-H ) :   0.9483 B(  5-C , 26-H ) :   0.9201 B(  6-C ,  7-H ) :   0.8839
B(  6-C ,  8-C ) :   0.8451 B(  6-C , 13-S ) :   0.7947 B(  8-C ,  9-O ) :   1.8356
B(  8-C , 10-O ) :   1.1697 B( 10-O , 11-C ) :   0.7553 B( 11-C , 12-C ) :   0.9028
B( 11-C , 27-H ) :   0.9570 B( 11-C , 28-H ) :   0.9528 B( 12-C , 29-H ) :   0.9708
B( 12-C , 30-H ) :   0.9669 B( 12-C , 31-H ) :   0.9614 B( 13-S , 14-P ) :   0.9968
B( 14-P , 15-S ) :   1.7720 B( 14-P , 16-O ) :   1.0305 B( 14-P , 18-O ) :   1.1567
B( 16-O , 17-C ) :   0.8249 B( 17-C , 32-H ) :   0.9503 B( 17-C , 33-H ) :   0.9556
B( 17-C , 34-H ) :   0.9574 B( 18-O , 19-C ) :   0.7829 B( 19-C , 35-H ) :   0.9482
B( 19-C , 36-H ) :   0.9517 B( 19-C , 37-H ) :   0.9545

Dispersion correction           -0.018681671
FINAL SINGLE POINT ENERGY     -1981.468208295369

DIPOLE MOMENT
-------------

Method             : SCF
Type of density    : Electron Density
Multiplicity       :   1
Irrep              :   0
Energy             : -1981.4872854622522027 Eh
Relativity type    :
Basis              : AO
                                X                 Y                 Z
Electronic contribution:    -11.508723372       8.571073807      -8.476939554
Nuclear contribution   :     11.205369041     -10.696992940      10.260287892
                        -----------------------------------------
Total Dipole Moment    :     -0.303354332      -2.125919133       1.783348338
                        -----------------------------------------
Magnitude (a.u.)       :      2.791395226
Magnitude (Debye)      :      7.095162802

Rotational constants in cm-1:             0.013785             0.007574             0.007136
Rotational constants in MHz :           413.266297           227.048725           213.927340

                             ****ORCA TERMINATED NORMALLY****
TOTAL RUN TIME: 0 days 0 hours 2 minutes 0 seconds 157 msec
