                         Program Version 6.0.0  -   RELEASE  -
|  1> ! pbe def2-sv(p) def2/J RI DEFGRID1 loosescf d4 GCP(DFT/SV(P)) printgap
|  2> %output
|  3>     printlevel normal
|  4> end
|  5> * xyz 0 1
|  6> C 5.4834178815 -0.1087912015 -0.2188008767
|  7> C 4.295081101 -1.0331132259 -0.0517956055
|  8> O 3.2566578407 -0.716140958 -1.0144837079
|  9> P 2.0335702087 0.2287444235 -0.7117538087
| 10> S 1.0008347811 0.5442838004 -2.3426968337
| 11> O 2.7138151111 1.5096334987 -0.0709526169
| 12> C 1.9871494088 2.6975669887 0.3005309626
| 13> C 1.7011213306 2.7033952459 1.7885880049
| 14> S 1.0877200284 -0.7038171893 0.9665883204
| 15> C 0.464625875 -2.1835559931 0.1457950324
| 16> S -0.969528241 -1.9107249861 -0.9599032714
| 17> P -2.0418532019 -0.4531754473 0.1300401272
| 18> S -1.5061850265 1.4379476139 0.1634778838
| 19> O -2.1341124146 -1.2140550868 1.5115129545
| 20> C -2.6682477396 -0.5966556398 2.7089029315
| 21> C -1.564662633 0.0395482167 3.5294485994
| 22> O -3.500607024 -0.6488449029 -0.4773373423
| 23> C -4.0858453494 0.2193012507 -1.4662673951
| 24> C -5.1187178135 1.1207659766 -0.8175273873
| 25> H 6.2709268451 -0.4175325287 0.4615678908
| 26> H 5.8514203898 -0.1567434125 -1.2400645782
| 27> H 5.1983636498 0.9161445674 0.0014838468
| 28> H 3.8776872451 -0.9644934706 0.9562808996
| 29> H 4.5642451076 -2.0671116114 -0.2752378497
| 30> H 2.6409295293 3.5242096488 0.0168906802
| 31> H 1.0609903423 2.752871268 -0.2800542747
| 32> H 1.0490990613 1.8723975701 2.048627527
| 33> H 2.6264879295 2.616486197 2.3501965555
| 34> H 1.2027220217 3.631685367 2.0476684461
| 35> H 0.1656992426 -2.8669747236 0.9370798912
| 36> H 1.2408542714 -2.6181032378 -0.4822174918
| 37> H -3.4236293976 0.140659115 2.4258405494
| 38> H -3.1413010423 -1.4225347048 3.2424654618
| 39> H -0.7785189496 -0.6837494269 3.7274509704
| 40> H -1.1365283217 0.8815484069 2.9906796274
| 41> H -1.9777542006 0.3937858327 4.4682514757
| 42> H -3.299390623 0.8115312302 -1.943973463
| 43> H -4.5374998465 -0.4467866809 -2.203442861
| 44> H -5.6096930586 1.7103667757 -1.5848757531
| 45> H -5.8577143716 0.5224922491 -0.2919555158
| 46> H -4.6335879387 1.7917195231 -0.1111890144
| 47> *
| 48>
| 49>                          ****END OF INPUT****

CARTESIAN COORDINATES (ANGSTROEM)
---------------------------------
  C      5.483418   -0.108791   -0.218801
  C      4.295081   -1.033113   -0.051796
  O      3.256658   -0.716141   -1.014484
  P      2.033570    0.228744   -0.711754
  S      1.000835    0.544284   -2.342697
  O      2.713815    1.509633   -0.070953
  C      1.987149    2.697567    0.300531
  C      1.701121    2.703395    1.788588
  S      1.087720   -0.703817    0.966588
  C      0.464626   -2.183556    0.145795
  S     -0.969528   -1.910725   -0.959903
  P     -2.041853   -0.453175    0.130040
  S     -1.506185    1.437948    0.163478
  O     -2.134112   -1.214055    1.511513
  C     -2.668248   -0.596656    2.708903
  C     -1.564663    0.039548    3.529449
  O     -3.500607   -0.648845   -0.477337
  C     -4.085845    0.219301   -1.466267
  C     -5.118718    1.120766   -0.817527
  H      6.270927   -0.417533    0.461568
  H      5.851420   -0.156743   -1.240065
  H      5.198364    0.916145    0.001484
  H      3.877687   -0.964493    0.956281
  H      4.564245   -2.067112   -0.275238
  H      2.640930    3.524210    0.016891
  H      1.060990    2.752871   -0.280054
  H      1.049099    1.872398    2.048628
  H      2.626488    2.616486    2.350197
  H      1.202722    3.631685    2.047668
  H      0.165699   -2.866975    0.937080
  H      1.240854   -2.618103   -0.482217
  H     -3.423629    0.140659    2.425841
  H     -3.141301   -1.422535    3.242465
  H     -0.778519   -0.683749    3.727451
  H     -1.136528    0.881548    2.990680
  H     -1.977754    0.393786    4.468251
  H     -3.299391    0.811531   -1.943973
  H     -4.537500   -0.446787   -2.203443
  H     -5.609693    1.710367   -1.584876
  H     -5.857714    0.522492   -0.291956
  H     -4.633588    1.791720   -0.111189

 Total Charge           Charge          ....    0
 Multiplicity           Mult            ....    1
 Number of Electrons    NEL             ....  202
 Basis Dimension        Dim             ....  334

ORBITAL ENERGIES
----------------

  NO   OCC          E(Eh)            E(eV)
   0   2.0000     -88.042900     -2395.7691
   1   2.0000     -88.031624     -2395.4623
   2   2.0000     -87.980497     -2394.0710
   3   2.0000     -87.971350     -2393.8221
   4   2.0000     -76.423160     -2079.5799
   5   2.0000     -76.420466     -2079.5066
   6   2.0000     -18.791592      -511.3452
   7   2.0000     -18.790534      -511.3164
   8   2.0000     -18.789737      -511.2947
   9   2.0000     -18.785539      -511.1805
  10   2.0000      -9.958393      -270.9817
  11   2.0000      -9.955227      -270.8955
  12   2.0000      -9.954465      -270.8748
  13   2.0000      -9.948377      -270.7091
  14   2.0000      -9.946596      -270.6606
  15   2.0000      -9.884709      -268.9766
  16   2.0000      -9.882620      -268.9198
  17   2.0000      -9.882392      -268.9136
  18   2.0000      -9.879314      -268.8298
  19   2.0000      -7.686954      -209.1726
  20   2.0000      -7.677186      -208.9069
  21   2.0000      -7.625339      -207.4960
  22   2.0000      -7.616605      -207.2584
  23   2.0000      -6.420294      -174.7051
  24   2.0000      -6.417824      -174.6379
  25   2.0000      -5.714751      -155.5063
  26   2.0000      -5.711424      -155.4157
  27   2.0000      -5.705426      -155.2525
  28   2.0000      -5.704109      -155.2167
  29   2.0000      -5.701848      -155.1552
  30   2.0000      -5.693529      -154.9288
  31   2.0000      -5.654179      -153.8580
  32   2.0000      -5.646045      -153.6367
  33   2.0000      -5.645879      -153.6322
  34   2.0000      -5.645468      -153.6210
  35   2.0000      -5.637110      -153.3936
  36   2.0000      -5.636517      -153.3774
  37   2.0000      -4.643111      -126.3455
  38   2.0000      -4.641998      -126.3152
  39   2.0000      -4.640858      -126.2842
  40   2.0000      -4.640684      -126.2794
  41   2.0000      -4.639727      -126.2534
  42   2.0000      -4.637706      -126.1984
  43   2.0000      -0.986034       -26.8314
  44   2.0000      -0.982496       -26.7351
  45   2.0000      -0.943537       -25.6750
  46   2.0000      -0.941552       -25.6209
  47   2.0000      -0.760241       -20.6872
  48   2.0000      -0.718010       -19.5380
  49   2.0000      -0.708354       -19.2753
  50   2.0000      -0.688914       -18.7463
  51   2.0000      -0.684184       -18.6176
  52   2.0000      -0.665983       -18.1223
  53   2.0000      -0.648501       -17.6466
  54   2.0000      -0.632378       -17.2079
  55   2.0000      -0.591740       -16.1021
  56   2.0000      -0.584078       -15.8936
  57   2.0000      -0.572995       -15.5920
  58   2.0000      -0.570608       -15.5270
  59   2.0000      -0.560145       -15.2423
  60   2.0000      -0.503090       -13.6898
  61   2.0000      -0.498262       -13.5584
  62   2.0000      -0.478270       -13.0144
  63   2.0000      -0.474258       -12.9052
  64   2.0000      -0.456842       -12.4313
  65   2.0000      -0.443896       -12.0790
  66   2.0000      -0.436909       -11.8889
  67   2.0000      -0.428965       -11.6727
  68   2.0000      -0.427976       -11.6458
  69   2.0000      -0.411173       -11.1886
  70   2.0000      -0.403247       -10.9729
  71   2.0000      -0.392958       -10.6929
  72   2.0000      -0.389350       -10.5948
  73   2.0000      -0.383991       -10.4489
  74   2.0000      -0.380307       -10.3487
  75   2.0000      -0.371042       -10.0966
  76   2.0000      -0.363204        -9.8833
  77   2.0000      -0.358380        -9.7520
  78   2.0000      -0.353293        -9.6136
  79   2.0000      -0.350349        -9.5335
  80   2.0000      -0.347301        -9.4505
  81   2.0000      -0.346225        -9.4213
  82   2.0000      -0.344812        -9.3828
  83   2.0000      -0.334631        -9.1058
  84   2.0000      -0.326091        -8.8734
  85   2.0000      -0.319108        -8.6834
  86   2.0000      -0.307397        -8.3647
  87   2.0000      -0.294705        -8.0193
  88   2.0000      -0.292011        -7.9460
  89   2.0000      -0.287943        -7.8353
  90   2.0000      -0.283139        -7.7046
  91   2.0000      -0.278152        -7.5689
  92   2.0000      -0.269585        -7.3358
  93   2.0000      -0.257198        -6.9987
  94   2.0000      -0.256483        -6.9793
  95   2.0000      -0.244379        -6.6499
  96   2.0000      -0.219821        -5.9816
  97   2.0000      -0.204352        -5.5607
  98   2.0000      -0.189010        -5.1432
  99   2.0000      -0.179792        -4.8924
 100   2.0000      -0.176951        -4.8151
 101   0.0000      -0.048474        -1.3190
 102   0.0000      -0.025450        -0.6925
 103   0.0000      -0.010416        -0.2834
 104   0.0000       0.003314         0.0902
 105   0.0000       0.021198         0.5768

MULLIKEN ATOMIC CHARGES
-----------------------
   0 C :   -0.288371
   1 C :   -0.013684
   2 O :   -0.361110
   3 P :    0.600618
   4 S :   -0.284106
   5 O :   -0.382461
   6 C :   -0.011049
   7 C :   -0.324221
   8 S :   -0.130311
   9 C :   -0.316975
  10 S :   -0.080613
  11 P :    0.630823
  12 S :   -0.332008
  13 O :   -0.375423
  14 C :   -0.002894
  15 C :   -0.311364
  16 O :   -0.379242
  17 C :   -0.006920
  18 C :   -0.292072
  19 H :    0.107315
  20 H :    0.120337
  21 H :    0.123305
  22 H :    0.099130
  23 H :    0.104956
  24 H :    0.105540
  25 H :    0.126314
  26 H :    0.155696
  27 H :    0.107665
  28 H :    0.112451
  29 H :    0.185999
  30 H :    0.181146
  31 H :    0.104423
  32 H :    0.107210
  33 H :    0.111250
  34 H :    0.147050
  35 H :    0.106465
  36 H :    0.114404
  37 H :    0.104255
  38 H :    0.108298
  39 H :    0.109937
  40 H :    0.118235
Sum of atomic charges:   -0.0000000

LOEWDIN ATOMIC CHARGES
----------------------
   0 C :   -0.359177
   1 C :   -0.118253
   2 O :   -0.239301
   3 P :    0.560857
   4 S :   -0.298527
   5 O :   -0.244597
   6 C :   -0.116056
   7 C :   -0.364338
   8 S :    0.078410
   9 C :   -0.470268
  10 S :    0.082807
  11 P :    0.567559
  12 S :   -0.312818
  13 O :   -0.247009
  14 C :   -0.109969
  15 C :   -0.366271
  16 O :   -0.250263
  17 C :   -0.119083
  18 C :   -0.359804
  19 H :    0.128350
  20 H :    0.129049
  21 H :    0.126501
  22 H :    0.101792
  23 H :    0.118292
  24 H :    0.118403
  25 H :    0.112190
  26 H :    0.120871
  27 H :    0.122121
  28 H :    0.132111
  29 H :    0.134639
  30 H :    0.133260
  31 H :    0.111284
  32 H :    0.119333
  33 H :    0.122100
  34 H :    0.124451
  35 H :    0.128217
  36 H :    0.111665
  37 H :    0.116768
  38 H :    0.129133
  39 H :    0.122998
  40 H :    0.122570

  Mayer bond orders larger than 0.100000
B(  0-C ,  1-C ) :   1.1670 B(  0-C , 19-H ) :   0.9398 B(  0-C , 20-H ) :   0.9471
B(  0-C , 21-H ) :   0.9414 B(  1-C ,  2-O ) :   0.8953 B(  1-C , 22-H ) :   0.9088
B(  1-C , 23-H ) :   0.9360 B(  2-O ,  3-P ) :   1.1160 B(  3-P ,  4-S ) :   1.7195
B(  3-P ,  5-O ) :   1.0871 B(  3-P ,  8-S ) :   0.9175 B(  4-S ,  8-S ) :   0.1155
B(  5-O ,  6-C ) :   0.8947 B(  6-C ,  7-C ) :   1.1698 B(  6-C , 24-H ) :   0.9342
B(  6-C , 25-H ) :   0.9023 B(  7-C , 26-H ) :   0.9236 B(  7-C , 27-H ) :   0.9454
B(  7-C , 28-H ) :   0.9404 B(  8-S ,  9-C ) :   1.0093 B(  9-C , 10-S ) :   0.9842
B(  9-C , 29-H ) :   0.9089 B(  9-C , 30-H ) :   0.9044 B( 10-S , 11-P ) :   0.9864
B( 10-S , 12-S ) :   0.1159 B( 11-P , 12-S ) :   1.5819 B( 11-P , 13-O ) :   1.1137
B( 11-P , 16-O ) :   1.1100 B( 13-O , 14-C ) :   0.8931 B( 14-C , 15-C ) :   1.1703
B( 14-C , 31-H ) :   0.9170 B( 14-C , 32-H ) :   0.9353 B( 15-C , 33-H ) :   0.9446
B( 15-C , 34-H ) :   0.9239 B( 15-C , 35-H ) :   0.9372 B( 16-O , 17-C ) :   0.9026
B( 17-C , 18-C ) :   1.1655 B( 17-C , 36-H ) :   0.9092 B( 17-C , 37-H ) :   0.9332
B( 18-C , 38-H ) :   0.9406 B( 18-C , 39-H ) :   0.9488 B( 18-C , 40-H ) :   0.9404

Dispersion correction           -0.067469999
FINAL SINGLE POINT ENERGY     -2929.510488385783

DIPOLE MOMENT
-------------

Method             : SCF
Type of density    : Electron Density
Multiplicity       :   1
Irrep              :   0
Energy             : -2929.6263938101237727 Eh
Relativity type    :
Basis              : AO
                                X                 Y                 Z
Electronic contribution:     -1.103503618      -9.774331617     -15.211607657
Nuclear contribution   :      1.293684989       9.511412619      16.776121078
                        -----------------------------------------
Total Dipole Moment    :      0.190181372      -0.262918998       1.564513421
                        -----------------------------------------
Magnitude (a.u.)       :      1.597810251
Magnitude (Debye)      :      4.061310902

Rotational constants in cm-1:             0.012722             0.005233             0.005082
Rotational constants in MHz :           381.395989           156.871265           152.367231

                             ****ORCA TERMINATED NORMALLY****
TOTAL RUN TIME: 0 days 0 hours 0 minutes 21 seconds 284 msec
