                         Program Version 6.0.0  -   RELEASE  -
|  1> ! pbe def2-sv(p) def2/J RI DEFGRID1 loosescf d4 GCP(DFT/SV(P)) printgap
|  2> %output
|  3>     printlevel normal
|  4> end
|  5> * xyz 0 1
|  6> C 4.5870655657 0.9205765901 -2.2847119944
|  7> C 4.1442816572 -0.424125614 -1.7407914341
|  8> O 3.6716595434 -0.2903604599 -0.3849290681
|  9> P 2.1255267811 -0.2084049414 -0.0281581699
| 10> S 1.0925426068 1.0797641669 -1.0983423229
| 11> O 2.152685192 0.0236448746 1.5334069202
| 12> C 2.1524455197 1.3386802709 2.1237435213
| 13> C 3.4266529923 2.091667274 1.8105619906
| 14> S 1.5872502862 -2.2444790623 -0.0995871453
| 15> C -0.1429548495 -2.1761604159 0.4427676427
| 16> S -1.3178231133 -1.6911714894 -0.8617660087
| 17> P -2.1072110925 0.0891912669 -0.028875735
| 18> S -1.3118674681 0.6635998306 1.6775652649
| 19> O -3.6831761367 -0.1559470156 0.003436348
| 20> C -4.3463441265 -1.3039954685 0.5623924321
| 21> C -4.0110391749 -1.53662192 2.0209914157
| 22> O -1.9942061646 1.1032750157 -1.2334087349
| 23> C -2.9730328026 2.1168122543 -1.5489678734
| 24> C -3.1325861126 3.1177611985 -0.4237536822
| 25> H 4.9960981791 0.7867388583 -3.2808625835
| 26> H 3.737804638 1.5987077234 -2.3382829639
| 27> H 5.3452353153 1.3536203008 -1.6383771087
| 28> H 4.9785818025 -1.1249034964 -1.6778524223
| 29> H 3.3529283493 -0.8542174434 -2.3611058157
| 30> H 1.2741812801 1.8823877361 1.7608680594
| 31> H 2.0386155882 1.1429602604 3.1907144798
| 32> H 4.2909863753 1.5014555477 2.1032335209
| 33> H 3.4805878145 2.29112199 0.7408782141
| 34> H 3.428927235 3.0346763598 2.3480984918
| 35> H -0.2337337306 -1.4709288292 1.2754986466
| 36> H -0.3876338975 -3.1902218026 0.7468600538
| 37> H -5.4049531827 -1.0721593755 0.4315644334
| 38> H -4.0807117738 -2.1768137389 -0.040887904
| 39> H -2.9592598863 -1.7950636856 2.1322905685
| 40> H -4.2056736382 -0.6399592359 2.6044770748
| 41> H -4.6179953881 -2.3518711589 2.4013005119
| 42> H -2.567142989 2.5835674343 -2.4479708993
| 43> H -3.9213303444 1.6246485583 -1.7751595284
| 44> H -2.1711078988 3.5666485012 -0.1834552531
| 45> H -3.8287388762 3.8946098771 -0.7236177623
| 46> H -3.5135288684 2.6177854133 0.4664284952
| 47> *
| 48>
| 49>                          ****END OF INPUT****

CARTESIAN COORDINATES (ANGSTROEM)
---------------------------------
  C      4.587066    0.920577   -2.284712
  C      4.144282   -0.424126   -1.740791
  O      3.671660   -0.290360   -0.384929
  P      2.125527   -0.208405   -0.028158
  S      1.092543    1.079764   -1.098342
  O      2.152685    0.023645    1.533407
  C      2.152446    1.338680    2.123744
  C      3.426653    2.091667    1.810562
  S      1.587250   -2.244479   -0.099587
  C     -0.142955   -2.176160    0.442768
  S     -1.317823   -1.691171   -0.861766
  P     -2.107211    0.089191   -0.028876
  S     -1.311867    0.663600    1.677565
  O     -3.683176   -0.155947    0.003436
  C     -4.346344   -1.303995    0.562392
  C     -4.011039   -1.536622    2.020991
  O     -1.994206    1.103275   -1.233409
  C     -2.973033    2.116812   -1.548968
  C     -3.132586    3.117761   -0.423754
  H      4.996098    0.786739   -3.280863
  H      3.737805    1.598708   -2.338283
  H      5.345235    1.353620   -1.638377
  H      4.978582   -1.124903   -1.677852
  H      3.352928   -0.854217   -2.361106
  H      1.274181    1.882388    1.760868
  H      2.038616    1.142960    3.190714
  H      4.290986    1.501456    2.103234
  H      3.480588    2.291122    0.740878
  H      3.428927    3.034676    2.348098
  H     -0.233734   -1.470929    1.275499
  H     -0.387634   -3.190222    0.746860
  H     -5.404953   -1.072159    0.431564
  H     -4.080712   -2.176814   -0.040888
  H     -2.959260   -1.795064    2.132291
  H     -4.205674   -0.639959    2.604477
  H     -4.617995   -2.351871    2.401301
  H     -2.567143    2.583567   -2.447971
  H     -3.921330    1.624649   -1.775160
  H     -2.171108    3.566649   -0.183455
  H     -3.828739    3.894610   -0.723618
  H     -3.513529    2.617785    0.466428

 Total Charge           Charge          ....    0
 Multiplicity           Mult            ....    1
 Number of Electrons    NEL             ....  202
 Basis Dimension        Dim             ....  334

ORBITAL ENERGIES
----------------

  NO   OCC          E(Eh)            E(eV)
   0   2.0000     -88.040816     -2395.7124
   1   2.0000     -88.035804     -2395.5760
   2   2.0000     -87.982829     -2394.1345
   3   2.0000     -87.974893     -2393.9186
   4   2.0000     -76.426013     -2079.6575
   5   2.0000     -76.417389     -2079.4229
   6   2.0000     -18.790180      -511.3068
   7   2.0000     -18.784308      -511.1470
   8   2.0000     -18.784121      -511.1419
   9   2.0000     -18.781592      -511.0731
  10   2.0000      -9.956593      -270.9327
  11   2.0000      -9.952656      -270.8255
  12   2.0000      -9.951317      -270.7891
  13   2.0000      -9.949869      -270.7497
  14   2.0000      -9.939506      -270.4677
  15   2.0000      -9.884421      -268.9688
  16   2.0000      -9.879987      -268.8481
  17   2.0000      -9.877544      -268.7816
  18   2.0000      -9.875435      -268.7243
  19   2.0000      -7.685836      -209.1422
  20   2.0000      -7.681575      -209.0263
  21   2.0000      -7.627683      -207.5598
  22   2.0000      -7.619619      -207.3404
  23   2.0000      -6.422650      -174.7692
  24   2.0000      -6.414968      -174.5602
  25   2.0000      -5.713628      -155.4757
  26   2.0000      -5.710325      -155.3858
  27   2.0000      -5.709440      -155.3618
  28   2.0000      -5.706023      -155.2688
  29   2.0000      -5.702941      -155.1849
  30   2.0000      -5.698503      -155.0641
  31   2.0000      -5.656484      -153.9207
  32   2.0000      -5.648784      -153.7112
  33   2.0000      -5.648467      -153.7026
  34   2.0000      -5.647442      -153.6747
  35   2.0000      -5.640204      -153.4778
  36   2.0000      -5.639936      -153.4704
  37   2.0000      -4.645672      -126.4152
  38   2.0000      -4.644393      -126.3804
  39   2.0000      -4.642865      -126.3388
  40   2.0000      -4.637484      -126.1924
  41   2.0000      -4.636823      -126.1744
  42   2.0000      -4.635388      -126.1353
  43   2.0000      -0.984582       -26.7918
  44   2.0000      -0.979011       -26.6402
  45   2.0000      -0.939133       -25.5551
  46   2.0000      -0.938340       -25.5335
  47   2.0000      -0.757515       -20.6130
  48   2.0000      -0.717423       -19.5221
  49   2.0000      -0.703888       -19.1538
  50   2.0000      -0.688664       -18.7395
  51   2.0000      -0.680219       -18.5097
  52   2.0000      -0.669438       -18.2163
  53   2.0000      -0.648206       -17.6386
  54   2.0000      -0.631960       -17.1965
  55   2.0000      -0.592545       -16.1240
  56   2.0000      -0.585807       -15.9406
  57   2.0000      -0.578796       -15.7498
  58   2.0000      -0.563795       -15.3416
  59   2.0000      -0.558388       -15.1945
  60   2.0000      -0.497816       -13.5462
  61   2.0000      -0.491239       -13.3673
  62   2.0000      -0.468028       -12.7357
  63   2.0000      -0.465935       -12.6787
  64   2.0000      -0.457226       -12.4417
  65   2.0000      -0.441377       -12.0105
  66   2.0000      -0.432521       -11.7695
  67   2.0000      -0.425896       -11.5892
  68   2.0000      -0.423407       -11.5215
  69   2.0000      -0.415367       -11.3027
  70   2.0000      -0.404561       -11.0087
  71   2.0000      -0.398932       -10.8555
  72   2.0000      -0.394901       -10.7458
  73   2.0000      -0.389296       -10.5933
  74   2.0000      -0.380537       -10.3549
  75   2.0000      -0.364238        -9.9114
  76   2.0000      -0.359179        -9.7738
  77   2.0000      -0.350646        -9.5416
  78   2.0000      -0.348113        -9.4726
  79   2.0000      -0.346574        -9.4307
  80   2.0000      -0.341174        -9.2838
  81   2.0000      -0.340163        -9.2563
  82   2.0000      -0.335723        -9.1355
  83   2.0000      -0.333236        -9.0678
  84   2.0000      -0.325944        -8.8694
  85   2.0000      -0.314639        -8.5618
  86   2.0000      -0.309225        -8.4144
  87   2.0000      -0.296066        -8.0564
  88   2.0000      -0.291592        -7.9346
  89   2.0000      -0.291220        -7.9245
  90   2.0000      -0.276691        -7.5291
  91   2.0000      -0.268902        -7.3172
  92   2.0000      -0.264094        -7.1864
  93   2.0000      -0.257556        -7.0084
  94   2.0000      -0.254720        -6.9313
  95   2.0000      -0.236898        -6.4463
  96   2.0000      -0.218583        -5.9479
  97   2.0000      -0.206047        -5.6068
  98   2.0000      -0.199177        -5.4199
  99   2.0000      -0.187561        -5.1038
 100   2.0000      -0.179573        -4.8864
 101   0.0000      -0.034182        -0.9301
 102   0.0000      -0.028636        -0.7792
 103   0.0000      -0.007375        -0.2007
 104   0.0000       0.007658         0.2084
 105   0.0000       0.012807         0.3485

MULLIKEN ATOMIC CHARGES
-----------------------
   0 C :   -0.291392
   1 C :   -0.009620
   2 O :   -0.375433
   3 P :    0.602303
   4 S :   -0.317525
   5 O :   -0.364863
   6 C :   -0.010812
   7 C :   -0.308067
   8 S :   -0.086884
   9 C :   -0.365607
  10 S :   -0.083254
  11 P :    0.643159
  12 S :   -0.320697
  13 O :   -0.391253
  14 C :   -0.001163
  15 C :   -0.309391
  16 O :   -0.361235
  17 C :    0.007171
  18 C :   -0.317658
  19 H :    0.106215
  20 H :    0.128152
  21 H :    0.113284
  22 H :    0.105713
  23 H :    0.104847
  24 H :    0.127652
  25 H :    0.101496
  26 H :    0.113766
  27 H :    0.125224
  28 H :    0.108845
  29 H :    0.203336
  30 H :    0.180369
  31 H :    0.104543
  32 H :    0.106157
  33 H :    0.121919
  34 H :    0.124509
  35 H :    0.109673
  36 H :    0.109642
  37 H :    0.104513
  38 H :    0.127861
  39 H :    0.108483
  40 H :    0.126023
Sum of atomic charges:   -0.0000000

LOEWDIN ATOMIC CHARGES
----------------------
   0 C :   -0.362551
   1 C :   -0.115758
   2 O :   -0.248179
   3 P :    0.562144
   4 S :   -0.313664
   5 O :   -0.236149
   6 C :   -0.119949
   7 C :   -0.366523
   8 S :    0.077595
   9 C :   -0.484944
  10 S :    0.087510
  11 P :    0.577045
  12 S :   -0.295444
  13 O :   -0.252641
  14 C :   -0.116041
  15 C :   -0.368585
  16 O :   -0.233344
  17 C :   -0.108004
  18 C :   -0.366423
  19 H :    0.127966
  20 H :    0.124971
  21 H :    0.124645
  22 H :    0.117509
  23 H :    0.109782
  24 H :    0.109405
  25 H :    0.117881
  26 H :    0.124704
  27 H :    0.122187
  28 H :    0.129168
  29 H :    0.122390
  30 H :    0.135431
  31 H :    0.118971
  32 H :    0.105788
  33 H :    0.118993
  34 H :    0.129346
  35 H :    0.129051
  36 H :    0.122201
  37 H :    0.111043
  38 H :    0.131529
  39 H :    0.128377
  40 H :    0.122566

  Mayer bond orders larger than 0.100000
B(  0-C ,  1-C ) :   1.1697 B(  0-C , 19-H ) :   0.9397 B(  0-C , 20-H ) :   0.9320
B(  0-C , 21-H ) :   0.9461 B(  1-C ,  2-O ) :   0.9045 B(  1-C , 22-H ) :   0.9353
B(  1-C , 23-H ) :   0.9146 B(  2-O ,  3-P ) :   1.0959 B(  3-P ,  4-S ) :   1.6278
B(  3-P ,  5-O ) :   1.1329 B(  3-P ,  8-S ) :   0.9649 B(  4-S ,  8-S ) :   0.1160
B(  5-O ,  6-C ) :   0.8985 B(  6-C ,  7-C ) :   1.1618 B(  6-C , 24-H ) :   0.9073
B(  6-C , 25-H ) :   0.9362 B(  7-C , 26-H ) :   0.9450 B(  7-C , 27-H ) :   0.9336
B(  7-C , 28-H ) :   0.9386 B(  8-S ,  9-C ) :   1.0022 B(  9-C , 10-S ) :   0.9963
B(  9-C , 29-H ) :   0.8415 B(  9-C , 30-H ) :   0.9111 B( 10-S , 11-P ) :   0.9557
B( 10-S , 12-S ) :   0.1286 B( 11-P , 12-S ) :   1.6015 B( 11-P , 13-O ) :   1.0597
B( 11-P , 16-O ) :   1.1342 B( 12-S , 29-H ) :   0.1155 B( 13-O , 14-C ) :   0.9194
B( 14-C , 15-C ) :   1.1655 B( 14-C , 31-H ) :   0.9341 B( 14-C , 32-H ) :   0.9212
B( 15-C , 33-H ) :   0.9357 B( 15-C , 34-H ) :   0.9433 B( 15-C , 35-H ) :   0.9347
B( 16-O , 17-C ) :   0.9093 B( 17-C , 18-C ) :   1.1691 B( 17-C , 36-H ) :   0.9329
B( 17-C , 37-H ) :   0.9269 B( 18-C , 38-H ) :   0.9447 B( 18-C , 39-H ) :   0.9369
B( 18-C , 40-H ) :   0.9359

Dispersion correction           -0.066878272
FINAL SINGLE POINT ENERGY     -2929.515038183368

DIPOLE MOMENT
-------------

Method             : SCF
Type of density    : Electron Density
Multiplicity       :   1
Irrep              :   0
Energy             : -2929.6327900709329697 Eh
Relativity type    :
Basis              : AO
                                X                 Y                 Z
Electronic contribution:      0.298701031     -12.722048718      -3.618078662
Nuclear contribution   :     -0.923661600      12.566543723       3.564548863
                        -----------------------------------------
Total Dipole Moment    :     -0.624960570      -0.155504995      -0.053529799
                        -----------------------------------------
Magnitude (a.u.)       :      0.646237539
Magnitude (Debye)      :      1.642605283

Rotational constants in cm-1:             0.012477             0.005180             0.004830
Rotational constants in MHz :           374.038704           155.287107           144.810403

                             ****ORCA TERMINATED NORMALLY****
TOTAL RUN TIME: 0 days 0 hours 0 minutes 21 seconds 92 msec
