                         Program Version 6.0.0  -   RELEASE  -
|  1> ! pbe def2-sv(p) def2/J RI DEFGRID1 loosescf d4 GCP(DFT/SV(P)) printgap
|  2> %output
|  3>     printlevel normal
|  4> end
|  5> * xyz 0 1
|  6> C 4.4475930951 1.6346196992 -1.4733173751
|  7> C 4.7802533611 0.2502578006 -0.9564350369
|  8> O 3.6076973987 -0.5672367555 -0.7793860894
|  9> P 2.4916060007 -0.2450530959 0.3056225745
| 10> S 3.1268240684 0.3939147918 2.0389327291
| 11> O 1.7447391914 -1.6271792487 0.4268242944
| 12> C 1.3720176668 -2.4369936338 -0.7180183329
| 13> C 0.4597346464 -3.536331654 -0.2194153117
| 14> S 1.1501123547 1.0652117682 -0.7161281608
| 15> C 0.2886318566 1.647468362 0.7635459667
| 16> S -0.8170061928 0.412450763 1.5015760961
| 17> P -2.242694761 0.2853064531 -0.0769364758
| 18> S -1.7769796369 -0.8402182291 -1.6181141043
| 19> O -2.4728724903 1.8326928427 -0.3225364188
| 20> C -3.680427979 2.39495741 -0.8858491868
| 21> C -3.9017140358 1.9615345723 -2.3196732968
| 22> O -3.5983836891 -0.1500087158 0.6301464612
| 23> C -3.9482907583 -1.5317129414 0.8095162527
| 24> C -3.2105237262 -2.1377126801 1.9857791467
| 25> H 3.917042029 2.2007591908 -0.709371649
| 26> H 5.3678577333 2.1541562156 -1.7201351597
| 27> H 3.8209869218 1.5676649457 -2.359416907
| 28> H 5.3028324762 0.3126912822 0.0028642956
| 29> H 5.380279764 -0.3137502805 -1.672030607
| 30> H 0.8632765261 -1.8029857203 -1.4506286594
| 31> H 2.2864744693 -2.8364177767 -1.159445593
| 32> H -0.458817646 -3.10709481 0.1721915602
| 33> H 0.2140234624 -4.1936633313 -1.0468254383
| 34> H 0.9501387247 -4.10144931 0.5677070306
| 35> H -0.2819483078 2.5266588125 0.4788383588
| 36> H 1.0251694058 1.8799717902 1.5348722516
| 37> H -4.5215863725 2.1063985088 -0.2524151548
| 38> H -3.513400456 3.4711907924 -0.8155203931
| 39> H -4.7630602452 2.4839269727 -2.7239756843
| 40> H -3.0258953408 2.1900179768 -2.9225916071
| 41> H -4.0816344006 0.888730059 -2.3673216891
| 42> H -5.0263982681 -1.5186556562 0.9747074269
| 43> H -3.7194968874 -2.0712062099 -0.1164676724
| 44> H -3.5209545151 -3.1692475453 2.1166960724
| 45> H -2.1355034602 -2.1089781345 1.8070712376
| 46> H -3.4199952143 -1.5775862602 2.8930517801
| 47> *
| 48>
| 49>                          ****END OF INPUT****

CARTESIAN COORDINATES (ANGSTROEM)
---------------------------------
  C      4.447593    1.634620   -1.473317
  C      4.780253    0.250258   -0.956435
  O      3.607697   -0.567237   -0.779386
  P      2.491606   -0.245053    0.305623
  S      3.126824    0.393915    2.038933
  O      1.744739   -1.627179    0.426824
  C      1.372018   -2.436994   -0.718018
  C      0.459735   -3.536332   -0.219415
  S      1.150112    1.065212   -0.716128
  C      0.288632    1.647468    0.763546
  S     -0.817006    0.412451    1.501576
  P     -2.242695    0.285306   -0.076936
  S     -1.776980   -0.840218   -1.618114
  O     -2.472872    1.832693   -0.322536
  C     -3.680428    2.394957   -0.885849
  C     -3.901714    1.961535   -2.319673
  O     -3.598384   -0.150009    0.630146
  C     -3.948291   -1.531713    0.809516
  C     -3.210524   -2.137713    1.985779
  H      3.917042    2.200759   -0.709372
  H      5.367858    2.154156   -1.720135
  H      3.820987    1.567665   -2.359417
  H      5.302832    0.312691    0.002864
  H      5.380280   -0.313750   -1.672031
  H      0.863277   -1.802986   -1.450629
  H      2.286474   -2.836418   -1.159446
  H     -0.458818   -3.107095    0.172192
  H      0.214023   -4.193663   -1.046825
  H      0.950139   -4.101449    0.567707
  H     -0.281948    2.526659    0.478838
  H      1.025169    1.879972    1.534872
  H     -4.521586    2.106399   -0.252415
  H     -3.513400    3.471191   -0.815520
  H     -4.763060    2.483927   -2.723976
  H     -3.025895    2.190018   -2.922592
  H     -4.081634    0.888730   -2.367322
  H     -5.026398   -1.518656    0.974707
  H     -3.719497   -2.071206   -0.116468
  H     -3.520955   -3.169248    2.116696
  H     -2.135503   -2.108978    1.807071
  H     -3.419995   -1.577586    2.893052

 Total Charge           Charge          ....    0
 Multiplicity           Mult            ....    1
 Number of Electrons    NEL             ....  202
 Basis Dimension        Dim             ....  334

ORBITAL ENERGIES
----------------

  NO   OCC          E(Eh)            E(eV)
   0   2.0000     -88.037341     -2395.6178
   1   2.0000     -88.035288     -2395.5620
   2   2.0000     -87.988025     -2394.2759
   3   2.0000     -87.981794     -2394.1063
   4   2.0000     -76.430491     -2079.7794
   5   2.0000     -76.420758     -2079.5146
   6   2.0000     -18.799814      -511.5690
   7   2.0000     -18.796979      -511.4918
   8   2.0000     -18.791596      -511.3453
   9   2.0000     -18.782080      -511.0864
  10   2.0000      -9.961456      -271.0650
  11   2.0000      -9.956434      -270.9283
  12   2.0000      -9.951783      -270.8018
  13   2.0000      -9.950589      -270.7693
  14   2.0000      -9.941102      -270.5111
  15   2.0000      -9.889624      -269.1103
  16   2.0000      -9.886879      -269.0356
  17   2.0000      -9.882182      -268.9078
  18   2.0000      -9.876035      -268.7406
  19   2.0000      -7.682507      -209.0516
  20   2.0000      -7.680246      -208.9901
  21   2.0000      -7.632849      -207.7004
  22   2.0000      -7.627130      -207.5448
  23   2.0000      -6.427939      -174.9131
  24   2.0000      -6.418347      -174.6521
  25   2.0000      -5.710512      -155.3909
  26   2.0000      -5.707983      -155.3221
  27   2.0000      -5.707293      -155.3033
  28   2.0000      -5.704854      -155.2370
  29   2.0000      -5.699085      -155.0800
  30   2.0000      -5.697250      -155.0301
  31   2.0000      -5.661562      -154.0589
  32   2.0000      -5.656032      -153.9085
  33   2.0000      -5.653507      -153.8397
  34   2.0000      -5.653178      -153.8308
  35   2.0000      -5.647715      -153.6821
  36   2.0000      -5.647289      -153.6706
  37   2.0000      -4.651100      -126.5629
  38   2.0000      -4.649610      -126.5223
  39   2.0000      -4.647957      -126.4773
  40   2.0000      -4.641295      -126.2961
  41   2.0000      -4.639888      -126.2578
  42   2.0000      -4.638682      -126.2250
  43   2.0000      -0.994191       -27.0533
  44   2.0000      -0.982960       -26.7477
  45   2.0000      -0.951680       -25.8965
  46   2.0000      -0.938227       -25.5304
  47   2.0000      -0.760062       -20.6823
  48   2.0000      -0.721103       -19.6222
  49   2.0000      -0.707039       -19.2395
  50   2.0000      -0.693642       -18.8750
  51   2.0000      -0.684708       -18.6319
  52   2.0000      -0.671343       -18.2682
  53   2.0000      -0.652386       -17.7523
  54   2.0000      -0.634529       -17.2664
  55   2.0000      -0.598237       -16.2789
  56   2.0000      -0.589026       -16.0282
  57   2.0000      -0.583217       -15.8701
  58   2.0000      -0.562187       -15.2979
  59   2.0000      -0.556389       -15.1401
  60   2.0000      -0.503677       -13.7058
  61   2.0000      -0.497790       -13.5455
  62   2.0000      -0.478008       -13.0073
  63   2.0000      -0.470232       -12.7957
  64   2.0000      -0.464925       -12.6513
  65   2.0000      -0.444209       -12.0876
  66   2.0000      -0.436683       -11.8827
  67   2.0000      -0.433514       -11.7965
  68   2.0000      -0.423918       -11.5354
  69   2.0000      -0.415718       -11.3123
  70   2.0000      -0.414349       -11.2750
  71   2.0000      -0.408599       -11.1186
  72   2.0000      -0.385088       -10.4788
  73   2.0000      -0.382535       -10.4093
  74   2.0000      -0.376102       -10.2343
  75   2.0000      -0.371609       -10.1120
  76   2.0000      -0.362425        -9.8621
  77   2.0000      -0.359218        -9.7748
  78   2.0000      -0.356500        -9.7009
  79   2.0000      -0.350915        -9.5489
  80   2.0000      -0.346551        -9.4301
  81   2.0000      -0.344768        -9.3816
  82   2.0000      -0.338837        -9.2202
  83   2.0000      -0.336040        -9.1441
  84   2.0000      -0.332351        -9.0437
  85   2.0000      -0.320716        -8.7271
  86   2.0000      -0.305625        -8.3165
  87   2.0000      -0.299859        -8.1596
  88   2.0000      -0.297925        -8.1070
  89   2.0000      -0.294926        -8.0253
  90   2.0000      -0.291394        -7.9292
  91   2.0000      -0.280657        -7.6371
  92   2.0000      -0.266192        -7.2435
  93   2.0000      -0.261899        -7.1266
  94   2.0000      -0.254609        -6.9283
  95   2.0000      -0.236363        -6.4318
  96   2.0000      -0.216577        -5.8934
  97   2.0000      -0.206512        -5.6195
  98   2.0000      -0.203610        -5.5405
  99   2.0000      -0.195305        -5.3145
 100   2.0000      -0.190537        -5.1848
 101   0.0000      -0.046008        -1.2519
 102   0.0000      -0.020085        -0.5465
 103   0.0000      -0.015087        -0.4105
 104   0.0000       0.002169         0.0590
 105   0.0000       0.015874         0.4320

MULLIKEN ATOMIC CHARGES
-----------------------
   0 C :   -0.317671
   1 C :    0.000522
   2 O :   -0.386494
   3 P :    0.615030
   4 S :   -0.322285
   5 O :   -0.355459
   6 C :   -0.021606
   7 C :   -0.288377
   8 S :   -0.089463
   9 C :   -0.363350
  10 S :   -0.084387
  11 P :    0.629446
  12 S :   -0.315315
  13 O :   -0.383701
  14 C :   -0.003259
  15 C :   -0.310858
  16 O :   -0.377493
  17 C :   -0.011074
  18 C :   -0.339958
  19 H :    0.127403
  20 H :    0.112650
  21 H :    0.118769
  22 H :    0.112640
  23 H :    0.104485
  24 H :    0.122855
  25 H :    0.101413
  26 H :    0.126116
  27 H :    0.104021
  28 H :    0.113667
  29 H :    0.189544
  30 H :    0.193607
  31 H :    0.112862
  32 H :    0.107924
  33 H :    0.110973
  34 H :    0.123781
  35 H :    0.128123
  36 H :    0.105315
  37 H :    0.111275
  38 H :    0.117411
  39 H :    0.158822
  40 H :    0.122099
Sum of atomic charges:   -0.0000000

LOEWDIN ATOMIC CHARGES
----------------------
   0 C :   -0.371350
   1 C :   -0.115238
   2 O :   -0.247745
   3 P :    0.574077
   4 S :   -0.315399
   5 O :   -0.235124
   6 C :   -0.117593
   7 C :   -0.352579
   8 S :    0.078034
   9 C :   -0.485631
  10 S :    0.083682
  11 P :    0.573512
  12 S :   -0.301885
  13 O :   -0.247228
  14 C :   -0.108004
  15 C :   -0.366916
  16 O :   -0.242706
  17 C :   -0.123760
  18 C :   -0.367187
  19 H :    0.121304
  20 H :    0.130887
  21 H :    0.123908
  22 H :    0.113156
  23 H :    0.118488
  24 H :    0.104768
  25 H :    0.110318
  26 H :    0.120721
  27 H :    0.129070
  28 H :    0.125733
  29 H :    0.133192
  30 H :    0.128155
  31 H :    0.114846
  32 H :    0.120485
  33 H :    0.129730
  34 H :    0.130303
  35 H :    0.122220
  36 H :    0.118553
  37 H :    0.107282
  38 H :    0.133614
  39 H :    0.123559
  40 H :    0.128753

  Mayer bond orders larger than 0.100000
B(  0-C ,  1-C ) :   1.1665 B(  0-C , 19-H ) :   0.9346 B(  0-C , 20-H ) :   0.9368
B(  0-C , 21-H ) :   0.9436 B(  1-C ,  2-O ) :   0.9082 B(  1-C , 22-H ) :   0.9191
B(  1-C , 23-H ) :   0.9345 B(  2-O ,  3-P ) :   1.0859 B(  3-P ,  4-S ) :   1.6266
B(  3-P ,  5-O ) :   1.1506 B(  3-P ,  8-S ) :   0.9480 B(  4-S ,  8-S ) :   0.1092
B(  5-O ,  6-C ) :   0.8858 B(  6-C ,  7-C ) :   1.1705 B(  6-C , 24-H ) :   0.9036
B(  6-C , 25-H ) :   0.9290 B(  7-C , 26-H ) :   0.9325 B(  7-C , 27-H ) :   0.9387
B(  7-C , 28-H ) :   0.9488 B(  8-S ,  9-C ) :   1.0107 B(  9-C , 10-S ) :   0.9987
B(  9-C , 29-H ) :   0.8945 B(  9-C , 30-H ) :   0.8680 B( 10-S , 11-P ) :   0.9638
B( 10-S , 12-S ) :   0.1149 B( 11-P , 12-S ) :   1.6345 B( 11-P , 13-O ) :   1.0985
B( 11-P , 16-O ) :   1.0839 B( 13-O , 14-C ) :   0.9036 B( 14-C , 15-C ) :   1.1672
B( 14-C , 31-H ) :   0.9282 B( 14-C , 32-H ) :   0.9357 B( 15-C , 33-H ) :   0.9357
B( 15-C , 34-H ) :   0.9454 B( 15-C , 35-H ) :   0.9342 B( 16-O , 17-C ) :   0.9091
B( 17-C , 18-C ) :   1.1648 B( 17-C , 36-H ) :   0.9311 B( 17-C , 37-H ) :   0.9065
B( 18-C , 38-H ) :   0.9396 B( 18-C , 39-H ) :   0.9218 B( 18-C , 40-H ) :   0.9437

Dispersion correction           -0.065429906
FINAL SINGLE POINT ENERGY     -2929.518449814342

DIPOLE MOMENT
-------------

Method             : SCF
Type of density    : Electron Density
Multiplicity       :   1
Irrep              :   0
Energy             : -2929.6379167986983703 Eh
Relativity type    :
Basis              : AO
                                X                 Y                 Z
Electronic contribution:      7.979438920       5.022569764       7.669977949
Nuclear contribution   :     -9.044862635      -4.781961364      -8.465943633
                        -----------------------------------------
Total Dipole Moment    :     -1.065423715       0.240608400      -0.795965684
                        -----------------------------------------
Magnitude (a.u.)       :      1.351510808
Magnitude (Debye)      :      3.435267470

Rotational constants in cm-1:             0.012430             0.004988             0.004555
Rotational constants in MHz :           372.633673           149.544210           136.547716

                             ****ORCA TERMINATED NORMALLY****
TOTAL RUN TIME: 0 days 0 hours 0 minutes 20 seconds 977 msec
