                         Program Version 6.0.0  -   RELEASE  -
|  1> ! wb97x-v def2-tzvp def2/J RIJCOSX DEFGRID2 scfconv7 GCP(DFT/TZ) printgap
|  2> %output
|  3>     printlevel normal
|  4> end
|  5> * xyz 0 1
|  6> C 2.185364451920052 -1.1810455471077135 0.12159004750829312
|  7> C 1.4156737222507547 0.11140498247794275 0.05440822822805098
|  8> O 1.9977235099118058 1.218484904687484 -0.008119194378065131
|  9> N 0.07704408682355336 0.025518362755950666 0.056353593293721194
| 10> C -0.7131283785120553 -1.2230463970667786 0.058239063430726774
| 11> C -2.107196424016531 -0.7449783538077603 -0.3459722610529577
| 12> C -2.179217362767482 0.6601225549504786 0.25915659622183657
| 13> C -0.7838092552480534 1.2222380151029002 -0.005204256807926252
| 14> H 1.7887651894901295 -1.852553093099022 0.8885350534848183
| 15> H 3.2325871983973817 -0.9617566359160171 0.3316559941778222
| 16> H 2.1204818456630026 -1.7026071387959716 -0.8401388308553711
| 17> H -0.2941897649767009 -1.9515818108455694 -0.6405551256290198
| 18> H -0.7225005982095839 -1.6679962929724454 1.0616855111256351
| 19> H -2.1779313123373747 -0.6870302352637625 -1.437734036189522
| 20> H -2.8898930312514444 -1.4142581281204876 0.01770954235094362
| 21> H -2.961575112537711 1.2804782631038563 -0.18336048163806934
| 22> H -2.356737531788269 0.5945783564604554 1.3382513166151742
| 23> H -0.7151228955043614 1.684612630608881 -0.9983253434922685
| 24> H -0.4654435896364913 1.960129582774254 0.7362781693122125
| 25> *
| 26>
| 27>                          ****END OF INPUT****

CARTESIAN COORDINATES (ANGSTROEM)
---------------------------------
  C      2.185364   -1.181046    0.121590
  C      1.415674    0.111405    0.054408
  O      1.997724    1.218485   -0.008119
  N      0.077044    0.025518    0.056354
  C     -0.713128   -1.223046    0.058239
  C     -2.107196   -0.744978   -0.345972
  C     -2.179217    0.660123    0.259157
  C     -0.783809    1.222238   -0.005204
  H      1.788765   -1.852553    0.888535
  H      3.232587   -0.961757    0.331656
  H      2.120482   -1.702607   -0.840139
  H     -0.294190   -1.951582   -0.640555
  H     -0.722501   -1.667996    1.061686
  H     -2.177931   -0.687030   -1.437734
  H     -2.889893   -1.414258    0.017710
  H     -2.961575    1.280478   -0.183360
  H     -2.356738    0.594578    1.338251
  H     -0.715123    1.684613   -0.998325
  H     -0.465444    1.960130    0.736278

 Total Charge           Charge          ....    0
 Multiplicity           Mult            ....    1
 Number of Electrons    NEL             ....   62
 Basis Dimension        Dim             ....  314

ORBITAL ENERGIES
----------------

  NO   OCC          E(Eh)            E(eV)
   0   2.0000     -21.615264      -588.1812
   1   2.0000     -16.551139      -450.3794
   2   2.0000     -12.137625      -330.2816
   3   2.0000     -12.094057      -329.0960
   4   2.0000     -12.080157      -328.7178
   5   2.0000     -12.062092      -328.2262
   6   2.0000     -12.057736      -328.1077
   7   2.0000     -12.047516      -327.8296
   8   2.0000      -1.660164       -45.1754
   9   2.0000      -1.528051       -41.5804
  10   2.0000      -1.335147       -36.3312
  11   2.0000      -1.264590       -34.4112
  12   2.0000      -1.241186       -33.7744
  13   2.0000      -1.165936       -31.7267
  14   2.0000      -1.090205       -29.6660
  15   2.0000      -1.046379       -28.4734
  16   2.0000      -1.014690       -27.6111
  17   2.0000      -0.962866       -26.2009
  18   2.0000      -0.939109       -25.5544
  19   2.0000      -0.900593       -24.5064
  20   2.0000      -0.890804       -24.2400
  21   2.0000      -0.878944       -23.9173
  22   2.0000      -0.873027       -23.7563
  23   2.0000      -0.846934       -23.0463
  24   2.0000      -0.834697       -22.7133
  25   2.0000      -0.821532       -22.3550
  26   2.0000      -0.814287       -22.1579
  27   2.0000      -0.811370       -22.0785
  28   2.0000      -0.805437       -21.9171
  29   2.0000      -0.772605       -21.0237
  30   2.0000      -0.731036       -19.8925
  31   0.0000      -0.267572        -7.2810
  32   0.0000      -0.131742        -3.5849
  33   0.0000      -0.115308        -3.1377
  34   0.0000      -0.064109        -1.7445
  35   0.0000      -0.039084        -1.0635

MULLIKEN ATOMIC CHARGES
-----------------------
   0 C :   -0.368373
   1 C :    0.234434
   2 O :   -0.426753
   3 N :   -0.053008
   4 C :   -0.177583
   5 C :   -0.172396
   6 C :   -0.168678
   7 C :   -0.146344
   8 H :    0.120669
   9 H :    0.146011
  10 H :    0.129065
  11 H :    0.115852
  12 H :    0.108814
  13 H :    0.100601
  14 H :    0.111617
  15 H :    0.111331
  16 H :    0.098400
  17 H :    0.109301
  18 H :    0.127041
Sum of atomic charges:    0.0000000

LOEWDIN ATOMIC CHARGES
----------------------
   0 C :   -0.258215
   1 C :   -0.443561
   2 O :    0.006007
   3 N :    0.198126
   4 C :   -0.235977
   5 C :   -0.246712
   6 C :   -0.247963
   7 C :   -0.223646
   8 H :    0.125720
   9 H :    0.134296
  10 H :    0.131392
  11 H :    0.129560
  12 H :    0.126564
  13 H :    0.136826
  14 H :    0.132533
  15 H :    0.133177
  16 H :    0.135465
  17 H :    0.131131
  18 H :    0.135277

  Mayer bond orders larger than 0.100000
B(  0-C ,  1-C ) :   0.9662 B(  0-C ,  8-H ) :   0.9606 B(  0-C ,  9-H ) :   0.9825
B(  0-C , 10-H ) :   0.9597 B(  1-C ,  2-O ) :   2.0080 B(  1-C ,  3-N ) :   1.2540
B(  3-N ,  4-C ) :   0.9561 B(  3-N ,  7-C ) :   0.9270 B(  4-C ,  5-C ) :   1.0121
B(  4-C , 11-H ) :   0.9611 B(  4-C , 12-H ) :   0.9646 B(  5-C ,  6-C ) :   0.9764
B(  5-C , 13-H ) :   0.9707 B(  5-C , 14-H ) :   0.9760 B(  6-C ,  7-C ) :   0.9834
B(  6-C , 15-H ) :   0.9754 B(  6-C , 16-H ) :   0.9720 B(  7-C , 17-H ) :   0.9773
B(  7-C , 18-H ) :   0.9711

FINAL SINGLE POINT ENERGY      -365.276454569832

DIPOLE MOMENT
-------------

Method             : SCF
Type of density    : Electron Density
Multiplicity       :   1
Irrep              :   0
Energy             :  -365.2893012074322883 Eh
Relativity type    :
Basis              : AO
                                X                 Y                 Z
Electronic contribution:      3.841941270       3.301502816       0.009501599
Nuclear contribution   :     -5.197973468      -4.519610059       0.015668187
                        -----------------------------------------
Total Dipole Moment    :     -1.356032199      -1.218107243       0.025169785
                        -----------------------------------------
Magnitude (a.u.)       :      1.822976165
Magnitude (Debye)      :      4.633637170

Rotational constants in cm-1:             0.135254             0.051466             0.039172
Rotational constants in MHz :          4054.822898          1542.922887          1174.344122

                             ****ORCA TERMINATED NORMALLY****
TOTAL RUN TIME: 0 days 0 hours 3 minutes 23 seconds 946 msec
