                         Program Version 6.0.0  -   RELEASE  -
|  1> ! wb97x-v def2-tzvp def2/J RIJCOSX DEFGRID2 scfconv7 GCP(DFT/TZ) printgap
|  2> %output
|  3>     printlevel normal
|  4> end
|  5> %cpcm
|  6>     smd true
|  7>     smdsolvent "water"
|  8> end
|  9> * xyz 0 1
| 10> C 2.185364451920052 -1.1810455471077135 0.12159004750829312
| 11> C 1.4156737222507547 0.11140498247794275 0.05440822822805098
| 12> O 1.9977235099118058 1.218484904687484 -0.008119194378065131
| 13> N 0.07704408682355336 0.025518362755950666 0.056353593293721194
| 14> C -0.7131283785120553 -1.2230463970667786 0.058239063430726774
| 15> C -2.107196424016531 -0.7449783538077603 -0.3459722610529577
| 16> C -2.179217362767482 0.6601225549504786 0.25915659622183657
| 17> C -0.7838092552480534 1.2222380151029002 -0.005204256807926252
| 18> H 1.7887651894901295 -1.852553093099022 0.8885350534848183
| 19> H 3.2325871983973817 -0.9617566359160171 0.3316559941778222
| 20> H 2.1204818456630026 -1.7026071387959716 -0.8401388308553711
| 21> H -0.2941897649767009 -1.9515818108455694 -0.6405551256290198
| 22> H -0.7225005982095839 -1.6679962929724454 1.0616855111256351
| 23> H -2.1779313123373747 -0.6870302352637625 -1.437734036189522
| 24> H -2.8898930312514444 -1.4142581281204876 0.01770954235094362
| 25> H -2.961575112537711 1.2804782631038563 -0.18336048163806934
| 26> H -2.356737531788269 0.5945783564604554 1.3382513166151742
| 27> H -0.7151228955043614 1.684612630608881 -0.9983253434922685
| 28> H -0.4654435896364913 1.960129582774254 0.7362781693122125
| 29> *
| 30>
| 31>                          ****END OF INPUT****

CARTESIAN COORDINATES (ANGSTROEM)
---------------------------------
  C      2.185364   -1.181046    0.121590
  C      1.415674    0.111405    0.054408
  O      1.997724    1.218485   -0.008119
  N      0.077044    0.025518    0.056354
  C     -0.713128   -1.223046    0.058239
  C     -2.107196   -0.744978   -0.345972
  C     -2.179217    0.660123    0.259157
  C     -0.783809    1.222238   -0.005204
  H      1.788765   -1.852553    0.888535
  H      3.232587   -0.961757    0.331656
  H      2.120482   -1.702607   -0.840139
  H     -0.294190   -1.951582   -0.640555
  H     -0.722501   -1.667996    1.061686
  H     -2.177931   -0.687030   -1.437734
  H     -2.889893   -1.414258    0.017710
  H     -2.961575    1.280478   -0.183360
  H     -2.356738    0.594578    1.338251
  H     -0.715123    1.684613   -0.998325
  H     -0.465444    1.960130    0.736278

 Total Charge           Charge          ....    0
 Multiplicity           Mult            ....    1
 Number of Electrons    NEL             ....   62
 Basis Dimension        Dim             ....  314

ORBITAL ENERGIES
----------------

  NO   OCC          E(Eh)            E(eV)
   0   2.0000     -21.637363      -588.7826
   1   2.0000     -16.552953      -450.4288
   2   2.0000     -12.150210      -330.6240
   3   2.0000     -12.075205      -328.5830
   4   2.0000     -12.072208      -328.5015
   5   2.0000     -12.040954      -327.6510
   6   2.0000     -12.040054      -327.6265
   7   2.0000     -12.039654      -327.6156
   8   2.0000      -1.684853       -45.8472
   9   2.0000      -1.527432       -41.5635
  10   2.0000      -1.323880       -36.0246
  11   2.0000      -1.253972       -34.1223
  12   2.0000      -1.234187       -33.5839
  13   2.0000      -1.159150       -31.5421
  14   2.0000      -1.077150       -29.3107
  15   2.0000      -1.055294       -28.7160
  16   2.0000      -1.017993       -27.7010
  17   2.0000      -0.959069       -26.0976
  18   2.0000      -0.939007       -25.5517
  19   2.0000      -0.905726       -24.6460
  20   2.0000      -0.880441       -23.9580
  21   2.0000      -0.877317       -23.8730
  22   2.0000      -0.857465       -23.3328
  23   2.0000      -0.839525       -22.8446
  24   2.0000      -0.827554       -22.5189
  25   2.0000      -0.820833       -22.3360
  26   2.0000      -0.820022       -22.3139
  27   2.0000      -0.796858       -21.6836
  28   2.0000      -0.795407       -21.6441
  29   2.0000      -0.753400       -20.5011
  30   2.0000      -0.726977       -19.7821
  31   0.0000      -0.273811        -7.4508
  32   0.0000      -0.121761        -3.3133
  33   0.0000      -0.108770        -2.9598
  34   0.0000      -0.057810        -1.5731
  35   0.0000      -0.022773        -0.6197

MULLIKEN ATOMIC CHARGES
-----------------------
   0 C :   -0.400403
   1 C :    0.294526
   2 O :   -0.600462
   3 N :   -0.041288
   4 C :   -0.187442
   5 C :   -0.188489
   6 C :   -0.191055
   7 C :   -0.171671
   8 H :    0.158329
   9 H :    0.144868
  10 H :    0.165634
  11 H :    0.143690
  12 H :    0.133734
  13 H :    0.113272
  14 H :    0.129111
  15 H :    0.127816
  16 H :    0.112610
  17 H :    0.126181
  18 H :    0.131041
Sum of atomic charges:    0.0000000

LOEWDIN ATOMIC CHARGES
----------------------
   0 C :   -0.254554
   1 C :   -0.435590
   2 O :   -0.098185
   3 N :    0.212476
   4 C :   -0.223028
   5 C :   -0.243406
   6 C :   -0.244962
   7 C :   -0.227193
   8 H :    0.138937
   9 H :    0.132641
  10 H :    0.144268
  11 H :    0.138799
  12 H :    0.136022
  13 H :    0.140228
  14 H :    0.138050
  15 H :    0.137719
  16 H :    0.139839
  17 H :    0.134324
  18 H :    0.133616

  Mayer bond orders larger than 0.100000
B(  0-C ,  1-C ) :   0.9945 B(  0-C ,  8-H ) :   0.9538 B(  0-C ,  9-H ) :   0.9721
B(  0-C , 10-H ) :   0.9489 B(  1-C ,  2-O ) :   1.8088 B(  1-C ,  3-N ) :   1.3237
B(  3-N ,  4-C ) :   0.9372 B(  3-N ,  7-C ) :   0.9182 B(  4-C ,  5-C ) :   1.0098
B(  4-C , 11-H ) :   0.9567 B(  4-C , 12-H ) :   0.9637 B(  5-C ,  6-C ) :   0.9810
B(  5-C , 13-H ) :   0.9691 B(  5-C , 14-H ) :   0.9698 B(  6-C ,  7-C ) :   1.0018
B(  6-C , 15-H ) :   0.9698 B(  6-C , 16-H ) :   0.9693 B(  7-C , 17-H ) :   0.9685
B(  7-C , 18-H ) :   0.9630

FINAL SINGLE POINT ENERGY      -365.292682233235

DIPOLE MOMENT
-------------

Method             : SCF
Type of density    : Electron Density
Multiplicity       :   1
Irrep              :   0
Energy             :  -365.3055288708345643 Eh
Relativity type    :
Basis              : AO
                                X                 Y                 Z
Electronic contribution:      3.270276888       2.647247008       0.023145957
Nuclear contribution   :     -5.197973468      -4.519610059       0.015668187
                        -----------------------------------------
Total Dipole Moment    :     -1.927696580      -1.872363051       0.038814143
                        -----------------------------------------
Magnitude (a.u.)       :      2.687613074
Magnitude (Debye)      :      6.831369537

Rotational constants in cm-1:             0.135254             0.051466             0.039172
Rotational constants in MHz :          4054.822898          1542.922887          1174.344122

                             ****ORCA TERMINATED NORMALLY****
TOTAL RUN TIME: 0 days 0 hours 3 minutes 7 seconds 445 msec
