                         Program Version 6.0.1  -  RELEASE   -
|  1> ! pbe def2-sv(p) def2/J RI DEFGRID1 loosescf d4 GCP(DFT/SV(P)) printgap
|  2> %output
|  3>     printlevel normal
|  4> end
|  5> * xyz 0 1
|  6> C 2.3945003022 -4.4518631298 -1.1228666099
|  7> C 3.5867165457 -3.5193296536 -1.2676680583
|  8> O 3.3737476711 -2.3114781792 -0.5128903961
|  9> C 2.7237362829 -1.3202686005 -1.0846546539
| 10> O 2.3392288886 -1.3127562443 -2.2329341198
| 11> C 2.5098302906 -0.1689588211 -0.1168332697
| 12> C 1.0487793843 0.2557348337 -0.1864016639
| 13> H 0.7773113013 0.4488393553 -1.232275584
| 14> C 0.7257896614 1.4983160169 0.6149109821
| 15> O -0.2902029208 1.575250654 1.281673156
| 16> O 1.6157540645 2.4356851839 0.4896214121
| 17> C 1.352830186 3.7197852203 1.1034807026
| 18> C 0.5134046305 4.5849331811 0.1785345587
| 19> S -0.0419349352 -1.0857650515 0.4278293372
| 20> P -1.886662681 -0.0748692062 0.268860334
| 21> S -2.1748131136 1.3969625808 -1.0080851814
| 22> O -2.6218318561 -1.4211771941 -0.2070840536
| 23> C -4.0191495095 -1.436294381 -0.5147289395
| 24> O -2.5985990735 0.0863975817 1.6889759343
| 25> C -2.7894085781 1.3035242082 2.4108409237
| 26> H 2.5920050299 -5.3771205447 -1.6537166088
| 27> H 2.214229193 -4.6677882303 -0.0735973008
| 28> H 1.5041877948 -3.9858139668 -1.5396345425
| 29> H 3.747243027 -3.2539551078 -2.3163378126
| 30> H 4.4893208678 -3.9560425157 -0.8406630029
| 31> H 3.1341010297 0.6731649653 -0.4207471633
| 32> H 2.7791570328 -0.4938019775 0.8866348599
| 33> H 0.8424627597 3.5544024609 2.0552273123
| 34> H 2.3419681338 4.1470839325 1.2647998949
| 35> H 0.3312877828 5.544811773 0.6498268412
| 36> H 1.0296769358 4.7398900816 -0.7645753438
| 37> H -0.4423063819 4.1046367077 -0.025191009
| 38> H -4.1944447832 -2.3725984516 -1.0385006193
| 39> H -4.2710765612 -0.5887912999 -1.1559984239
| 40> H -4.6040976786 -1.3933685063 0.4033682375
| 41> H -2.8313294985 2.1469919124 1.7206119606
| 42> H -1.9691235597 1.441681713 3.111472989
| 43> H -3.7354257544 1.1913420361 2.9361293049
| 44> *
| 45>
| 46>                          ****END OF INPUT****

CARTESIAN COORDINATES (ANGSTROEM)
---------------------------------
  C      2.394500   -4.451863   -1.122867
  C      3.586717   -3.519330   -1.267668
  O      3.373748   -2.311478   -0.512890
  C      2.723736   -1.320269   -1.084655
  O      2.339229   -1.312756   -2.232934
  C      2.509830   -0.168959   -0.116833
  C      1.048779    0.255735   -0.186402
  H      0.777311    0.448839   -1.232276
  C      0.725790    1.498316    0.614911
  O     -0.290203    1.575251    1.281673
  O      1.615754    2.435685    0.489621
  C      1.352830    3.719785    1.103481
  C      0.513405    4.584933    0.178535
  S     -0.041935   -1.085765    0.427829
  P     -1.886663   -0.074869    0.268860
  S     -2.174813    1.396963   -1.008085
  O     -2.621832   -1.421177   -0.207084
  C     -4.019150   -1.436294   -0.514729
  O     -2.598599    0.086398    1.688976
  C     -2.789409    1.303524    2.410841
  H      2.592005   -5.377121   -1.653717
  H      2.214229   -4.667788   -0.073597
  H      1.504188   -3.985814   -1.539635
  H      3.747243   -3.253955   -2.316338
  H      4.489321   -3.956043   -0.840663
  H      3.134101    0.673165   -0.420747
  H      2.779157   -0.493802    0.886635
  H      0.842463    3.554402    2.055227
  H      2.341968    4.147084    1.264800
  H      0.331288    5.544812    0.649827
  H      1.029677    4.739890   -0.764575
  H     -0.442306    4.104637   -0.025191
  H     -4.194445   -2.372598   -1.038501
  H     -4.271077   -0.588791   -1.155998
  H     -4.604098   -1.393369    0.403368
  H     -2.831329    2.146992    1.720612
  H     -1.969124    1.441682    3.111473
  H     -3.735426    1.191342    2.936129

 Total Charge           Charge          ....    0
 Multiplicity           Mult            ....    1
 Number of Electrons    NEL             ....  174
 Basis Dimension        Dim             ....  316

ORBITAL ENERGIES
----------------

  NO   OCC          E(Eh)            E(eV)
   0   2.0000     -88.032208     -2395.4782
   1   2.0000     -87.970345     -2393.7948
   2   2.0000     -76.416549     -2079.4000
   3   2.0000     -18.828606      -512.3524
   4   2.0000     -18.806924      -511.7624
   5   2.0000     -18.781021      -511.0576
   6   2.0000     -18.769018      -510.7309
   7   2.0000     -18.761290      -510.5207
   8   2.0000     -18.740944      -509.9670
   9   2.0000     -10.031170      -272.9620
  10   2.0000     -10.013631      -272.4847
  11   2.0000      -9.962793      -271.1014
  12   2.0000      -9.949040      -270.7271
  13   2.0000      -9.947841      -270.6945
  14   2.0000      -9.932303      -270.2717
  15   2.0000      -9.929038      -270.1829
  16   2.0000      -9.917595      -269.8715
  17   2.0000      -9.892303      -269.1832
  18   2.0000      -9.885153      -268.9887
  19   2.0000      -7.677402      -208.9127
  20   2.0000      -7.615469      -207.2274
  21   2.0000      -6.412405      -174.4904
  22   2.0000      -5.705473      -155.2538
  23   2.0000      -5.702339      -155.1685
  24   2.0000      -5.693746      -154.9347
  25   2.0000      -5.644543      -153.5958
  26   2.0000      -5.636368      -153.3734
  27   2.0000      -5.635160      -153.3405
  28   2.0000      -4.635008      -126.1250
  29   2.0000      -4.634395      -126.1083
  30   2.0000      -4.633027      -126.0711
  31   2.0000      -1.037976       -28.2448
  32   2.0000      -1.014600       -27.6087
  33   2.0000      -0.968782       -26.3619
  34   2.0000      -0.941290       -25.6138
  35   2.0000      -0.923419       -25.1275
  36   2.0000      -0.919010       -25.0075
  37   2.0000      -0.767121       -20.8744
  38   2.0000      -0.717925       -19.5357
  39   2.0000      -0.711309       -19.3557
  40   2.0000      -0.688758       -18.7420
  41   2.0000      -0.649744       -17.6804
  42   2.0000      -0.628930       -17.1140
  43   2.0000      -0.618742       -16.8368
  44   2.0000      -0.615523       -16.7492
  45   2.0000      -0.597710       -16.2645
  46   2.0000      -0.565428       -15.3861
  47   2.0000      -0.513810       -13.9815
  48   2.0000      -0.503979       -13.7140
  49   2.0000      -0.500536       -13.6203
  50   2.0000      -0.483378       -13.1534
  51   2.0000      -0.467342       -12.7170
  52   2.0000      -0.462604       -12.5881
  53   2.0000      -0.451811       -12.2944
  54   2.0000      -0.445520       -12.1232
  55   2.0000      -0.429271       -11.6811
  56   2.0000      -0.427197       -11.6246
  57   2.0000      -0.418803       -11.3962
  58   2.0000      -0.412411       -11.2223
  59   2.0000      -0.403804       -10.9881
  60   2.0000      -0.400471       -10.8974
  61   2.0000      -0.396349       -10.7852
  62   2.0000      -0.389548       -10.6001
  63   2.0000      -0.384345       -10.4586
  64   2.0000      -0.373894       -10.1742
  65   2.0000      -0.370589       -10.0842
  66   2.0000      -0.363149        -9.8818
  67   2.0000      -0.357554        -9.7295
  68   2.0000      -0.348653        -9.4873
  69   2.0000      -0.339987        -9.2515
  70   2.0000      -0.339217        -9.2306
  71   2.0000      -0.329986        -8.9794
  72   2.0000      -0.326184        -8.8759
  73   2.0000      -0.310881        -8.4595
  74   2.0000      -0.305440        -8.3114
  75   2.0000      -0.295224        -8.0334
  76   2.0000      -0.292442        -7.9578
  77   2.0000      -0.284567        -7.7435
  78   2.0000      -0.275447        -7.4953
  79   2.0000      -0.263054        -7.1581
  80   2.0000      -0.259834        -7.0705
  81   2.0000      -0.254453        -6.9240
  82   2.0000      -0.244976        -6.6661
  83   2.0000      -0.227851        -6.2001
  84   2.0000      -0.208774        -5.6810
  85   2.0000      -0.192726        -5.2443
  86   2.0000      -0.183639        -4.9971
  87   0.0000      -0.049679        -1.3518
  88   0.0000      -0.040440        -1.1004
  89   0.0000      -0.018478        -0.5028
  90   0.0000       0.010966         0.2984
  91   0.0000       0.036651         0.9973

MULLIKEN ATOMIC CHARGES
-----------------------
   0 C :   -0.305923
   1 C :   -0.016175
   2 O :   -0.222252
   3 C :    0.126250
   4 O :   -0.197008
   5 C :   -0.096871
   6 C :   -0.326923
   7 H :    0.173214
   8 C :    0.245731
   9 O :   -0.199811
  10 O :   -0.215911
  11 C :   -0.013352
  12 C :   -0.313833
  13 S :   -0.078133
  14 P :    0.654385
  15 S :   -0.358847
  16 O :   -0.388799
  17 C :   -0.095784
  18 O :   -0.389903
  19 C :   -0.083865
  20 H :    0.113026
  21 H :    0.116536
  22 H :    0.136248
  23 H :    0.110485
  24 H :    0.103898
  25 H :    0.134513
  26 H :    0.106776
  27 H :    0.112562
  28 H :    0.109424
  29 H :    0.115661
  30 H :    0.119645
  31 H :    0.143980
  32 H :    0.120667
  33 H :    0.112317
  34 H :    0.106517
  35 H :    0.112862
  36 H :    0.114842
  37 H :    0.113848
Sum of atomic charges:   -0.0000000

LOEWDIN ATOMIC CHARGES
----------------------
   0 C :   -0.355385
   1 C :   -0.111299
   2 O :   -0.053762
   3 C :    0.026305
   4 O :   -0.161779
   5 C :   -0.248841
   6 C :   -0.263074
   7 H :    0.154496
   8 C :    0.028104
   9 O :   -0.157231
  10 O :   -0.031125
  11 C :   -0.104909
  12 C :   -0.357801
  13 S :    0.113841
  14 P :    0.591832
  15 S :   -0.350402
  16 O :   -0.268548
  17 C :   -0.215635
  18 O :   -0.250614
  19 C :   -0.211244
  20 H :    0.130612
  21 H :    0.126264
  22 H :    0.134347
  23 H :    0.120922
  24 H :    0.118104
  25 H :    0.153143
  26 H :    0.134459
  27 H :    0.121859
  28 H :    0.121081
  29 H :    0.132653
  30 H :    0.128349
  31 H :    0.134470
  32 H :    0.119977
  33 H :    0.107792
  34 H :    0.108463
  35 H :    0.107690
  36 H :    0.112354
  37 H :    0.114530

  Mayer bond orders larger than 0.100000
B(  0-C ,  1-C ) :   1.1755 B(  0-C , 20-H ) :   0.9437 B(  0-C , 21-H ) :   0.9485
B(  0-C , 22-H ) :   0.9436 B(  1-C ,  2-O ) :   0.9097 B(  1-C , 23-H ) :   0.9125
B(  1-C , 24-H ) :   0.9370 B(  2-O ,  3-C ) :   1.2492 B(  3-C ,  4-O ) :   2.0446
B(  3-C ,  5-C ) :   0.9969 B(  5-C ,  6-C ) :   1.0982 B(  5-C , 25-H ) :   0.8718
B(  5-C , 26-H ) :   0.9057 B(  6-C ,  7-H ) :   0.8311 B(  6-C ,  8-C ) :   0.9162
B(  6-C , 13-S ) :   1.0248 B(  8-C ,  9-O ) :   1.9165 B(  8-C , 10-O ) :   1.2919
B(  9-O , 14-P ) :   0.1225 B( 10-O , 11-C ) :   0.8928 B( 11-C , 12-C ) :   1.1786
B( 11-C , 27-H ) :   0.9148 B( 11-C , 28-H ) :   0.9359 B( 12-C , 29-H ) :   0.9414
B( 12-C , 30-H ) :   0.9476 B( 12-C , 31-H ) :   0.9334 B( 13-S , 14-P ) :   0.9321
B( 13-S , 15-S ) :   0.1081 B( 14-P , 15-S ) :   1.5668 B( 14-P , 16-O ) :   1.0839
B( 14-P , 18-O ) :   1.0967 B( 16-O , 17-C ) :   0.9407 B( 17-C , 32-H ) :   0.9611
B( 17-C , 33-H ) :   0.9333 B( 17-C , 34-H ) :   0.9511 B( 18-O , 19-C ) :   0.9303
B( 19-C , 35-H ) :   0.9350 B( 19-C , 36-H ) :   0.9533 B( 19-C , 37-H ) :   0.9541

Dispersion correction           -0.050311407
FINAL SINGLE POINT ENERGY     -1979.014401392374

DIPOLE MOMENT
-------------

Method             : SCF
Type of density    : Electron Density
Multiplicity       :   1
Irrep              :   0
Energy             : -1979.1462148553623592 Eh
Relativity type    :
Basis              : AO
                                X                 Y                 Z
Electronic contribution:     -4.354580265      -1.436050292      -0.510785414
Nuclear contribution   :      5.281051046       1.829715669       1.629310722
                        -----------------------------------------
Total Dipole Moment    :      0.926470781       0.393665377       1.118525307
                        -----------------------------------------
Magnitude (a.u.)       :      1.504798791
Magnitude (Debye)      :      3.824894556

Rotational constants in cm-1:             0.011657             0.007150             0.005114
Rotational constants in MHz :           349.464033           214.346888           153.315775

                             ****ORCA TERMINATED NORMALLY****
TOTAL RUN TIME: 0 days 0 hours 0 minutes 42 seconds 124 msec
