                         Program Version 6.0.1  -  RELEASE   -
|  1> ! r2scan-3c def2/J RI DEFGRID2 scfconv6 printgap
|  2> %output
|  3>     printlevel normal
|  4> end
|  5> * xyz 0 1
|  6> C 5.4145862162 -1.2915432653 -0.4264129338
|  7> C 4.7236456363 -1.8535659038 -1.6583299061
|  8> O 3.3644071303 -2.2098965266 -1.3414274188
|  9> C 2.4038615223 -1.351222723 -1.6116594143
| 10> O 2.5538101541 -0.2986444877 -2.1941325955
| 11> C 1.0538220923 -1.87269365 -1.1490726356
| 12> C 0.2766423519 -0.719668344 -0.5319296555
| 13> H 0.1565806116 0.0882407911 -1.26895111
| 14> C 1.0329149375 -0.1119913697 0.6339269416
| 15> O 2.2313185148 -0.2076583387 0.7641454462
| 16> O 0.2302796989 0.5329645777 1.454553452
| 17> C 0.8111227359 1.2704836182 2.5497446578
| 18> C 1.2075487717 2.6674176887 2.1047896826
| 19> S -1.3909784522 -1.2389916671 -0.0220290696
| 20> P -2.2703541012 0.6922862783 0.1918975152
| 21> S -1.4384583872 2.1591352549 -0.8027516159
| 22> O -3.7883073877 0.39674639 -0.2284926294
| 23> C -4.1418304138 0.1091850311 -1.5850200117
| 24> O -2.468493373 0.9967011742 1.7280028371
| 25> C -3.1622641558 0.0835362939 2.6020134659
| 26> H 6.4303221419 -1.0052542059 -0.677869529
| 27> H 4.8722786609 -0.418875895 -0.0685195833
| 28> H 5.4319175923 -2.0356587121 0.36440843
| 29> H 5.1898299673 -2.7818632259 -1.9904680379
| 30> H 4.7109106008 -1.1198410407 -2.4692845058
| 31> H 1.2089667025 -2.677418203 -0.4317451105
| 32> H 0.5117954475 -2.2571624767 -2.0140939448
| 33> H 0.0236466075 1.3022694681 3.3024709817
| 34> H 1.6777141343 0.7121634357 2.9142388023
| 35> H 1.5703203504 3.2290272034 2.9589006868
| 36> H 1.9919093388 2.6150691294 1.3523659424
| 37> H 0.3491867845 3.1786380336 1.67451165
| 38> H -3.8001063241 -0.8904305329 -1.8529615541
| 39> H -3.6974795734 0.8476116633 -2.2544246732
| 40> H -5.2265665562 0.167030957 -1.6239990501
| 41> H -4.2050098361 0.0027556051 2.3021859818
| 42> H -3.0794566905 0.5200213185 3.5939229515
| 43> H -2.687283577 -0.8969689946 2.5685104805
| 44> *
| 45>
| 46>                          ****END OF INPUT****

CARTESIAN COORDINATES (ANGSTROEM)
---------------------------------
  C      5.414586   -1.291543   -0.426413
  C      4.723646   -1.853566   -1.658330
  O      3.364407   -2.209897   -1.341427
  C      2.403862   -1.351223   -1.611659
  O      2.553810   -0.298644   -2.194133
  C      1.053822   -1.872694   -1.149073
  C      0.276642   -0.719668   -0.531930
  H      0.156581    0.088241   -1.268951
  C      1.032915   -0.111991    0.633927
  O      2.231319   -0.207658    0.764145
  O      0.230280    0.532965    1.454553
  C      0.811123    1.270484    2.549745
  C      1.207549    2.667418    2.104790
  S     -1.390978   -1.238992   -0.022029
  P     -2.270354    0.692286    0.191898
  S     -1.438458    2.159135   -0.802752
  O     -3.788307    0.396746   -0.228493
  C     -4.141830    0.109185   -1.585020
  O     -2.468493    0.996701    1.728003
  C     -3.162264    0.083536    2.602013
  H      6.430322   -1.005254   -0.677870
  H      4.872279   -0.418876   -0.068520
  H      5.431918   -2.035659    0.364408
  H      5.189830   -2.781863   -1.990468
  H      4.710911   -1.119841   -2.469285
  H      1.208967   -2.677418   -0.431745
  H      0.511795   -2.257162   -2.014094
  H      0.023647    1.302269    3.302471
  H      1.677714    0.712163    2.914239
  H      1.570320    3.229027    2.958901
  H      1.991909    2.615069    1.352366
  H      0.349187    3.178638    1.674512
  H     -3.800106   -0.890431   -1.852962
  H     -3.697480    0.847612   -2.254425
  H     -5.226567    0.167031   -1.623999
  H     -4.205010    0.002756    2.302186
  H     -3.079457    0.520021    3.593923
  H     -2.687284   -0.896969    2.568510

 Total Charge           Charge          ....    0
 Multiplicity           Mult            ....    1
 Number of Electrons    NEL             ....  174
 Basis Dimension        Dim             ....  510

ORBITAL ENERGIES
----------------

  NO   OCC          E(Eh)            E(eV)
   0   2.0000     -88.579377     -2410.3674
   1   2.0000     -88.520332     -2408.7607
   2   2.0000     -76.916904     -2093.0154
   3   2.0000     -19.005571      -517.1679
   4   2.0000     -18.998328      -516.9708
   5   2.0000     -18.994087      -516.8554
   6   2.0000     -18.993742      -516.8460
   7   2.0000     -18.942808      -515.4600
   8   2.0000     -18.923573      -514.9366
   9   2.0000     -10.165573      -276.6193
  10   2.0000     -10.154634      -276.3216
  11   2.0000     -10.102396      -274.9002
  12   2.0000     -10.094851      -274.6949
  13   2.0000     -10.093676      -274.6629
  14   2.0000     -10.093449      -274.6567
  15   2.0000     -10.085295      -274.4348
  16   2.0000     -10.058906      -273.7168
  17   2.0000     -10.023241      -272.7462
  18   2.0000     -10.019763      -272.6516
  19   2.0000      -7.873557      -214.2504
  20   2.0000      -7.814962      -212.6559
  21   2.0000      -6.595129      -179.4626
  22   2.0000      -5.820337      -158.3794
  23   2.0000      -5.817487      -158.3019
  24   2.0000      -5.810729      -158.1180
  25   2.0000      -5.762904      -156.8166
  26   2.0000      -5.755225      -156.6076
  27   2.0000      -5.754716      -156.5938
  28   2.0000      -4.740888      -129.0061
  29   2.0000      -4.740172      -128.9866
  30   2.0000      -4.738567      -128.9430
  31   2.0000      -1.085505       -29.5381
  32   2.0000      -1.069931       -29.1143
  33   2.0000      -1.054798       -28.7025
  34   2.0000      -1.012226       -27.5441
  35   2.0000      -0.992463       -27.0063
  36   2.0000      -0.973822       -26.4991
  37   2.0000      -0.811354       -22.0781
  38   2.0000      -0.751480       -20.4488
  39   2.0000      -0.741602       -20.1800
  40   2.0000      -0.731741       -19.9117
  41   2.0000      -0.697898       -18.9908
  42   2.0000      -0.679702       -18.4956
  43   2.0000      -0.660287       -17.9673
  44   2.0000      -0.650845       -17.7104
  45   2.0000      -0.624742       -17.0001
  46   2.0000      -0.593341       -16.1456
  47   2.0000      -0.544740       -14.8231
  48   2.0000      -0.528290       -14.3755
  49   2.0000      -0.521341       -14.1864
  50   2.0000      -0.499397       -13.5893
  51   2.0000      -0.494376       -13.4527
  52   2.0000      -0.487823       -13.2743
  53   2.0000      -0.461265       -12.5517
  54   2.0000      -0.458315       -12.4714
  55   2.0000      -0.452797       -12.3212
  56   2.0000      -0.449683       -12.2365
  57   2.0000      -0.440705       -11.9922
  58   2.0000      -0.437632       -11.9086
  59   2.0000      -0.434643       -11.8272
  60   2.0000      -0.422016       -11.4836
  61   2.0000      -0.417371       -11.3572
  62   2.0000      -0.412363       -11.2210
  63   2.0000      -0.398367       -10.8401
  64   2.0000      -0.387332       -10.5398
  65   2.0000      -0.379358       -10.3228
  66   2.0000      -0.367961       -10.0127
  67   2.0000      -0.366547        -9.9743
  68   2.0000      -0.362205        -9.8561
  69   2.0000      -0.353637        -9.6230
  70   2.0000      -0.344418        -9.3721
  71   2.0000      -0.340653        -9.2696
  72   2.0000      -0.334430        -9.1003
  73   2.0000      -0.331190        -9.0121
  74   2.0000      -0.324410        -8.8277
  75   2.0000      -0.317439        -8.6380
  76   2.0000      -0.310270        -8.4429
  77   2.0000      -0.301211        -8.1964
  78   2.0000      -0.290657        -7.9092
  79   2.0000      -0.283998        -7.7280
  80   2.0000      -0.278707        -7.5840
  81   2.0000      -0.267304        -7.2737
  82   2.0000      -0.264416        -7.1951
  83   2.0000      -0.236201        -6.4274
  84   2.0000      -0.229871        -6.2551
  85   2.0000      -0.219896        -5.9837
  86   2.0000      -0.214800        -5.8450
  87   0.0000      -0.048256        -1.3131
  88   0.0000      -0.028271        -0.7693
  89   0.0000      -0.008368        -0.2277
  90   0.0000       0.004713         0.1283
  91   0.0000       0.016975         0.4619

MULLIKEN ATOMIC CHARGES
-----------------------
   0 C :   -0.457744
   1 C :   -0.152878
   2 O :   -0.149678
   3 C :    0.346564
   4 O :   -0.404031
   5 C :   -0.427825
   6 C :    0.043812
   7 H :    0.265111
   8 C :    0.241640
   9 O :   -0.391446
  10 O :   -0.117165
  11 C :   -0.142523
  12 C :   -0.471044
  13 S :   -0.220862
  14 P :    0.776482
  15 S :   -0.443666
  16 O :   -0.351110
  17 C :   -0.295007
  18 O :   -0.313282
  19 C :   -0.290066
  20 H :    0.143125
  21 H :    0.180843
  22 H :    0.147437
  23 H :    0.144587
  24 H :    0.176358
  25 H :    0.189627
  26 H :    0.185389
  27 H :    0.149761
  28 H :    0.166099
  29 H :    0.145862
  30 H :    0.169691
  31 H :    0.176024
  32 H :    0.157911
  33 H :    0.176235
  34 H :    0.151879
  35 H :    0.170495
  36 H :    0.155574
  37 H :    0.167822
Sum of atomic charges:    0.0000000

LOEWDIN ATOMIC CHARGES
----------------------
   0 C :   -0.387360
   1 C :    0.031009
   2 O :   -0.579554
   3 C :    0.360882
   4 O :   -0.432001
   5 C :   -0.204476
   6 C :   -0.203404
   7 H :    0.224685
   8 C :    0.367405
   9 O :   -0.412417
  10 O :   -0.619760
  11 C :    0.035946
  12 C :   -0.388024
  13 S :    0.192152
  14 P :    0.399567
  15 S :   -0.084283
  16 O :   -0.687353
  17 C :   -0.059365
  18 O :   -0.648863
  19 C :   -0.051021
  20 H :    0.156453
  21 H :    0.172302
  22 H :    0.157058
  23 H :    0.175927
  24 H :    0.191540
  25 H :    0.190789
  26 H :    0.188948
  27 H :    0.180628
  28 H :    0.189260
  29 H :    0.157529
  30 H :    0.166424
  31 H :    0.168058
  32 H :    0.168883
  33 H :    0.177455
  34 H :    0.177136
  35 H :    0.175544
  36 H :    0.179285
  37 H :    0.173013

  Mayer bond orders larger than 0.100000
B(  0-C ,  1-C ) :   0.9459 B(  0-C , 20-H ) :   0.9686 B(  0-C , 21-H ) :   0.9653
B(  0-C , 22-H ) :   0.9710 B(  1-C ,  2-O ) :   0.7963 B(  1-C , 23-H ) :   0.9617
B(  1-C , 24-H ) :   0.9693 B(  2-O ,  3-C ) :   1.0956 B(  3-C ,  4-O ) :   1.8742
B(  3-C ,  5-C ) :   0.8790 B(  5-C ,  6-C ) :   0.8998 B(  5-C , 25-H ) :   1.0054
B(  5-C , 26-H ) :   0.9415 B(  6-C ,  7-H ) :   0.8730 B(  6-C ,  8-C ) :   0.9546
B(  6-C , 13-S ) :   0.8121 B(  8-C ,  9-O ) :   1.8076 B(  8-C , 10-O ) :   1.1766
B( 10-O , 11-C ) :   0.7715 B( 11-C , 12-C ) :   0.9301 B( 11-C , 27-H ) :   0.9626
B( 11-C , 28-H ) :   0.9598 B( 12-C , 29-H ) :   0.9674 B( 12-C , 30-H ) :   0.9695
B( 12-C , 31-H ) :   0.9667 B( 13-S , 14-P ) :   0.9830 B( 14-P , 15-S ) :   1.8123
B( 14-P , 16-O ) :   1.0331 B( 14-P , 18-O ) :   1.1408 B( 16-O , 17-C ) :   0.8314
B( 17-C , 32-H ) :   0.9564 B( 17-C , 33-H ) :   0.9587 B( 17-C , 34-H ) :   0.9673
B( 18-O , 19-C ) :   0.7956 B( 19-C , 35-H ) :   0.9603 B( 19-C , 36-H ) :   0.9656
B( 19-C , 37-H ) :   0.9560

Dispersion correction           -0.017383253
FINAL SINGLE POINT ENERGY     -1981.454847773698

DIPOLE MOMENT
-------------

Method             : SCF
Type of density    : Electron Density
Multiplicity       :   1
Irrep              :   0
Energy             : -1981.4749565921774774 Eh
Relativity type    :
Basis              : AO
                                X                 Y                 Z
Electronic contribution:    -13.573467352       0.845432262      -4.788560359
Nuclear contribution   :     12.864733543      -1.989705147       5.839901302
                        -----------------------------------------
Total Dipole Moment    :     -0.708733809      -1.144272885       1.051340944
                        -----------------------------------------
Magnitude (a.u.)       :      1.707917395
Magnitude (Debye)      :      4.341181018

Rotational constants in cm-1:             0.016605             0.005916             0.005219
Rotational constants in MHz :           497.806916           177.367518           156.461813

                             ****ORCA TERMINATED NORMALLY****
TOTAL RUN TIME: 0 days 0 hours 1 minutes 36 seconds 262 msec
