                         Program Version 6.0.1  -  RELEASE   -
|  1> ! r2scan-3c def2/J RI DEFGRID2 scfconv6 printgap
|  2> %output
|  3>     printlevel normal
|  4> end
|  5> %cpcm
|  6>     smd true
|  7>     smdsolvent "water"
|  8> end
|  9> * xyz 0 1
| 10> C 5.4145862162 -1.2915432653 -0.4264129338
| 11> C 4.7236456363 -1.8535659038 -1.6583299061
| 12> O 3.3644071303 -2.2098965266 -1.3414274188
| 13> C 2.4038615223 -1.351222723 -1.6116594143
| 14> O 2.5538101541 -0.2986444877 -2.1941325955
| 15> C 1.0538220923 -1.87269365 -1.1490726356
| 16> C 0.2766423519 -0.719668344 -0.5319296555
| 17> H 0.1565806116 0.0882407911 -1.26895111
| 18> C 1.0329149375 -0.1119913697 0.6339269416
| 19> O 2.2313185148 -0.2076583387 0.7641454462
| 20> O 0.2302796989 0.5329645777 1.454553452
| 21> C 0.8111227359 1.2704836182 2.5497446578
| 22> C 1.2075487717 2.6674176887 2.1047896826
| 23> S -1.3909784522 -1.2389916671 -0.0220290696
| 24> P -2.2703541012 0.6922862783 0.1918975152
| 25> S -1.4384583872 2.1591352549 -0.8027516159
| 26> O -3.7883073877 0.39674639 -0.2284926294
| 27> C -4.1418304138 0.1091850311 -1.5850200117
| 28> O -2.468493373 0.9967011742 1.7280028371
| 29> C -3.1622641558 0.0835362939 2.6020134659
| 30> H 6.4303221419 -1.0052542059 -0.677869529
| 31> H 4.8722786609 -0.418875895 -0.0685195833
| 32> H 5.4319175923 -2.0356587121 0.36440843
| 33> H 5.1898299673 -2.7818632259 -1.9904680379
| 34> H 4.7109106008 -1.1198410407 -2.4692845058
| 35> H 1.2089667025 -2.677418203 -0.4317451105
| 36> H 0.5117954475 -2.2571624767 -2.0140939448
| 37> H 0.0236466075 1.3022694681 3.3024709817
| 38> H 1.6777141343 0.7121634357 2.9142388023
| 39> H 1.5703203504 3.2290272034 2.9589006868
| 40> H 1.9919093388 2.6150691294 1.3523659424
| 41> H 0.3491867845 3.1786380336 1.67451165
| 42> H -3.8001063241 -0.8904305329 -1.8529615541
| 43> H -3.6974795734 0.8476116633 -2.2544246732
| 44> H -5.2265665562 0.167030957 -1.6239990501
| 45> H -4.2050098361 0.0027556051 2.3021859818
| 46> H -3.0794566905 0.5200213185 3.5939229515
| 47> H -2.687283577 -0.8969689946 2.5685104805
| 48> *
| 49>
| 50>                          ****END OF INPUT****

CARTESIAN COORDINATES (ANGSTROEM)
---------------------------------
  C      5.414586   -1.291543   -0.426413
  C      4.723646   -1.853566   -1.658330
  O      3.364407   -2.209897   -1.341427
  C      2.403862   -1.351223   -1.611659
  O      2.553810   -0.298644   -2.194133
  C      1.053822   -1.872694   -1.149073
  C      0.276642   -0.719668   -0.531930
  H      0.156581    0.088241   -1.268951
  C      1.032915   -0.111991    0.633927
  O      2.231319   -0.207658    0.764145
  O      0.230280    0.532965    1.454553
  C      0.811123    1.270484    2.549745
  C      1.207549    2.667418    2.104790
  S     -1.390978   -1.238992   -0.022029
  P     -2.270354    0.692286    0.191898
  S     -1.438458    2.159135   -0.802752
  O     -3.788307    0.396746   -0.228493
  C     -4.141830    0.109185   -1.585020
  O     -2.468493    0.996701    1.728003
  C     -3.162264    0.083536    2.602013
  H      6.430322   -1.005254   -0.677870
  H      4.872279   -0.418876   -0.068520
  H      5.431918   -2.035659    0.364408
  H      5.189830   -2.781863   -1.990468
  H      4.710911   -1.119841   -2.469285
  H      1.208967   -2.677418   -0.431745
  H      0.511795   -2.257162   -2.014094
  H      0.023647    1.302269    3.302471
  H      1.677714    0.712163    2.914239
  H      1.570320    3.229027    2.958901
  H      1.991909    2.615069    1.352366
  H      0.349187    3.178638    1.674512
  H     -3.800106   -0.890431   -1.852962
  H     -3.697480    0.847612   -2.254425
  H     -5.226567    0.167031   -1.623999
  H     -4.205010    0.002756    2.302186
  H     -3.079457    0.520021    3.593923
  H     -2.687284   -0.896969    2.568510

 Total Charge           Charge          ....    0
 Multiplicity           Mult            ....    1
 Number of Electrons    NEL             ....  174
 Basis Dimension        Dim             ....  510

ORBITAL ENERGIES
----------------

  NO   OCC          E(Eh)            E(eV)
   0   2.0000     -88.581879     -2410.4355
   1   2.0000     -88.529845     -2409.0195
   2   2.0000     -76.921643     -2093.1443
   3   2.0000     -19.010694      -517.3073
   4   2.0000     -19.006479      -517.1926
   5   2.0000     -18.998383      -516.9723
   6   2.0000     -18.994728      -516.8728
   7   2.0000     -18.955829      -515.8143
   8   2.0000     -18.945319      -515.5283
   9   2.0000     -10.175732      -276.8957
  10   2.0000     -10.171506      -276.7808
  11   2.0000     -10.097531      -274.7678
  12   2.0000     -10.087951      -274.5071
  13   2.0000     -10.085390      -274.4374
  14   2.0000     -10.084480      -274.4127
  15   2.0000     -10.081639      -274.3353
  16   2.0000     -10.057276      -273.6724
  17   2.0000     -10.018862      -272.6271
  18   2.0000     -10.018597      -272.6199
  19   2.0000      -7.875969      -214.3160
  20   2.0000      -7.824852      -212.9251
  21   2.0000      -6.599913      -179.5928
  22   2.0000      -5.822819      -158.4470
  23   2.0000      -5.819973      -158.3695
  24   2.0000      -5.813002      -158.1798
  25   2.0000      -5.772651      -157.0818
  26   2.0000      -5.765188      -156.8788
  27   2.0000      -5.764602      -156.8628
  28   2.0000      -4.745607      -129.1345
  29   2.0000      -4.744916      -129.1157
  30   2.0000      -4.743502      -129.0773
  31   2.0000      -1.092423       -29.7263
  32   2.0000      -1.083990       -29.4969
  33   2.0000      -1.054846       -28.7038
  34   2.0000      -1.011659       -27.5286
  35   2.0000      -1.003720       -27.3126
  36   2.0000      -0.993703       -27.0400
  37   2.0000      -0.814323       -22.1589
  38   2.0000      -0.753375       -20.5004
  39   2.0000      -0.739832       -20.1319
  40   2.0000      -0.731304       -19.8998
  41   2.0000      -0.696698       -18.9581
  42   2.0000      -0.671047       -18.2601
  43   2.0000      -0.660713       -17.9789
  44   2.0000      -0.652966       -17.7681
  45   2.0000      -0.626727       -17.0541
  46   2.0000      -0.593449       -16.1486
  47   2.0000      -0.541951       -14.7472
  48   2.0000      -0.528766       -14.3885
  49   2.0000      -0.524383       -14.2692
  50   2.0000      -0.498461       -13.5638
  51   2.0000      -0.496373       -13.5070
  52   2.0000      -0.489422       -13.3178
  53   2.0000      -0.467018       -12.7082
  54   2.0000      -0.463258       -12.6059
  55   2.0000      -0.459538       -12.5047
  56   2.0000      -0.451624       -12.2893
  57   2.0000      -0.447224       -12.1696
  58   2.0000      -0.439163       -11.9502
  59   2.0000      -0.427794       -11.6409
  60   2.0000      -0.421855       -11.4793
  61   2.0000      -0.412557       -11.2262
  62   2.0000      -0.410798       -11.1784
  63   2.0000      -0.402624       -10.9559
  64   2.0000      -0.387092       -10.5333
  65   2.0000      -0.381306       -10.3759
  66   2.0000      -0.370289       -10.0761
  67   2.0000      -0.368322       -10.0226
  68   2.0000      -0.361831        -9.8459
  69   2.0000      -0.354413        -9.6441
  70   2.0000      -0.346743        -9.4353
  71   2.0000      -0.342789        -9.3278
  72   2.0000      -0.337705        -9.1894
  73   2.0000      -0.332197        -9.0396
  74   2.0000      -0.321434        -8.7467
  75   2.0000      -0.316299        -8.6069
  76   2.0000      -0.308786        -8.4025
  77   2.0000      -0.305486        -8.3127
  78   2.0000      -0.289617        -7.8809
  79   2.0000      -0.287950        -7.8355
  80   2.0000      -0.280782        -7.6405
  81   2.0000      -0.278914        -7.5896
  82   2.0000      -0.275548        -7.4981
  83   2.0000      -0.257651        -7.0110
  84   2.0000      -0.237567        -6.4645
  85   2.0000      -0.230450        -6.2709
  86   2.0000      -0.223941        -6.0937
  87   0.0000      -0.053715        -1.4617
  88   0.0000      -0.036030        -0.9804
  89   0.0000      -0.021586        -0.5874
  90   0.0000       0.002673         0.0727
  91   0.0000       0.013644         0.3713

MULLIKEN ATOMIC CHARGES
-----------------------
   0 C :   -0.499133
   1 C :   -0.140207
   2 O :   -0.175195
   3 C :    0.365958
   4 O :   -0.482586
   5 C :   -0.436346
   6 C :    0.039243
   7 H :    0.266955
   8 C :    0.265768
   9 O :   -0.449768
  10 O :   -0.121203
  11 C :   -0.150785
  12 C :   -0.503459
  13 S :   -0.204718
  14 P :    0.799142
  15 S :   -0.503956
  16 O :   -0.376205
  17 C :   -0.306825
  18 O :   -0.349033
  19 C :   -0.295522
  20 H :    0.170898
  21 H :    0.169038
  22 H :    0.168290
  23 H :    0.174366
  24 H :    0.178533
  25 H :    0.215819
  26 H :    0.224588
  27 H :    0.182409
  28 H :    0.177919
  29 H :    0.173640
  30 H :    0.171695
  31 H :    0.170559
  32 H :    0.175268
  33 H :    0.177035
  34 H :    0.179783
  35 H :    0.184859
  36 H :    0.183926
  37 H :    0.179251
Sum of atomic charges:    0.0000000

LOEWDIN ATOMIC CHARGES
----------------------
   0 C :   -0.391250
   1 C :    0.037213
   2 O :   -0.583900
   3 C :    0.367953
   4 O :   -0.489169
   5 C :   -0.197596
   6 C :   -0.202570
   7 H :    0.223264
   8 C :    0.372575
   9 O :   -0.453393
  10 O :   -0.618132
  11 C :    0.041979
  12 C :   -0.392394
  13 S :    0.211243
  14 P :    0.402370
  15 S :   -0.130152
  16 O :   -0.696006
  17 C :   -0.055056
  18 O :   -0.666665
  19 C :   -0.041705
  20 H :    0.167564
  21 H :    0.164884
  22 H :    0.162276
  23 H :    0.189242
  24 H :    0.192449
  25 H :    0.201554
  26 H :    0.204782
  27 H :    0.192933
  28 H :    0.194084
  29 H :    0.168038
  30 H :    0.163837
  31 H :    0.163993
  32 H :    0.176168
  33 H :    0.177563
  34 H :    0.188886
  35 H :    0.182220
  36 H :    0.191665
  37 H :    0.179252

  Mayer bond orders larger than 0.100000
B(  0-C ,  1-C ) :   0.9290 B(  0-C , 20-H ) :   0.9614 B(  0-C , 21-H ) :   0.9679
B(  0-C , 22-H ) :   0.9697 B(  1-C ,  2-O ) :   0.7824 B(  1-C , 23-H ) :   0.9512
B(  1-C , 24-H ) :   0.9646 B(  2-O ,  3-C ) :   1.1072 B(  3-C ,  4-O ) :   1.8106
B(  3-C ,  5-C ) :   0.8912 B(  5-C ,  6-C ) :   0.8751 B(  5-C , 25-H ) :   0.9954
B(  5-C , 26-H ) :   0.9284 B(  6-C ,  7-H ) :   0.8810 B(  6-C ,  8-C ) :   0.9494
B(  6-C , 13-S ) :   0.8105 B(  8-C ,  9-O ) :   1.7609 B(  8-C , 10-O ) :   1.1976
B( 10-O , 11-C ) :   0.7580 B( 11-C , 12-C ) :   0.9117 B( 11-C , 27-H ) :   0.9543
B( 11-C , 28-H ) :   0.9544 B( 12-C , 29-H ) :   0.9608 B( 12-C , 30-H ) :   0.9712
B( 12-C , 31-H ) :   0.9695 B( 13-S , 14-P ) :   0.9973 B( 14-P , 15-S ) :   1.7796
B( 14-P , 16-O ) :   1.0420 B( 14-P , 18-O ) :   1.1480 B( 16-O , 17-C ) :   0.8232
B( 17-C , 32-H ) :   0.9499 B( 17-C , 33-H ) :   0.9555 B( 17-C , 34-H ) :   0.9572
B( 18-O , 19-C ) :   0.7873 B( 19-C , 35-H ) :   0.9520 B( 19-C , 36-H ) :   0.9544
B( 19-C , 37-H ) :   0.9478

Dispersion correction           -0.017383253
FINAL SINGLE POINT ENERGY     -1981.468325706425

DIPOLE MOMENT
-------------

Method             : SCF
Type of density    : Electron Density
Multiplicity       :   1
Irrep              :   0
Energy             : -1981.4884345249045055 Eh
Relativity type    :
Basis              : AO
                                X                 Y                 Z
Electronic contribution:    -13.914783282       0.037231269      -4.422193703
Nuclear contribution   :     12.864733543      -1.989705147       5.839901302
                        -----------------------------------------
Total Dipole Moment    :     -1.050049739      -1.952473878       1.417707600
                        -----------------------------------------
Magnitude (a.u.)       :      2.631473644
Magnitude (Debye)      :      6.688674445

Rotational constants in cm-1:             0.016605             0.005916             0.005219
Rotational constants in MHz :           497.806916           177.367518           156.461813

                             ****ORCA TERMINATED NORMALLY****
TOTAL RUN TIME: 0 days 0 hours 2 minutes 0 seconds 665 msec
