                         Program Version 6.0.0  -   RELEASE  -
|  1> ! pbe def2-sv(p) def2/J RI DEFGRID1 loosescf d4 GCP(DFT/SV(P)) printgap
|  2> %output
|  3>     printlevel normal
|  4> end
|  5> * xyz 0 1
|  6> C 3.8824189914 1.4577911235 -2.015311343
|  7> C 2.5600738409 0.7542669215 -2.2304802239
|  8> O 2.4131326005 -0.3683943736 -1.343483303
|  9> P 2.1842440967 -0.2062272909 0.2158744827
| 10> S 1.0967610604 1.3599905604 0.7090673929
| 11> O 3.6722056322 -0.1885441011 0.7667344143
| 12> C 4.0812724164 -0.5632194232 2.0968169099
| 13> C 3.2348120033 0.0720621231 3.1797928318
| 14> S 1.5395301271 -2.147818631 0.7187738143
| 15> C -0.143248306 -2.1415578633 0.0481870469
| 16> S -1.308372232 -1.1243373621 1.0093709356
| 17> P -1.9037283527 0.2139491385 -0.4972604659
| 18> S -0.9216075526 0.2503425019 -2.1923407362
| 19> O -2.0502929546 1.6730821212 0.0995866996
| 20> C -2.2934863023 2.0091851991 1.4860140475
| 21> C -3.5605837704 1.3819920213 2.0274851423
| 22> O -3.3916469039 -0.3505090926 -0.6868611644
| 23> C -4.2623010495 0.2245426775 -1.6796996711
| 24> C -5.5901408265 -0.5001896304 -1.6030046489
| 25> H 4.7020258266 0.7511134903 -2.1135377941
| 26> H 3.9924257887 2.2497311702 -2.7493697097
| 27> H 3.9080018887 1.8901119761 -1.0155161144
| 28> H 2.4799954702 0.3152315236 -3.2258615244
| 29> H 1.7197464849 1.439120942 -2.0735093162
| 30> H 4.0413706681 -1.6537489735 2.1639600532
| 31> H 5.1178674094 -0.2255642712 2.1499324627
| 32> H 3.6400474226 -0.1886138576 4.1521586886
| 33> H 3.2259996146 1.1541504853 3.0705224919
| 34> H 2.209020457 -0.2897931052 3.1145347514
| 35> H -0.4794228408 -3.17369245 0.1012271694
| 36> H -0.1258498584 -1.7786085449 -0.9831359439
| 37> H -1.4169611697 1.7040062645 2.0633964094
| 38> H -2.3519962437 3.0986252793 1.4685223323
| 39> H -3.4801733522 0.2958022436 2.0167873405
| 40> H -3.7057498632 1.7135704296 3.0508444216
| 41> H -4.4181002247 1.6811695314 1.4295391389
| 42> H -4.3718606866 1.2945837909 -1.4751715576
| 43> H -3.7921499301 0.1052101032 -2.661698963
| 44> H -6.0238628365 -0.3797255517 -0.6145951648
| 45> H -6.2644680833 -0.088654541 -2.346869454
| 46> H -5.4436475975 -1.5589771856 -1.7949338442
| 47> *
| 48>
| 49>                          ****END OF INPUT****

CARTESIAN COORDINATES (ANGSTROEM)
---------------------------------
  C      3.882419    1.457791   -2.015311
  C      2.560074    0.754267   -2.230480
  O      2.413133   -0.368394   -1.343483
  P      2.184244   -0.206227    0.215874
  S      1.096761    1.359991    0.709067
  O      3.672206   -0.188544    0.766734
  C      4.081272   -0.563219    2.096817
  C      3.234812    0.072062    3.179793
  S      1.539530   -2.147819    0.718774
  C     -0.143248   -2.141558    0.048187
  S     -1.308372   -1.124337    1.009371
  P     -1.903728    0.213949   -0.497260
  S     -0.921608    0.250343   -2.192341
  O     -2.050293    1.673082    0.099587
  C     -2.293486    2.009185    1.486014
  C     -3.560584    1.381992    2.027485
  O     -3.391647   -0.350509   -0.686861
  C     -4.262301    0.224543   -1.679700
  C     -5.590141   -0.500190   -1.603005
  H      4.702026    0.751113   -2.113538
  H      3.992426    2.249731   -2.749370
  H      3.908002    1.890112   -1.015516
  H      2.479995    0.315232   -3.225862
  H      1.719746    1.439121   -2.073509
  H      4.041371   -1.653749    2.163960
  H      5.117867   -0.225564    2.149932
  H      3.640047   -0.188614    4.152159
  H      3.226000    1.154150    3.070522
  H      2.209020   -0.289793    3.114535
  H     -0.479423   -3.173692    0.101227
  H     -0.125850   -1.778609   -0.983136
  H     -1.416961    1.704006    2.063396
  H     -2.351996    3.098625    1.468522
  H     -3.480173    0.295802    2.016787
  H     -3.705750    1.713570    3.050844
  H     -4.418100    1.681170    1.429539
  H     -4.371861    1.294584   -1.475172
  H     -3.792150    0.105210   -2.661699
  H     -6.023863   -0.379726   -0.614595
  H     -6.264468   -0.088655   -2.346869
  H     -5.443648   -1.558977   -1.794934

 Total Charge           Charge          ....    0
 Multiplicity           Mult            ....    1
 Number of Electrons    NEL             ....  202
 Basis Dimension        Dim             ....  334

ORBITAL ENERGIES
----------------

  NO   OCC          E(Eh)            E(eV)
   0   2.0000     -88.043217     -2395.7777
   1   2.0000     -88.041798     -2395.7391
   2   2.0000     -87.978189     -2394.0082
   3   2.0000     -87.977772     -2393.9969
   4   2.0000     -76.421785     -2079.5425
   5   2.0000     -76.420119     -2079.4972
   6   2.0000     -18.789212      -511.2805
   7   2.0000     -18.787168      -511.2248
   8   2.0000     -18.779967      -511.0289
   9   2.0000     -18.778584      -510.9913
  10   2.0000      -9.957193      -270.9490
  11   2.0000      -9.956928      -270.9418
  12   2.0000      -9.953417      -270.8462
  13   2.0000      -9.945588      -270.6332
  14   2.0000      -9.935575      -270.3607
  15   2.0000      -9.890543      -269.1353
  16   2.0000      -9.884793      -268.9789
  17   2.0000      -9.881723      -268.8953
  18   2.0000      -9.872916      -268.6557
  19   2.0000      -7.688750      -209.2215
  20   2.0000      -7.687094      -209.1765
  21   2.0000      -7.622891      -207.4294
  22   2.0000      -7.622744      -207.4254
  23   2.0000      -6.418995      -174.6697
  24   2.0000      -6.417938      -174.6410
  25   2.0000      -5.716527      -155.5546
  26   2.0000      -5.715031      -155.5139
  27   2.0000      -5.713188      -155.4637
  28   2.0000      -5.711791      -155.4257
  29   2.0000      -5.705804      -155.2628
  30   2.0000      -5.703730      -155.2064
  31   2.0000      -5.651886      -153.7956
  32   2.0000      -5.651625      -153.7885
  33   2.0000      -5.644007      -153.5812
  34   2.0000      -5.643488      -153.5671
  35   2.0000      -5.642873      -153.5504
  36   2.0000      -5.642356      -153.5363
  37   2.0000      -4.641586      -126.3040
  38   2.0000      -4.640995      -126.2879
  39   2.0000      -4.640803      -126.2827
  40   2.0000      -4.639583      -126.2495
  41   2.0000      -4.639293      -126.2416
  42   2.0000      -4.638231      -126.2127
  43   2.0000      -0.979764       -26.6607
  44   2.0000      -0.978180       -26.6176
  45   2.0000      -0.938021       -25.5249
  46   2.0000      -0.937006       -25.4972
  47   2.0000      -0.762732       -20.7550
  48   2.0000      -0.718997       -19.5649
  49   2.0000      -0.706074       -19.2133
  50   2.0000      -0.691866       -18.8266
  51   2.0000      -0.682807       -18.5801
  52   2.0000      -0.669877       -18.2283
  53   2.0000      -0.648186       -17.6380
  54   2.0000      -0.632953       -17.2235
  55   2.0000      -0.594427       -16.1752
  56   2.0000      -0.585980       -15.9453
  57   2.0000      -0.576210       -15.6795
  58   2.0000      -0.566602       -15.4180
  59   2.0000      -0.556667       -15.1477
  60   2.0000      -0.500133       -13.6093
  61   2.0000      -0.487728       -13.2718
  62   2.0000      -0.474203       -12.9037
  63   2.0000      -0.463132       -12.6024
  64   2.0000      -0.451352       -12.2819
  65   2.0000      -0.448589       -12.2067
  66   2.0000      -0.434773       -11.8308
  67   2.0000      -0.433043       -11.7837
  68   2.0000      -0.423864       -11.5339
  69   2.0000      -0.417166       -11.3517
  70   2.0000      -0.406052       -11.0492
  71   2.0000      -0.402411       -10.9502
  72   2.0000      -0.388417       -10.5694
  73   2.0000      -0.383634       -10.4392
  74   2.0000      -0.377635       -10.2760
  75   2.0000      -0.366548        -9.9743
  76   2.0000      -0.360773        -9.8171
  77   2.0000      -0.356003        -9.6873
  78   2.0000      -0.353285        -9.6134
  79   2.0000      -0.347809        -9.4644
  80   2.0000      -0.345066        -9.3897
  81   2.0000      -0.340457        -9.2643
  82   2.0000      -0.337059        -9.1718
  83   2.0000      -0.333961        -9.0875
  84   2.0000      -0.332389        -9.0448
  85   2.0000      -0.310776        -8.4566
  86   2.0000      -0.310119        -8.4388
  87   2.0000      -0.307708        -8.3732
  88   2.0000      -0.293821        -7.9953
  89   2.0000      -0.279783        -7.6133
  90   2.0000      -0.276128        -7.5138
  91   2.0000      -0.267270        -7.2728
  92   2.0000      -0.262107        -7.1323
  93   2.0000      -0.259320        -7.0565
  94   2.0000      -0.256453        -6.9785
  95   2.0000      -0.242851        -6.6083
  96   2.0000      -0.217780        -5.9261
  97   2.0000      -0.204544        -5.5659
  98   2.0000      -0.197680        -5.3792
  99   2.0000      -0.189286        -5.1507
 100   2.0000      -0.178424        -4.8552
 101   0.0000      -0.041763        -1.1364
 102   0.0000      -0.030960        -0.8425
 103   0.0000      -0.011013        -0.2997
 104   0.0000       0.001205         0.0328
 105   0.0000       0.023240         0.6324

MULLIKEN ATOMIC CHARGES
-----------------------
   0 C :   -0.297941
   1 C :   -0.016016
   2 O :   -0.362260
   3 P :    0.617051
   4 S :   -0.325613
   5 O :   -0.375565
   6 C :   -0.010776
   7 C :   -0.313617
   8 S :   -0.107042
   9 C :   -0.335347
  10 S :   -0.087251
  11 P :    0.620030
  12 S :   -0.317107
  13 O :   -0.372977
  14 C :   -0.012778
  15 C :   -0.324583
  16 O :   -0.381242
  17 C :   -0.019202
  18 C :   -0.274888
  19 H :    0.110446
  20 H :    0.108268
  21 H :    0.120090
  22 H :    0.101103
  23 H :    0.130904
  24 H :    0.114555
  25 H :    0.110095
  26 H :    0.109927
  27 H :    0.127237
  28 H :    0.126146
  29 H :    0.185447
  30 H :    0.200297
  31 H :    0.128030
  32 H :    0.110832
  33 H :    0.134742
  34 H :    0.116911
  35 H :    0.118384
  36 H :    0.097254
  37 H :    0.106756
  38 H :    0.111977
  39 H :    0.109368
  40 H :    0.118354
Sum of atomic charges:   -0.0000000

LOEWDIN ATOMIC CHARGES
----------------------
   0 C :   -0.364375
   1 C :   -0.123800
   2 O :   -0.237047
   3 P :    0.570193
   4 S :   -0.310604
   5 O :   -0.245341
   6 C :   -0.112704
   7 C :   -0.372817
   8 S :    0.079144
   9 C :   -0.474410
  10 S :    0.088566
  11 P :    0.574252
  12 S :   -0.300026
  13 O :   -0.236647
  14 C :   -0.117265
  15 C :   -0.367821
  16 O :   -0.262341
  17 C :   -0.123891
  18 C :   -0.350605
  19 H :    0.123365
  20 H :    0.128697
  21 H :    0.121917
  22 H :    0.117405
  23 H :    0.109844
  24 H :    0.110025
  25 H :    0.122002
  26 H :    0.129226
  27 H :    0.129270
  28 H :    0.120446
  29 H :    0.139526
  30 H :    0.126108
  31 H :    0.111550
  32 H :    0.123328
  33 H :    0.119626
  34 H :    0.133482
  35 H :    0.125585
  36 H :    0.105132
  37 H :    0.109109
  38 H :    0.124035
  39 H :    0.129352
  40 H :    0.128508

  Mayer bond orders larger than 0.100000
B(  0-C ,  1-C ) :   1.1598 B(  0-C , 19-H ) :   0.9459 B(  0-C , 20-H ) :   0.9401
B(  0-C , 21-H ) :   0.9368 B(  1-C ,  2-O ) :   0.8989 B(  1-C , 22-H ) :   0.9357
B(  1-C , 23-H ) :   0.9048 B(  2-O ,  3-P ) :   1.1355 B(  3-P ,  4-S ) :   1.6137
B(  3-P ,  5-O ) :   1.1004 B(  3-P ,  8-S ) :   0.9537 B(  4-S ,  8-S ) :   0.1190
B(  5-O ,  6-C ) :   0.9157 B(  6-C ,  7-C ) :   1.1652 B(  6-C , 24-H ) :   0.9289
B(  6-C , 25-H ) :   0.9344 B(  7-C , 26-H ) :   0.9337 B(  7-C , 27-H ) :   0.9403
B(  7-C , 28-H ) :   0.9317 B(  8-S ,  9-C ) :   0.9996 B(  9-C , 10-S ) :   1.0039
B(  9-C , 29-H ) :   0.9119 B(  9-C , 30-H ) :   0.8468 B( 10-S , 11-P ) :   0.9615
B( 10-S , 12-S ) :   0.1114 B( 11-P , 12-S ) :   1.6142 B( 11-P , 13-O ) :   1.1188
B( 11-P , 16-O ) :   1.0763 B( 12-S , 30-H ) :   0.1139 B( 13-O , 14-C ) :   0.9014
B( 14-C , 15-C ) :   1.1611 B( 14-C , 31-H ) :   0.9139 B( 14-C , 32-H ) :   0.9355
B( 15-C , 33-H ) :   0.9344 B( 15-C , 34-H ) :   0.9360 B( 15-C , 35-H ) :   0.9435
B( 16-O , 17-C ) :   0.9129 B( 17-C , 18-C ) :   1.1574 B( 17-C , 36-H ) :   0.9231
B( 17-C , 37-H ) :   0.9168 B( 18-C , 38-H ) :   0.9519 B( 18-C , 39-H ) :   0.9425
B( 18-C , 40-H ) :   0.9499

Dispersion correction           -0.067226738
FINAL SINGLE POINT ENERGY     -2929.510100257500

DIPOLE MOMENT
-------------

Method             : SCF
Type of density    : Electron Density
Multiplicity       :   1
Irrep              :   0
Energy             : -2929.6280573620615542 Eh
Relativity type    :
Basis              : AO
                                X                 Y                 Z
Electronic contribution:      6.291675443      -7.992097237      -2.957165668
Nuclear contribution   :     -6.667851341       7.891016053       3.723870441
                        -----------------------------------------
Total Dipole Moment    :     -0.376175898      -0.101081184       0.766704772
                        -----------------------------------------
Magnitude (a.u.)       :      0.859977860
Magnitude (Debye)      :      2.185890005

Rotational constants in cm-1:             0.013210             0.005101             0.004727
Rotational constants in MHz :           396.025756           152.935742           141.725730

                             ****ORCA TERMINATED NORMALLY****
TOTAL RUN TIME: 0 days 0 hours 0 minutes 21 seconds 54 msec
