                         Program Version 6.0.0  -   RELEASE  -
|  1> ! pbe def2-sv(p) def2/J RI DEFGRID1 loosescf d4 GCP(DFT/SV(P)) printgap
|  2> %output
|  3>     printlevel normal
|  4> end
|  5> * xyz 0 1
|  6> C 5.1305178435 -1.3667423828 -0.6396923274
|  7> C 4.582819974 -0.3004827476 -1.5648805998
|  8> O 3.1659795509 -0.1006349523 -1.3799531148
|  9> P 2.5811122122 0.5308825283 -0.0445133429
| 10> S 3.6868058426 1.8911014397 0.8271984027
| 11> O 2.295541099 -0.775091359 0.8278477138
| 12> C 2.184588965 -0.7286986869 2.2584206228
| 13> C 0.9727116981 0.0563590899 2.7168553259
| 14> S 0.7067999311 1.1524674289 -0.7937619532
| 15> C 0.1608190922 -0.4206646259 -1.5290444914
| 16> S -0.6377683397 -1.5383811692 -0.3481494103
| 17> P -2.4067013989 -0.419387154 -0.1228885728
| 18> S -3.1118572155 0.4454570379 -1.7407124041
| 19> O -2.0207565877 0.5127798196 1.0947159119
| 20> C -2.7695148258 1.7059289036 1.4221933221
| 21> C -2.0813009888 2.9340106506 0.8612966541
| 22> O -3.4162967097 -1.4303860511 0.5751274667
| 23> C -4.2502776841 -2.3441335715 -0.1667178394
| 24> C -5.6946280094 -2.1426021006 0.2487526884
| 25> H 6.1675940513 -1.5631605249 -0.8930894724
| 26> H 5.0785084075 -1.0229935894 0.3924869329
| 27> H 4.5537305886 -2.2829708319 -0.7356332049
| 28> H 4.6698577658 -0.5878273537 -2.6135760826
| 29> H 5.0905197407 0.6544305718 -1.3969137642
| 30> H 2.121574882 -1.7772124522 2.5518895007
| 31> H 3.0982286253 -0.2780340582 2.6596147618
| 32> H 0.9163869295 0.0326257668 3.8003857793
| 33> H 1.0627567855 1.0931515963 2.3909260458
| 34> H 0.0598824373 -0.3633952688 2.3013162663
| 35> H 1.0157317082 -0.9435159073 -1.9458297175
| 36> H -0.5597508988 -0.1522328877 -2.3023096874
| 37> H -3.7854636316 1.6143672193 1.0288683613
| 38> H -2.7969704114 1.7244409201 2.5125645097
| 39> H -2.6190151155 3.8222881822 1.1765180303
| 40> H -1.0557119302 2.9874284043 1.2162287888
| 41> H -2.0650306122 2.8938293595 -0.2259464728
| 42> H -4.1243058158 -2.1576965617 -1.237701651
| 43> H -3.9001396461 -3.3495872057 0.073976235
| 44> H -6.0280758065 -1.1460395424 -0.0307969063
| 45> H -6.3161572668 -2.8779366638 -0.251653151
| 46> H -5.7920615974 -2.2589150462 1.3242773221
| 47> *
| 48>
| 49>                          ****END OF INPUT****

CARTESIAN COORDINATES (ANGSTROEM)
---------------------------------
  C      5.130518   -1.366742   -0.639692
  C      4.582820   -0.300483   -1.564881
  O      3.165980   -0.100635   -1.379953
  P      2.581112    0.530883   -0.044513
  S      3.686806    1.891101    0.827198
  O      2.295541   -0.775091    0.827848
  C      2.184589   -0.728699    2.258421
  C      0.972712    0.056359    2.716855
  S      0.706800    1.152467   -0.793762
  C      0.160819   -0.420665   -1.529044
  S     -0.637768   -1.538381   -0.348149
  P     -2.406701   -0.419387   -0.122889
  S     -3.111857    0.445457   -1.740712
  O     -2.020757    0.512780    1.094716
  C     -2.769515    1.705929    1.422193
  C     -2.081301    2.934011    0.861297
  O     -3.416297   -1.430386    0.575127
  C     -4.250278   -2.344134   -0.166718
  C     -5.694628   -2.142602    0.248753
  H      6.167594   -1.563161   -0.893089
  H      5.078508   -1.022994    0.392487
  H      4.553731   -2.282971   -0.735633
  H      4.669858   -0.587827   -2.613576
  H      5.090520    0.654431   -1.396914
  H      2.121575   -1.777212    2.551890
  H      3.098229   -0.278034    2.659615
  H      0.916387    0.032626    3.800386
  H      1.062757    1.093152    2.390926
  H      0.059882   -0.363395    2.301316
  H      1.015732   -0.943516   -1.945830
  H     -0.559751   -0.152233   -2.302310
  H     -3.785464    1.614367    1.028868
  H     -2.796970    1.724441    2.512565
  H     -2.619015    3.822288    1.176518
  H     -1.055712    2.987428    1.216229
  H     -2.065031    2.893829   -0.225946
  H     -4.124306   -2.157697   -1.237702
  H     -3.900140   -3.349587    0.073976
  H     -6.028076   -1.146040   -0.030797
  H     -6.316157   -2.877937   -0.251653
  H     -5.792062   -2.258915    1.324277

 Total Charge           Charge          ....    0
 Multiplicity           Mult            ....    1
 Number of Electrons    NEL             ....  202
 Basis Dimension        Dim             ....  334

ORBITAL ENERGIES
----------------

  NO   OCC          E(Eh)            E(eV)
   0   2.0000     -88.045075     -2395.8283
   1   2.0000     -88.039675     -2395.6813
   2   2.0000     -87.993588     -2394.4273
   3   2.0000     -87.988428     -2394.2868
   4   2.0000     -76.430630     -2079.7832
   5   2.0000     -76.425886     -2079.6541
   6   2.0000     -18.796393      -511.4759
   7   2.0000     -18.794201      -511.4162
   8   2.0000     -18.792555      -511.3714
   9   2.0000     -18.789691      -511.2935
  10   2.0000      -9.956202      -270.9220
  11   2.0000      -9.955740      -270.9095
  12   2.0000      -9.954932      -270.8875
  13   2.0000      -9.953596      -270.8511
  14   2.0000      -9.947510      -270.6855
  15   2.0000      -9.889438      -269.1053
  16   2.0000      -9.885473      -268.9974
  17   2.0000      -9.878727      -268.8138
  18   2.0000      -9.873773      -268.6790
  19   2.0000      -7.690588      -209.2715
  20   2.0000      -7.684909      -209.1170
  21   2.0000      -7.638466      -207.8532
  22   2.0000      -7.633562      -207.7198
  23   2.0000      -6.428402      -174.9257
  24   2.0000      -6.423617      -174.7955
  25   2.0000      -5.718331      -155.6037
  26   2.0000      -5.715193      -155.5183
  27   2.0000      -5.713157      -155.4629
  28   2.0000      -5.709290      -155.3577
  29   2.0000      -5.707490      -155.3087
  30   2.0000      -5.701584      -155.1480
  31   2.0000      -5.667222      -154.2129
  32   2.0000      -5.662489      -154.0841
  33   2.0000      -5.659165      -153.9937
  34   2.0000      -5.658739      -153.9821
  35   2.0000      -5.654265      -153.8604
  36   2.0000      -5.653644      -153.8435
  37   2.0000      -4.650900      -126.5574
  38   2.0000      -4.650057      -126.5345
  39   2.0000      -4.648994      -126.5056
  40   2.0000      -4.645987      -126.4237
  41   2.0000      -4.645538      -126.4115
  42   2.0000      -4.644132      -126.3732
  43   2.0000      -0.990232       -26.9456
  44   2.0000      -0.985827       -26.8257
  45   2.0000      -0.948396       -25.8072
  46   2.0000      -0.944792       -25.7091
  47   2.0000      -0.765264       -20.8239
  48   2.0000      -0.724737       -19.7211
  49   2.0000      -0.708450       -19.2779
  50   2.0000      -0.688414       -18.7327
  51   2.0000      -0.683519       -18.5995
  52   2.0000      -0.674002       -18.3405
  53   2.0000      -0.655837       -17.8462
  54   2.0000      -0.640865       -17.4388
  55   2.0000      -0.599512       -16.3135
  56   2.0000      -0.593451       -16.1486
  57   2.0000      -0.574145       -15.6233
  58   2.0000      -0.570371       -15.5206
  59   2.0000      -0.560319       -15.2470
  60   2.0000      -0.508717       -13.8429
  61   2.0000      -0.492746       -13.4083
  62   2.0000      -0.479706       -13.0535
  63   2.0000      -0.470182       -12.7943
  64   2.0000      -0.461481       -12.5575
  65   2.0000      -0.446264       -12.1435
  66   2.0000      -0.438236       -11.9250
  67   2.0000      -0.436958       -11.8902
  68   2.0000      -0.432864       -11.7788
  69   2.0000      -0.412194       -11.2164
  70   2.0000      -0.408739       -11.1224
  71   2.0000      -0.395309       -10.7569
  72   2.0000      -0.394176       -10.7261
  73   2.0000      -0.391578       -10.6554
  74   2.0000      -0.384075       -10.4512
  75   2.0000      -0.377431       -10.2704
  76   2.0000      -0.366315        -9.9679
  77   2.0000      -0.355272        -9.6674
  78   2.0000      -0.353611        -9.6222
  79   2.0000      -0.351973        -9.5777
  80   2.0000      -0.347684        -9.4610
  81   2.0000      -0.344527        -9.3751
  82   2.0000      -0.341554        -9.2942
  83   2.0000      -0.337263        -9.1774
  84   2.0000      -0.328818        -8.9476
  85   2.0000      -0.319673        -8.6987
  86   2.0000      -0.309911        -8.4331
  87   2.0000      -0.300719        -8.1830
  88   2.0000      -0.295142        -8.0312
  89   2.0000      -0.291370        -7.9286
  90   2.0000      -0.286590        -7.7985
  91   2.0000      -0.280845        -7.6422
  92   2.0000      -0.274002        -7.4560
  93   2.0000      -0.268252        -7.2995
  94   2.0000      -0.257593        -7.0095
  95   2.0000      -0.232420        -6.3245
  96   2.0000      -0.217686        -5.9235
  97   2.0000      -0.212817        -5.7911
  98   2.0000      -0.209449        -5.6994
  99   2.0000      -0.206985        -5.6324
 100   2.0000      -0.203193        -5.5292
 101   0.0000      -0.042012        -1.1432
 102   0.0000      -0.023481        -0.6390
 103   0.0000      -0.013854        -0.3770
 104   0.0000       0.003660         0.0996
 105   0.0000       0.010190         0.2773

MULLIKEN ATOMIC CHARGES
-----------------------
   0 C :   -0.308449
   1 C :   -0.002563
   2 O :   -0.384517
   3 P :    0.607529
   4 S :   -0.320215
   5 O :   -0.378575
   6 C :    0.000920
   7 C :   -0.337835
   8 S :   -0.056014
   9 C :   -0.377081
  10 S :   -0.072349
  11 P :    0.611045
  12 S :   -0.334855
  13 O :   -0.355613
  14 C :   -0.002501
  15 C :   -0.297564
  16 O :   -0.377139
  17 C :   -0.006559
  18 C :   -0.286186
  19 H :    0.113020
  20 H :    0.124821
  21 H :    0.115757
  22 H :    0.105649
  23 H :    0.114548
  24 H :    0.101893
  25 H :    0.107061
  26 H :    0.104501
  27 H :    0.124301
  28 H :    0.142308
  29 H :    0.193749
  30 H :    0.197939
  31 H :    0.102922
  32 H :    0.108197
  33 H :    0.107632
  34 H :    0.129075
  35 H :    0.126353
  36 H :    0.105895
  37 H :    0.105864
  38 H :    0.118509
  39 H :    0.112024
  40 H :    0.116502
Sum of atomic charges:    0.0000000

LOEWDIN ATOMIC CHARGES
----------------------
   0 C :   -0.365342
   1 C :   -0.115377
   2 O :   -0.249462
   3 P :    0.571829
   4 S :   -0.318946
   5 O :   -0.247875
   6 C :   -0.119833
   7 C :   -0.375654
   8 S :    0.102017
   9 C :   -0.482615
  10 S :    0.093982
  11 P :    0.568800
  12 S :   -0.321922
  13 O :   -0.233044
  14 C :   -0.110949
  15 C :   -0.361957
  16 O :   -0.250054
  17 C :   -0.118383
  18 C :   -0.353143
  19 H :    0.130879
  20 H :    0.123349
  21 H :    0.125971
  22 H :    0.118886
  23 H :    0.112846
  24 H :    0.117909
  25 H :    0.107340
  26 H :    0.127809
  27 H :    0.118493
  28 H :    0.120924
  29 H :    0.135807
  30 H :    0.131023
  31 H :    0.109075
  32 H :    0.119823
  33 H :    0.128462
  34 H :    0.126945
  35 H :    0.123907
  36 H :    0.107779
  37 H :    0.115856
  38 H :    0.127503
  39 H :    0.130792
  40 H :    0.126552

  Mayer bond orders larger than 0.100000
B(  0-C ,  1-C ) :   1.1627 B(  0-C , 19-H ) :   0.9381 B(  0-C , 20-H ) :   0.9359
B(  0-C , 21-H ) :   0.9461 B(  1-C ,  2-O ) :   0.9064 B(  1-C , 22-H ) :   0.9357
B(  1-C , 23-H ) :   0.9178 B(  2-O ,  3-P ) :   1.0912 B(  3-P ,  4-S ) :   1.6307
B(  3-P ,  5-O ) :   1.0860 B(  3-P ,  8-S ) :   0.9848 B(  5-O ,  6-C ) :   0.9044
B(  6-C ,  7-C ) :   1.1641 B(  6-C , 24-H ) :   0.9329 B(  6-C , 25-H ) :   0.9175
B(  7-C , 26-H ) :   0.9369 B(  7-C , 27-H ) :   0.9328 B(  7-C , 28-H ) :   0.9277
B(  8-S ,  9-C ) :   0.9856 B(  9-C , 10-S ) :   0.9991 B(  9-C , 29-H ) :   0.8889
B(  9-C , 30-H ) :   0.8721 B( 10-S , 11-P ) :   0.9762 B( 10-S , 12-S ) :   0.1101
B( 11-P , 12-S ) :   1.5831 B( 11-P , 13-O ) :   1.1374 B( 11-P , 16-O ) :   1.1171
B( 13-O , 14-C ) :   0.8857 B( 14-C , 15-C ) :   1.1716 B( 14-C , 31-H ) :   0.9150
B( 14-C , 32-H ) :   0.9329 B( 15-C , 33-H ) :   0.9388 B( 15-C , 34-H ) :   0.9427
B( 15-C , 35-H ) :   0.9368 B( 16-O , 17-C ) :   0.8997 B( 17-C , 18-C ) :   1.1656
B( 17-C , 36-H ) :   0.9046 B( 17-C , 37-H ) :   0.9335 B( 18-C , 38-H ) :   0.9481
B( 18-C , 39-H ) :   0.9412 B( 18-C , 40-H ) :   0.9499

Dispersion correction           -0.064629686
FINAL SINGLE POINT ENERGY     -2929.524236542260

DIPOLE MOMENT
-------------

Method             : SCF
Type of density    : Electron Density
Multiplicity       :   1
Irrep              :   0
Energy             : -2929.6450852993584704 Eh
Relativity type    :
Basis              : AO
                                X                 Y                 Z
Electronic contribution:      4.628835850       4.512945051      -8.991882368
Nuclear contribution   :     -5.060031096      -5.754407972       9.415585304
                        -----------------------------------------
Total Dipole Moment    :     -0.431195246      -1.241462921       0.423702936
                        -----------------------------------------
Magnitude (a.u.)       :      1.380827180
Magnitude (Debye)      :      3.509783765

Rotational constants in cm-1:             0.014558             0.004315             0.004119
Rotational constants in MHz :           436.423837           129.349631           123.479519

                             ****ORCA TERMINATED NORMALLY****
TOTAL RUN TIME: 0 days 0 hours 0 minutes 21 seconds 76 msec
