                         Program Version 6.0.0  -   RELEASE  -
|  1> ! r2scan-3c def2/J RI DEFGRID2 scfconv6 printgap
|  2> %output
|  3>     printlevel normal
|  4> end
|  5> * xyz 0 1
|  6> C 2.1544051557 -1.2014086563 -0.1140927756
|  7> C 1.3895623898 0.0986951551 -0.0315577889
|  8> O 1.9521478249 1.1937458516 -0.1360015027
|  9> N 0.0710628975 0.0081026814 0.1601383163
| 10> C -0.7257826996 -1.1889371574 0.3218313725
| 11> C -2.1057023774 -0.8118481256 -0.2344847308
| 12> C -2.1466764684 0.7273092844 -0.2415982142
| 13> C -0.7805832631 1.1753020545 0.2863488282
| 14> H 3.212238799 -0.9709677394 -0.2029779808
| 15> H 1.8406654997 -1.7666912409 -0.9881985952
| 16> H 1.9859005534 -1.7981528158 0.777937613
| 17> H -0.2868646509 -2.0288641793 -0.2118831339
| 18> H -0.7904979611 -1.4408124746 1.3862996048
| 19> H -2.2201218302 -1.1965124143 -1.2461443036
| 20> H -2.8985895508 -1.2330901295 0.3785491045
| 21> H -2.3028843668 1.1004861714 -1.2518766734
| 22> H -2.9452810027 1.1128812896 0.3873921536
| 23> H -0.3402274545 2.0006548604 -0.2743160366
| 24> H -0.8370951442 1.4697539601 1.3401898503
| 25> *
| 26>
| 27>                          ****END OF INPUT****

CARTESIAN COORDINATES (ANGSTROEM)
---------------------------------
  C      2.154405   -1.201409   -0.114093
  C      1.389562    0.098695   -0.031558
  O      1.952148    1.193746   -0.136002
  N      0.071063    0.008103    0.160138
  C     -0.725783   -1.188937    0.321831
  C     -2.105702   -0.811848   -0.234485
  C     -2.146676    0.727309   -0.241598
  C     -0.780583    1.175302    0.286349
  H      3.212239   -0.970968   -0.202978
  H      1.840665   -1.766691   -0.988199
  H      1.985901   -1.798153    0.777938
  H     -0.286865   -2.028864   -0.211883
  H     -0.790498   -1.440812    1.386300
  H     -2.220122   -1.196512   -1.246144
  H     -2.898590   -1.233090    0.378549
  H     -2.302884    1.100486   -1.251877
  H     -2.945281    1.112881    0.387392
  H     -0.340227    2.000655   -0.274316
  H     -0.837095    1.469754    1.340190

 Total Charge           Charge          ....    0
 Multiplicity           Mult            ....    1
 Number of Electrons    NEL             ....   62
 Basis Dimension        Dim             ....  217

ORBITAL ENERGIES
----------------

  NO   OCC          E(Eh)            E(eV)
   0   2.0000     -18.893828      -514.1272
   1   2.0000     -14.185915      -386.0184
   2   2.0000     -10.116249      -275.2771
   3   2.0000     -10.076187      -274.1870
   4   2.0000     -10.062381      -273.8113
   5   2.0000     -10.044168      -273.3157
   6   2.0000     -10.040123      -273.2056
   7   2.0000     -10.029567      -272.9184
   8   2.0000      -0.986052       -26.8318
   9   2.0000      -0.910496       -24.7758
  10   2.0000      -0.767146       -20.8751
  11   2.0000      -0.719708       -19.5843
  12   2.0000      -0.693817       -18.8797
  13   2.0000      -0.618241       -16.8232
  14   2.0000      -0.565508       -15.3882
  15   2.0000      -0.522895       -14.2287
  16   2.0000      -0.478026       -13.0077
  17   2.0000      -0.449746       -12.2382
  18   2.0000      -0.426556       -11.6072
  19   2.0000      -0.417835       -11.3699
  20   2.0000      -0.394821       -10.7436
  21   2.0000      -0.390448       -10.6246
  22   2.0000      -0.374626       -10.1941
  23   2.0000      -0.358709        -9.7610
  24   2.0000      -0.341989        -9.3060
  25   2.0000      -0.331789        -9.0284
  26   2.0000      -0.325939        -8.8693
  27   2.0000      -0.315734        -8.5916
  28   2.0000      -0.301280        -8.1982
  29   2.0000      -0.211136        -5.7453
  30   2.0000      -0.202095        -5.4993
  31   0.0000       0.007380         0.2008
  32   0.0000       0.062162         1.6915
  33   0.0000       0.086674         2.3585
  34   0.0000       0.096851         2.6355
  35   0.0000       0.107663         2.9296

MULLIKEN ATOMIC CHARGES
-----------------------
   0 C :   -0.575815
   1 C :    0.285857
   2 O :   -0.458913
   3 N :    0.156519
   4 C :   -0.306148
   5 C :   -0.281810
   6 C :   -0.261626
   7 C :   -0.343362
   8 H :    0.184989
   9 H :    0.165833
  10 H :    0.161143
  11 H :    0.153087
  12 H :    0.153571
  13 H :    0.155718
  14 H :    0.153326
  15 H :    0.156850
  16 H :    0.152578
  17 H :    0.195819
  18 H :    0.152386
Sum of atomic charges:   -0.0000000

LOEWDIN ATOMIC CHARGES
----------------------
   0 C :   -0.351663
   1 C :    0.330215
   2 O :   -0.487854
   3 N :   -0.839000
   4 C :   -0.014600
   5 C :   -0.257313
   6 C :   -0.258686
   7 C :   -0.012023
   8 H :    0.177690
   9 H :    0.168445
  10 H :    0.168176
  11 H :    0.183682
  12 H :    0.171794
  13 H :    0.160568
  14 H :    0.160250
  15 H :    0.161468
  16 H :    0.160118
  17 H :    0.202715
  18 H :    0.176018

  Mayer bond orders larger than 0.100000
B(  0-C ,  1-C ) :   0.8813 B(  0-C ,  8-H ) :   0.9762 B(  0-C ,  9-H ) :   0.9633
B(  0-C , 10-H ) :   0.9617 B(  1-C ,  2-O ) :   1.7958 B(  1-C ,  3-N ) :   1.2438
B(  3-N ,  4-C ) :   0.9434 B(  3-N ,  7-C ) :   0.8868 B(  4-C ,  5-C ) :   0.9256
B(  4-C , 11-H ) :   0.9530 B(  4-C , 12-H ) :   0.9537 B(  5-C ,  6-C ) :   0.8998
B(  5-C , 13-H ) :   0.9679 B(  5-C , 14-H ) :   0.9767 B(  6-C ,  7-C ) :   0.8873
B(  6-C , 15-H ) :   0.9689 B(  6-C , 16-H ) :   0.9766 B(  7-C , 17-H ) :   0.9672
B(  7-C , 18-H ) :   0.9515

Dispersion correction           -0.005538743
FINAL SINGLE POINT ENERGY      -365.149720755325

DIPOLE MOMENT
-------------

Method             : SCF
Type of density    : Electron Density
Multiplicity       :   1
Irrep              :   0
Energy             :  -365.1580842217053942 Eh
Relativity type    :
Basis              : AO
                                X                 Y                 Z
Electronic contribution:      3.931047773       3.305246712       0.050442477
Nuclear contribution   :     -5.208228425      -4.439785302       0.087960349
                        -----------------------------------------
Total Dipole Moment    :     -1.277180652      -1.134538589       0.138402826
                        -----------------------------------------
Magnitude (a.u.)       :      1.713920527
Magnitude (Debye)      :      4.356439767

Rotational constants in cm-1:             0.133049             0.052281             0.039905
Rotational constants in MHz :          3988.704511          1567.348447          1196.325427

                             ****ORCA TERMINATED NORMALLY****
TOTAL RUN TIME: 0 days 0 hours 0 minutes 47 seconds 441 msec
