                         Program Version 6.0.0  -   RELEASE  -
|  1> ! r2scan-3c def2/J RI DEFGRID2 scfconv6 printgap
|  2> %output
|  3>     printlevel normal
|  4> end
|  5> %cpcm
|  6>     smd true
|  7>     smdsolvent "water"
|  8> end
|  9> * xyz 0 1
| 10> C 2.1544051557 -1.2014086563 -0.1140927756
| 11> C 1.3895623898 0.0986951551 -0.0315577889
| 12> O 1.9521478249 1.1937458516 -0.1360015027
| 13> N 0.0710628975 0.0081026814 0.1601383163
| 14> C -0.7257826996 -1.1889371574 0.3218313725
| 15> C -2.1057023774 -0.8118481256 -0.2344847308
| 16> C -2.1466764684 0.7273092844 -0.2415982142
| 17> C -0.7805832631 1.1753020545 0.2863488282
| 18> H 3.212238799 -0.9709677394 -0.2029779808
| 19> H 1.8406654997 -1.7666912409 -0.9881985952
| 20> H 1.9859005534 -1.7981528158 0.777937613
| 21> H -0.2868646509 -2.0288641793 -0.2118831339
| 22> H -0.7904979611 -1.4408124746 1.3862996048
| 23> H -2.2201218302 -1.1965124143 -1.2461443036
| 24> H -2.8985895508 -1.2330901295 0.3785491045
| 25> H -2.3028843668 1.1004861714 -1.2518766734
| 26> H -2.9452810027 1.1128812896 0.3873921536
| 27> H -0.3402274545 2.0006548604 -0.2743160366
| 28> H -0.8370951442 1.4697539601 1.3401898503
| 29> *
| 30>
| 31>                          ****END OF INPUT****

CARTESIAN COORDINATES (ANGSTROEM)
---------------------------------
  C      2.154405   -1.201409   -0.114093
  C      1.389562    0.098695   -0.031558
  O      1.952148    1.193746   -0.136002
  N      0.071063    0.008103    0.160138
  C     -0.725783   -1.188937    0.321831
  C     -2.105702   -0.811848   -0.234485
  C     -2.146676    0.727309   -0.241598
  C     -0.780583    1.175302    0.286349
  H      3.212239   -0.970968   -0.202978
  H      1.840665   -1.766691   -0.988199
  H      1.985901   -1.798153    0.777938
  H     -0.286865   -2.028864   -0.211883
  H     -0.790498   -1.440812    1.386300
  H     -2.220122   -1.196512   -1.246144
  H     -2.898590   -1.233090    0.378549
  H     -2.302884    1.100486   -1.251877
  H     -2.945281    1.112881    0.387392
  H     -0.340227    2.000655   -0.274316
  H     -0.837095    1.469754    1.340190

 Total Charge           Charge          ....    0
 Multiplicity           Mult            ....    1
 Number of Electrons    NEL             ....   62
 Basis Dimension        Dim             ....  217

ORBITAL ENERGIES
----------------

  NO   OCC          E(Eh)            E(eV)
   0   2.0000     -18.916151      -514.7346
   1   2.0000     -14.187772      -386.0689
   2   2.0000     -10.127790      -275.5912
   3   2.0000     -10.058629      -273.7092
   4   2.0000     -10.054926      -273.6084
   5   2.0000     -10.024488      -272.7802
   6   2.0000     -10.023878      -272.7636
   7   2.0000     -10.022967      -272.7388
   8   2.0000      -1.003397       -27.3038
   9   2.0000      -0.912999       -24.8440
  10   2.0000      -0.757302       -20.6072
  11   2.0000      -0.709630       -19.3100
  12   2.0000      -0.685755       -18.6603
  13   2.0000      -0.610727       -16.6187
  14   2.0000      -0.551478       -15.0065
  15   2.0000      -0.512919       -13.9572
  16   2.0000      -0.466225       -12.6866
  17   2.0000      -0.452041       -12.3007
  18   2.0000      -0.425065       -11.5666
  19   2.0000      -0.411621       -11.2008
  20   2.0000      -0.385820       -10.4987
  21   2.0000      -0.384999       -10.4763
  22   2.0000      -0.363542        -9.8925
  23   2.0000      -0.352646        -9.5960
  24   2.0000      -0.349173        -9.5015
  25   2.0000      -0.324183        -8.8215
  26   2.0000      -0.315611        -8.5882
  27   2.0000      -0.312003        -8.4900
  28   2.0000      -0.284788        -7.7495
  29   2.0000      -0.228032        -6.2051
  30   2.0000      -0.215762        -5.8712
  31   0.0000      -0.001143        -0.0311
  32   0.0000       0.073340         1.9957
  33   0.0000       0.103094         2.8053
  34   0.0000       0.110987         3.0201
  35   0.0000       0.121190         3.2977

MULLIKEN ATOMIC CHARGES
-----------------------
   0 C :   -0.597840
   1 C :    0.307877
   2 O :   -0.590347
   3 N :    0.152574
   4 C :   -0.302328
   5 C :   -0.302355
   6 C :   -0.285281
   7 C :   -0.340731
   8 H :    0.181703
   9 H :    0.199901
  10 H :    0.192472
  11 H :    0.176585
  12 H :    0.174158
  13 H :    0.170403
  14 H :    0.169279
  15 H :    0.169146
  16 H :    0.168167
  17 H :    0.182952
  18 H :    0.173665
Sum of atomic charges:   -0.0000000

LOEWDIN ATOMIC CHARGES
----------------------
   0 C :   -0.349978
   1 C :    0.330996
   2 O :   -0.589385
   3 N :   -0.822790
   4 C :   -0.005797
   5 C :   -0.254969
   6 C :   -0.256759
   7 C :   -0.013621
   8 H :    0.175008
   9 H :    0.183928
  10 H :    0.182368
  11 H :    0.194176
  12 H :    0.183001
  13 H :    0.164758
  14 H :    0.166428
  15 H :    0.164852
  16 H :    0.166036
  17 H :    0.197101
  18 H :    0.184647

  Mayer bond orders larger than 0.100000
B(  0-C ,  1-C ) :   0.9014 B(  0-C ,  8-H ) :   0.9753 B(  0-C ,  9-H ) :   0.9459
B(  0-C , 10-H ) :   0.9483 B(  1-C ,  2-O ) :   1.6896 B(  1-C ,  3-N ) :   1.3108
B(  3-N ,  4-C ) :   0.9425 B(  3-N ,  7-C ) :   0.8868 B(  4-C ,  5-C ) :   0.9104
B(  4-C , 11-H ) :   0.9461 B(  4-C , 12-H ) :   0.9458 B(  5-C ,  6-C ) :   0.8886
B(  5-C , 13-H ) :   0.9700 B(  5-C , 14-H ) :   0.9740 B(  6-C ,  7-C ) :   0.8990
B(  6-C , 15-H ) :   0.9694 B(  6-C , 16-H ) :   0.9726 B(  7-C , 17-H ) :   0.9604
B(  7-C , 18-H ) :   0.9414

Dispersion correction           -0.005538743
FINAL SINGLE POINT ENERGY      -365.163747423137

DIPOLE MOMENT
-------------

Method             : SCF
Type of density    : Electron Density
Multiplicity       :   1
Irrep              :   0
Energy             :  -365.1721108895168300 Eh
Relativity type    :
Basis              : AO
                                X                 Y                 Z
Electronic contribution:      3.356157840       2.677255839       0.152562005
Nuclear contribution   :     -5.208228425      -4.439785302       0.087960349
                        -----------------------------------------
Total Dipole Moment    :     -1.852070585      -1.762529462       0.240522354
                        -----------------------------------------
Magnitude (a.u.)       :      2.567981028
Magnitude (Debye)      :      6.527289041

Rotational constants in cm-1:             0.133049             0.052281             0.039905
Rotational constants in MHz :          3988.704511          1567.348447          1196.325427

                             ****ORCA TERMINATED NORMALLY****
TOTAL RUN TIME: 0 days 0 hours 0 minutes 51 seconds 115 msec
