                         Program Version 6.0.1  -  RELEASE   -
|  1> ! pbe def2-sv(p) def2/J RI DEFGRID1 loosescf d4 GCP(DFT/SV(P)) printgap
|  2> %output
|  3>     printlevel normal
|  4> end
|  5> * xyz 0 1
|  6> C 4.2479819622 -1.9879970365 1.1716868043
|  7> C 2.7727390469 -1.9494371638 0.8272585901
|  8> O 2.5977941777 -1.0519182831 -0.2881465375
|  9> C 1.4582473189 -1.0641263462 -0.9331411042
| 10> O 0.5116851559 -1.7780861039 -0.6479229804
| 11> C 1.4306077185 -0.0810556069 -2.0826744729
| 12> C 0.2684831453 0.9010700806 -1.9041343964
| 13> H 0.1913889185 1.5398362579 -2.7884855781
| 14> C 0.4408923508 1.7824789348 -0.6784060874
| 15> O -0.4517411762 1.9628913228 0.1259630669
| 16> O 1.6365797313 2.3006608113 -0.6158869506
| 17> C 1.9966079869 3.0867831063 0.5415617469
| 18> C 2.5909981769 2.1919720333 1.6162213125
| 19> S -1.3534743324 0.0763941442 -1.7955847214
| 20> P -1.5766942173 -0.3583482221 0.2672409114
| 21> S -0.3963958508 -0.3381012848 1.8342897265
| 22> O -2.8797488373 0.5852950424 0.4379176721
| 23> C -3.4524682971 0.8248601814 1.7230647628
| 24> O -2.2009693752 -1.8361597067 0.2570460247
| 25> C -3.1014173248 -2.2925716945 -0.7606577899
| 26> H 4.589846578 -0.9986502095 1.4589593254
| 27> H 4.399940647 -2.670819099 2.0005967563
| 28> H 4.8230314961 -2.3277020709 0.3154313237
| 29> H 2.1657209587 -1.5794763645 1.6597704694
| 30> H 2.3907374761 -2.9334644679 0.5382065533
| 31> H 1.2721475473 -0.6395600885 -3.0060267379
| 32> H 2.37423475 0.4618487331 -2.1194701173
| 33> H 2.7282601783 3.8009844123 0.1640163989
| 34> H 1.1057366715 3.6019138364 0.9093389063
| 35> H 1.8460699319 1.4791917614 1.9686759043
| 36> H 3.4399813613 1.6439279356 1.217104391
| 37> H 2.9151316994 2.800828132 2.45325548
| 38> H -2.7314037189 1.3394330425 2.3597655544
| 39> H -3.7458800759 -0.1149963712 2.194661269
| 40> H -4.3202173262 1.4535925398 1.5409660471
| 41> H -2.5261162726 -2.6499122662 -1.6139469289
| 42> H -3.7706328932 -1.4887762787 -1.0717492917
| 43> H -3.6628352683 -3.1074707546 -0.3096366659
| 44> *
| 45>
| 46>                          ****END OF INPUT****

CARTESIAN COORDINATES (ANGSTROEM)
---------------------------------
  C      4.247982   -1.987997    1.171687
  C      2.772739   -1.949437    0.827259
  O      2.597794   -1.051918   -0.288147
  C      1.458247   -1.064126   -0.933141
  O      0.511685   -1.778086   -0.647923
  C      1.430608   -0.081056   -2.082674
  C      0.268483    0.901070   -1.904134
  H      0.191389    1.539836   -2.788486
  C      0.440892    1.782479   -0.678406
  O     -0.451741    1.962891    0.125963
  O      1.636580    2.300661   -0.615887
  C      1.996608    3.086783    0.541562
  C      2.590998    2.191972    1.616221
  S     -1.353474    0.076394   -1.795585
  P     -1.576694   -0.358348    0.267241
  S     -0.396396   -0.338101    1.834290
  O     -2.879749    0.585295    0.437918
  C     -3.452468    0.824860    1.723065
  O     -2.200969   -1.836160    0.257046
  C     -3.101417   -2.292572   -0.760658
  H      4.589847   -0.998650    1.458959
  H      4.399941   -2.670819    2.000597
  H      4.823031   -2.327702    0.315431
  H      2.165721   -1.579476    1.659770
  H      2.390737   -2.933464    0.538207
  H      1.272148   -0.639560   -3.006027
  H      2.374235    0.461849   -2.119470
  H      2.728260    3.800984    0.164016
  H      1.105737    3.601914    0.909339
  H      1.846070    1.479192    1.968676
  H      3.439981    1.643928    1.217104
  H      2.915132    2.800828    2.453255
  H     -2.731404    1.339433    2.359766
  H     -3.745880   -0.114996    2.194661
  H     -4.320217    1.453593    1.540966
  H     -2.526116   -2.649912   -1.613947
  H     -3.770633   -1.488776   -1.071749
  H     -3.662835   -3.107471   -0.309637

 Total Charge           Charge          ....    0
 Multiplicity           Mult            ....    1
 Number of Electrons    NEL             ....  174
 Basis Dimension        Dim             ....  316

ORBITAL ENERGIES
----------------

  NO   OCC          E(Eh)            E(eV)
   0   2.0000     -88.028223     -2395.3697
   1   2.0000     -87.962852     -2393.5909
   2   2.0000     -76.410954     -2079.2478
   3   2.0000     -18.816491      -512.0228
   4   2.0000     -18.805502      -511.7237
   5   2.0000     -18.765649      -510.6393
   6   2.0000     -18.762659      -510.5579
   7   2.0000     -18.751693      -510.2595
   8   2.0000     -18.735577      -509.8210
   9   2.0000     -10.021942      -272.7109
  10   2.0000     -10.010468      -272.3987
  11   2.0000      -9.955327      -270.8982
  12   2.0000      -9.953800      -270.8567
  13   2.0000      -9.940590      -270.4972
  14   2.0000      -9.931462      -270.2488
  15   2.0000      -9.923459      -270.0310
  16   2.0000      -9.914244      -269.7803
  17   2.0000      -9.886825      -269.0342
  18   2.0000      -9.883994      -268.9572
  19   2.0000      -7.673460      -208.8055
  20   2.0000      -7.608126      -207.0276
  21   2.0000      -6.406226      -174.3223
  22   2.0000      -5.701873      -155.1558
  23   2.0000      -5.698440      -155.0624
  24   2.0000      -5.689291      -154.8135
  25   2.0000      -5.637691      -153.4094
  26   2.0000      -5.628899      -153.1701
  27   2.0000      -5.627324      -153.1273
  28   2.0000      -4.629172      -125.9662
  29   2.0000      -4.628187      -125.9394
  30   2.0000      -4.626733      -125.8998
  31   2.0000      -1.026351       -27.9284
  32   2.0000      -1.011892       -27.5350
  33   2.0000      -0.957482       -26.0544
  34   2.0000      -0.930791       -25.3281
  35   2.0000      -0.915528       -24.9128
  36   2.0000      -0.912805       -24.8387
  37   2.0000      -0.765816       -20.8389
  38   2.0000      -0.711414       -19.3586
  39   2.0000      -0.708117       -19.2689
  40   2.0000      -0.682508       -18.5720
  41   2.0000      -0.652725       -17.7615
  42   2.0000      -0.625915       -17.0320
  43   2.0000      -0.613257       -16.6876
  44   2.0000      -0.600143       -16.3307
  45   2.0000      -0.588778       -16.0215
  46   2.0000      -0.563774       -15.3411
  47   2.0000      -0.510144       -13.8817
  48   2.0000      -0.506084       -13.7712
  49   2.0000      -0.495341       -13.4789
  50   2.0000      -0.484654       -13.1881
  51   2.0000      -0.458417       -12.4742
  52   2.0000      -0.452984       -12.3263
  53   2.0000      -0.449366       -12.2279
  54   2.0000      -0.439242       -11.9524
  55   2.0000      -0.424530       -11.5521
  56   2.0000      -0.417070       -11.3491
  57   2.0000      -0.412551       -11.2261
  58   2.0000      -0.406481       -11.0609
  59   2.0000      -0.400594       -10.9007
  60   2.0000      -0.399013       -10.8577
  61   2.0000      -0.392150       -10.6709
  62   2.0000      -0.383202       -10.4275
  63   2.0000      -0.382039       -10.3958
  64   2.0000      -0.365715        -9.9516
  65   2.0000      -0.362006        -9.8507
  66   2.0000      -0.359093        -9.7714
  67   2.0000      -0.355913        -9.6849
  68   2.0000      -0.345377        -9.3982
  69   2.0000      -0.342666        -9.3244
  70   2.0000      -0.336934        -9.1684
  71   2.0000      -0.326244        -8.8775
  72   2.0000      -0.313948        -8.5430
  73   2.0000      -0.304859        -8.2956
  74   2.0000      -0.301648        -8.2083
  75   2.0000      -0.297172        -8.0865
  76   2.0000      -0.295114        -8.0305
  77   2.0000      -0.273138        -7.4325
  78   2.0000      -0.263720        -7.1762
  79   2.0000      -0.261346        -7.1116
  80   2.0000      -0.251472        -6.8429
  81   2.0000      -0.245547        -6.6817
  82   2.0000      -0.232409        -6.3242
  83   2.0000      -0.226749        -6.1702
  84   2.0000      -0.193349        -5.2613
  85   2.0000      -0.181887        -4.9494
  86   2.0000      -0.170149        -4.6300
  87   0.0000      -0.045217        -1.2304
  88   0.0000      -0.041885        -1.1398
  89   0.0000      -0.028131        -0.7655
  90   0.0000       0.003379         0.0920
  91   0.0000       0.032825         0.8932

MULLIKEN ATOMIC CHARGES
-----------------------
   0 C :   -0.281128
   1 C :   -0.039031
   2 O :   -0.221126
   3 C :    0.089645
   4 O :   -0.201936
   5 C :   -0.014712
   6 C :   -0.321524
   7 H :    0.154887
   8 C :    0.203675
   9 O :   -0.170521
  10 O :   -0.224039
  11 C :   -0.009361
  12 C :   -0.330701
  13 S :   -0.069775
  14 P :    0.629156
  15 S :   -0.337327
  16 O :   -0.388909
  17 C :   -0.095741
  18 O :   -0.372363
  19 C :   -0.116839
  20 H :    0.117483
  21 H :    0.113271
  22 H :    0.110392
  23 H :    0.131605
  24 H :    0.108640
  25 H :    0.120857
  26 H :    0.114209
  27 H :    0.104108
  28 H :    0.116456
  29 H :    0.150944
  30 H :    0.118527
  31 H :    0.110534
  32 H :    0.120128
  33 H :    0.105512
  34 H :    0.112899
  35 H :    0.124532
  36 H :    0.113327
  37 H :    0.124248
Sum of atomic charges:   -0.0000000

LOEWDIN ATOMIC CHARGES
----------------------
   0 C :   -0.351402
   1 C :   -0.111101
   2 O :   -0.046147
   3 C :    0.021297
   4 O :   -0.170501
   5 C :   -0.249885
   6 C :   -0.260276
   7 H :    0.152897
   8 C :    0.009579
   9 O :   -0.145490
  10 O :   -0.041838
  11 C :   -0.104322
  12 C :   -0.363549
  13 S :    0.124944
  14 P :    0.604197
  15 S :   -0.304648
  16 O :   -0.271046
  17 C :   -0.216267
  18 O :   -0.254317
  19 C :   -0.221653
  20 H :    0.124557
  21 H :    0.131952
  22 H :    0.124198
  23 H :    0.118514
  24 H :    0.119184
  25 H :    0.145806
  26 H :    0.137724
  27 H :    0.118442
  28 H :    0.123901
  29 H :    0.128878
  30 H :    0.122895
  31 H :    0.130382
  32 H :    0.111411
  33 H :    0.106155
  34 H :    0.115635
  35 H :    0.113364
  36 H :    0.105102
  37 H :    0.121427

  Mayer bond orders larger than 0.100000
B(  0-C ,  1-C ) :   1.1504 B(  0-C , 20-H ) :   0.9482 B(  0-C , 21-H ) :   0.9439
B(  0-C , 22-H ) :   0.9498 B(  1-C ,  2-O ) :   0.8876 B(  1-C , 23-H ) :   0.9183
B(  1-C , 24-H ) :   0.9258 B(  2-O ,  3-C ) :   1.2608 B(  3-C ,  4-O ) :   1.9623
B(  3-C ,  5-C ) :   1.0062 B(  5-C ,  6-C ) :   1.0154 B(  5-C , 25-H ) :   0.8873
B(  5-C , 26-H ) :   0.8848 B(  6-C ,  7-H ) :   0.8723 B(  6-C ,  8-C ) :   0.8891
B(  6-C , 13-S ) :   1.0683 B(  8-C ,  9-O ) :   1.9983 B(  8-C , 10-O ) :   1.2614
B( 10-O , 11-C ) :   0.8968 B( 11-C , 12-C ) :   1.1794 B( 11-C , 27-H ) :   0.9368
B( 11-C , 28-H ) :   0.9122 B( 12-C , 29-H ) :   0.9238 B( 12-C , 30-H ) :   0.9420
B( 12-C , 31-H ) :   0.9393 B( 13-S , 14-P ) :   0.9202 B( 13-S , 15-S ) :   0.1131
B( 14-P , 15-S ) :   1.5242 B( 14-P , 16-O ) :   1.0519 B( 14-P , 18-O ) :   1.0856
B( 16-O , 17-C ) :   0.9432 B( 17-C , 32-H ) :   0.9426 B( 17-C , 33-H ) :   0.9482
B( 17-C , 34-H ) :   0.9569 B( 18-O , 19-C ) :   0.9403 B( 19-C , 35-H ) :   0.9463
B( 19-C , 36-H ) :   0.9389 B( 19-C , 37-H ) :   0.9578

Dispersion correction           -0.056127149
FINAL SINGLE POINT ENERGY     -1978.992471310806

DIPOLE MOMENT
-------------

Method             : SCF
Type of density    : Electron Density
Multiplicity       :   1
Irrep              :   0
Energy             : -1979.1202438338482352 Eh
Relativity type    :
Basis              : AO
                                X                 Y                 Z
Electronic contribution:    -13.186276365       0.495321202      -7.775835393
Nuclear contribution   :     14.099170591      -0.034735086       7.134024123
                        -----------------------------------------
Total Dipole Moment    :      0.912894226       0.460586115      -0.641811270
                        -----------------------------------------
Magnitude (a.u.)       :      1.207243614
Magnitude (Debye)      :      3.068569404

Rotational constants in cm-1:             0.013297             0.008598             0.007586
Rotational constants in MHz :           398.634023           257.769622           227.407640

                             ****ORCA TERMINATED NORMALLY****
TOTAL RUN TIME: 0 days 0 hours 0 minutes 37 seconds 671 msec
