                         Program Version 6.0.1  -  RELEASE   -
|  1> ! pbe def2-sv(p) def2/J RI DEFGRID1 loosescf d4 GCP(DFT/SV(P)) printgap
|  2> %output
|  3>     printlevel normal
|  4> end
|  5> * xyz 0 1
|  6> C 3.2164376011 -1.2427423062 1.8866360351
|  7> C 2.9116270286 -1.974159867 0.5915124822
|  8> O 2.6366282485 -1.0177503073 -0.4501221349
|  9> C 1.4984889116 -1.061631729 -1.104257115
| 10> O 0.6101744207 -1.8693572951 -0.9123281985
| 11> C 1.408603973 0.037737767 -2.1433528829
| 12> C 0.2327990554 0.9670894239 -1.8300222313
| 13> H 0.1458578052 1.7226286077 -2.6159201636
| 14> C 0.3884287048 1.6678558819 -0.4957801597
| 15> O -0.5324357175 1.7724046705 0.2960680386
| 16> O 1.5901345174 2.1191422553 -0.2972490527
| 17> C 1.8861679369 2.7379759905 0.9754728645
| 18> C 3.3861568535 2.9348356212 1.049826141
| 19> S -1.38107852 0.1073960715 -1.8304435048
| 20> P -1.7481024809 -0.3928704088 0.2067340409
| 21> S -0.4849471064 -0.7464444501 1.6774959453
| 22> O -2.984278771 0.5284888381 0.6018978072
| 23> C -2.9965424119 1.4943515873 1.6518358752
| 24> O -2.6768511282 -1.6736212555 -0.0654602467
| 25> C -2.1720357585 -2.9558009382 -0.4324042037
| 26> H 3.5003989757 -1.9654695296 2.6439951692
| 27> H 4.0299340956 -0.5393237384 1.7373101809
| 28> H 2.3313225384 -0.7105058011 2.2289042491
| 29> H 2.0439186369 -2.6293677395 0.7056908965
| 30> H 3.7743082491 -2.5503926295 0.249386136
| 31> H 1.2338975205 -0.4227874559 -3.1158940795
| 32> H 2.3372194495 0.6067929571 -2.1468968504
| 33> H 1.3449486379 3.6867826617 1.0277053207
| 34> H 1.5151527997 2.0810337583 1.7684616586
| 35> H 3.8900588043 1.9780837409 0.9521453938
| 36> H 3.7166885069 3.5912260505 0.2509936622
| 37> H 3.640464123 3.3764390793 2.0072549153
| 38> H -2.7958817406 2.4801229352 1.2354627292
| 39> H -2.2396613014 1.2522738166 2.4005185128
| 40> H -3.9916088695 1.450633877 2.0888952584
| 41> H -1.7836677112 -2.9342130771 -1.4504723273
| 42> H -3.0179076882 -3.6342332025 -0.3541335626
| 43> H -1.3736420564 -3.2552694501 0.2482127734
| 44> *
| 45>
| 46>                          ****END OF INPUT****

CARTESIAN COORDINATES (ANGSTROEM)
---------------------------------
  C      3.216438   -1.242742    1.886636
  C      2.911627   -1.974160    0.591512
  O      2.636628   -1.017750   -0.450122
  C      1.498489   -1.061632   -1.104257
  O      0.610174   -1.869357   -0.912328
  C      1.408604    0.037738   -2.143353
  C      0.232799    0.967089   -1.830022
  H      0.145858    1.722629   -2.615920
  C      0.388429    1.667856   -0.495780
  O     -0.532436    1.772405    0.296068
  O      1.590135    2.119142   -0.297249
  C      1.886168    2.737976    0.975473
  C      3.386157    2.934836    1.049826
  S     -1.381079    0.107396   -1.830444
  P     -1.748102   -0.392870    0.206734
  S     -0.484947   -0.746444    1.677496
  O     -2.984279    0.528489    0.601898
  C     -2.996542    1.494352    1.651836
  O     -2.676851   -1.673621   -0.065460
  C     -2.172036   -2.955801   -0.432404
  H      3.500399   -1.965470    2.643995
  H      4.029934   -0.539324    1.737310
  H      2.331323   -0.710506    2.228904
  H      2.043919   -2.629368    0.705691
  H      3.774308   -2.550393    0.249386
  H      1.233898   -0.422787   -3.115894
  H      2.337219    0.606793   -2.146897
  H      1.344949    3.686783    1.027705
  H      1.515153    2.081034    1.768462
  H      3.890059    1.978084    0.952145
  H      3.716689    3.591226    0.250994
  H      3.640464    3.376439    2.007255
  H     -2.795882    2.480123    1.235463
  H     -2.239661    1.252274    2.400519
  H     -3.991609    1.450634    2.088895
  H     -1.783668   -2.934213   -1.450472
  H     -3.017908   -3.634233   -0.354134
  H     -1.373642   -3.255269    0.248213

 Total Charge           Charge          ....    0
 Multiplicity           Mult            ....    1
 Number of Electrons    NEL             ....  174
 Basis Dimension        Dim             ....  316

ORBITAL ENERGIES
----------------

  NO   OCC          E(Eh)            E(eV)
   0   2.0000     -88.026533     -2395.3237
   1   2.0000     -87.965611     -2393.6660
   2   2.0000     -76.412879     -2079.3001
   3   2.0000     -18.826975      -512.3080
   4   2.0000     -18.805918      -511.7351
   5   2.0000     -18.765413      -510.6329
   6   2.0000     -18.763610      -510.5838
   7   2.0000     -18.763492      -510.5806
   8   2.0000     -18.736208      -509.8381
   9   2.0000     -10.031314      -272.9659
  10   2.0000     -10.010978      -272.4126
  11   2.0000      -9.961414      -271.0639
  12   2.0000      -9.956211      -270.9223
  13   2.0000      -9.943846      -270.5858
  14   2.0000      -9.922496      -270.0048
  15   2.0000      -9.917356      -269.8650
  16   2.0000      -9.915090      -269.8033
  17   2.0000      -9.898779      -269.3595
  18   2.0000      -9.883830      -268.9527
  19   2.0000      -7.671735      -208.7585
  20   2.0000      -7.610692      -207.0975
  21   2.0000      -6.407749      -174.3637
  22   2.0000      -5.700153      -155.1091
  23   2.0000      -5.696458      -155.0085
  24   2.0000      -5.687872      -154.7749
  25   2.0000      -5.639829      -153.4675
  26   2.0000      -5.631286      -153.2351
  27   2.0000      -5.630554      -153.2152
  28   2.0000      -4.630365      -125.9986
  29   2.0000      -4.629965      -125.9878
  30   2.0000      -4.628299      -125.9424
  31   2.0000      -1.037956       -28.2442
  32   2.0000      -1.010899       -27.5079
  33   2.0000      -0.960667       -26.1411
  34   2.0000      -0.940269       -25.5860
  35   2.0000      -0.915753       -24.9189
  36   2.0000      -0.913847       -24.8670
  37   2.0000      -0.767970       -20.8975
  38   2.0000      -0.720255       -19.5991
  39   2.0000      -0.709771       -19.3139
  40   2.0000      -0.682502       -18.5718
  41   2.0000      -0.650936       -17.7129
  42   2.0000      -0.623316       -16.9613
  43   2.0000      -0.613982       -16.7073
  44   2.0000      -0.599433       -16.3114
  45   2.0000      -0.592431       -16.1209
  46   2.0000      -0.565877       -15.3983
  47   2.0000      -0.524980       -14.2854
  48   2.0000      -0.505230       -13.7480
  49   2.0000      -0.496006       -13.4970
  50   2.0000      -0.487582       -13.2678
  51   2.0000      -0.465483       -12.6664
  52   2.0000      -0.457079       -12.4377
  53   2.0000      -0.451331       -12.2813
  54   2.0000      -0.443746       -12.0749
  55   2.0000      -0.430146       -11.7049
  56   2.0000      -0.416443       -11.3320
  57   2.0000      -0.412022       -11.2117
  58   2.0000      -0.406173       -11.0525
  59   2.0000      -0.403249       -10.9730
  60   2.0000      -0.390392       -10.6231
  61   2.0000      -0.388533       -10.5725
  62   2.0000      -0.378640       -10.3033
  63   2.0000      -0.376856       -10.2548
  64   2.0000      -0.374134       -10.1807
  65   2.0000      -0.371246       -10.1021
  66   2.0000      -0.368263       -10.0209
  67   2.0000      -0.362713        -9.8699
  68   2.0000      -0.351278        -9.5588
  69   2.0000      -0.338966        -9.2237
  70   2.0000      -0.337277        -9.1778
  71   2.0000      -0.330266        -8.9870
  72   2.0000      -0.324331        -8.8255
  73   2.0000      -0.319646        -8.6980
  74   2.0000      -0.296208        -8.0602
  75   2.0000      -0.293417        -7.9843
  76   2.0000      -0.287542        -7.8244
  77   2.0000      -0.279681        -7.6105
  78   2.0000      -0.267896        -7.2898
  79   2.0000      -0.260400        -7.0858
  80   2.0000      -0.253925        -6.9096
  81   2.0000      -0.242342        -6.5945
  82   2.0000      -0.236682        -6.4405
  83   2.0000      -0.229837        -6.2542
  84   2.0000      -0.196978        -5.3600
  85   2.0000      -0.180991        -4.9250
  86   2.0000      -0.177272        -4.8238
  87   0.0000      -0.051565        -1.4031
  88   0.0000      -0.039033        -1.0621
  89   0.0000      -0.027851        -0.7579
  90   0.0000       0.007667         0.2086
  91   0.0000       0.024803         0.6749

MULLIKEN ATOMIC CHARGES
-----------------------
   0 C :   -0.318534
   1 C :   -0.023048
   2 O :   -0.227220
   3 C :    0.085703
   4 O :   -0.185345
   5 C :   -0.025865
   6 C :   -0.320010
   7 H :    0.157387
   8 C :    0.213447
   9 O :   -0.195626
  10 O :   -0.215086
  11 C :   -0.037619
  12 C :   -0.288278
  13 S :   -0.081094
  14 P :    0.645438
  15 S :   -0.360222
  16 O :   -0.372580
  17 C :   -0.083762
  18 O :   -0.378863
  19 C :   -0.091140
  20 H :    0.110153
  21 H :    0.115745
  22 H :    0.138298
  23 H :    0.127094
  24 H :    0.100557
  25 H :    0.122728
  26 H :    0.112447
  27 H :    0.109505
  28 H :    0.131987
  29 H :    0.131639
  30 H :    0.115385
  31 H :    0.116806
  32 H :    0.107042
  33 H :    0.110760
  34 H :    0.113882
  35 H :    0.111882
  36 H :    0.111744
  37 H :    0.114662
Sum of atomic charges:   -0.0000000

LOEWDIN ATOMIC CHARGES
----------------------
   0 C :   -0.358606
   1 C :   -0.110912
   2 O :   -0.051179
   3 C :    0.021593
   4 O :   -0.163305
   5 C :   -0.248980
   6 C :   -0.261799
   7 H :    0.153106
   8 C :    0.018591
   9 O :   -0.149610
  10 O :   -0.033432
  11 C :   -0.103184
  12 C :   -0.351362
  13 S :    0.109946
  14 P :    0.596674
  15 S :   -0.329205
  16 O :   -0.246269
  17 C :   -0.211083
  18 O :   -0.255837
  19 C :   -0.215169
  20 H :    0.130988
  21 H :    0.119356
  22 H :    0.123457
  23 H :    0.124417
  24 H :    0.115499
  25 H :    0.145920
  26 H :    0.136833
  27 H :    0.119413
  28 H :    0.125866
  29 H :    0.129542
  30 H :    0.127258
  31 H :    0.134183
  32 H :    0.108355
  33 H :    0.104583
  34 H :    0.114974
  35 H :    0.107010
  36 H :    0.114381
  37 H :    0.107989

  Mayer bond orders larger than 0.100000
B(  0-C ,  1-C ) :   1.1767 B(  0-C , 20-H ) :   0.9406 B(  0-C , 21-H ) :   0.9413
B(  0-C , 22-H ) :   0.9323 B(  1-C ,  2-O ) :   0.9026 B(  1-C , 23-H ) :   0.9029
B(  1-C , 24-H ) :   0.9344 B(  2-O ,  3-C ) :   1.2424 B(  2-O ,  4-O ) :   0.1001
B(  3-C ,  4-O ) :   2.0067 B(  3-C ,  5-C ) :   0.9990 B(  5-C ,  6-C ) :   1.0238
B(  5-C , 25-H ) :   0.8906 B(  5-C , 26-H ) :   0.8845 B(  6-C ,  7-H ) :   0.8722
B(  6-C ,  8-C ) :   0.9119 B(  6-C , 13-S ) :   1.0468 B(  8-C ,  9-O ) :   1.9240
B(  8-C , 10-O ) :   1.2858 B(  9-O , 14-P ) :   0.1181 B( 10-O , 11-C ) :   0.8830
B( 11-C , 12-C ) :   1.1573 B( 11-C , 27-H ) :   0.9330 B( 11-C , 28-H ) :   0.9188
B( 12-C , 29-H ) :   0.9420 B( 12-C , 30-H ) :   0.9475 B( 12-C , 31-H ) :   0.9419
B( 13-S , 14-P ) :   0.9193 B( 13-S , 15-S ) :   0.1236 B( 14-P , 15-S ) :   1.5132
B( 14-P , 16-O ) :   1.1226 B( 14-P , 18-O ) :   1.0941 B( 16-O , 17-C ) :   0.9387
B( 17-C , 32-H ) :   0.9533 B( 17-C , 33-H ) :   0.9297 B( 17-C , 34-H ) :   0.9561
B( 18-O , 19-C ) :   0.9430 B( 19-C , 35-H ) :   0.9466 B( 19-C , 36-H ) :   0.9574
B( 19-C , 37-H ) :   0.9393

Dispersion correction           -0.056158064
FINAL SINGLE POINT ENERGY     -1979.001157339146

DIPOLE MOMENT
-------------

Method             : SCF
Type of density    : Electron Density
Multiplicity       :   1
Irrep              :   0
Energy             : -1979.1297553699996570 Eh
Relativity type    :
Basis              : AO
                                X                 Y                 Z
Electronic contribution:    -17.023999828      -2.747105308      -9.332122919
Nuclear contribution   :     18.766092881       3.730281087       9.059347525
                        -----------------------------------------
Total Dipole Moment    :      1.742093054       0.983175779      -0.272775394
                        -----------------------------------------
Magnitude (a.u.)       :      2.018893072
Magnitude (Debye)      :      5.131618373

Rotational constants in cm-1:             0.013114             0.008897             0.007681
Rotational constants in MHz :           393.162025           266.729756           230.273270

                             ****ORCA TERMINATED NORMALLY****
TOTAL RUN TIME: 0 days 0 hours 0 minutes 41 seconds 765 msec
