                         Program Version 6.0.0  -   RELEASE  -
|  1> ! wb97x-v def2-tzvp def2/J RIJCOSX DEFGRID2 scfconv7 GCP(DFT/TZ) printgap
|  2> %output
|  3>     printlevel normal
|  4> end
|  5> * xyz 0 1
|  6> C -1.7968114139016673 -0.38635057859478333 0.5037689470048684
|  7> C -0.780808712034017 -0.4309925664092195 -0.6256342802204246
|  8> N 0.5263865634850846 0.12245540342923315 -0.11909187584791758
|  9> O 0.7246094652973448 1.3274521183364627 -0.23306007922317237
| 10> O 1.303995729366129 -0.6517925616863084 0.42862576845253336
| 11> H -2.738586092617711 -0.7913327606661655 0.12520151849992506
| 12> H -1.469697146209603 -0.9967858091871822 1.3491281453561008
| 13> H -1.9681111602518346 0.6404661804588782 0.836474697288634
| 14> H -1.0731970289874517 0.19871570865981564 -1.4663966181207249
| 15> H -0.5733944907522056 -1.4512293677931538 -0.9502554131203199
| 16> *
| 17>
| 18>                          ****END OF INPUT****

CARTESIAN COORDINATES (ANGSTROEM)
---------------------------------
  C     -1.796811   -0.386351    0.503769
  C     -0.780809   -0.430993   -0.625634
  N      0.526387    0.122455   -0.119092
  O      0.724609    1.327452   -0.233060
  O      1.303996   -0.651793    0.428626
  H     -2.738586   -0.791333    0.125202
  H     -1.469697   -0.996786    1.349128
  H     -1.968111    0.640466    0.836475
  H     -1.073197    0.198716   -1.466397
  H     -0.573394   -1.451229   -0.950255

 Total Charge           Charge          ....    0
 Multiplicity           Mult            ....    1
 Number of Electrons    NEL             ....   40
 Basis Dimension        Dim             ....  185

ORBITAL ENERGIES
----------------

  NO   OCC          E(Eh)            E(eV)
   0   2.0000     -21.710139      -590.7629
   1   2.0000     -21.709977      -590.7585
   2   2.0000     -16.769394      -456.3184
   3   2.0000     -12.123093      -329.8861
   4   2.0000     -12.074126      -328.5537
   5   2.0000      -1.903334       -51.7923
   6   2.0000      -1.749629       -47.6098
   7   2.0000      -1.394265       -37.9399
   8   2.0000      -1.259312       -34.2676
   9   2.0000      -1.180355       -32.1191
  10   2.0000      -1.141372       -31.0583
  11   2.0000      -1.081457       -29.4279
  12   2.0000      -1.056549       -28.7502
  13   2.0000      -0.934894       -25.4398
  14   2.0000      -0.905837       -24.6491
  15   2.0000      -0.900177       -24.4951
  16   2.0000      -0.895684       -24.3728
  17   2.0000      -0.874326       -23.7916
  18   2.0000      -0.840629       -22.8747
  19   2.0000      -0.821116       -22.3437
  20   0.0000      -0.478593       -13.0232
  21   0.0000      -0.227861        -6.2004
  22   0.0000      -0.120233        -3.2717
  23   0.0000      -0.082252        -2.2382
  24   0.0000      -0.033152        -0.9021

MULLIKEN ATOMIC CHARGES
-----------------------
   0 C :   -0.365089
   1 C :   -0.103037
   2 N :    0.407758
   3 O :   -0.309083
   4 O :   -0.309384
   5 H :    0.124790
   6 H :    0.139334
   7 H :    0.138537
   8 H :    0.138417
   9 H :    0.137756
Sum of atomic charges:    0.0000000

LOEWDIN ATOMIC CHARGES
----------------------
   0 C :   -0.292007
   1 C :   -0.243637
   2 N :   -0.047252
   3 O :   -0.039901
   4 O :   -0.039884
   5 H :    0.129125
   6 H :    0.127648
   7 H :    0.127519
   8 H :    0.139100
   9 H :    0.139289

  Mayer bond orders larger than 0.100000
B(  0-C ,  1-C ) :   0.9847 B(  0-C ,  5-H ) :   0.9689 B(  0-C ,  6-H ) :   0.9702
B(  0-C ,  7-H ) :   0.9703 B(  1-C ,  2-N ) :   0.8694 B(  1-C ,  8-H ) :   0.9590
B(  1-C ,  9-H ) :   0.9587 B(  2-N ,  3-O ) :   1.6581 B(  2-N ,  4-O ) :   1.6572
B(  3-O ,  4-O ) :   0.2072

FINAL SINGLE POINT ENERGY      -284.349957467340

DIPOLE MOMENT
-------------

Method             : SCF
Type of density    : Electron Density
Multiplicity       :   1
Irrep              :   0
Energy             :  -284.3565100260403256 Eh
Relativity type    :
Basis              : AO
                                X                 Y                 Z
Electronic contribution:      5.971042252       1.703779923      -0.333292449
Nuclear contribution   :     -7.368351312      -2.259283776      -0.090162005
                        -----------------------------------------
Total Dipole Moment    :     -1.397309060      -0.555503853      -0.423454455
                        -----------------------------------------
Magnitude (a.u.)       :      1.562168626
Magnitude (Debye)      :      3.970717089

Rotational constants in cm-1:             0.304167             0.139594             0.114777
Rotational constants in MHz :          9118.686595          4184.932110          3440.914138

                             ****ORCA TERMINATED NORMALLY****
TOTAL RUN TIME: 0 days 0 hours 0 minutes 54 seconds 396 msec
