                         Program Version 6.0.0  -   RELEASE  -
|  1> ! wb97x-v def2-tzvp def2/J RIJCOSX DEFGRID2 scfconv7 GCP(DFT/TZ) printgap
|  2> %output
|  3>     printlevel normal
|  4> end
|  5> %cpcm
|  6>     smd true
|  7>     smdsolvent "water"
|  8> end
|  9> * xyz 0 1
| 10> C -1.7968114139016673 -0.38635057859478333 0.5037689470048684
| 11> C -0.780808712034017 -0.4309925664092195 -0.6256342802204246
| 12> N 0.5263865634850846 0.12245540342923315 -0.11909187584791758
| 13> O 0.7246094652973448 1.3274521183364627 -0.23306007922317237
| 14> O 1.303995729366129 -0.6517925616863084 0.42862576845253336
| 15> H -2.738586092617711 -0.7913327606661655 0.12520151849992506
| 16> H -1.469697146209603 -0.9967858091871822 1.3491281453561008
| 17> H -1.9681111602518346 0.6404661804588782 0.836474697288634
| 18> H -1.0731970289874517 0.19871570865981564 -1.4663966181207249
| 19> H -0.5733944907522056 -1.4512293677931538 -0.9502554131203199
| 20> *
| 21>
| 22>                          ****END OF INPUT****

CARTESIAN COORDINATES (ANGSTROEM)
---------------------------------
  C     -1.796811   -0.386351    0.503769
  C     -0.780809   -0.430993   -0.625634
  N      0.526387    0.122455   -0.119092
  O      0.724609    1.327452   -0.233060
  O      1.303996   -0.651793    0.428626
  H     -2.738586   -0.791333    0.125202
  H     -1.469697   -0.996786    1.349128
  H     -1.968111    0.640466    0.836475
  H     -1.073197    0.198716   -1.466397
  H     -0.573394   -1.451229   -0.950255

 Total Charge           Charge          ....    0
 Multiplicity           Mult            ....    1
 Number of Electrons    NEL             ....   40
 Basis Dimension        Dim             ....  185

ORBITAL ENERGIES
----------------

  NO   OCC          E(Eh)            E(eV)
   0   2.0000     -21.721814      -591.0806
   1   2.0000     -21.721613      -591.0751
   2   2.0000     -16.776585      -456.5141
   3   2.0000     -12.102483      -329.3253
   4   2.0000     -12.047702      -327.8346
   5   2.0000      -1.913621       -52.0723
   6   2.0000      -1.761082       -47.9215
   7   2.0000      -1.388778       -37.7906
   8   2.0000      -1.252226       -34.0748
   9   2.0000      -1.175810       -31.9954
  10   2.0000      -1.156212       -31.4621
  11   2.0000      -1.086796       -29.5732
  12   2.0000      -1.044178       -28.4135
  13   2.0000      -0.939096       -25.5541
  14   2.0000      -0.911286       -24.7973
  15   2.0000      -0.903557       -24.5870
  16   2.0000      -0.891793       -24.2669
  17   2.0000      -0.852782       -23.2054
  18   2.0000      -0.816511       -22.2184
  19   2.0000      -0.795280       -21.6407
  20   0.0000      -0.485524       -13.2118
  21   0.0000      -0.226691        -6.1686
  22   0.0000      -0.117943        -3.2094
  23   0.0000      -0.085263        -2.3201
  24   0.0000      -0.008311        -0.2262

MULLIKEN ATOMIC CHARGES
-----------------------
   0 C :   -0.389027
   1 C :   -0.108515
   2 N :    0.471417
   3 O :   -0.374492
   4 O :   -0.374625
   5 H :    0.151087
   6 H :    0.145639
   7 H :    0.145713
   8 H :    0.166255
   9 H :    0.166548
Sum of atomic charges:    0.0000000

LOEWDIN ATOMIC CHARGES
----------------------
   0 C :   -0.288809
   1 C :   -0.227028
   2 N :   -0.027131
   3 O :   -0.076526
   4 O :   -0.076350
   5 H :    0.138026
   6 H :    0.128806
   7 H :    0.128932
   8 H :    0.149850
   9 H :    0.150230

  Mayer bond orders larger than 0.100000
B(  0-C ,  1-C ) :   0.9794 B(  0-C ,  5-H ) :   0.9636 B(  0-C ,  6-H ) :   0.9674
B(  0-C ,  7-H ) :   0.9673 B(  1-C ,  2-N ) :   0.8620 B(  1-C ,  8-H ) :   0.9517
B(  1-C ,  9-H ) :   0.9512 B(  2-N ,  3-O ) :   1.6235 B(  2-N ,  4-O ) :   1.6228
B(  3-O ,  4-O ) :   0.2032

FINAL SINGLE POINT ENERGY      -284.356401813311

DIPOLE MOMENT
-------------

Method             : SCF
Type of density    : Electron Density
Multiplicity       :   1
Irrep              :   0
Energy             :  -284.3629543720107904 Eh
Relativity type    :
Basis              : AO
                                X                 Y                 Z
Electronic contribution:      5.599918666       1.539469032      -0.500752703
Nuclear contribution   :     -7.368351312      -2.259283776      -0.090162005
                        -----------------------------------------
Total Dipole Moment    :     -1.768432646      -0.719814744      -0.590914709
                        -----------------------------------------
Magnitude (a.u.)       :      1.998666426
Magnitude (Debye)      :      5.080206324

Rotational constants in cm-1:             0.304167             0.139594             0.114777
Rotational constants in MHz :          9118.686595          4184.932110          3440.914138

                             ****ORCA TERMINATED NORMALLY****
TOTAL RUN TIME: 0 days 0 hours 0 minutes 54 seconds 36 msec
