                         Program Version 6.0.0  -   RELEASE  -
|  1> ! pbe def2-sv(p) def2/J RI DEFGRID1 loosescf d4 GCP(DFT/SV(P)) printgap
|  2> %output
|  3>     printlevel normal
|  4> end
|  5> * xyz 0 1
|  6> C 0.6154752376 1.6986356355 -0.0016465954
|  7> C 1.3977253169 0.3989486798 -0.245604507
|  8> H 1.6058059639 0.3048497224 -1.3186576846
|  9> C 0.5356949022 -0.7972728565 0.2048356785
| 10> H 0.3246074934 -0.7331598086 1.2781689663
| 11> C -0.8080747201 -0.7362714852 -0.5420009185
| 12> H -0.6136124463 -0.7974454731 -1.6257551544
| 13> C -1.473490998 0.6327587333 -0.2708912929
| 14> H -2.3635649245 0.7393324644 -0.9093434537
| 15> O -0.6319558157 1.6858954771 -0.6798863336
| 16> O -1.8005600972 0.7115826579 1.0765679836
| 17> O -1.604290971 -1.8065546123 -0.1157080187
| 18> O 1.1981421301 -2.0210182623 0.0396810506
| 19> O 2.6569941369 0.4210533317 0.3719656972
| 20> H 1.1579695246 2.5559066979 -0.3991344448
| 21> H 0.4537546335 1.82853902 1.0754905786
| 22> H -2.3684390703 1.4797792119 1.2424068328
| 23> H -2.4531907745 -1.8000738606 -0.5808802752
| 24> H 1.399749234 -2.1662317567 -0.8958764191
| 25> H 2.5550286893 0.3439436393 1.3315069526
| 26> *
| 27>
| 28>                          ****END OF INPUT****

CARTESIAN COORDINATES (ANGSTROEM)
---------------------------------
  C      0.615475    1.698636   -0.001647
  C      1.397725    0.398949   -0.245605
  H      1.605806    0.304850   -1.318658
  C      0.535695   -0.797273    0.204836
  H      0.324607   -0.733160    1.278169
  C     -0.808075   -0.736271   -0.542001
  H     -0.613612   -0.797445   -1.625755
  C     -1.473491    0.632759   -0.270891
  H     -2.363565    0.739332   -0.909343
  O     -0.631956    1.685895   -0.679886
  O     -1.800560    0.711583    1.076568
  O     -1.604291   -1.806555   -0.115708
  O      1.198142   -2.021018    0.039681
  O      2.656994    0.421053    0.371966
  H      1.157970    2.555907   -0.399134
  H      0.453755    1.828539    1.075491
  H     -2.368439    1.479779    1.242407
  H     -2.453191   -1.800074   -0.580880
  H      1.399749   -2.166232   -0.895876
  H      2.555029    0.343944    1.331507

 Total Charge           Charge          ....    0
 Multiplicity           Mult            ....    1
 Number of Electrons    NEL             ....   80
 Basis Dimension        Dim             ....  160

ORBITAL ENERGIES
----------------

  NO   OCC          E(Eh)            E(eV)
   0   2.0000     -18.769906      -510.7551
   1   2.0000     -18.769262      -510.7376
   2   2.0000     -18.750480      -510.2265
   3   2.0000     -18.748520      -510.1732
   4   2.0000     -18.742028      -509.9965
   5   2.0000      -9.989289      -271.8224
   6   2.0000      -9.944031      -270.5908
   7   2.0000      -9.939169      -270.4585
   8   2.0000      -9.937681      -270.4181
   9   2.0000      -9.931460      -270.2488
  10   2.0000      -0.984277       -26.7835
  11   2.0000      -0.938190       -25.5294
  12   2.0000      -0.929807       -25.3013
  13   2.0000      -0.914116       -24.8744
  14   2.0000      -0.910179       -24.7672
  15   2.0000      -0.697976       -18.9929
  16   2.0000      -0.678791       -18.4708
  17   2.0000      -0.583714       -15.8837
  18   2.0000      -0.577060       -15.7026
  19   2.0000      -0.543005       -14.7759
  20   2.0000      -0.498389       -13.5619
  21   2.0000      -0.492754       -13.4085
  22   2.0000      -0.469082       -12.7644
  23   2.0000      -0.435278       -11.8445
  24   2.0000      -0.428855       -11.6697
  25   2.0000      -0.416830       -11.3425
  26   2.0000      -0.402397       -10.9498
  27   2.0000      -0.373798       -10.1716
  28   2.0000      -0.365318        -9.9408
  29   2.0000      -0.345894        -9.4123
  30   2.0000      -0.329055        -8.9540
  31   2.0000      -0.311336        -8.4719
  32   2.0000      -0.298013        -8.1093
  33   2.0000      -0.281867        -7.6700
  34   2.0000      -0.261349        -7.1117
  35   2.0000      -0.257741        -7.0135
  36   2.0000      -0.245084        -6.6691
  37   2.0000      -0.223849        -6.0912
  38   2.0000      -0.212638        -5.7862
  39   2.0000      -0.201825        -5.4919
  40   0.0000       0.009709         0.2642
  41   0.0000       0.026911         0.7323
  42   0.0000       0.029215         0.7950
  43   0.0000       0.042005         1.1430
  44   0.0000       0.061080         1.6621

MULLIKEN ATOMIC CHARGES
-----------------------
   0 C :    0.086608
   1 C :    0.003571
   2 H :    0.054548
   3 C :    0.044639
   4 H :    0.071733
   5 C :    0.069747
   6 H :    0.047275
   7 C :    0.116132
   8 H :    0.052750
   9 O :   -0.314833
  10 O :   -0.382779
  11 O :   -0.392462
  12 O :   -0.397231
  13 O :   -0.407303
  14 H :    0.098601
  15 H :    0.049733
  16 H :    0.308785
  17 H :    0.297329
  18 H :    0.293657
  19 H :    0.299501
Sum of atomic charges:    0.0000000

LOEWDIN ATOMIC CHARGES
----------------------
   0 C :   -0.130970
   1 C :   -0.088080
   2 H :    0.109090
   3 C :   -0.077680
   4 H :    0.119774
   5 C :   -0.089841
   6 H :    0.096659
   7 C :   -0.015449
   8 H :    0.090389
   9 O :   -0.161906
  10 O :   -0.298057
  11 O :   -0.306252
  12 O :   -0.303620
  13 O :   -0.308821
  14 H :    0.119114
  15 H :    0.097029
  16 H :    0.292680
  17 H :    0.285764
  18 H :    0.283776
  19 H :    0.286401

  Mayer bond orders larger than 0.100000
B(  0-C ,  1-C ) :   1.0354 B(  0-C ,  9-O ) :   0.9920 B(  0-C , 14-H ) :   0.9232
B(  0-C , 15-H ) :   0.8879 B(  1-C ,  2-H ) :   0.8683 B(  1-C ,  3-C ) :   1.0021
B(  1-C , 13-O ) :   1.0601 B(  3-C ,  4-H ) :   0.8729 B(  3-C ,  5-C ) :   0.9796
B(  3-C , 12-O ) :   1.0850 B(  5-C ,  6-H ) :   0.8790 B(  5-C ,  7-C ) :   0.9634
B(  5-C , 11-O ) :   1.1026 B(  7-C ,  8-H ) :   0.9008 B(  7-C ,  9-O ) :   1.0597
B(  7-C , 10-O ) :   1.1256 B( 10-O , 16-H ) :   0.8404 B( 11-O , 17-H ) :   0.8486
B( 12-O , 18-H ) :   0.8514 B( 13-O , 19-H ) :   0.8486

Dispersion correction           -0.019138610
FINAL SINGLE POINT ENERGY      -571.408692477363

DIPOLE MOMENT
-------------

Method             : SCF
Type of density    : Electron Density
Multiplicity       :   1
Irrep              :   0
Energy             :  -571.5155590424286629 Eh
Relativity type    :
Basis              : AO
                                X                 Y                 Z
Electronic contribution:     -0.656354203      -1.010350995       0.371788075
Nuclear contribution   :     -0.285917108       1.631952783      -0.742221136
                        -----------------------------------------
Total Dipole Moment    :     -0.942271311       0.621601787      -0.370433061
                        -----------------------------------------
Magnitude (a.u.)       :      1.188059198
Magnitude (Debye)      :      3.019806493

Rotational constants in cm-1:             0.056519             0.044601             0.028914
Rotational constants in MHz :          1694.389587          1337.097902           866.816889

                             ****ORCA TERMINATED NORMALLY****
TOTAL RUN TIME: 0 days 0 hours 0 minutes 11 seconds 218 msec
