                         Program Version 6.0.0  -   RELEASE  -
|  1> ! pbe def2-sv(p) def2/J RI DEFGRID1 loosescf d4 GCP(DFT/SV(P)) printgap
|  2> %output
|  3>     printlevel normal
|  4> end
|  5> * xyz 0 1
|  6> C 3.9650050896 -1.873461077 -2.1649484053
|  7> C 4.4865850176 -1.5597678331 -0.7780511543
|  8> O 3.4285895516 -1.2719319935 0.1555662216
|  9> P 2.4886375499 0.0018218823 0.0197126554
| 10> S 3.3535561544 1.6582181675 -0.5480491187
| 11> O 1.8648139074 0.1165936269 1.463306334
| 12> C 1.3007616138 -1.0165046788 2.1682143695
| 13> C 2.2573078609 -1.4967931001 3.2397299895
| 14> S 0.8851331331 -0.6887586617 -1.2197333951
| 15> C 0.2382828711 0.951161108 -1.6140583884
| 16> S -0.4699789001 1.7892729693 -0.1675729681
| 17> P -2.2139928486 0.6017767443 -0.05854501
| 18> S -3.0478886603 0.1624841342 -1.7803978783
| 19> O -2.9657953123 1.5572628074 0.9569550872
| 20> C -4.1383520695 1.1577105314 1.7001943681
| 21> C -5.3941747999 1.2299992789 0.8540729008
| 22> O -1.8494908672 -0.6704241214 0.8323520771
| 23> C -1.9790326121 -2.0321135903 0.377152416
| 24> C -3.324301492 -2.5992333881 0.7842824295
| 25> H 3.2048276147 -2.6492211332 -2.1194611217
| 26> H 3.5295374072 -0.9804079755 -2.6105080877
| 27> H 4.7875651813 -2.2096419485 -2.7879629343
| 28> H 5.1618970905 -0.6994971381 -0.8067407506
| 29> H 4.9947756315 -2.4179113385 -0.3359890036
| 30> H 0.3677150534 -0.6443457129 2.5975419223
| 31> H 1.0871305976 -1.809526491 1.4462095682
| 32> H 1.7910029264 -2.3013920188 3.799609965
| 33> H 3.1759398454 -1.858739626 2.7855428954
| 34> H 2.4980696189 -0.6805098463 3.9150856067
| 35> H -0.5317533715 0.8179389762 -2.375087393
| 36> H 1.0509395448 1.5818416141 -1.9742642103
| 37> H -3.9818050206 0.1487265248 2.0902575172
| 38> H -4.1759653488 1.8697032276 2.5267166872
| 39> H -5.3342440528 0.5324918479 0.0207929272
| 40> H -6.2544773423 0.9793065103 1.4666426021
| 41> H -5.5181842437 2.2324246579 0.4528786425
| 42> H -1.8594249263 -2.0614471276 -0.7096883972
| 43> H -1.1566884738 -2.5686304193 0.8512609804
| 44> H -4.1232165411 -2.0521759035 0.287169071
| 45> H -3.3751669291 -3.6411114949 0.4853185182
| 46> H -3.4567636614 -2.5288690109 1.8605459822
| 47> *
| 48>
| 49>                          ****END OF INPUT****

CARTESIAN COORDINATES (ANGSTROEM)
---------------------------------
  C      3.965005   -1.873461   -2.164948
  C      4.486585   -1.559768   -0.778051
  O      3.428590   -1.271932    0.155566
  P      2.488638    0.001822    0.019713
  S      3.353556    1.658218   -0.548049
  O      1.864814    0.116594    1.463306
  C      1.300762   -1.016505    2.168214
  C      2.257308   -1.496793    3.239730
  S      0.885133   -0.688759   -1.219733
  C      0.238283    0.951161   -1.614058
  S     -0.469979    1.789273   -0.167573
  P     -2.213993    0.601777   -0.058545
  S     -3.047889    0.162484   -1.780398
  O     -2.965795    1.557263    0.956955
  C     -4.138352    1.157711    1.700194
  C     -5.394175    1.229999    0.854073
  O     -1.849491   -0.670424    0.832352
  C     -1.979033   -2.032114    0.377152
  C     -3.324301   -2.599233    0.784282
  H      3.204828   -2.649221   -2.119461
  H      3.529537   -0.980408   -2.610508
  H      4.787565   -2.209642   -2.787963
  H      5.161897   -0.699497   -0.806741
  H      4.994776   -2.417911   -0.335989
  H      0.367715   -0.644346    2.597542
  H      1.087131   -1.809526    1.446210
  H      1.791003   -2.301392    3.799610
  H      3.175940   -1.858740    2.785543
  H      2.498070   -0.680510    3.915086
  H     -0.531753    0.817939   -2.375087
  H      1.050940    1.581842   -1.974264
  H     -3.981805    0.148727    2.090258
  H     -4.175965    1.869703    2.526717
  H     -5.334244    0.532492    0.020793
  H     -6.254477    0.979307    1.466643
  H     -5.518184    2.232425    0.452879
  H     -1.859425   -2.061447   -0.709688
  H     -1.156688   -2.568630    0.851261
  H     -4.123217   -2.052176    0.287169
  H     -3.375167   -3.641111    0.485319
  H     -3.456764   -2.528869    1.860546

 Total Charge           Charge          ....    0
 Multiplicity           Mult            ....    1
 Number of Electrons    NEL             ....  202
 Basis Dimension        Dim             ....  334

ORBITAL ENERGIES
----------------

  NO   OCC          E(Eh)            E(eV)
   0   2.0000     -88.041631     -2395.7346
   1   2.0000     -88.036740     -2395.6015
   2   2.0000     -87.991175     -2394.3616
   3   2.0000     -87.987871     -2394.2717
   4   2.0000     -76.428161     -2079.7160
   5   2.0000     -76.427696     -2079.7033
   6   2.0000     -18.799024      -511.5475
   7   2.0000     -18.796832      -511.4878
   8   2.0000     -18.795850      -511.4611
   9   2.0000     -18.790002      -511.3020
  10   2.0000      -9.960734      -271.0454
  11   2.0000      -9.957273      -270.9512
  12   2.0000      -9.955203      -270.8949
  13   2.0000      -9.955023      -270.8899
  14   2.0000      -9.949220      -270.7320
  15   2.0000      -9.891008      -269.1480
  16   2.0000      -9.887321      -269.0477
  17   2.0000      -9.886627      -269.0288
  18   2.0000      -9.886301      -269.0199
  19   2.0000      -7.686265      -209.1539
  20   2.0000      -7.682111      -209.0409
  21   2.0000      -7.636087      -207.7885
  22   2.0000      -7.633170      -207.7091
  23   2.0000      -6.425875      -174.8569
  24   2.0000      -6.425142      -174.8370
  25   2.0000      -5.713942      -155.4843
  26   2.0000      -5.710911      -155.4018
  27   2.0000      -5.710019      -155.3775
  28   2.0000      -5.706864      -155.2917
  29   2.0000      -5.703372      -155.1966
  30   2.0000      -5.698758      -155.0711
  31   2.0000      -5.664848      -154.1484
  32   2.0000      -5.662133      -154.0745
  33   2.0000      -5.657045      -153.9360
  34   2.0000      -5.656058      -153.9092
  35   2.0000      -5.653656      -153.8438
  36   2.0000      -5.653377      -153.8362
  37   2.0000      -4.648723      -126.4982
  38   2.0000      -4.648106      -126.4814
  39   2.0000      -4.647254      -126.4582
  40   2.0000      -4.646773      -126.4451
  41   2.0000      -4.646416      -126.4354
  42   2.0000      -4.645391      -126.4075
  43   2.0000      -0.990997       -26.9664
  44   2.0000      -0.989872       -26.9358
  45   2.0000      -0.948155       -25.8006
  46   2.0000      -0.946889       -25.7662
  47   2.0000      -0.763202       -20.7678
  48   2.0000      -0.724533       -19.7156
  49   2.0000      -0.711531       -19.3617
  50   2.0000      -0.692842       -18.8532
  51   2.0000      -0.692418       -18.8417
  52   2.0000      -0.674921       -18.3655
  53   2.0000      -0.653367       -17.7790
  54   2.0000      -0.638869       -17.3845
  55   2.0000      -0.600914       -16.3517
  56   2.0000      -0.593348       -16.1458
  57   2.0000      -0.581880       -15.8338
  58   2.0000      -0.575296       -15.6546
  59   2.0000      -0.558014       -15.1843
  60   2.0000      -0.506474       -13.7819
  61   2.0000      -0.499408       -13.5896
  62   2.0000      -0.480940       -13.0871
  63   2.0000      -0.477267       -12.9871
  64   2.0000      -0.460392       -12.5279
  65   2.0000      -0.450904       -12.2697
  66   2.0000      -0.440184       -11.9780
  67   2.0000      -0.439647       -11.9634
  68   2.0000      -0.428893       -11.6708
  69   2.0000      -0.419205       -11.4071
  70   2.0000      -0.410795       -11.1783
  71   2.0000      -0.398826       -10.8526
  72   2.0000      -0.393985       -10.7209
  73   2.0000      -0.383492       -10.4353
  74   2.0000      -0.379250       -10.3199
  75   2.0000      -0.375727       -10.2241
  76   2.0000      -0.368841       -10.0367
  77   2.0000      -0.362233        -9.8569
  78   2.0000      -0.357252        -9.7213
  79   2.0000      -0.355052        -9.6614
  80   2.0000      -0.353599        -9.6219
  81   2.0000      -0.346659        -9.4331
  82   2.0000      -0.345020        -9.3885
  83   2.0000      -0.342425        -9.3179
  84   2.0000      -0.338554        -9.2125
  85   2.0000      -0.325755        -8.8642
  86   2.0000      -0.312132        -8.4935
  87   2.0000      -0.301949        -8.2165
  88   2.0000      -0.297482        -8.0949
  89   2.0000      -0.295870        -8.0510
  90   2.0000      -0.294806        -8.0221
  91   2.0000      -0.281574        -7.6620
  92   2.0000      -0.272740        -7.4216
  93   2.0000      -0.266891        -7.2625
  94   2.0000      -0.259497        -7.0613
  95   2.0000      -0.232265        -6.3203
  96   2.0000      -0.217722        -5.9245
  97   2.0000      -0.214406        -5.8343
  98   2.0000      -0.206184        -5.6106
  99   2.0000      -0.202688        -5.5154
 100   2.0000      -0.199272        -5.4225
 101   0.0000      -0.045410        -1.2357
 102   0.0000      -0.023090        -0.6283
 103   0.0000      -0.002828        -0.0770
 104   0.0000       0.001222         0.0333
 105   0.0000       0.012964         0.3528

MULLIKEN ATOMIC CHARGES
-----------------------
   0 C :   -0.316781
   1 C :   -0.000626
   2 O :   -0.383174
   3 P :    0.599132
   4 S :   -0.306896
   5 O :   -0.346123
   6 C :   -0.027698
   7 C :   -0.280467
   8 S :   -0.104592
   9 C :   -0.381193
  10 S :   -0.050729
  11 P :    0.638114
  12 S :   -0.333481
  13 O :   -0.374021
  14 C :   -0.018194
  15 C :   -0.308996
  16 O :   -0.381315
  17 C :   -0.014822
  18 C :   -0.298661
  19 H :    0.116549
  20 H :    0.130384
  21 H :    0.114925
  22 H :    0.114493
  23 H :    0.105043
  24 H :    0.116734
  25 H :    0.106786
  26 H :    0.106257
  27 H :    0.116329
  28 H :    0.121611
  29 H :    0.193817
  30 H :    0.194596
  31 H :    0.106909
  32 H :    0.112088
  33 H :    0.135130
  34 H :    0.109127
  35 H :    0.122889
  36 H :    0.113655
  37 H :    0.103852
  38 H :    0.120262
  39 H :    0.113122
  40 H :    0.115964
Sum of atomic charges:    0.0000000

LOEWDIN ATOMIC CHARGES
----------------------
   0 C :   -0.370824
   1 C :   -0.115554
   2 O :   -0.248604
   3 P :    0.572636
   4 S :   -0.303825
   5 O :   -0.231299
   6 C :   -0.115721
   7 C :   -0.356470
   8 S :    0.070504
   9 C :   -0.490486
  10 S :    0.104583
  11 P :    0.572086
  12 S :   -0.313183
  13 O :   -0.244143
  14 C :   -0.111750
  15 C :   -0.364926
  16 O :   -0.246114
  17 C :   -0.124810
  18 C :   -0.362090
  19 H :    0.122884
  20 H :    0.122574
  21 H :    0.132055
  22 H :    0.114237
  23 H :    0.118481
  24 H :    0.119925
  25 H :    0.101538
  26 H :    0.127792
  27 H :    0.125455
  28 H :    0.129684
  29 H :    0.127811
  30 H :    0.129390
  31 H :    0.109079
  32 H :    0.122511
  33 H :    0.122562
  34 H :    0.129257
  35 H :    0.130998
  36 H :    0.105239
  37 H :    0.111531
  38 H :    0.123039
  39 H :    0.132069
  40 H :    0.121881

  Mayer bond orders larger than 0.100000
B(  0-C ,  1-C ) :   1.1668 B(  0-C , 19-H ) :   0.9435 B(  0-C , 20-H ) :   0.9344
B(  0-C , 21-H ) :   0.9366 B(  1-C ,  2-O ) :   0.9040 B(  1-C , 22-H ) :   0.9192
B(  1-C , 23-H ) :   0.9342 B(  2-O ,  3-P ) :   1.0794 B(  3-P ,  4-S ) :   1.6411
B(  3-P ,  5-O ) :   1.1428 B(  3-P ,  8-S ) :   0.9394 B(  4-S ,  8-S ) :   0.1083
B(  5-O ,  6-C ) :   0.8921 B(  6-C ,  7-C ) :   1.1584 B(  6-C , 24-H ) :   0.9300
B(  6-C , 25-H ) :   0.9056 B(  7-C , 26-H ) :   0.9409 B(  7-C , 27-H ) :   0.9441
B(  7-C , 28-H ) :   0.9470 B(  8-S ,  9-C ) :   0.9972 B(  9-C , 10-S ) :   1.0101
B(  9-C , 29-H ) :   0.8706 B(  9-C , 30-H ) :   0.8770 B( 10-S , 11-P ) :   0.9721
B( 10-S , 12-S ) :   0.1083 B( 11-P , 12-S ) :   1.6003 B( 11-P , 13-O ) :   1.1283
B( 11-P , 16-O ) :   1.0749 B( 13-O , 14-C ) :   0.9088 B( 14-C , 15-C ) :   1.1647
B( 14-C , 31-H ) :   0.9198 B( 14-C , 32-H ) :   0.9352 B( 15-C , 33-H ) :   0.9330
B( 15-C , 34-H ) :   0.9383 B( 15-C , 35-H ) :   0.9455 B( 16-O , 17-C ) :   0.9018
B( 17-C , 18-C ) :   1.1663 B( 17-C , 36-H ) :   0.9030 B( 17-C , 37-H ) :   0.9249
B( 18-C , 38-H ) :   0.9373 B( 18-C , 39-H ) :   0.9388 B( 18-C , 40-H ) :   0.9421

Dispersion correction           -0.065660755
FINAL SINGLE POINT ENERGY     -2929.522740230273

DIPOLE MOMENT
-------------

Method             : SCF
Type of density    : Electron Density
Multiplicity       :   1
Irrep              :   0
Energy             : -2929.6425496744986958 Eh
Relativity type    :
Basis              : AO
                                X                 Y                 Z
Electronic contribution:      7.494096822      18.446160164      -9.349527856
Nuclear contribution   :     -7.875531431     -20.274106152      10.386787266
                        -----------------------------------------
Total Dipole Moment    :     -0.381434609      -1.827945988       1.037259410
                        -----------------------------------------
Magnitude (a.u.)       :      2.136067878
Magnitude (Debye)      :      5.429453061

Rotational constants in cm-1:             0.013475             0.004660             0.004466
Rotational constants in MHz :           403.977542           139.700165           133.896328

                             ****ORCA TERMINATED NORMALLY****
TOTAL RUN TIME: 0 days 0 hours 0 minutes 21 seconds 265 msec
