                         Program Version 6.0.0  -   RELEASE  -
|  1> ! pbe def2-sv(p) def2/J RI DEFGRID1 loosescf d4 GCP(DFT/SV(P)) printgap
|  2> %output
|  3>     printlevel normal
|  4> end
|  5> * xyz 0 1
|  6> C 3.3914590267 -0.5756011436 -2.5623094675
|  7> C 1.9676412867 -0.1128253832 -2.3431339301
|  8> O 1.4861601211 -0.4726576182 -1.0347863743
|  9> P 2.0714775251 0.1830662452 0.2847413033
| 10> S 2.8111111762 1.9903970622 0.1795485086
| 11> O 3.1247893174 -0.9423653365 0.704415406
| 12> C 4.1656856296 -0.6974259532 1.6625225262
| 13> C 3.6215081091 -0.5513891239 3.0696445283
| 14> S 0.4472443689 -0.1118259955 1.6055608817
| 15> C -0.0707841713 -1.7688012557 1.0947577961
| 16> S -1.0567302382 -1.8444965329 -0.4452014454
| 17> P -1.8880331048 0.090111799 -0.5452275931
| 18> S -0.8500418883 1.6764270772 -1.0566633622
| 19> O -2.5804339678 0.169918351 0.8930458741
| 20> C -2.7778414995 1.4068146837 1.5958270101
| 21> C -3.9665064448 2.163474766 1.039258032
| 22> O -3.0119160369 -0.0957051314 -1.6457975073
| 23> C -3.8646107717 -1.2492815397 -1.8450890417
| 24> C -4.7620286476 -1.5264314522 -0.657720232
| 25> H 3.6817620821 -0.3659386057 -3.5868985793
| 26> H 4.0593005156 -0.0404426213 -1.8880211411
| 27> H 3.4724089354 -1.6423536829 -2.3708064998
| 28> H 1.2669511448 -0.6042407344 -3.020871831
| 29> H 1.8810352248 0.9731606743 -2.4557439201
| 30> H 4.8200499036 -1.5652146087 1.5692455818
| 31> H 4.7012535091 0.2096782926 1.3646777424
| 32> H 3.030494704 -1.4212503099 3.3437631881
| 33> H 4.4487118166 -0.4444159917 3.7638880449
| 34> H 2.9919834612 0.3362029195 3.1318763361
| 35> H -0.6832756756 -2.1484288678 1.9091471362
| 36> H 0.8048994309 -2.3930880726 0.9285200492
| 37> H -2.9308640413 1.1063456792 2.6330866272
| 38> H -1.8653838624 2.0077479949 1.5184409334
| 39> H -4.8681186991 1.5621861518 1.1175900186
| 40> H -4.0992824865 3.0869383764 1.5937785836
| 41> H -3.7875430799 2.4021880117 -0.0091182952
| 42> H -4.4418861727 -0.979303781 -2.7311777158
| 43> H -3.2302808084 -2.1109006644 -2.0664734222
| 44> H -5.4205527441 -2.354633734 -0.9005013886
| 45> H -4.1663885654 -1.7889314461 0.2132806866
| 46> H -5.3612043291 -0.6496512414 -0.4263176485
| 47> *
| 48>
| 49>                          ****END OF INPUT****

CARTESIAN COORDINATES (ANGSTROEM)
---------------------------------
  C      3.391459   -0.575601   -2.562309
  C      1.967641   -0.112825   -2.343134
  O      1.486160   -0.472658   -1.034786
  P      2.071478    0.183066    0.284741
  S      2.811111    1.990397    0.179549
  O      3.124789   -0.942365    0.704415
  C      4.165686   -0.697426    1.662523
  C      3.621508   -0.551389    3.069645
  S      0.447244   -0.111826    1.605561
  C     -0.070784   -1.768801    1.094758
  S     -1.056730   -1.844497   -0.445201
  P     -1.888033    0.090112   -0.545228
  S     -0.850042    1.676427   -1.056663
  O     -2.580434    0.169918    0.893046
  C     -2.777841    1.406815    1.595827
  C     -3.966506    2.163475    1.039258
  O     -3.011916   -0.095705   -1.645798
  C     -3.864611   -1.249282   -1.845089
  C     -4.762029   -1.526431   -0.657720
  H      3.681762   -0.365939   -3.586899
  H      4.059301   -0.040443   -1.888021
  H      3.472409   -1.642354   -2.370806
  H      1.266951   -0.604241   -3.020872
  H      1.881035    0.973161   -2.455744
  H      4.820050   -1.565215    1.569246
  H      4.701254    0.209678    1.364678
  H      3.030495   -1.421250    3.343763
  H      4.448712   -0.444416    3.763888
  H      2.991983    0.336203    3.131876
  H     -0.683276   -2.148429    1.909147
  H      0.804899   -2.393088    0.928520
  H     -2.930864    1.106346    2.633087
  H     -1.865384    2.007748    1.518441
  H     -4.868119    1.562186    1.117590
  H     -4.099282    3.086938    1.593779
  H     -3.787543    2.402188   -0.009118
  H     -4.441886   -0.979304   -2.731178
  H     -3.230281   -2.110901   -2.066473
  H     -5.420553   -2.354634   -0.900501
  H     -4.166389   -1.788931    0.213281
  H     -5.361204   -0.649651   -0.426318

 Total Charge           Charge          ....    0
 Multiplicity           Mult            ....    1
 Number of Electrons    NEL             ....  202
 Basis Dimension        Dim             ....  334

ORBITAL ENERGIES
----------------

  NO   OCC          E(Eh)            E(eV)
   0   2.0000     -88.045382     -2395.8366
   1   2.0000     -88.039809     -2395.6850
   2   2.0000     -87.985178     -2394.1984
   3   2.0000     -87.972027     -2393.8406
   4   2.0000     -76.423065     -2079.5773
   5   2.0000     -76.421611     -2079.5378
   6   2.0000     -18.788927      -511.2727
   7   2.0000     -18.788353      -511.2571
   8   2.0000     -18.787684      -511.2389
   9   2.0000     -18.782192      -511.0894
  10   2.0000      -9.963201      -271.1125
  11   2.0000      -9.956756      -270.9371
  12   2.0000      -9.949603      -270.7425
  13   2.0000      -9.945380      -270.6276
  14   2.0000      -9.941599      -270.5247
  15   2.0000      -9.887763      -269.0597
  16   2.0000      -9.883488      -268.9434
  17   2.0000      -9.880089      -268.8509
  18   2.0000      -9.876812      -268.7617
  19   2.0000      -7.689876      -209.2522
  20   2.0000      -7.684918      -209.1172
  21   2.0000      -7.630271      -207.6302
  22   2.0000      -7.616982      -207.2686
  23   2.0000      -6.420440      -174.7090
  24   2.0000      -6.418517      -174.6567
  25   2.0000      -5.718246      -155.6014
  26   2.0000      -5.714163      -155.4903
  27   2.0000      -5.713076      -155.4607
  28   2.0000      -5.709344      -155.3592
  29   2.0000      -5.706564      -155.2835
  30   2.0000      -5.701653      -155.1499
  31   2.0000      -5.659278      -153.9968
  32   2.0000      -5.651040      -153.7726
  33   2.0000      -5.650227      -153.7505
  34   2.0000      -5.646289      -153.6433
  35   2.0000      -5.637485      -153.4038
  36   2.0000      -5.636846      -153.3864
  37   2.0000      -4.642670      -126.3335
  38   2.0000      -4.642403      -126.3262
  39   2.0000      -4.641553      -126.3031
  40   2.0000      -4.641083      -126.2903
  41   2.0000      -4.640279      -126.2684
  42   2.0000      -4.638675      -126.2248
  43   2.0000      -0.981674       -26.7127
  44   2.0000      -0.979420       -26.6514
  45   2.0000      -0.942511       -25.6470
  46   2.0000      -0.939414       -25.5628
  47   2.0000      -0.763780       -20.7835
  48   2.0000      -0.717761       -19.5313
  49   2.0000      -0.706062       -19.2129
  50   2.0000      -0.689141       -18.7525
  51   2.0000      -0.681820       -18.5533
  52   2.0000      -0.670903       -18.2562
  53   2.0000      -0.650907       -17.7121
  54   2.0000      -0.635601       -17.2956
  55   2.0000      -0.595868       -16.2144
  56   2.0000      -0.586706       -15.9651
  57   2.0000      -0.576897       -15.6982
  58   2.0000      -0.567141       -15.4327
  59   2.0000      -0.565200       -15.3799
  60   2.0000      -0.495651       -13.4874
  61   2.0000      -0.487071       -13.2539
  62   2.0000      -0.475075       -12.9275
  63   2.0000      -0.466936       -12.7060
  64   2.0000      -0.455470       -12.3940
  65   2.0000      -0.442784       -12.0488
  66   2.0000      -0.438141       -11.9224
  67   2.0000      -0.431685       -11.7467
  68   2.0000      -0.422108       -11.4861
  69   2.0000      -0.414127       -11.2690
  70   2.0000      -0.409188       -11.1346
  71   2.0000      -0.402298       -10.9471
  72   2.0000      -0.389260       -10.5923
  73   2.0000      -0.386694       -10.5225
  74   2.0000      -0.384743       -10.4694
  75   2.0000      -0.373698       -10.1688
  76   2.0000      -0.364103        -9.9078
  77   2.0000      -0.354947        -9.6586
  78   2.0000      -0.352027        -9.5791
  79   2.0000      -0.346971        -9.4416
  80   2.0000      -0.344186        -9.3658
  81   2.0000      -0.343913        -9.3584
  82   2.0000      -0.342749        -9.3267
  83   2.0000      -0.336611        -9.1596
  84   2.0000      -0.323788        -8.8107
  85   2.0000      -0.317806        -8.6479
  86   2.0000      -0.311735        -8.4828
  87   2.0000      -0.303492        -8.2584
  88   2.0000      -0.293154        -7.9771
  89   2.0000      -0.283873        -7.7246
  90   2.0000      -0.274792        -7.4775
  91   2.0000      -0.271961        -7.4004
  92   2.0000      -0.266806        -7.2602
  93   2.0000      -0.263146        -7.1606
  94   2.0000      -0.257267        -7.0006
  95   2.0000      -0.228606        -6.2207
  96   2.0000      -0.216791        -5.8992
  97   2.0000      -0.207420        -5.6442
  98   2.0000      -0.199954        -5.4410
  99   2.0000      -0.188649        -5.1334
 100   2.0000      -0.180139        -4.9018
 101   0.0000      -0.050135        -1.3642
 102   0.0000      -0.025448        -0.6925
 103   0.0000      -0.012355        -0.3362
 104   0.0000      -0.001676        -0.0456
 105   0.0000       0.023873         0.6496

MULLIKEN ATOMIC CHARGES
-----------------------
   0 C :   -0.302857
   1 C :    0.001778
   2 O :   -0.371786
   3 P :    0.626245
   4 S :   -0.304988
   5 O :   -0.377915
   6 C :   -0.006882
   7 C :   -0.306157
   8 S :   -0.086901
   9 C :   -0.304704
  10 S :   -0.124158
  11 P :    0.620312
  12 S :   -0.300925
  13 O :   -0.391414
  14 C :   -0.010528
  15 C :   -0.307184
  16 O :   -0.367001
  17 C :   -0.020416
  18 C :   -0.310173
  19 H :    0.110353
  20 H :    0.120161
  21 H :    0.110500
  22 H :    0.100893
  23 H :    0.120097
  24 H :    0.102429
  25 H :    0.109971
  26 H :    0.109220
  27 H :    0.111766
  28 H :    0.124420
  29 H :    0.184138
  30 H :    0.183427
  31 H :    0.097089
  32 H :    0.121377
  33 H :    0.113102
  34 H :    0.111139
  35 H :    0.128232
  36 H :    0.111509
  37 H :    0.119000
  38 H :    0.110737
  39 H :    0.123711
  40 H :    0.122382
Sum of atomic charges:   -0.0000000

LOEWDIN ATOMIC CHARGES
----------------------
   0 C :   -0.366224
   1 C :   -0.115975
   2 O :   -0.238476
   3 P :    0.575572
   4 S :   -0.304136
   5 O :   -0.251552
   6 C :   -0.122726
   7 C :   -0.367323
   8 S :    0.111629
   9 C :   -0.464552
  10 S :    0.070761
  11 P :    0.560563
  12 S :   -0.300519
  13 O :   -0.254421
  14 C :   -0.125470
  15 C :   -0.363351
  16 O :   -0.244396
  17 C :   -0.116383
  18 C :   -0.366953
  19 H :    0.129656
  20 H :    0.120482
  21 H :    0.123566
  22 H :    0.117329
  23 H :    0.113064
  24 H :    0.116940
  25 H :    0.109069
  26 H :    0.121203
  27 H :    0.130042
  28 H :    0.120247
  29 H :    0.136583
  30 H :    0.134060
  31 H :    0.114398
  32 H :    0.110340
  33 H :    0.120525
  34 H :    0.130522
  35 H :    0.126437
  36 H :    0.122641
  37 H :    0.108428
  38 H :    0.130122
  39 H :    0.122127
  40 H :    0.126152

  Mayer bond orders larger than 0.100000
B(  0-C ,  1-C ) :   1.1600 B(  0-C , 19-H ) :   0.9397 B(  0-C , 20-H ) :   0.9349
B(  0-C , 21-H ) :   0.9453 B(  1-C ,  2-O ) :   0.8956 B(  1-C , 22-H ) :   0.9334
B(  1-C , 23-H ) :   0.9181 B(  2-O ,  3-P ) :   1.1208 B(  3-P ,  4-S ) :   1.6420
B(  3-P ,  5-O ) :   1.0675 B(  3-P ,  8-S ) :   0.9437 B(  5-O ,  6-C ) :   0.9175
B(  6-C ,  7-C ) :   1.1649 B(  6-C , 24-H ) :   0.9341 B(  6-C , 25-H ) :   0.9128
B(  7-C , 26-H ) :   0.9462 B(  7-C , 27-H ) :   0.9387 B(  7-C , 28-H ) :   0.9365
B(  8-S ,  9-C ) :   1.0146 B(  9-C , 10-S ) :   0.9663 B(  9-C , 29-H ) :   0.9107
B(  9-C , 30-H ) :   0.9027 B( 10-S , 11-P ) :   0.9736 B( 10-S , 12-S ) :   0.1094
B( 11-P , 12-S ) :   1.6167 B( 11-P , 13-O ) :   1.0599 B( 11-P , 16-O ) :   1.1211
B( 13-O , 14-C ) :   0.9013 B( 14-C , 15-C ) :   1.1655 B( 14-C , 31-H ) :   0.9339
B( 14-C , 32-H ) :   0.9067 B( 15-C , 33-H ) :   0.9431 B( 15-C , 34-H ) :   0.9400
B( 15-C , 35-H ) :   0.9364 B( 16-O , 17-C ) :   0.9073 B( 17-C , 18-C ) :   1.1650
B( 17-C , 36-H ) :   0.9341 B( 17-C , 37-H ) :   0.9218 B( 18-C , 38-H ) :   0.9363
B( 18-C , 39-H ) :   0.9353 B( 18-C , 40-H ) :   0.9420

Dispersion correction           -0.069074138
FINAL SINGLE POINT ENERGY     -2929.509920652950

DIPOLE MOMENT
-------------

Method             : SCF
Type of density    : Electron Density
Multiplicity       :   1
Irrep              :   0
Energy             : -2929.6266542206553822 Eh
Relativity type    :
Basis              : AO
                                X                 Y                 Z
Electronic contribution:      4.953719658       5.039020055      -3.007754961
Nuclear contribution   :     -5.561328478      -6.715867083       3.615349196
                        -----------------------------------------
Total Dipole Moment    :     -0.607608820      -1.676847028       0.607594235
                        -----------------------------------------
Magnitude (a.u.)       :      1.884190858
Magnitude (Debye)      :      4.789232555

Rotational constants in cm-1:             0.013354             0.005264             0.005057
Rotational constants in MHz :           400.355395           157.808099           151.595376

                             ****ORCA TERMINATED NORMALLY****
TOTAL RUN TIME: 0 days 0 hours 0 minutes 21 seconds 768 msec
