                         Program Version 6.0.0  -   RELEASE  -
|  1> ! pbe def2-sv(p) def2/J RI DEFGRID1 loosescf d4 GCP(DFT/SV(P)) printgap
|  2> %output
|  3>     printlevel normal
|  4> end
|  5> * xyz 0 1
|  6> C 2.6356703161 -3.320304508 -0.6151709648
|  7> C 3.3779714093 -2.302081753 -1.4551091687
|  8> O 3.6246047701 -1.0662550026 -0.7434960147
|  9> P 2.5185020879 -0.070611281 -0.1967586105
| 10> S 3.3201377564 1.6739495855 0.1716768099
| 11> O 1.8215420032 -0.773173222 1.0620984045
| 12> C 2.2589649163 -0.5524031816 2.4196838103
| 13> C 1.3305217631 0.410439876 3.1321682057
| 14> S 0.9617674643 -0.1773409303 -1.6196052052
| 15> C 0.2239500442 1.4309193722 -1.2333570133
| 16> S -0.6290483262 1.4546949618 0.3555901404
| 17> P -2.4478620105 0.4878646638 -0.2515221643
| 18> S -2.7509157962 0.3504157382 -2.1782088896
| 19> O -3.5890161172 1.3387628132 0.4156784612
| 20> C -3.6245733213 1.6846018614 1.8233161674
| 21> C -4.4936926799 0.7145569517 2.5970771587
| 22> O -2.4870877619 -0.8453397871 0.6201776818
| 23> C -1.5158187564 -1.9044065009 0.5784155961
| 24> C -1.6079862797 -2.7226984188 -0.6942507385
| 25> H 2.5524665153 -4.2455929718 -1.1766479886
| 26> H 3.1731397488 -3.5102433227 0.310282551
| 27> H 1.6378455892 -2.9567303477 -0.3804776949
| 28> H 2.8204078469 -2.0676714982 -2.3656499702
| 29> H 4.3808717417 -2.6453155207 -1.7142907092
| 30> H 2.2417984765 -1.5401454599 2.8835987768
| 31> H 3.2826413309 -0.1669351892 2.4099867357
| 32> H 0.3082254007 0.0449098057 3.0960058638
| 33> H 1.6431850248 0.5071088378 4.1667290352
| 34> H 1.3678279517 1.3878051246 2.6556226263
| 35> H -0.4869677843 1.6413666154 -2.0328930064
| 36> H 1.0104781491 2.183616272 -1.1794847924
| 37> H -2.6015853956 1.7034581544 2.2093392457
| 38> H -4.0409369303 2.6932893616 1.8432570276
| 39> H -5.4937981233 0.6941002115 2.1729739953
| 40> H -4.0760348039 -0.2872365216 2.553229297
| 41> H -4.5495822964 1.036940798 3.6321183283
| 42> H -0.5164309292 -1.4748403177 0.6987942625
| 43> H -1.7587735661 -2.5107025225 1.4535229941
| 44> H -1.3008149197 -2.1316042019 -1.5549390859
| 45> H -0.9607550465 -3.5901946078 -0.6117810655
| 46> H -2.6314307371 -3.0539652411 -0.8504239195
| 47> *
| 48>
| 49>                          ****END OF INPUT****

CARTESIAN COORDINATES (ANGSTROEM)
---------------------------------
  C      2.635670   -3.320305   -0.615171
  C      3.377971   -2.302082   -1.455109
  O      3.624605   -1.066255   -0.743496
  P      2.518502   -0.070611   -0.196759
  S      3.320138    1.673950    0.171677
  O      1.821542   -0.773173    1.062098
  C      2.258965   -0.552403    2.419684
  C      1.330522    0.410440    3.132168
  S      0.961767   -0.177341   -1.619605
  C      0.223950    1.430919   -1.233357
  S     -0.629048    1.454695    0.355590
  P     -2.447862    0.487865   -0.251522
  S     -2.750916    0.350416   -2.178209
  O     -3.589016    1.338763    0.415678
  C     -3.624573    1.684602    1.823316
  C     -4.493693    0.714557    2.597077
  O     -2.487088   -0.845340    0.620178
  C     -1.515819   -1.904407    0.578416
  C     -1.607986   -2.722698   -0.694251
  H      2.552467   -4.245593   -1.176648
  H      3.173140   -3.510243    0.310283
  H      1.637846   -2.956730   -0.380478
  H      2.820408   -2.067671   -2.365650
  H      4.380872   -2.645316   -1.714291
  H      2.241798   -1.540145    2.883599
  H      3.282641   -0.166935    2.409987
  H      0.308225    0.044910    3.096006
  H      1.643185    0.507109    4.166729
  H      1.367828    1.387805    2.655623
  H     -0.486968    1.641367   -2.032893
  H      1.010478    2.183616   -1.179485
  H     -2.601585    1.703458    2.209339
  H     -4.040937    2.693289    1.843257
  H     -5.493798    0.694100    2.172974
  H     -4.076035   -0.287237    2.553229
  H     -4.549582    1.036941    3.632118
  H     -0.516431   -1.474840    0.698794
  H     -1.758774   -2.510703    1.453523
  H     -1.300815   -2.131604   -1.554939
  H     -0.960755   -3.590195   -0.611781
  H     -2.631431   -3.053965   -0.850424

 Total Charge           Charge          ....    0
 Multiplicity           Mult            ....    1
 Number of Electrons    NEL             ....  202
 Basis Dimension        Dim             ....  334

ORBITAL ENERGIES
----------------

  NO   OCC          E(Eh)            E(eV)
   0   2.0000     -88.049101     -2395.9378
   1   2.0000     -88.043480     -2395.7849
   2   2.0000     -87.988792     -2394.2968
   3   2.0000     -87.987951     -2394.2739
   4   2.0000     -76.429880     -2079.7628
   5   2.0000     -76.428228     -2079.7178
   6   2.0000     -18.796605      -511.4816
   7   2.0000     -18.795371      -511.4480
   8   2.0000     -18.793748      -511.4039
   9   2.0000     -18.793490      -511.3969
  10   2.0000      -9.964993      -271.1612
  11   2.0000      -9.961988      -271.0795
  12   2.0000      -9.956727      -270.9363
  13   2.0000      -9.955806      -270.9113
  14   2.0000      -9.952481      -270.8208
  15   2.0000      -9.897397      -269.3219
  16   2.0000      -9.889964      -269.1196
  17   2.0000      -9.884428      -268.9690
  18   2.0000      -9.879694      -268.8401
  19   2.0000      -7.694001      -209.3644
  20   2.0000      -7.688068      -209.2030
  21   2.0000      -7.634034      -207.7326
  22   2.0000      -7.633143      -207.7084
  23   2.0000      -6.427791      -174.9091
  24   2.0000      -6.425618      -174.8500
  25   2.0000      -5.721764      -155.6971
  26   2.0000      -5.718625      -155.6117
  27   2.0000      -5.715924      -155.5382
  28   2.0000      -5.712586      -155.4474
  29   2.0000      -5.710983      -155.4037
  30   2.0000      -5.705120      -155.2442
  31   2.0000      -5.663104      -154.1009
  32   2.0000      -5.662231      -154.0771
  33   2.0000      -5.654944      -153.8788
  34   2.0000      -5.653707      -153.8452
  35   2.0000      -5.653699      -153.8450
  36   2.0000      -5.653146      -153.8299
  37   2.0000      -4.650645      -126.5505
  38   2.0000      -4.649353      -126.5153
  39   2.0000      -4.648333      -126.4876
  40   2.0000      -4.648173      -126.4832
  41   2.0000      -4.647503      -126.4650
  42   2.0000      -4.645867      -126.4205
  43   2.0000      -0.989884       -26.9361
  44   2.0000      -0.987567       -26.8731
  45   2.0000      -0.949029       -25.8244
  46   2.0000      -0.946213       -25.7478
  47   2.0000      -0.767863       -20.8946
  48   2.0000      -0.725990       -19.7552
  49   2.0000      -0.716016       -19.4838
  50   2.0000      -0.697656       -18.9842
  51   2.0000      -0.690692       -18.7947
  52   2.0000      -0.676636       -18.4122
  53   2.0000      -0.652900       -17.7663
  54   2.0000      -0.643265       -17.5041
  55   2.0000      -0.598530       -16.2868
  56   2.0000      -0.590589       -16.0708
  57   2.0000      -0.585165       -15.9231
  58   2.0000      -0.577397       -15.7118
  59   2.0000      -0.565058       -15.3760
  60   2.0000      -0.510078       -13.8799
  61   2.0000      -0.499626       -13.5955
  62   2.0000      -0.483219       -13.1491
  63   2.0000      -0.477516       -12.9939
  64   2.0000      -0.462580       -12.5874
  65   2.0000      -0.450995       -12.2722
  66   2.0000      -0.448100       -12.1934
  67   2.0000      -0.438838       -11.9414
  68   2.0000      -0.431496       -11.7416
  69   2.0000      -0.416241       -11.3265
  70   2.0000      -0.410135       -11.1603
  71   2.0000      -0.405202       -11.0261
  72   2.0000      -0.398994       -10.8572
  73   2.0000      -0.388728       -10.5778
  74   2.0000      -0.385997       -10.5035
  75   2.0000      -0.374128       -10.1806
  76   2.0000      -0.368288       -10.0216
  77   2.0000      -0.360105        -9.7990
  78   2.0000      -0.359237        -9.7753
  79   2.0000      -0.356960        -9.7134
  80   2.0000      -0.353411        -9.6168
  81   2.0000      -0.348708        -9.4888
  82   2.0000      -0.344988        -9.3876
  83   2.0000      -0.343968        -9.3599
  84   2.0000      -0.335862        -9.1393
  85   2.0000      -0.324832        -8.8391
  86   2.0000      -0.315409        -8.5827
  87   2.0000      -0.312392        -8.5006
  88   2.0000      -0.295215        -8.0332
  89   2.0000      -0.291492        -7.9319
  90   2.0000      -0.285662        -7.7733
  91   2.0000      -0.281069        -7.6483
  92   2.0000      -0.278456        -7.5772
  93   2.0000      -0.271606        -7.3908
  94   2.0000      -0.261393        -7.1129
  95   2.0000      -0.235904        -6.4193
  96   2.0000      -0.219202        -5.9648
  97   2.0000      -0.214247        -5.8300
  98   2.0000      -0.204659        -5.5691
  99   2.0000      -0.202902        -5.5212
 100   2.0000      -0.200910        -5.4670
 101   0.0000      -0.050062        -1.3622
 102   0.0000      -0.032033        -0.8717
 103   0.0000      -0.010884        -0.2962
 104   0.0000      -0.001126        -0.0306
 105   0.0000       0.003637         0.0990

MULLIKEN ATOMIC CHARGES
-----------------------
   0 C :   -0.328541
   1 C :   -0.021473
   2 O :   -0.368065
   3 P :    0.616229
   4 S :   -0.311803
   5 O :   -0.380380
   6 C :   -0.010246
   7 C :   -0.288643
   8 S :   -0.105041
   9 C :   -0.338710
  10 S :   -0.116520
  11 P :    0.605593
  12 S :   -0.306226
  13 O :   -0.353911
  14 C :   -0.019791
  15 C :   -0.289272
  16 O :   -0.378109
  17 C :   -0.057353
  18 C :   -0.309278
  19 H :    0.117767
  20 H :    0.118707
  21 H :    0.141312
  22 H :    0.123483
  23 H :    0.117499
  24 H :    0.100183
  25 H :    0.109662
  26 H :    0.111723
  27 H :    0.107686
  28 H :    0.129805
  29 H :    0.196184
  30 H :    0.195619
  31 H :    0.109120
  32 H :    0.115679
  33 H :    0.122854
  34 H :    0.123325
  35 H :    0.110025
  36 H :    0.151273
  37 H :    0.098326
  38 H :    0.136297
  39 H :    0.109096
  40 H :    0.115917
Sum of atomic charges:    0.0000000

LOEWDIN ATOMIC CHARGES
----------------------
   0 C :   -0.367690
   1 C :   -0.115303
   2 O :   -0.244564
   3 P :    0.570052
   4 S :   -0.308682
   5 O :   -0.253054
   6 C :   -0.116932
   7 C :   -0.361668
   8 S :    0.094908
   9 C :   -0.481778
  10 S :    0.075004
  11 P :    0.567252
  12 S :   -0.295812
  13 O :   -0.234430
  14 C :   -0.111460
  15 C :   -0.359133
  16 O :   -0.244901
  17 C :   -0.126736
  18 C :   -0.370056
  19 H :    0.133274
  20 H :    0.127752
  21 H :    0.122829
  22 H :    0.110986
  23 H :    0.125613
  24 H :    0.114443
  25 H :    0.110853
  26 H :    0.119629
  27 H :    0.128076
  28 H :    0.123315
  29 H :    0.130055
  30 H :    0.131703
  31 H :    0.104303
  32 H :    0.124202
  33 H :    0.130684
  34 H :    0.126877
  35 H :    0.129511
  36 H :    0.105070
  37 H :    0.115668
  38 H :    0.117377
  39 H :    0.125423
  40 H :    0.127338

  Mayer bond orders larger than 0.100000
B(  0-C ,  1-C ) :   1.1619 B(  0-C , 19-H ) :   0.9362 B(  0-C , 20-H ) :   0.9442
B(  0-C , 21-H ) :   0.9309 B(  1-C ,  2-O ) :   0.9097 B(  1-C , 22-H ) :   0.9182
B(  1-C , 23-H ) :   0.9346 B(  2-O ,  3-P ) :   1.1271 B(  3-P ,  4-S ) :   1.6272
B(  3-P ,  5-O ) :   1.0694 B(  3-P ,  8-S ) :   0.9610 B(  5-O ,  6-C ) :   0.8926
B(  6-C ,  7-C ) :   1.1736 B(  6-C , 24-H ) :   0.9332 B(  6-C , 25-H ) :   0.9106
B(  7-C , 26-H ) :   0.9471 B(  7-C , 27-H ) :   0.9388 B(  7-C , 28-H ) :   0.9351
B(  8-S ,  9-C ) :   1.0051 B(  9-C , 10-S ) :   1.0196 B(  9-C , 29-H ) :   0.8680
B(  9-C , 30-H ) :   0.8725 B( 10-S , 11-P ) :   0.9341 B( 10-S , 12-S ) :   0.1121
B( 11-P , 12-S ) :   1.6527 B( 11-P , 13-O ) :   1.1461 B( 11-P , 16-O ) :   1.0794
B( 13-O , 14-C ) :   0.8936 B( 14-C , 15-C ) :   1.1648 B( 14-C , 31-H ) :   0.9153
B( 14-C , 32-H ) :   0.9354 B( 15-C , 33-H ) :   0.9464 B( 15-C , 34-H ) :   0.9413
B( 15-C , 35-H ) :   0.9393 B( 16-O , 17-C ) :   0.9098 B( 17-C , 18-C ) :   1.1685
B( 17-C , 36-H ) :   0.8917 B( 17-C , 37-H ) :   0.9340 B( 18-C , 38-H ) :   0.9288
B( 18-C , 39-H ) :   0.9322 B( 18-C , 40-H ) :   0.9429

Dispersion correction           -0.066607357
FINAL SINGLE POINT ENERGY     -2929.518211789804

DIPOLE MOMENT
-------------

Method             : SCF
Type of density    : Electron Density
Multiplicity       :   1
Irrep              :   0
Energy             : -2929.6381016720392836 Eh
Relativity type    :
Basis              : AO
                                X                 Y                 Z
Electronic contribution:      3.912247330      16.218724296     -16.115134845
Nuclear contribution   :     -3.849575528     -17.646160785      17.607706735
                        -----------------------------------------
Total Dipole Moment    :      0.062671802      -1.427436489       1.492571889
                        -----------------------------------------
Magnitude (a.u.)       :      2.066222043
Magnitude (Debye)      :      5.251919056

Rotational constants in cm-1:             0.011827             0.005289             0.004911
Rotational constants in MHz :           354.571140           158.549046           147.233981

                             ****ORCA TERMINATED NORMALLY****
TOTAL RUN TIME: 0 days 0 hours 0 minutes 21 seconds 969 msec
