                         Program Version 6.0.0  -   RELEASE  -
|  1> ! pbe def2-sv(p) def2/J RI DEFGRID1 loosescf d4 GCP(DFT/SV(P)) printgap
|  2> %output
|  3>     printlevel normal
|  4> end
|  5> * xyz 0 1
|  6> C 1.3985160344 2.8259818853 1.3258303449
|  7> C 2.1581380689 2.0232731295 0.2892832353
|  8> O 1.4959723971 0.7767541356 -0.0129645933
|  9> P 1.707411597 -0.5238705486 0.8652844345
| 10> S 1.2787116991 -0.5046107546 2.7822697352
| 11> O 3.2773330979 -0.7499973585 0.6251979653
| 12> C 4.0504477163 -1.6418577575 1.4378906568
| 13> C 3.6977594873 -3.0916108718 1.1728900289
| 14> S 0.75009403 -1.9926831506 -0.3205881359
| 15> C 0.2455807064 -1.1317082207 -1.8464484631
| 16> S -1.5550126238 -0.9522627633 -2.0252767624
| 17> P -1.8917181792 0.6810037683 -0.7147567219
| 18> S -3.7349433509 1.3306148054 -0.6104153309
| 19> O -0.8162403395 1.7751178811 -1.1308846933
| 20> C -1.1380829746 2.8021081519 -2.0881212684
| 21> C -1.199086189 2.2668601218 -3.5052799303
| 22> O -1.2267304199 0.2401314497 0.6684191487
| 23> C -2.0618096293 -0.3024090099 1.7104947484
| 24> C -2.5761613456 -1.6865060207 1.3694771081
| 25> H 1.8625448444 3.801104278 1.4359866588
| 26> H 0.364374321 2.9500346799 1.0133159471
| 27> H 1.4083967373 2.3161354302 2.2867880099
| 28> H 3.1780074204 1.811917633 0.6199953175
| 29> H 2.183871911 2.5435686654 -0.67026487
| 30> H 5.0843449236 -1.4213411259 1.1686842473
| 31> H 3.8774196741 -1.3909497581 2.4899193694
| 32> H 2.6644613719 -3.2792678984 1.4663420636
| 33> H 3.8071632183 -3.3224668678 0.1166363728
| 34> H 4.3516407752 -3.7339581141 1.7536891993
| 35> H 0.5530396485 -1.763871347 -2.6750216723
| 36> H 0.7188441111 -0.1559939794 -1.8784508984
| 37> H -2.0961903713 3.2509679917 -1.8066914846
| 38> H -0.3391499275 3.5356103248 -1.968041106
| 39> H -1.3625551537 3.0935005251 -4.1894524608
| 40> H -0.2712939341 1.7646299761 -3.7670698143
| 41> H -2.0231153914 1.5612832604 -3.6029486429
| 42> H -1.4147564053 -0.3195985815 2.5895278586
| 43> H -2.8947057739 0.3875541698 1.8777705638
| 44> H -3.2245262139 -1.6387613364 0.494173725
| 45> H -1.7491494656 -2.3625858134 1.1632787623
| 46> H -3.1462957178 -2.0683151351 2.2102663386
| 47> *
| 48>
| 49>                          ****END OF INPUT****

CARTESIAN COORDINATES (ANGSTROEM)
---------------------------------
  C      1.398516    2.825982    1.325830
  C      2.158138    2.023273    0.289283
  O      1.495972    0.776754   -0.012965
  P      1.707412   -0.523871    0.865284
  S      1.278712   -0.504611    2.782270
  O      3.277333   -0.749997    0.625198
  C      4.050448   -1.641858    1.437891
  C      3.697759   -3.091611    1.172890
  S      0.750094   -1.992683   -0.320588
  C      0.245581   -1.131708   -1.846448
  S     -1.555013   -0.952263   -2.025277
  P     -1.891718    0.681004   -0.714757
  S     -3.734943    1.330615   -0.610415
  O     -0.816240    1.775118   -1.130885
  C     -1.138083    2.802108   -2.088121
  C     -1.199086    2.266860   -3.505280
  O     -1.226730    0.240131    0.668419
  C     -2.061810   -0.302409    1.710495
  C     -2.576161   -1.686506    1.369477
  H      1.862545    3.801104    1.435987
  H      0.364374    2.950035    1.013316
  H      1.408397    2.316135    2.286788
  H      3.178007    1.811918    0.619995
  H      2.183872    2.543569   -0.670265
  H      5.084345   -1.421341    1.168684
  H      3.877420   -1.390950    2.489919
  H      2.664461   -3.279268    1.466342
  H      3.807163   -3.322467    0.116636
  H      4.351641   -3.733958    1.753689
  H      0.553040   -1.763871   -2.675022
  H      0.718844   -0.155994   -1.878451
  H     -2.096190    3.250968   -1.806691
  H     -0.339150    3.535610   -1.968041
  H     -1.362555    3.093501   -4.189452
  H     -0.271294    1.764630   -3.767070
  H     -2.023115    1.561283   -3.602949
  H     -1.414756   -0.319599    2.589528
  H     -2.894706    0.387554    1.877771
  H     -3.224526   -1.638761    0.494174
  H     -1.749149   -2.362586    1.163279
  H     -3.146296   -2.068315    2.210266

 Total Charge           Charge          ....    0
 Multiplicity           Mult            ....    1
 Number of Electrons    NEL             ....  202
 Basis Dimension        Dim             ....  334

ORBITAL ENERGIES
----------------

  NO   OCC          E(Eh)            E(eV)
   0   2.0000     -88.046674     -2395.8718
   1   2.0000     -88.044971     -2395.8255
   2   2.0000     -87.990283     -2394.3373
   3   2.0000     -87.990014     -2394.3300
   4   2.0000     -76.430641     -2079.7835
   5   2.0000     -76.427572     -2079.7000
   6   2.0000     -18.795114      -511.4411
   7   2.0000     -18.794636      -511.4281
   8   2.0000     -18.790506      -511.3157
   9   2.0000     -18.787207      -511.2259
  10   2.0000      -9.963904      -271.1316
  11   2.0000      -9.958212      -270.9767
  12   2.0000      -9.956549      -270.9315
  13   2.0000      -9.950141      -270.7571
  14   2.0000      -9.934749      -270.3383
  15   2.0000      -9.889063      -269.0951
  16   2.0000      -9.885288      -268.9924
  17   2.0000      -9.878812      -268.8162
  18   2.0000      -9.868511      -268.5358
  19   2.0000      -7.691733      -209.3027
  20   2.0000      -7.690095      -209.2581
  21   2.0000      -7.635140      -207.7627
  22   2.0000      -7.635097      -207.7616
  23   2.0000      -6.427802      -174.9094
  24   2.0000      -6.425137      -174.8369
  25   2.0000      -5.719827      -155.6444
  26   2.0000      -5.718590      -155.6107
  27   2.0000      -5.716007      -155.5405
  28   2.0000      -5.714296      -155.4939
  29   2.0000      -5.708739      -155.3427
  30   2.0000      -5.706677      -155.2866
  31   2.0000      -5.664142      -154.1291
  32   2.0000      -5.663992      -154.1251
  33   2.0000      -5.656038      -153.9086
  34   2.0000      -5.655550      -153.8953
  35   2.0000      -5.655433      -153.8921
  36   2.0000      -5.654954      -153.8791
  37   2.0000      -4.650547      -126.5478
  38   2.0000      -4.649684      -126.5243
  39   2.0000      -4.648084      -126.4808
  40   2.0000      -4.647514      -126.4653
  41   2.0000      -4.647201      -126.4568
  42   2.0000      -4.645470      -126.4097
  43   2.0000      -0.990817       -26.9615
  44   2.0000      -0.985802       -26.8250
  45   2.0000      -0.944905       -25.7122
  46   2.0000      -0.943967       -25.6867
  47   2.0000      -0.763983       -20.7890
  48   2.0000      -0.721719       -19.6390
  49   2.0000      -0.708078       -19.2678
  50   2.0000      -0.687186       -18.6993
  51   2.0000      -0.682092       -18.5607
  52   2.0000      -0.672798       -18.3078
  53   2.0000      -0.658850       -17.9282
  54   2.0000      -0.641259       -17.4495
  55   2.0000      -0.599923       -16.3247
  56   2.0000      -0.592043       -16.1103
  57   2.0000      -0.577284       -15.7087
  58   2.0000      -0.569939       -15.5088
  59   2.0000      -0.560076       -15.2404
  60   2.0000      -0.501583       -13.6488
  61   2.0000      -0.493180       -13.4201
  62   2.0000      -0.470946       -12.8151
  63   2.0000      -0.468753       -12.7554
  64   2.0000      -0.462128       -12.5751
  65   2.0000      -0.452464       -12.3122
  66   2.0000      -0.440536       -11.9876
  67   2.0000      -0.433391       -11.7932
  68   2.0000      -0.423716       -11.5299
  69   2.0000      -0.418818       -11.3966
  70   2.0000      -0.412676       -11.2295
  71   2.0000      -0.402821       -10.9613
  72   2.0000      -0.396489       -10.7890
  73   2.0000      -0.391182       -10.6446
  74   2.0000      -0.385942       -10.5020
  75   2.0000      -0.374887       -10.2012
  76   2.0000      -0.368528       -10.0282
  77   2.0000      -0.354669        -9.6510
  78   2.0000      -0.352976        -9.6050
  79   2.0000      -0.349218        -9.5027
  80   2.0000      -0.346087        -9.4175
  81   2.0000      -0.344033        -9.3616
  82   2.0000      -0.334482        -9.1017
  83   2.0000      -0.332507        -9.0480
  84   2.0000      -0.327024        -8.8988
  85   2.0000      -0.321864        -8.7584
  86   2.0000      -0.312202        -8.4955
  87   2.0000      -0.303959        -8.2712
  88   2.0000      -0.296541        -8.0693
  89   2.0000      -0.294958        -8.0262
  90   2.0000      -0.282486        -7.6868
  91   2.0000      -0.271279        -7.3819
  92   2.0000      -0.269682        -7.3384
  93   2.0000      -0.265914        -7.2359
  94   2.0000      -0.257548        -7.0082
  95   2.0000      -0.232157        -6.3173
  96   2.0000      -0.219643        -5.9768
  97   2.0000      -0.211281        -5.7493
  98   2.0000      -0.209622        -5.7041
  99   2.0000      -0.207061        -5.6344
 100   2.0000      -0.197878        -5.3845
 101   0.0000      -0.047896        -1.3033
 102   0.0000      -0.034750        -0.9456
 103   0.0000      -0.026240        -0.7140
 104   0.0000      -0.008924        -0.2428
 105   0.0000       0.006758         0.1839

MULLIKEN ATOMIC CHARGES
-----------------------
   0 C :   -0.308209
   1 C :   -0.001532
   2 O :   -0.376743
   3 P :    0.652373
   4 S :   -0.323855
   5 O :   -0.379810
   6 C :   -0.008110
   7 C :   -0.310617
   8 S :   -0.091751
   9 C :   -0.357047
  10 S :   -0.076848
  11 P :    0.605553
  12 S :   -0.313233
  13 O :   -0.365460
  14 C :   -0.011681
  15 C :   -0.312689
  16 O :   -0.371883
  17 C :   -0.015197
  18 C :   -0.317619
  19 H :    0.104039
  20 H :    0.128655
  21 H :    0.129632
  22 H :    0.106115
  23 H :    0.100203
  24 H :    0.101601
  25 H :    0.110232
  26 H :    0.120921
  27 H :    0.116613
  28 H :    0.113542
  29 H :    0.186429
  30 H :    0.210016
  31 H :    0.116745
  32 H :    0.103064
  33 H :    0.114435
  34 H :    0.112224
  35 H :    0.130431
  36 H :    0.121285
  37 H :    0.108666
  38 H :    0.115915
  39 H :    0.126112
  40 H :    0.107482
Sum of atomic charges:   -0.0000000

LOEWDIN ATOMIC CHARGES
----------------------
   0 C :   -0.367123
   1 C :   -0.108250
   2 O :   -0.232411
   3 P :    0.581378
   4 S :   -0.296211
   5 O :   -0.254096
   6 C :   -0.126218
   7 C :   -0.366771
   8 S :    0.093713
   9 C :   -0.476466
  10 S :    0.086845
  11 P :    0.577149
  12 S :   -0.308457
  13 O :   -0.234342
  14 C :   -0.121336
  15 C :   -0.367379
  16 O :   -0.238897
  17 C :   -0.131465
  18 C :   -0.371800
  19 H :    0.126860
  20 H :    0.128503
  21 H :    0.123649
  22 H :    0.111709
  23 H :    0.115319
  24 H :    0.116834
  25 H :    0.106773
  26 H :    0.117376
  27 H :    0.124325
  28 H :    0.131049
  29 H :    0.140875
  30 H :    0.135341
  31 H :    0.111290
  32 H :    0.114887
  33 H :    0.131842
  34 H :    0.121614
  35 H :    0.123071
  36 H :    0.110988
  37 H :    0.106358
  38 H :    0.115480
  39 H :    0.118798
  40 H :    0.129199

  Mayer bond orders larger than 0.100000
B(  0-C ,  1-C ) :   1.1709 B(  0-C , 19-H ) :   0.9381 B(  0-C , 20-H ) :   0.9400
B(  0-C , 21-H ) :   0.9315 B(  1-C ,  2-O ) :   0.8914 B(  1-C , 22-H ) :   0.9216
B(  1-C , 23-H ) :   0.9334 B(  2-O ,  3-P ) :   1.1128 B(  3-P ,  4-S ) :   1.6263
B(  3-P ,  5-O ) :   1.0618 B(  3-P ,  8-S ) :   0.9624 B(  5-O ,  6-C ) :   0.9224
B(  6-C ,  7-C ) :   1.1630 B(  6-C , 24-H ) :   0.9318 B(  6-C , 25-H ) :   0.9097
B(  7-C , 26-H ) :   0.9353 B(  7-C , 27-H ) :   0.9450 B(  7-C , 28-H ) :   0.9392
B(  8-S ,  9-C ) :   0.9922 B(  9-C , 10-S ) :   0.9861 B(  9-C , 29-H ) :   0.9095
B(  9-C , 30-H ) :   0.8727 B( 10-S , 11-P ) :   0.9673 B( 11-P , 12-S ) :   1.6398
B( 11-P , 13-O ) :   1.0784 B( 11-P , 16-O ) :   1.0984 B( 13-O , 14-C ) :   0.9115
B( 14-C , 15-C ) :   1.1643 B( 14-C , 31-H ) :   0.9107 B( 14-C , 32-H ) :   0.9307
B( 15-C , 33-H ) :   0.9384 B( 15-C , 34-H ) :   0.9462 B( 15-C , 35-H ) :   0.9356
B( 16-O , 17-C ) :   0.8930 B( 17-C , 18-C ) :   1.1671 B( 17-C , 36-H ) :   0.9059
B( 17-C , 37-H ) :   0.9159 B( 18-C , 38-H ) :   0.9361 B( 18-C , 39-H ) :   0.9351
B( 18-C , 40-H ) :   0.9387

Dispersion correction           -0.069792140
FINAL SINGLE POINT ENERGY     -2929.514795331042

DIPOLE MOMENT
-------------

Method             : SCF
Type of density    : Electron Density
Multiplicity       :   1
Irrep              :   0
Energy             : -2929.6355652702350199 Eh
Relativity type    :
Basis              : AO
                                X                 Y                 Z
Electronic contribution:     -9.482134322      -4.816177875      -0.855555689
Nuclear contribution   :     11.118861730       5.166662486      -0.006749349
                        -----------------------------------------
Total Dipole Moment    :      1.636727408       0.350484611      -0.862305037
                        -----------------------------------------
Magnitude (a.u.)       :      1.882893000
Magnitude (Debye)      :      4.785933661

Rotational constants in cm-1:             0.012271             0.005785             0.005523
Rotational constants in MHz :           367.866242           173.421020           165.586388

                             ****ORCA TERMINATED NORMALLY****
TOTAL RUN TIME: 0 days 0 hours 0 minutes 22 seconds 861 msec
