                         Program Version 6.0.0  -   RELEASE  -
|  1> ! pbe def2-sv(p) def2/J RI DEFGRID1 loosescf d4 GCP(DFT/SV(P)) printgap
|  2> %output
|  3>     printlevel normal
|  4> end
|  5> * xyz 0 1
|  6> C 4.5639586028 0.2716690716 -2.0540910999
|  7> C 4.4154040329 1.1549351618 -0.8324290495
|  8> O 3.564953508 0.5689396355 0.1691810898
|  9> P 2.0039889811 0.3389528758 -0.041864091
| 10> S 1.0726659056 1.7849304611 -0.9711953065
| 11> O 1.5174421766 0.1350523388 1.4439165201
| 12> C 2.1661423173 -0.7972692953 2.3508593337
| 13> C 1.1415405548 -1.2623490907 3.3642059112
| 14> S 1.9302734614 -1.5873972865 -0.9420294366
| 15> C 0.1632874016 -1.6569201001 -1.3131635205
| 16> S -0.8763043904 -1.7815045971 0.1779375933
| 17> P -1.9755731509 0.0084535826 0.0320201003
| 18> S -2.2591220782 0.6588667657 -1.8025895272
| 19> O -1.1964113814 0.8900398686 1.0904110484
| 20> C -1.7231783238 2.0546760143 1.7578517842
| 21> C -2.192076972 3.1191713494 0.7884726285
| 22> O -3.3248754786 -0.279379344 0.8250845729
| 23> C -4.5019964226 -0.7993189303 0.1839004153
| 24> C -4.3366231608 -2.2500495556 -0.2195232052
| 25> H 4.8541731988 -0.734296615 -1.7616516715
| 26> H 3.6209991515 0.2220854963 -2.5962741396
| 27> H 5.3217670933 0.6914276143 -2.7077767175
| 28> H 4.0000338495 2.1288056338 -1.1095736577
| 29> H 5.3661795999 1.2897916414 -0.3146777595
| 30> H 2.5625225498 -1.6352284445 1.7697904773
| 31> H 2.9920002676 -0.2636665786 2.8245637233
| 32> H 0.3320981463 -1.7904129376 2.8662291428
| 33> H 1.6226059813 -1.9296199087 4.072014677
| 34> H 0.7279752294 -0.409636092 3.8951130651
| 35> H 0.0201486297 -2.5599539939 -1.9008835091
| 36> H -0.1401003445 -0.7687651514 -1.8752679014
| 37> H -2.5361378076 1.7313947924 2.412387562
| 38> H -0.8774616695 2.405455963 2.3526176955
| 39> H -1.3933471506 3.3677536279 0.0911697008
| 40> H -3.0469503295 2.7594480074 0.2166960976
| 41> H -2.4798752279 4.0099972527 1.3376561189
| 42> H -5.2845450852 -0.6748876033 0.933632953
| 43> H -4.7202534789 -0.1799729307 -0.6921569789
| 44> H -3.9995215223 -2.842092805 0.6273627018
| 45> H -5.2879279893 -2.6333276242 -0.5741143693
| 46> H -3.6031583232 -2.331134993 -1.0201741666
| 47> *
| 48>
| 49>                          ****END OF INPUT****

CARTESIAN COORDINATES (ANGSTROEM)
---------------------------------
  C      4.563959    0.271669   -2.054091
  C      4.415404    1.154935   -0.832429
  O      3.564954    0.568940    0.169181
  P      2.003989    0.338953   -0.041864
  S      1.072666    1.784930   -0.971195
  O      1.517442    0.135052    1.443917
  C      2.166142   -0.797269    2.350859
  C      1.141541   -1.262349    3.364206
  S      1.930273   -1.587397   -0.942029
  C      0.163287   -1.656920   -1.313164
  S     -0.876304   -1.781505    0.177938
  P     -1.975573    0.008454    0.032020
  S     -2.259122    0.658867   -1.802590
  O     -1.196411    0.890040    1.090411
  C     -1.723178    2.054676    1.757852
  C     -2.192077    3.119171    0.788473
  O     -3.324875   -0.279379    0.825085
  C     -4.501996   -0.799319    0.183900
  C     -4.336623   -2.250050   -0.219523
  H      4.854173   -0.734297   -1.761652
  H      3.620999    0.222085   -2.596274
  H      5.321767    0.691428   -2.707777
  H      4.000034    2.128806   -1.109574
  H      5.366180    1.289792   -0.314678
  H      2.562523   -1.635228    1.769790
  H      2.992000   -0.263667    2.824564
  H      0.332098   -1.790413    2.866229
  H      1.622606   -1.929620    4.072015
  H      0.727975   -0.409636    3.895113
  H      0.020149   -2.559954   -1.900884
  H     -0.140100   -0.768765   -1.875268
  H     -2.536138    1.731395    2.412388
  H     -0.877462    2.405456    2.352618
  H     -1.393347    3.367754    0.091170
  H     -3.046950    2.759448    0.216696
  H     -2.479875    4.009997    1.337656
  H     -5.284545   -0.674888    0.933633
  H     -4.720253   -0.179973   -0.692157
  H     -3.999522   -2.842093    0.627363
  H     -5.287928   -2.633328   -0.574114
  H     -3.603158   -2.331135   -1.020174

 Total Charge           Charge          ....    0
 Multiplicity           Mult            ....    1
 Number of Electrons    NEL             ....  202
 Basis Dimension        Dim             ....  334

ORBITAL ENERGIES
----------------

  NO   OCC          E(Eh)            E(eV)
   0   2.0000     -88.041323     -2395.7262
   1   2.0000     -88.039932     -2395.6883
   2   2.0000     -87.980523     -2394.0717
   3   2.0000     -87.979332     -2394.0393
   4   2.0000     -76.422062     -2079.5500
   5   2.0000     -76.421082     -2079.5234
   6   2.0000     -18.792018      -511.3568
   7   2.0000     -18.790676      -511.3203
   8   2.0000     -18.785244      -511.1725
   9   2.0000     -18.778573      -510.9909
  10   2.0000      -9.952833      -270.8304
  11   2.0000      -9.951041      -270.7816
  12   2.0000      -9.950259      -270.7603
  13   2.0000      -9.949497      -270.7396
  14   2.0000      -9.945593      -270.6333
  15   2.0000      -9.882592      -268.9190
  16   2.0000      -9.881811      -268.8978
  17   2.0000      -9.881795      -268.8973
  18   2.0000      -9.872422      -268.6422
  19   2.0000      -7.686336      -209.1558
  20   2.0000      -7.685008      -209.1197
  21   2.0000      -7.625436      -207.4987
  22   2.0000      -7.624368      -207.4696
  23   2.0000      -6.419217      -174.6758
  24   2.0000      -6.418544      -174.6575
  25   2.0000      -5.714167      -155.4904
  26   2.0000      -5.712868      -155.4550
  27   2.0000      -5.710649      -155.3946
  28   2.0000      -5.709538      -155.3644
  29   2.0000      -5.703548      -155.2014
  30   2.0000      -5.701891      -155.1564
  31   2.0000      -5.654309      -153.8616
  32   2.0000      -5.653344      -153.8353
  33   2.0000      -5.646243      -153.6421
  34   2.0000      -5.645466      -153.6209
  35   2.0000      -5.644844      -153.6040
  36   2.0000      -5.644574      -153.5967
  37   2.0000      -4.642038      -126.3163
  38   2.0000      -4.641422      -126.2995
  39   2.0000      -4.640718      -126.2804
  40   2.0000      -4.640311      -126.2693
  41   2.0000      -4.639759      -126.2543
  42   2.0000      -4.638735      -126.2264
  43   2.0000      -0.984279       -26.7836
  44   2.0000      -0.982298       -26.7297
  45   2.0000      -0.940051       -25.5801
  46   2.0000      -0.936950       -25.4957
  47   2.0000      -0.760453       -20.6930
  48   2.0000      -0.717368       -19.5206
  49   2.0000      -0.706013       -19.2116
  50   2.0000      -0.686374       -18.6772
  51   2.0000      -0.683769       -18.6063
  52   2.0000      -0.671629       -18.2760
  53   2.0000      -0.648185       -17.6380
  54   2.0000      -0.630617       -17.1600
  55   2.0000      -0.596148       -16.2220
  56   2.0000      -0.586495       -15.9594
  57   2.0000      -0.571429       -15.5494
  58   2.0000      -0.567252       -15.4357
  59   2.0000      -0.557880       -15.1807
  60   2.0000      -0.501500       -13.6465
  61   2.0000      -0.490772       -13.3546
  62   2.0000      -0.470746       -12.8097
  63   2.0000      -0.464566       -12.6415
  64   2.0000      -0.449383       -12.2283
  65   2.0000      -0.447315       -12.1721
  66   2.0000      -0.434687       -11.8284
  67   2.0000      -0.431455       -11.7405
  68   2.0000      -0.425889       -11.5890
  69   2.0000      -0.413051       -11.2397
  70   2.0000      -0.410817       -11.1789
  71   2.0000      -0.404290       -11.0013
  72   2.0000      -0.387495       -10.5443
  73   2.0000      -0.382954       -10.4207
  74   2.0000      -0.377522       -10.2729
  75   2.0000      -0.366602        -9.9757
  76   2.0000      -0.360894        -9.8204
  77   2.0000      -0.354410        -9.6440
  78   2.0000      -0.350156        -9.5282
  79   2.0000      -0.349014        -9.4972
  80   2.0000      -0.341945        -9.3048
  81   2.0000      -0.337181        -9.1752
  82   2.0000      -0.335435        -9.1277
  83   2.0000      -0.334172        -9.0933
  84   2.0000      -0.328054        -8.9268
  85   2.0000      -0.312530        -8.5044
  86   2.0000      -0.309544        -8.4231
  87   2.0000      -0.298557        -8.1241
  88   2.0000      -0.292485        -7.9589
  89   2.0000      -0.290684        -7.9099
  90   2.0000      -0.276979        -7.5370
  91   2.0000      -0.271817        -7.3965
  92   2.0000      -0.262929        -7.1547
  93   2.0000      -0.259916        -7.0727
  94   2.0000      -0.255834        -6.9616
  95   2.0000      -0.234700        -6.3865
  96   2.0000      -0.218970        -5.9585
  97   2.0000      -0.211947        -5.7674
  98   2.0000      -0.198671        -5.4061
  99   2.0000      -0.189896        -5.1673
 100   2.0000      -0.182824        -4.9749
 101   0.0000      -0.037711        -1.0262
 102   0.0000      -0.029364        -0.7990
 103   0.0000      -0.008597        -0.2339
 104   0.0000       0.013588         0.3697
 105   0.0000       0.019506         0.5308

MULLIKEN ATOMIC CHARGES
-----------------------
   0 C :   -0.321178
   1 C :    0.001852
   2 O :   -0.386074
   3 P :    0.592235
   4 S :   -0.290172
   5 O :   -0.347939
   6 C :   -0.011545
   7 C :   -0.279544
   8 S :   -0.105123
   9 C :   -0.354778
  10 S :   -0.094646
  11 P :    0.625007
  12 S :   -0.312560
  13 O :   -0.351261
  14 C :    0.009568
  15 C :   -0.322907
  16 O :   -0.382917
  17 C :   -0.003373
  18 C :   -0.309066
  19 H :    0.116649
  20 H :    0.131623
  21 H :    0.113646
  22 H :    0.110679
  23 H :    0.102671
  24 H :    0.100128
  25 H :    0.105311
  26 H :    0.125741
  27 H :    0.104671
  28 H :    0.114562
  29 H :    0.181163
  30 H :    0.207171
  31 H :    0.101332
  32 H :    0.104844
  33 H :    0.138335
  34 H :    0.121283
  35 H :    0.104915
  36 H :    0.101482
  37 H :    0.110228
  38 H :    0.114946
  39 H :    0.111311
  40 H :    0.121729
Sum of atomic charges:   -0.0000000

LOEWDIN ATOMIC CHARGES
----------------------
   0 C :   -0.371879
   1 C :   -0.117202
   2 O :   -0.252390
   3 P :    0.563439
   4 S :   -0.292991
   5 O :   -0.231568
   6 C :   -0.115781
   7 C :   -0.353460
   8 S :    0.074022
   9 C :   -0.481802
  10 S :    0.088897
  11 P :    0.572308
  12 S :   -0.303070
  13 O :   -0.230155
  14 C :   -0.108261
  15 C :   -0.370019
  16 O :   -0.247810
  17 C :   -0.121489
  18 C :   -0.368449
  19 H :    0.122571
  20 H :    0.123106
  21 H :    0.131436
  22 H :    0.111994
  23 H :    0.117601
  24 H :    0.101875
  25 H :    0.114443
  26 H :    0.121926
  27 H :    0.127377
  28 H :    0.126592
  29 H :    0.136951
  30 H :    0.126325
  31 H :    0.109336
  32 H :    0.120026
  33 H :    0.131047
  34 H :    0.118933
  35 H :    0.126663
  36 H :    0.116524
  37 H :    0.109187
  38 H :    0.123510
  39 H :    0.130088
  40 H :    0.120146

  Mayer bond orders larger than 0.100000
B(  0-C ,  1-C ) :   1.1669 B(  0-C , 19-H ) :   0.9435 B(  0-C , 20-H ) :   0.9346
B(  0-C , 21-H ) :   0.9372 B(  1-C ,  2-O ) :   0.9100 B(  1-C , 22-H ) :   0.9167
B(  1-C , 23-H ) :   0.9343 B(  2-O ,  3-P ) :   1.0762 B(  3-P ,  4-S ) :   1.6599
B(  3-P ,  5-O ) :   1.1382 B(  3-P ,  8-S ) :   0.9412 B(  4-S ,  8-S ) :   0.1057
B(  5-O ,  6-C ) :   0.8910 B(  6-C ,  7-C ) :   1.1643 B(  6-C , 24-H ) :   0.9087
B(  6-C , 25-H ) :   0.9327 B(  7-C , 26-H ) :   0.9414 B(  7-C , 27-H ) :   0.9403
B(  7-C , 28-H ) :   0.9493 B(  8-S ,  9-C ) :   0.9988 B(  9-C , 10-S ) :   0.9967
B(  9-C , 29-H ) :   0.9116 B(  9-C , 30-H ) :   0.8460 B( 10-S , 11-P ) :   0.9575
B( 10-S , 12-S ) :   0.1193 B( 11-P , 12-S ) :   1.6000 B( 11-P , 13-O ) :   1.1440
B( 11-P , 16-O ) :   1.0830 B( 13-O , 14-C ) :   0.9071 B( 14-C , 15-C ) :   1.1675
B( 14-C , 31-H ) :   0.9323 B( 14-C , 32-H ) :   0.9314 B( 15-C , 33-H ) :   0.9392
B( 15-C , 34-H ) :   0.9361 B( 15-C , 35-H ) :   0.9359 B( 16-O , 17-C ) :   0.9108
B( 17-C , 18-C ) :   1.1676 B( 17-C , 36-H ) :   0.9332 B( 17-C , 37-H ) :   0.9116
B( 18-C , 38-H ) :   0.9454 B( 18-C , 39-H ) :   0.9384 B( 18-C , 40-H ) :   0.9363

Dispersion correction           -0.068550311
FINAL SINGLE POINT ENERGY     -2929.517335649870

DIPOLE MOMENT
-------------

Method             : SCF
Type of density    : Electron Density
Multiplicity       :   1
Irrep              :   0
Energy             : -2929.6346015684898703 Eh
Relativity type    :
Basis              : AO
                                X                 Y                 Z
Electronic contribution:      2.122271123      -0.249258354      -7.432424682
Nuclear contribution   :     -1.841530356      -0.401917042       8.463175151
                        -----------------------------------------
Total Dipole Moment    :      0.280740767      -0.651175396       1.030750469
                        -----------------------------------------
Magnitude (a.u.)       :      1.251116023
Magnitude (Debye)      :      3.180084205

Rotational constants in cm-1:             0.012417             0.005504             0.005354
Rotational constants in MHz :           372.253683           164.992934           160.509953

                             ****ORCA TERMINATED NORMALLY****
TOTAL RUN TIME: 0 days 0 hours 0 minutes 21 seconds 737 msec
