                         Program Version 6.0.0  -   RELEASE  -
|  1> ! pbe def2-sv(p) def2/J RI DEFGRID1 loosescf d4 GCP(DFT/SV(P)) printgap
|  2> %output
|  3>     printlevel normal
|  4> end
|  5> * xyz 0 1
|  6> C 4.0798952604 1.6143091055 1.518418682
|  7> C 2.872935942 2.0126326148 0.6968886027
|  8> O 2.5266432952 0.9892533345 -0.2623982313
|  9> P 1.899475857 -0.391672516 0.1722177964
| 10> S 0.8661317535 -0.3996339367 1.8453707162
| 11> O 3.1653989905 -1.3508593179 0.2383785202
| 12> C 3.1141801166 -2.6844715721 0.7768257373
| 13> C 4.5047132306 -3.0513434127 1.2552534098
| 14> S 1.0440171501 -0.9953623462 -1.6654242244
| 15> C 0.049236526 0.4809231285 -2.0956510383
| 16> S -0.6810608213 1.3508760898 -0.693350078
| 17> P -2.2844176317 -0.0079263515 -0.2957524644
| 18> S -1.8755708503 -1.905617629 -0.0626476379
| 19> O -3.2761834854 0.1898448508 -1.5021491125
| 20> C -3.9173562909 1.449992136 -1.8401156405
| 21> C -3.3120794837 2.0343753864 -3.1011470102
| 22> O -3.0658653231 0.6899736396 0.8960539076
| 23> C -2.631919985 0.6755556617 2.2697658798
| 24> C -1.9122491997 1.9628422872 2.6180604809
| 25> H 4.3649873221 2.4378415329 2.1653591994
| 26> H 3.834488736 0.748858939 2.1328424199
| 27> H 4.9105003299 1.3579022992 0.8664045874
| 28> H 3.067324815 2.891211177 0.0811475541
| 29> H 2.0064589444 2.1908249784 1.3413945803
| 30> H 2.3878276842 -2.7064939672 1.5974033831
| 31> H 2.7722659552 -3.3571158534 -0.0148306705
| 32> H 5.2099333921 -2.9702066584 0.43330509
| 33> H 4.8147392164 -2.3841783562 2.0546479249
| 34> H 4.4950888512 -4.0718684676 1.6236726525
| 35> H -0.7362014583 0.1228179201 -2.7600730881
| 36> H 0.698405299 1.1960956053 -2.5954043496
| 37> H -4.9660117893 1.1885609152 -1.9888856157
| 38> H -3.8262228865 2.1353204668 -0.9963982997
| 39> H -3.9027295542 2.8920984584 -3.4071582846
| 40> H -2.2888931231 2.356198525 -2.9247473342
| 41> H -3.3226906149 1.2945089891 -3.8969918699
| 42> H -3.5510717229 0.5640915011 2.8475705615
| 43> H -1.9885405014 -0.1937402769 2.4375742592
| 44> H -1.6628601134 1.9513772999 3.6739298633
| 45> H -0.9914704476 2.0460303204 2.0447781468
| 46> H -2.5452393078 2.8184049989 2.401559658
| 47> *
| 48>
| 49>                          ****END OF INPUT****

CARTESIAN COORDINATES (ANGSTROEM)
---------------------------------
  C      4.079895    1.614309    1.518419
  C      2.872936    2.012633    0.696889
  O      2.526643    0.989253   -0.262398
  P      1.899476   -0.391673    0.172218
  S      0.866132   -0.399634    1.845371
  O      3.165399   -1.350859    0.238379
  C      3.114180   -2.684472    0.776826
  C      4.504713   -3.051343    1.255253
  S      1.044017   -0.995362   -1.665424
  C      0.049237    0.480923   -2.095651
  S     -0.681061    1.350876   -0.693350
  P     -2.284418   -0.007926   -0.295752
  S     -1.875571   -1.905618   -0.062648
  O     -3.276183    0.189845   -1.502149
  C     -3.917356    1.449992   -1.840116
  C     -3.312079    2.034375   -3.101147
  O     -3.065865    0.689974    0.896054
  C     -2.631920    0.675556    2.269766
  C     -1.912249    1.962842    2.618060
  H      4.364987    2.437842    2.165359
  H      3.834489    0.748859    2.132842
  H      4.910500    1.357902    0.866405
  H      3.067325    2.891211    0.081148
  H      2.006459    2.190825    1.341395
  H      2.387828   -2.706494    1.597403
  H      2.772266   -3.357116   -0.014831
  H      5.209933   -2.970207    0.433305
  H      4.814739   -2.384178    2.054648
  H      4.495089   -4.071868    1.623673
  H     -0.736201    0.122818   -2.760073
  H      0.698405    1.196096   -2.595404
  H     -4.966012    1.188561   -1.988886
  H     -3.826223    2.135320   -0.996398
  H     -3.902730    2.892098   -3.407158
  H     -2.288893    2.356199   -2.924747
  H     -3.322691    1.294509   -3.896992
  H     -3.551072    0.564092    2.847571
  H     -1.988541   -0.193740    2.437574
  H     -1.662860    1.951377    3.673930
  H     -0.991470    2.046030    2.044778
  H     -2.545239    2.818405    2.401560

 Total Charge           Charge          ....    0
 Multiplicity           Mult            ....    1
 Number of Electrons    NEL             ....  202
 Basis Dimension        Dim             ....  334

ORBITAL ENERGIES
----------------

  NO   OCC          E(Eh)            E(eV)
   0   2.0000     -88.043455     -2395.7842
   1   2.0000     -88.031659     -2395.4632
   2   2.0000     -87.979554     -2394.0454
   3   2.0000     -87.971499     -2393.8262
   4   2.0000     -76.422608     -2079.5649
   5   2.0000     -76.420303     -2079.5022
   6   2.0000     -18.791654      -511.3469
   7   2.0000     -18.789803      -511.2965
   8   2.0000     -18.788369      -511.2575
   9   2.0000     -18.786690      -511.2118
  10   2.0000      -9.958942      -270.9966
  11   2.0000      -9.955682      -270.9079
  12   2.0000      -9.951849      -270.8036
  13   2.0000      -9.947394      -270.6823
  14   2.0000      -9.947151      -270.6757
  15   2.0000      -9.889492      -269.1068
  16   2.0000      -9.884343      -268.9667
  17   2.0000      -9.883319      -268.9388
  18   2.0000      -9.880519      -268.8626
  19   2.0000      -7.687560      -209.1891
  20   2.0000      -7.677132      -208.9054
  21   2.0000      -7.624364      -207.4695
  22   2.0000      -7.616790      -207.2634
  23   2.0000      -6.419813      -174.6920
  24   2.0000      -6.417567      -174.6309
  25   2.0000      -5.715316      -155.5217
  26   2.0000      -5.712086      -155.4338
  27   2.0000      -5.705360      -155.2507
  28   2.0000      -5.704716      -155.2332
  29   2.0000      -5.701755      -155.1526
  30   2.0000      -5.693555      -154.9295
  31   2.0000      -5.653107      -153.8289
  32   2.0000      -5.646033      -153.6364
  33   2.0000      -5.645001      -153.6083
  34   2.0000      -5.644670      -153.5993
  35   2.0000      -5.637373      -153.4007
  36   2.0000      -5.636650      -153.3810
  37   2.0000      -4.642482      -126.3284
  38   2.0000      -4.641711      -126.3074
  39   2.0000      -4.640570      -126.2763
  40   2.0000      -4.640107      -126.2637
  41   2.0000      -4.639448      -126.2458
  42   2.0000      -4.637521      -126.1934
  43   2.0000      -0.984731       -26.7959
  44   2.0000      -0.984328       -26.7849
  45   2.0000      -0.944218       -25.6935
  46   2.0000      -0.941115       -25.6090
  47   2.0000      -0.760159       -20.6850
  48   2.0000      -0.718381       -19.5481
  49   2.0000      -0.709842       -19.3158
  50   2.0000      -0.687874       -18.7180
  51   2.0000      -0.686803       -18.6889
  52   2.0000      -0.667500       -18.1636
  53   2.0000      -0.647190       -17.6109
  54   2.0000      -0.631225       -17.1765
  55   2.0000      -0.594942       -16.1892
  56   2.0000      -0.583934       -15.8897
  57   2.0000      -0.575445       -15.6587
  58   2.0000      -0.563611       -15.3366
  59   2.0000      -0.562314       -15.3013
  60   2.0000      -0.503170       -13.6920
  61   2.0000      -0.497612       -13.5407
  62   2.0000      -0.477850       -13.0029
  63   2.0000      -0.475298       -12.9335
  64   2.0000      -0.458004       -12.4629
  65   2.0000      -0.442161       -12.0318
  66   2.0000      -0.439712       -11.9652
  67   2.0000      -0.431830       -11.7507
  68   2.0000      -0.427411       -11.6304
  69   2.0000      -0.411186       -11.1889
  70   2.0000      -0.403420       -10.9776
  71   2.0000      -0.396131       -10.7793
  72   2.0000      -0.393812       -10.7162
  73   2.0000      -0.379236       -10.3195
  74   2.0000      -0.376179       -10.2364
  75   2.0000      -0.371448       -10.1076
  76   2.0000      -0.364962        -9.9311
  77   2.0000      -0.358750        -9.7621
  78   2.0000      -0.355619        -9.6769
  79   2.0000      -0.354404        -9.6438
  80   2.0000      -0.347965        -9.4686
  81   2.0000      -0.347233        -9.4487
  82   2.0000      -0.340908        -9.2766
  83   2.0000      -0.335682        -9.1344
  84   2.0000      -0.326665        -8.8890
  85   2.0000      -0.317477        -8.6390
  86   2.0000      -0.312125        -8.4933
  87   2.0000      -0.299434        -8.1480
  88   2.0000      -0.294988        -8.0270
  89   2.0000      -0.286741        -7.8026
  90   2.0000      -0.283292        -7.7088
  91   2.0000      -0.274239        -7.4624
  92   2.0000      -0.267911        -7.2902
  93   2.0000      -0.256478        -6.9791
  94   2.0000      -0.256045        -6.9673
  95   2.0000      -0.243702        -6.6315
  96   2.0000      -0.220599        -6.0028
  97   2.0000      -0.204082        -5.5533
  98   2.0000      -0.189447        -5.1551
  99   2.0000      -0.179499        -4.8844
 100   2.0000      -0.177316        -4.8250
 101   0.0000      -0.048256        -1.3131
 102   0.0000      -0.024528        -0.6674
 103   0.0000      -0.012363        -0.3364
 104   0.0000       0.005374         0.1462
 105   0.0000       0.021283         0.5792

MULLIKEN ATOMIC CHARGES
-----------------------
   0 C :   -0.305675
   1 C :   -0.010246
   2 O :   -0.370728
   3 P :    0.625673
   4 S :   -0.329287
   5 O :   -0.375909
   6 C :   -0.012511
   7 C :   -0.284320
   8 S :   -0.086435
   9 C :   -0.322853
  10 S :   -0.132909
  11 P :    0.601630
  12 S :   -0.285648
  13 O :   -0.363567
  14 C :   -0.007862
  15 C :   -0.298778
  16 O :   -0.381977
  17 C :   -0.009279
  18 C :   -0.315771
  19 H :    0.110517
  20 H :    0.124056
  21 H :    0.117279
  22 H :    0.101575
  23 H :    0.118000
  24 H :    0.110045
  25 H :    0.104958
  26 H :    0.116260
  27 H :    0.117916
  28 H :    0.111739
  29 H :    0.185669
  30 H :    0.186116
  31 H :    0.111562
  32 H :    0.107039
  33 H :    0.111305
  34 H :    0.119528
  35 H :    0.120674
  36 H :    0.104524
  37 H :    0.125382
  38 H :    0.111275
  39 H :    0.143397
  40 H :    0.107637
Sum of atomic charges:    0.0000000

LOEWDIN ATOMIC CHARGES
----------------------
   0 C :   -0.364584
   1 C :   -0.118238
   2 O :   -0.241451
   3 P :    0.567845
   4 S :   -0.312827
   5 O :   -0.248296
   6 C :   -0.120738
   7 C :   -0.350953
   8 S :    0.076147
   9 C :   -0.469793
  10 S :    0.073492
  11 P :    0.560529
  12 S :   -0.297811
  13 O :   -0.241977
  14 C :   -0.112117
  15 C :   -0.362266
  16 O :   -0.245750
  17 C :   -0.115092
  18 C :   -0.365424
  19 H :    0.129804
  20 H :    0.122495
  21 H :    0.126775
  22 H :    0.117046
  23 H :    0.110040
  24 H :    0.108173
  25 H :    0.112604
  26 H :    0.126461
  27 H :    0.126689
  28 H :    0.130676
  29 H :    0.132654
  30 H :    0.134911
  31 H :    0.122390
  32 H :    0.110296
  33 H :    0.130684
  34 H :    0.118449
  35 H :    0.127754
  36 H :    0.118346
  37 H :    0.112211
  38 H :    0.131728
  39 H :    0.117775
  40 H :    0.121343

  Mayer bond orders larger than 0.100000
B(  0-C ,  1-C ) :   1.1662 B(  0-C , 19-H ) :   0.9388 B(  0-C , 20-H ) :   0.9337
B(  0-C , 21-H ) :   0.9461 B(  1-C ,  2-O ) :   0.8996 B(  1-C , 22-H ) :   0.9342
B(  1-C , 23-H ) :   0.9129 B(  2-O ,  3-P ) :   1.1178 B(  3-P ,  4-S ) :   1.5920
B(  3-P ,  5-O ) :   1.1057 B(  3-P ,  8-S ) :   0.9858 B(  4-S ,  8-S ) :   0.1143
B(  5-O ,  6-C ) :   0.9067 B(  6-C ,  7-C ) :   1.1601 B(  6-C , 24-H ) :   0.9047
B(  6-C , 25-H ) :   0.9312 B(  7-C , 26-H ) :   0.9506 B(  7-C , 27-H ) :   0.9514
B(  7-C , 28-H ) :   0.9419 B(  8-S ,  9-C ) :   0.9862 B(  9-C , 10-S ) :   1.0055
B(  9-C , 29-H ) :   0.8982 B(  9-C , 30-H ) :   0.9093 B( 10-S , 11-P ) :   0.9091
B( 10-S , 12-S ) :   0.1154 B( 11-P , 12-S ) :   1.7155 B( 11-P , 13-O ) :   1.1178
B( 11-P , 16-O ) :   1.0965 B( 13-O , 14-C ) :   0.8954 B( 14-C , 15-C ) :   1.1654
B( 14-C , 31-H ) :   0.9351 B( 14-C , 32-H ) :   0.9174 B( 15-C , 33-H ) :   0.9397
B( 15-C , 34-H ) :   0.9353 B( 15-C , 35-H ) :   0.9449 B( 16-O , 17-C ) :   0.8981
B( 17-C , 18-C ) :   1.1711 B( 17-C , 36-H ) :   0.9344 B( 17-C , 37-H ) :   0.9040
B( 18-C , 38-H ) :   0.9401 B( 18-C , 39-H ) :   0.9278 B( 18-C , 40-H ) :   0.9463

Dispersion correction           -0.066998482
FINAL SINGLE POINT ENERGY     -2929.511019231084

DIPOLE MOMENT
-------------

Method             : SCF
Type of density    : Electron Density
Multiplicity       :   1
Irrep              :   0
Energy             : -2929.6273560758327221 Eh
Relativity type    :
Basis              : AO
                                X                 Y                 Z
Electronic contribution:     -8.236832055     -10.666439723      -6.960244473
Nuclear contribution   :      8.590266508      12.156317832       6.794784818
                        -----------------------------------------
Total Dipole Moment    :      0.353434453       1.489878109      -0.165459655
                        -----------------------------------------
Magnitude (a.u.)       :      1.540139471
Magnitude (Debye)      :      3.914723427

Rotational constants in cm-1:             0.012385             0.005146             0.005051
Rotational constants in MHz :           371.288761           154.258553           151.434138

                             ****ORCA TERMINATED NORMALLY****
TOTAL RUN TIME: 0 days 0 hours 0 minutes 21 seconds 382 msec
