                         Program Version 6.0.0  -   RELEASE  -
|  1> ! pbe def2-sv(p) def2/J RI DEFGRID1 loosescf d4 GCP(DFT/SV(P)) printgap
|  2> %output
|  3>     printlevel normal
|  4> end
|  5> * xyz 0 1
|  6> C 2.1896589371 -2.6397501317 2.3448785247
|  7> C 1.2862177307 -1.9778320705 1.3235522047
|  8> O 1.7273190516 -0.6260079336 1.105828613
|  9> P 2.3087750752 -0.0660577035 -0.2709649053
| 10> S 2.9045747931 -1.4087885053 -1.5536602504
| 11> O 3.4683056515 0.8898094106 0.201147875
| 12> C 3.2733286068 1.9563840939 1.1666772309
| 13> C 4.5652228982 2.741982564 1.2432368048
| 14> S 0.844159511 1.3263903202 -0.9716260734
| 15> C -0.0214763976 0.2004937566 -2.0900911136
| 16> S -0.8466715317 -1.1657428822 -1.2288069105
| 17> P -2.1233366895 0.0365152913 -0.0429474074
| 18> S -2.8665939963 1.6521171929 -0.8735305108
| 19> O -1.191363422 0.2455357153 1.2222380994
| 20> C -1.3269745962 1.3819178207 2.0985764251
| 21> C -2.6046306268 1.3129428521 2.908048732
| 22> O -3.1927504717 -0.9862810201 0.5328947672
| 23> C -4.4357482938 -1.2645801541 -0.1350723501
| 24> C -4.2301186222 -2.0221854245 -1.430892234
| 25> H 3.20536441 -2.6937605423 1.9592362536
| 26> H 2.1918196574 -2.0724719364 3.2711978455
| 27> H 1.8289663748 -3.6446803214 2.5386658176
| 28> H 0.2547449821 -1.9092322849 1.676907968
| 29> H 1.3099430783 -2.5221976475 0.3737856473
| 30> H 2.4428642473 2.5810547468 0.8254496603
| 31> H 3.0174445197 1.5033451553 2.1264788348
| 32> H 4.8033986969 3.1631003232 0.2707863005
| 33> H 4.4519389286 3.5443630305 1.9650015076
| 34> H 5.3787732507 2.0912224792 1.5504528591
| 35> H 0.6905112305 -0.2543833538 -2.7781969559
| 36> H -0.7606454047 0.8024487291 -2.6173822697
| 37> H -0.4393062668 1.3322549589 2.7310063802
| 38> H -1.2982991951 2.2926947008 1.491431408
| 39> H -2.6602077193 0.3701063874 3.445727362
| 40> H -2.6286569396 2.1364448488 3.6147676507
| 41> H -3.4650155007 1.390984777 2.2442062238
| 42> H -4.9974424355 -1.853147343 0.591462411
| 43> H -4.9471257216 -0.3150006459 -0.3227635029
| 44> H -3.7204463878 -1.3893558347 -2.1564014365
| 45> H -3.6270498885 -2.910231241 -1.2587870461
| 46> H -5.1946307359 -2.3129534721 -1.8346682533
| 47> *
| 48>
| 49>                          ****END OF INPUT****

CARTESIAN COORDINATES (ANGSTROEM)
---------------------------------
  C      2.189659   -2.639750    2.344879
  C      1.286218   -1.977832    1.323552
  O      1.727319   -0.626008    1.105829
  P      2.308775   -0.066058   -0.270965
  S      2.904575   -1.408789   -1.553660
  O      3.468306    0.889809    0.201148
  C      3.273329    1.956384    1.166677
  C      4.565223    2.741983    1.243237
  S      0.844160    1.326390   -0.971626
  C     -0.021476    0.200494   -2.090091
  S     -0.846672   -1.165743   -1.228807
  P     -2.123337    0.036515   -0.042947
  S     -2.866594    1.652117   -0.873531
  O     -1.191363    0.245536    1.222238
  C     -1.326975    1.381918    2.098576
  C     -2.604631    1.312943    2.908049
  O     -3.192750   -0.986281    0.532895
  C     -4.435748   -1.264580   -0.135072
  C     -4.230119   -2.022185   -1.430892
  H      3.205364   -2.693761    1.959236
  H      2.191820   -2.072472    3.271198
  H      1.828966   -3.644680    2.538666
  H      0.254745   -1.909232    1.676908
  H      1.309943   -2.522198    0.373786
  H      2.442864    2.581055    0.825450
  H      3.017445    1.503345    2.126479
  H      4.803399    3.163100    0.270786
  H      4.451939    3.544363    1.965002
  H      5.378773    2.091222    1.550453
  H      0.690511   -0.254383   -2.778197
  H     -0.760645    0.802449   -2.617382
  H     -0.439306    1.332255    2.731006
  H     -1.298299    2.292695    1.491431
  H     -2.660208    0.370106    3.445727
  H     -2.628657    2.136445    3.614768
  H     -3.465016    1.390985    2.244206
  H     -4.997442   -1.853147    0.591462
  H     -4.947126   -0.315001   -0.322764
  H     -3.720446   -1.389356   -2.156401
  H     -3.627050   -2.910231   -1.258787
  H     -5.194631   -2.312953   -1.834668

 Total Charge           Charge          ....    0
 Multiplicity           Mult            ....    1
 Number of Electrons    NEL             ....  202
 Basis Dimension        Dim             ....  334

ORBITAL ENERGIES
----------------

  NO   OCC          E(Eh)            E(eV)
   0   2.0000     -88.044618     -2395.8159
   1   2.0000     -88.037885     -2395.6326
   2   2.0000     -87.993407     -2394.4223
   3   2.0000     -87.985817     -2394.2158
   4   2.0000     -76.430103     -2079.7688
   5   2.0000     -76.424152     -2079.6069
   6   2.0000     -18.797958      -511.5184
   7   2.0000     -18.794075      -511.4128
   8   2.0000     -18.791591      -511.3452
   9   2.0000     -18.786196      -511.1984
  10   2.0000      -9.961369      -271.0626
  11   2.0000      -9.956300      -270.9247
  12   2.0000      -9.954113      -270.8652
  13   2.0000      -9.953085      -270.8372
  14   2.0000      -9.942189      -270.5407
  15   2.0000      -9.892232      -269.1813
  16   2.0000      -9.886857      -269.0351
  17   2.0000      -9.886361      -269.0216
  18   2.0000      -9.880768      -268.8694
  19   2.0000      -7.689292      -209.2363
  20   2.0000      -7.682741      -209.0580
  21   2.0000      -7.638292      -207.8485
  22   2.0000      -7.631094      -207.6526
  23   2.0000      -6.427504      -174.9013
  24   2.0000      -6.421769      -174.7452
  25   2.0000      -5.717151      -155.5716
  26   2.0000      -5.713951      -155.4845
  27   2.0000      -5.710584      -155.3929
  28   2.0000      -5.707372      -155.3055
  29   2.0000      -5.706150      -155.2722
  30   2.0000      -5.699647      -155.0953
  31   2.0000      -5.667076      -154.2090
  32   2.0000      -5.660112      -154.0195
  33   2.0000      -5.658931      -153.9873
  34   2.0000      -5.658607      -153.9785
  35   2.0000      -5.651637      -153.7889
  36   2.0000      -5.651174      -153.7763
  37   2.0000      -4.649880      -126.5297
  38   2.0000      -4.649268      -126.5130
  39   2.0000      -4.648149      -126.4826
  40   2.0000      -4.644539      -126.3843
  41   2.0000      -4.643298      -126.3506
  42   2.0000      -4.642288      -126.3231
  43   2.0000      -0.990605       -26.9557
  44   2.0000      -0.985168       -26.8078
  45   2.0000      -0.949234       -25.8300
  46   2.0000      -0.940700       -25.5978
  47   2.0000      -0.764780       -20.8107
  48   2.0000      -0.723563       -19.6891
  49   2.0000      -0.712104       -19.3773
  50   2.0000      -0.690015       -18.7763
  51   2.0000      -0.688153       -18.7256
  52   2.0000      -0.673578       -18.3290
  53   2.0000      -0.652182       -17.7468
  54   2.0000      -0.640525       -17.4296
  55   2.0000      -0.604220       -16.4417
  56   2.0000      -0.583834       -15.8869
  57   2.0000      -0.574851       -15.6425
  58   2.0000      -0.574055       -15.6208
  59   2.0000      -0.562822       -15.3152
  60   2.0000      -0.507281       -13.8038
  61   2.0000      -0.495343       -13.4790
  62   2.0000      -0.481349       -13.0982
  63   2.0000      -0.476103       -12.9554
  64   2.0000      -0.458538       -12.4775
  65   2.0000      -0.445575       -12.1247
  66   2.0000      -0.443899       -12.0791
  67   2.0000      -0.437878       -11.9153
  68   2.0000      -0.427266       -11.6265
  69   2.0000      -0.414580       -11.2813
  70   2.0000      -0.401440       -10.9237
  71   2.0000      -0.396677       -10.7941
  72   2.0000      -0.394585       -10.7372
  73   2.0000      -0.389443       -10.5973
  74   2.0000      -0.380570       -10.3558
  75   2.0000      -0.376843       -10.2544
  76   2.0000      -0.368706       -10.0330
  77   2.0000      -0.359730        -9.7887
  78   2.0000      -0.357760        -9.7351
  79   2.0000      -0.354091        -9.6353
  80   2.0000      -0.350773        -9.5450
  81   2.0000      -0.346549        -9.4301
  82   2.0000      -0.342041        -9.3074
  83   2.0000      -0.339224        -9.2308
  84   2.0000      -0.334097        -9.0912
  85   2.0000      -0.320268        -8.7149
  86   2.0000      -0.314779        -8.5656
  87   2.0000      -0.306076        -8.3288
  88   2.0000      -0.298984        -8.1358
  89   2.0000      -0.286560        -7.7977
  90   2.0000      -0.286266        -7.7897
  91   2.0000      -0.278195        -7.5701
  92   2.0000      -0.270905        -7.3717
  93   2.0000      -0.267757        -7.2860
  94   2.0000      -0.254117        -6.9149
  95   2.0000      -0.233676        -6.3587
  96   2.0000      -0.217519        -5.9190
  97   2.0000      -0.213737        -5.8161
  98   2.0000      -0.210814        -5.7366
  99   2.0000      -0.202280        -5.5043
 100   2.0000      -0.198140        -5.3917
 101   0.0000      -0.047070        -1.2808
 102   0.0000      -0.025438        -0.6922
 103   0.0000      -0.002600        -0.0707
 104   0.0000       0.003015         0.0820
 105   0.0000       0.007031         0.1913

MULLIKEN ATOMIC CHARGES
-----------------------
   0 C :   -0.274374
   1 C :   -0.019924
   2 O :   -0.388053
   3 P :    0.627532
   4 S :   -0.312277
   5 O :   -0.365958
   6 C :   -0.030781
   7 C :   -0.275083
   8 S :   -0.117791
   9 C :   -0.344062
  10 S :   -0.082343
  11 P :    0.616253
  12 S :   -0.331878
  13 O :   -0.358134
  14 C :   -0.002704
  15 C :   -0.305065
  16 O :   -0.371610
  17 C :   -0.005803
  18 C :   -0.315173
  19 H :    0.114677
  20 H :    0.106305
  21 H :    0.107497
  22 H :    0.104083
  23 H :    0.113198
  24 H :    0.115801
  25 H :    0.110166
  26 H :    0.124481
  27 H :    0.111270
  28 H :    0.123442
  29 H :    0.193109
  30 H :    0.189600
  31 H :    0.101880
  32 H :    0.112659
  33 H :    0.115247
  34 H :    0.111625
  35 H :    0.122495
  36 H :    0.106599
  37 H :    0.111557
  38 H :    0.127630
  39 H :    0.119148
  40 H :    0.114758
Sum of atomic charges:   -0.0000000

LOEWDIN ATOMIC CHARGES
----------------------
   0 C :   -0.354842
   1 C :   -0.127743
   2 O :   -0.248371
   3 P :    0.571002
   4 S :   -0.305780
   5 O :   -0.242687
   6 C :   -0.114490
   7 C :   -0.348868
   8 S :    0.067294
   9 C :   -0.479105
  10 S :    0.102412
  11 P :    0.573576
  12 S :   -0.321955
  13 O :   -0.232426
  14 C :   -0.118284
  15 C :   -0.364842
  16 O :   -0.243500
  17 C :   -0.119026
  18 C :   -0.369047
  19 H :    0.125797
  20 H :    0.121019
  21 H :    0.128802
  22 H :    0.108445
  23 H :    0.102636
  24 H :    0.107362
  25 H :    0.113632
  26 H :    0.131591
  27 H :    0.130729
  28 H :    0.130934
  29 H :    0.131524
  30 H :    0.130982
  31 H :    0.116329
  32 H :    0.109939
  33 H :    0.125707
  34 H :    0.130172
  35 H :    0.122258
  36 H :    0.119352
  37 H :    0.110842
  38 H :    0.121646
  39 H :    0.125089
  40 H :    0.131897

  Mayer bond orders larger than 0.100000
B(  0-C ,  1-C ) :   1.1582 B(  0-C , 19-H ) :   0.9475 B(  0-C , 20-H ) :   0.9505
B(  0-C , 21-H ) :   0.9419 B(  1-C ,  2-O ) :   0.8988 B(  1-C , 22-H ) :   0.9242
B(  1-C , 23-H ) :   0.9019 B(  2-O ,  3-P ) :   1.0833 B(  3-P ,  4-S ) :   1.6426
B(  3-P ,  5-O ) :   1.1386 B(  3-P ,  8-S ) :   0.9328 B(  4-S ,  8-S ) :   0.1035
B(  5-O ,  6-C ) :   0.8989 B(  6-C ,  7-C ) :   1.1635 B(  6-C , 24-H ) :   0.9176
B(  6-C , 25-H ) :   0.9254 B(  7-C , 26-H ) :   0.9496 B(  7-C , 27-H ) :   0.9404
B(  7-C , 28-H ) :   0.9501 B(  8-S ,  9-C ) :   1.0207 B(  9-C , 10-S ) :   0.9950
B(  9-C , 29-H ) :   0.8809 B(  9-C , 30-H ) :   0.8873 B( 10-S , 11-P ) :   0.9548
B( 10-S , 12-S ) :   0.1076 B( 11-P , 12-S ) :   1.5873 B( 11-P , 13-O ) :   1.1134
B( 11-P , 16-O ) :   1.1125 B( 13-O , 14-C ) :   0.9028 B( 14-C , 15-C ) :   1.1642
B( 14-C , 31-H ) :   0.9329 B( 14-C , 32-H ) :   0.9157 B( 15-C , 33-H ) :   0.9463
B( 15-C , 34-H ) :   0.9396 B( 15-C , 35-H ) :   0.9356 B( 16-O , 17-C ) :   0.9072
B( 17-C , 18-C ) :   1.1662 B( 17-C , 36-H ) :   0.9338 B( 17-C , 37-H ) :   0.9165
B( 18-C , 38-H ) :   0.9357 B( 18-C , 39-H ) :   0.9446 B( 18-C , 40-H ) :   0.9377

Dispersion correction           -0.066137588
FINAL SINGLE POINT ENERGY     -2929.524575349271

DIPOLE MOMENT
-------------

Method             : SCF
Type of density    : Electron Density
Multiplicity       :   1
Irrep              :   0
Energy             : -2929.6435502061981424 Eh
Relativity type    :
Basis              : AO
                                X                 Y                 Z
Electronic contribution:      3.386852660       0.765164877     -17.467511139
Nuclear contribution   :     -4.060360859      -0.620368340      18.949621617
                        -----------------------------------------
Total Dipole Moment    :     -0.673508199       0.144796537       1.482110478
                        -----------------------------------------
Magnitude (a.u.)       :      1.634390039
Magnitude (Debye)      :      4.154289333

Rotational constants in cm-1:             0.011715             0.005284             0.004944
Rotational constants in MHz :           351.215952           158.423565           148.213172

                             ****ORCA TERMINATED NORMALLY****
TOTAL RUN TIME: 0 days 0 hours 0 minutes 21 seconds 244 msec
