                         Program Version 6.0.0  -   RELEASE  -
|  1> ! pbe def2-sv(p) def2/J RI DEFGRID1 loosescf d4 GCP(DFT/SV(P)) printgap
|  2> %output
|  3>     printlevel normal
|  4> end
|  5> * xyz 0 1
|  6> C -2.9245786391 -0.3668354226 -5.16175e-05
|  7> C -2.6847811704 1.0159940968 -1.31651e-05
|  8> C -1.4049366956 1.496601786 3.69714e-05
|  9> C -0.3032792597 0.615330494 4.00008e-05
| 10> C 1.025710388 1.0840074978 4.77191e-05
| 11> C 2.077862869 0.2036758372 3.499e-06
| 12> C 1.835091655 -1.1870192271 2.94843e-05
| 13> C 0.5576247043 -1.6625684388 2.96734e-05
| 14> C -0.5466958787 -0.7830809297 8.1415e-06
| 15> C -1.8776092206 -1.2465748702 -1.37342e-05
| 16> O 3.3783510959 0.6006471391 -4.97068e-05
| 17> H -3.941871656 -0.7286787437 -0.0002039724
| 18> H -3.521927585 1.6981844281 -2.97744e-05
| 19> H -1.2190015558 2.5609493222 0.0001331589
| 20> H 1.1998996398 2.1509836031 2.78184e-05
| 21> H 2.6876615526 -1.8478814814 6.78257e-05
| 22> H 0.3745955444 -2.7268384287 5.21758e-05
| 23> H -2.0546453714 -2.3124674629 -0.0001283485
| 24> H 3.4414626175 1.5676610993 -0.0005237863
| 25> *
| 26>
| 27>                          ****END OF INPUT****

CARTESIAN COORDINATES (ANGSTROEM)
---------------------------------
  C     -2.924579   -0.366835   -0.000052
  C     -2.684781    1.015994   -0.000013
  C     -1.404937    1.496602    0.000037
  C     -0.303279    0.615330    0.000040
  C      1.025710    1.084007    0.000048
  C      2.077863    0.203676    0.000003
  C      1.835092   -1.187019    0.000029
  C      0.557625   -1.662568    0.000030
  C     -0.546696   -0.783081    0.000008
  C     -1.877609   -1.246575   -0.000014
  O      3.378351    0.600647   -0.000050
  H     -3.941872   -0.728679   -0.000204
  H     -3.521928    1.698184   -0.000030
  H     -1.219002    2.560949    0.000133
  H      1.199900    2.150984    0.000028
  H      2.687662   -1.847881    0.000068
  H      0.374596   -2.726838    0.000052
  H     -2.054645   -2.312467   -0.000128
  H      3.441463    1.567661   -0.000524

 Total Charge           Charge          ....    0
 Multiplicity           Mult            ....    1
 Number of Electrons    NEL             ....   76
 Basis Dimension        Dim             ....  170

ORBITAL ENERGIES
----------------

  NO   OCC          E(Eh)            E(eV)
   0   2.0000     -18.784747      -511.1589
   1   2.0000      -9.955920      -270.9143
   2   2.0000      -9.904908      -269.5262
   3   2.0000      -9.899281      -269.3731
   4   2.0000      -9.897199      -269.3165
   5   2.0000      -9.892388      -269.1856
   6   2.0000      -9.891709      -269.1671
   7   2.0000      -9.891568      -269.1632
   8   2.0000      -9.891261      -269.1549
   9   2.0000      -9.890829      -269.1431
  10   2.0000      -9.888491      -269.0795
  11   2.0000      -0.966492       -26.2996
  12   2.0000      -0.793344       -21.5880
  13   2.0000      -0.741202       -20.1691
  14   2.0000      -0.696590       -18.9552
  15   2.0000      -0.665549       -18.1105
  16   2.0000      -0.643299       -17.5051
  17   2.0000      -0.580084       -15.7849
  18   2.0000      -0.548934       -14.9372
  19   2.0000      -0.539620       -14.6838
  20   2.0000      -0.497916       -13.5490
  21   2.0000      -0.467555       -12.7228
  22   2.0000      -0.454042       -12.3551
  23   2.0000      -0.407888       -11.0992
  24   2.0000      -0.400953       -10.9105
  25   2.0000      -0.396437       -10.7876
  26   2.0000      -0.373731       -10.1697
  27   2.0000      -0.371987       -10.1223
  28   2.0000      -0.366145        -9.9633
  29   2.0000      -0.338021        -9.1980
  30   2.0000      -0.335053        -9.1173
  31   2.0000      -0.324724        -8.8362
  32   2.0000      -0.298954        -8.1349
  33   2.0000      -0.289824        -7.8865
  34   2.0000      -0.276145        -7.5143
  35   2.0000      -0.255066        -6.9407
  36   2.0000      -0.211684        -5.7602
  37   2.0000      -0.186909        -5.0860
  38   0.0000      -0.064917        -1.7665
  39   0.0000      -0.031678        -0.8620
  40   0.0000      -0.003974        -0.1081
  41   0.0000       0.021129         0.5749
  42   0.0000       0.045883         1.2486

MULLIKEN ATOMIC CHARGES
-----------------------
   0 C :   -0.047366
   1 C :   -0.039307
   2 C :   -0.133491
   3 C :    0.155821
   4 C :   -0.263555
   5 C :    0.267568
   6 C :   -0.104226
   7 C :   -0.125172
   8 C :    0.153233
   9 C :   -0.122223
  10 O :   -0.334117
  11 H :    0.049581
  12 H :    0.050633
  13 H :    0.034270
  14 H :    0.013068
  15 H :    0.048657
  16 H :    0.042077
  17 H :    0.036105
  18 H :    0.318443
Sum of atomic charges:   -0.0000000

LOEWDIN ATOMIC CHARGES
----------------------
   0 C :   -0.134586
   1 C :   -0.122546
   2 C :   -0.120409
   3 C :   -0.017186
   4 C :   -0.176571
   5 C :    0.022763
   6 C :   -0.138209
   7 C :   -0.101401
   8 C :   -0.038125
   9 C :   -0.109650
  10 O :   -0.232428
  11 H :    0.122976
  12 H :    0.123456
  13 H :    0.121219
  14 H :    0.119785
  15 H :    0.132374
  16 H :    0.126266
  17 H :    0.122905
  18 H :    0.299368

  Mayer bond orders larger than 0.100000
B(  0-C ,  1-C ) :   1.2627 B(  0-C ,  9-C ) :   1.4532 B(  0-C , 11-H ) :   0.9621
B(  1-C ,  2-C ) :   1.4607 B(  1-C , 12-H ) :   0.9616 B(  2-C ,  3-C ) :   1.2389
B(  2-C , 13-H ) :   0.9644 B(  3-C ,  4-C ) :   1.2296 B(  3-C ,  8-C ) :   1.2536
B(  4-C ,  5-C ) :   1.3567 B(  4-C , 14-H ) :   0.9584 B(  5-C ,  6-C ) :   1.2551
B(  5-C , 10-O ) :   1.1862 B(  6-C ,  7-C ) :   1.4549 B(  6-C , 15-H ) :   0.9622
B(  7-C ,  8-C ) :   1.2155 B(  7-C , 16-H ) :   0.9669 B(  8-C ,  9-C ) :   1.2526
B(  9-C , 17-H ) :   0.9643 B( 10-O , 18-H ) :   0.8418

Dispersion correction           -0.023258483
FINAL SINGLE POINT ENERGY      -460.133252487770

DIPOLE MOMENT
-------------

Method             : SCF
Type of density    : Electron Density
Multiplicity       :   1
Irrep              :   0
Energy             :  -460.1845391276783630 Eh
Relativity type    :
Basis              : AO
                                X                 Y                 Z
Electronic contribution:      2.886802320       0.109543772       0.000237691
Nuclear contribution   :     -2.796215016       0.348431412      -0.000568238
                        -----------------------------------------
Total Dipole Moment    :      0.090587305       0.457975184      -0.000330547
                        -----------------------------------------
Magnitude (a.u.)       :      0.466848410
Magnitude (Debye)      :      1.186634356

Rotational constants in cm-1:             0.096042             0.027815             0.021568
Rotational constants in MHz :          2879.264471           833.872770           646.606922

                             ****ORCA TERMINATED NORMALLY****
TOTAL RUN TIME: 0 days 0 hours 0 minutes 11 seconds 257 msec
