                         Program Version 6.0.0  -   RELEASE  -
|  1> ! pbe def2-sv(p) def2/J RI DEFGRID1 loosescf d4 GCP(DFT/SV(P)) printgap
|  2> %output
|  3>     printlevel normal
|  4> end
|  5> * xyz 0 1
|  6> C 3.2847325179 2.2416275831 -1.0495639377
|  7> C 3.8453553187 1.1184091439 -0.2002658029
|  8> O 3.1167085661 -0.1074460312 -0.444236375
|  9> P 2.0734429091 -0.7160098345 0.5731874683
| 10> S 1.5159266987 0.4427348455 2.0558418239
| 11> O 2.8276337617 -2.0291109106 1.0514884757
| 12> C 2.4309212315 -2.7971878391 2.2041931925
| 13> C 3.6785779424 -3.3804345868 2.8375874756
| 14> S 0.624174485 -1.516384644 -0.7621883666
| 15> C 0.3264676328 -0.029201399 -1.7610562065
| 16> S -0.411624491 1.3328952952 -0.8334841013
| 17> P -2.3748176231 0.5074556084 -0.7452952937
| 18> S -2.96992469 -0.3931552049 -2.3757977094
| 19> O -3.238609153 1.7088476552 -0.1684250792
| 20> C -3.232070843 3.0583448423 -0.6736411999
| 21> C -3.5091387873 3.1289064669 -2.1604300978
| 22> O -2.4189989489 -0.5160724878 0.4504430141
| 23> C -2.1021463098 -0.1825288393 1.824585792
| 24> C -1.7239784349 -1.4666868238 2.5317807315
| 25> H 3.8663756729 3.1409522378 -0.8751252583
| 26> H 3.3373092039 1.9836435905 -2.103860795
| 27> H 2.246746577 2.4349043133 -0.7806704628
| 28> H 3.7808996784 1.3678277449 0.8630085794
| 29> H 4.8787881668 0.8906043621 -0.464619831
| 30> H 1.9039033529 -2.1378925545 2.9027665977
| 31> H 1.752412422 -3.583531396 1.8636457493
| 32> H 4.3330474377 -2.5824952029 3.1773576936
| 33> H 3.3928116304 -3.9951063083 3.6848800521
| 34> H 4.2118721907 -3.9892731426 2.1132965014
| 35> H -0.3629557895 -0.3328421476 -2.5516565426
| 36> H 1.2688342787 0.326380097 -2.1692023983
| 37> H -4.0164453753 3.5505473799 -0.0960528251
| 38> H -2.2617194401 3.504133914 -0.4375009958
| 39> H -4.4435942534 2.625252565 -2.3964324291
| 40> H -3.5726638636 4.1682257138 -2.4660309441
| 41> H -2.7082358207 2.64273618 -2.7158256879
| 42> H -1.2747029781 0.5340217056 1.8409537531
| 43> H -2.9857760744 0.2789106488 2.2680861463
| 44> H -2.545982349 -2.1748775775 2.4888074052
| 45> H -0.854735606 -1.9125896283 2.051689038
| 46> H -1.4827242977 -1.2437396549 3.5660743364
| 47> *
| 48>
| 49>                          ****END OF INPUT****

CARTESIAN COORDINATES (ANGSTROEM)
---------------------------------
  C      3.284733    2.241628   -1.049564
  C      3.845355    1.118409   -0.200266
  O      3.116709   -0.107446   -0.444236
  P      2.073443   -0.716010    0.573187
  S      1.515927    0.442735    2.055842
  O      2.827634   -2.029111    1.051488
  C      2.430921   -2.797188    2.204193
  C      3.678578   -3.380435    2.837587
  S      0.624174   -1.516385   -0.762188
  C      0.326468   -0.029201   -1.761056
  S     -0.411624    1.332895   -0.833484
  P     -2.374818    0.507456   -0.745295
  S     -2.969925   -0.393155   -2.375798
  O     -3.238609    1.708848   -0.168425
  C     -3.232071    3.058345   -0.673641
  C     -3.509139    3.128906   -2.160430
  O     -2.418999   -0.516072    0.450443
  C     -2.102146   -0.182529    1.824586
  C     -1.723978   -1.466687    2.531781
  H      3.866376    3.140952   -0.875125
  H      3.337309    1.983644   -2.103861
  H      2.246747    2.434904   -0.780670
  H      3.780900    1.367828    0.863009
  H      4.878788    0.890604   -0.464620
  H      1.903903   -2.137893    2.902767
  H      1.752412   -3.583531    1.863646
  H      4.333047   -2.582495    3.177358
  H      3.392812   -3.995106    3.684880
  H      4.211872   -3.989273    2.113297
  H     -0.362956   -0.332842   -2.551657
  H      1.268834    0.326380   -2.169202
  H     -4.016445    3.550547   -0.096053
  H     -2.261719    3.504134   -0.437501
  H     -4.443594    2.625253   -2.396432
  H     -3.572664    4.168226   -2.466031
  H     -2.708236    2.642736   -2.715826
  H     -1.274703    0.534022    1.840954
  H     -2.985776    0.278911    2.268086
  H     -2.545982   -2.174878    2.488807
  H     -0.854736   -1.912590    2.051689
  H     -1.482724   -1.243740    3.566074

 Total Charge           Charge          ....    0
 Multiplicity           Mult            ....    1
 Number of Electrons    NEL             ....  202
 Basis Dimension        Dim             ....  334

ORBITAL ENERGIES
----------------

  NO   OCC          E(Eh)            E(eV)
   0   2.0000     -88.043198     -2395.7772
   1   2.0000     -88.041768     -2395.7383
   2   2.0000     -87.992410     -2394.3952
   3   2.0000     -87.979176     -2394.0351
   4   2.0000     -76.431445     -2079.8054
   5   2.0000     -76.423034     -2079.5765
   6   2.0000     -18.800317      -511.5826
   7   2.0000     -18.794288      -511.4186
   8   2.0000     -18.793540      -511.3982
   9   2.0000     -18.783230      -511.1177
  10   2.0000      -9.959339      -271.0074
  11   2.0000      -9.958932      -270.9963
  12   2.0000      -9.956624      -270.9335
  13   2.0000      -9.955571      -270.9049
  14   2.0000      -9.941658      -270.5263
  15   2.0000      -9.893063      -269.2039
  16   2.0000      -9.889644      -269.1109
  17   2.0000      -9.882973      -268.9294
  18   2.0000      -9.876789      -268.7611
  19   2.0000      -7.687794      -209.1955
  20   2.0000      -7.687022      -209.1745
  21   2.0000      -7.637251      -207.8202
  22   2.0000      -7.624571      -207.4751
  23   2.0000      -6.428969      -174.9411
  24   2.0000      -6.420339      -174.7063
  25   2.0000      -5.715414      -155.5243
  26   2.0000      -5.714956      -155.5119
  27   2.0000      -5.712316      -155.4400
  28   2.0000      -5.711712      -155.4236
  29   2.0000      -5.705070      -155.2428
  30   2.0000      -5.703743      -155.2067
  31   2.0000      -5.665940      -154.1781
  32   2.0000      -5.657876      -153.9586
  33   2.0000      -5.657614      -153.9515
  34   2.0000      -5.653601      -153.8423
  35   2.0000      -5.645200      -153.6137
  36   2.0000      -5.644549      -153.5960
  37   2.0000      -4.651572      -126.5757
  38   2.0000      -4.650838      -126.5557
  39   2.0000      -4.649283      -126.5134
  40   2.0000      -4.643195      -126.3478
  41   2.0000      -4.642372      -126.3254
  42   2.0000      -4.640326      -126.2697
  43   2.0000      -0.991840       -26.9893
  44   2.0000      -0.985022       -26.8038
  45   2.0000      -0.951269       -25.8854
  46   2.0000      -0.940112       -25.5817
  47   2.0000      -0.764686       -20.8082
  48   2.0000      -0.725688       -19.7470
  49   2.0000      -0.711364       -19.3572
  50   2.0000      -0.693096       -18.8601
  51   2.0000      -0.686939       -18.6926
  52   2.0000      -0.672908       -18.3107
  53   2.0000      -0.653470       -17.7818
  54   2.0000      -0.637456       -17.3461
  55   2.0000      -0.600586       -16.3428
  56   2.0000      -0.588148       -16.0043
  57   2.0000      -0.572748       -15.5853
  58   2.0000      -0.568508       -15.4699
  59   2.0000      -0.561211       -15.2713
  60   2.0000      -0.511295       -13.9130
  61   2.0000      -0.501135       -13.6366
  62   2.0000      -0.484428       -13.1820
  63   2.0000      -0.471166       -12.8211
  64   2.0000      -0.462929       -12.5969
  65   2.0000      -0.446515       -12.1503
  66   2.0000      -0.440770       -11.9940
  67   2.0000      -0.437779       -11.9126
  68   2.0000      -0.426823       -11.6145
  69   2.0000      -0.418260       -11.3814
  70   2.0000      -0.413162       -11.2427
  71   2.0000      -0.398844       -10.8531
  72   2.0000      -0.389930       -10.6105
  73   2.0000      -0.389426       -10.5968
  74   2.0000      -0.379903       -10.3377
  75   2.0000      -0.379042       -10.3142
  76   2.0000      -0.363649        -9.8954
  77   2.0000      -0.359950        -9.7947
  78   2.0000      -0.355243        -9.6667
  79   2.0000      -0.348961        -9.4957
  80   2.0000      -0.346856        -9.4384
  81   2.0000      -0.345639        -9.4053
  82   2.0000      -0.343691        -9.3523
  83   2.0000      -0.336911        -9.1678
  84   2.0000      -0.333361        -9.0712
  85   2.0000      -0.319935        -8.7059
  86   2.0000      -0.312621        -8.5068
  87   2.0000      -0.303261        -8.2522
  88   2.0000      -0.296168        -8.0592
  89   2.0000      -0.292753        -7.9662
  90   2.0000      -0.288449        -7.8491
  91   2.0000      -0.279780        -7.6132
  92   2.0000      -0.271037        -7.3753
  93   2.0000      -0.266032        -7.2391
  94   2.0000      -0.257617        -7.0101
  95   2.0000      -0.242605        -6.6016
  96   2.0000      -0.221942        -6.0394
  97   2.0000      -0.209515        -5.7012
  98   2.0000      -0.203058        -5.5255
  99   2.0000      -0.198331        -5.3969
 100   2.0000      -0.191325        -5.2062
 101   0.0000      -0.048643        -1.3237
 102   0.0000      -0.025928        -0.7055
 103   0.0000      -0.015114        -0.4113
 104   0.0000      -0.004460        -0.1214
 105   0.0000       0.013536         0.3683

MULLIKEN ATOMIC CHARGES
-----------------------
   0 C :   -0.315840
   1 C :   -0.006529
   2 O :   -0.369500
   3 P :    0.609381
   4 S :   -0.325304
   5 O :   -0.369019
   6 C :   -0.025509
   7 C :   -0.276520
   8 S :   -0.070116
   9 C :   -0.375802
  10 S :   -0.115358
  11 P :    0.612386
  12 S :   -0.313900
  13 O :   -0.382762
  14 C :   -0.012132
  15 C :   -0.308211
  16 O :   -0.351115
  17 C :   -0.020514
  18 C :   -0.277963
  19 H :    0.116380
  20 H :    0.122860
  21 H :    0.131984
  22 H :    0.113791
  23 H :    0.110432
  24 H :    0.111660
  25 H :    0.108700
  26 H :    0.116663
  27 H :    0.111938
  28 H :    0.118871
  29 H :    0.195809
  30 H :    0.194307
  31 H :    0.110014
  32 H :    0.113880
  33 H :    0.128072
  34 H :    0.110650
  35 H :    0.124487
  36 H :    0.120812
  37 H :    0.100709
  38 H :    0.113407
  39 H :    0.113076
  40 H :    0.105825
Sum of atomic charges:    0.0000000

LOEWDIN ATOMIC CHARGES
----------------------
   0 C :   -0.361630
   1 C :   -0.116294
   2 O :   -0.239605
   3 P :    0.566847
   4 S :   -0.307065
   5 O :   -0.246305
   6 C :   -0.121345
   7 C :   -0.350517
   8 S :    0.088115
   9 C :   -0.483495
  10 S :    0.070471
  11 P :    0.570032
  12 S :   -0.310978
  13 O :   -0.245536
  14 C :   -0.113925
  15 C :   -0.369207
  16 O :   -0.231587
  17 C :   -0.119592
  18 C :   -0.352086
  19 H :    0.133889
  20 H :    0.125189
  21 H :    0.120945
  22 H :    0.109334
  23 H :    0.120463
  24 H :    0.106153
  25 H :    0.113593
  26 H :    0.127692
  27 H :    0.130976
  28 H :    0.127855
  29 H :    0.129782
  30 H :    0.131334
  31 H :    0.121742
  32 H :    0.108475
  33 H :    0.131226
  34 H :    0.129768
  35 H :    0.120966
  36 H :    0.101878
  37 H :    0.111945
  38 H :    0.125597
  39 H :    0.116741
  40 H :    0.128162

  Mayer bond orders larger than 0.100000
B(  0-C ,  1-C ) :   1.1707 B(  0-C , 19-H ) :   0.9375 B(  0-C , 20-H ) :   0.9417
B(  0-C , 21-H ) :   0.9346 B(  1-C ,  2-O ) :   0.8939 B(  1-C , 22-H ) :   0.9046
B(  1-C , 23-H ) :   0.9313 B(  2-O ,  3-P ) :   1.1225 B(  3-P ,  4-S ) :   1.6044
B(  3-P ,  5-O ) :   1.1217 B(  3-P ,  8-S ) :   0.9707 B(  4-S ,  8-S ) :   0.1087
B(  5-O ,  6-C ) :   0.9080 B(  6-C ,  7-C ) :   1.1621 B(  6-C , 24-H ) :   0.9018
B(  6-C , 25-H ) :   0.9306 B(  7-C , 26-H ) :   0.9503 B(  7-C , 27-H ) :   0.9414
B(  7-C , 28-H ) :   0.9502 B(  8-S ,  9-C ) :   1.0007 B(  9-C , 10-S ) :   1.0154
B(  9-C , 29-H ) :   0.8629 B(  9-C , 30-H ) :   0.8912 B( 10-S , 11-P ) :   0.9328
B( 10-S , 12-S ) :   0.1060 B( 11-P , 12-S ) :   1.6393 B( 11-P , 13-O ) :   1.0897
B( 11-P , 16-O ) :   1.1532 B( 12-S , 29-H ) :   0.1032 B( 13-O , 14-C ) :   0.9136
B( 14-C , 15-C ) :   1.1660 B( 14-C , 31-H ) :   0.9335 B( 14-C , 32-H ) :   0.9268
B( 15-C , 33-H ) :   0.9430 B( 15-C , 34-H ) :   0.9350 B( 15-C , 35-H ) :   0.9316
B( 16-O , 17-C ) :   0.8812 B( 17-C , 18-C ) :   1.1693 B( 17-C , 36-H ) :   0.9015
B( 17-C , 37-H ) :   0.9310 B( 18-C , 38-H ) :   0.9477 B( 18-C , 39-H ) :   0.9402
B( 18-C , 40-H ) :   0.9406

Dispersion correction           -0.065279538
FINAL SINGLE POINT ENERGY     -2929.519582049699

DIPOLE MOMENT
-------------

Method             : SCF
Type of density    : Electron Density
Multiplicity       :   1
Irrep              :   0
Energy             : -2929.6383630243399239 Eh
Relativity type    :
Basis              : AO
                                X                 Y                 Z
Electronic contribution:     -7.131556138      -4.471571537      -8.681114070
Nuclear contribution   :      8.249646867       5.332240990       9.382324373
                        -----------------------------------------
Total Dipole Moment    :      1.118090728       0.860669454       0.701210303
                        -----------------------------------------
Magnitude (a.u.)       :      1.575618823
Magnitude (Debye)      :      4.004904772

Rotational constants in cm-1:             0.012284             0.005053             0.004482
Rotational constants in MHz :           368.276335           151.485085           134.352473

                             ****ORCA TERMINATED NORMALLY****
TOTAL RUN TIME: 0 days 0 hours 0 minutes 21 seconds 132 msec
