                         Program Version 6.0.0  -   RELEASE  -
|  1> ! r2scan-3c def2/J RI DEFGRID2 scfconv6 printgap
|  2> %output
|  3>     printlevel normal
|  4> end
|  5> * xyz 0 1
|  6> C 2.393247907 -2.7024754812 -1.7881270555
|  7> C 3.5440194278 -2.2159638692 -0.9342645436
|  8> O 3.5513931964 -0.7750378568 -0.7835073727
|  9> P 2.4235907955 0.0936392832 -0.1063758894
| 10> S 3.099491391 1.8092342948 0.5418850376
| 11> O 1.8348039875 -0.884341453 1.006043688
| 12> C 1.3693535638 -0.468281069 2.3018037952
| 13> C 2.1537158105 -1.2087100608 3.3668926549
| 14> S 0.9329185178 0.2438914694 -1.6295110261
| 15> C 0.1810831632 1.7955328587 -1.0899738435
| 16> S -0.6509409198 1.6624839556 0.5169443963
| 17> P -2.0585111493 0.1910094474 -0.0591964056
| 18> S -2.7884466268 0.3001855533 -1.878263657
| 19> O -3.1364415016 0.2118253064 1.1073707189
| 20> C -4.3124471352 1.0378563596 1.0590049586
| 21> C -3.9797928158 2.5116393891 1.1720227695
| 22> O -1.2379824429 -1.1165927271 0.3046070823
| 23> C -1.5267624625 -2.3950938515 -0.2976310332
| 24> C -2.8818339947 -2.9234365161 0.1229759438
| 25> H 2.3975229565 -2.2022673656 -2.7535987512
| 26> H 2.4868668481 -3.7734857103 -1.9381680647
| 27> H 1.446324602 -2.4934848109 -1.2938188346
| 28> H 4.50839807 -2.4198574421 -1.4018007696
| 29> H 3.5089414323 -2.6636819108 0.0608250582
| 30> H 1.5014198047 0.6143664193 2.4011623863
| 31> H 0.3042400682 -0.7080477311 2.3442260619
| 32> H 2.0495461554 -2.2818353658 3.2343289747
| 33> H 3.2064853148 -0.9427941632 3.3046313053
| 34> H 1.7742276909 -0.9287552248 4.3441623464
| 35> H -0.5428997326 2.0689496887 -1.8565854998
| 36> H 0.9509875929 2.5580838591 -0.974504764
| 37> H -4.8392120252 0.8345290299 0.1211004656
| 38> H -4.909735966 0.6934849417 1.904232774
| 39> H -4.8989650613 3.0831525802 1.2517291652
| 40> H -3.3625015079 2.6944867206 2.0480628292
| 41> H -3.4359637188 2.8402891924 0.2872243169
| 42> H -1.4724869768 -2.2842455879 -1.3855821485
| 43> H -0.7169397667 -3.0375592815 0.0519957322
| 44> H -3.0169589075 -3.9243974879 -0.274637045
| 45> H -2.9568937324 -2.9491684173 1.2069515522
| 46> H -3.6671923358 -2.2782913333 -0.2693440108
| 47> *
| 48>
| 49>                          ****END OF INPUT****

CARTESIAN COORDINATES (ANGSTROEM)
---------------------------------
  C      2.393248   -2.702475   -1.788127
  C      3.544019   -2.215964   -0.934265
  O      3.551393   -0.775038   -0.783507
  P      2.423591    0.093639   -0.106376
  S      3.099491    1.809234    0.541885
  O      1.834804   -0.884341    1.006044
  C      1.369354   -0.468281    2.301804
  C      2.153716   -1.208710    3.366893
  S      0.932919    0.243891   -1.629511
  C      0.181083    1.795533   -1.089974
  S     -0.650941    1.662484    0.516944
  P     -2.058511    0.191009   -0.059196
  S     -2.788447    0.300186   -1.878264
  O     -3.136442    0.211825    1.107371
  C     -4.312447    1.037856    1.059005
  C     -3.979793    2.511639    1.172023
  O     -1.237982   -1.116593    0.304607
  C     -1.526762   -2.395094   -0.297631
  C     -2.881834   -2.923437    0.122976
  H      2.397523   -2.202267   -2.753599
  H      2.486867   -3.773486   -1.938168
  H      1.446325   -2.493485   -1.293819
  H      4.508398   -2.419857   -1.401801
  H      3.508941   -2.663682    0.060825
  H      1.501420    0.614366    2.401162
  H      0.304240   -0.708048    2.344226
  H      2.049546   -2.281835    3.234329
  H      3.206485   -0.942794    3.304631
  H      1.774228   -0.928755    4.344162
  H     -0.542900    2.068950   -1.856585
  H      0.950988    2.558084   -0.974505
  H     -4.839212    0.834529    0.121100
  H     -4.909736    0.693485    1.904233
  H     -4.898965    3.083153    1.251729
  H     -3.362502    2.694487    2.048063
  H     -3.435964    2.840289    0.287224
  H     -1.472487   -2.284246   -1.385582
  H     -0.716940   -3.037559    0.051996
  H     -3.016959   -3.924397   -0.274637
  H     -2.956894   -2.949168    1.206952
  H     -3.667192   -2.278291   -0.269344

 Total Charge           Charge          ....    0
 Multiplicity           Mult            ....    1
 Number of Electrons    NEL             ....  202
 Basis Dimension        Dim             ....  539

ORBITAL ENERGIES
----------------

  NO   OCC          E(Eh)            E(eV)
   0   2.0000     -88.575661     -2410.2663
   1   2.0000     -88.569759     -2410.1057
   2   2.0000     -88.525091     -2408.8902
   3   2.0000     -88.516402     -2408.6537
   4   2.0000     -76.916700     -2093.0098
   5   2.0000     -76.913028     -2092.9099
   6   2.0000     -18.996558      -516.9226
   7   2.0000     -18.991622      -516.7883
   8   2.0000     -18.991341      -516.7807
   9   2.0000     -18.989054      -516.7184
  10   2.0000     -10.106690      -275.0170
  11   2.0000     -10.102907      -274.9141
  12   2.0000     -10.102008      -274.8896
  13   2.0000     -10.101353      -274.8718
  14   2.0000     -10.090840      -274.5857
  15   2.0000     -10.038053      -273.1493
  16   2.0000     -10.032332      -272.9936
  17   2.0000     -10.031069      -272.9593
  18   2.0000     -10.028328      -272.8847
  19   2.0000      -7.870057      -214.1551
  20   2.0000      -7.864038      -213.9914
  21   2.0000      -7.819797      -212.7875
  22   2.0000      -7.811328      -212.5570
  23   2.0000      -6.595298      -179.4672
  24   2.0000      -6.591052      -179.3516
  25   2.0000      -5.816909      -158.2862
  26   2.0000      -5.813976      -158.2063
  27   2.0000      -5.811092      -158.1278
  28   2.0000      -5.807850      -158.0396
  29   2.0000      -5.807135      -158.0202
  30   2.0000      -5.801032      -157.8541
  31   2.0000      -5.767407      -156.9391
  32   2.0000      -5.760097      -156.7402
  33   2.0000      -5.759834      -156.7331
  34   2.0000      -5.759040      -156.7114
  35   2.0000      -5.751496      -156.5062
  36   2.0000      -5.751347      -156.5021
  37   2.0000      -4.740675      -129.0003
  38   2.0000      -4.740179      -128.9868
  39   2.0000      -4.739171      -128.9594
  40   2.0000      -4.737023      -128.9009
  41   2.0000      -4.735628      -128.8630
  42   2.0000      -4.734749      -128.8391
  43   2.0000      -1.053394       -28.6643
  44   2.0000      -1.048500       -28.5311
  45   2.0000      -1.014293       -27.6003
  46   2.0000      -1.007266       -27.4091
  47   2.0000      -0.800953       -21.7951
  48   2.0000      -0.760367       -20.6906
  49   2.0000      -0.752061       -20.4646
  50   2.0000      -0.736041       -20.0287
  51   2.0000      -0.734295       -19.9812
  52   2.0000      -0.710951       -19.3460
  53   2.0000      -0.687533       -18.7087
  54   2.0000      -0.668553       -18.1922
  55   2.0000      -0.635460       -17.2917
  56   2.0000      -0.625563       -17.0224
  57   2.0000      -0.608818       -16.5668
  58   2.0000      -0.608222       -16.5506
  59   2.0000      -0.591091       -16.0844
  60   2.0000      -0.526746       -14.3335
  61   2.0000      -0.518544       -14.1103
  62   2.0000      -0.496294       -13.5048
  63   2.0000      -0.495497       -13.4832
  64   2.0000      -0.475133       -12.9290
  65   2.0000      -0.465625       -12.6703
  66   2.0000      -0.462307       -12.5800
  67   2.0000      -0.459129       -12.4935
  68   2.0000      -0.444269       -12.0892
  69   2.0000      -0.436442       -11.8762
  70   2.0000      -0.427478       -11.6323
  71   2.0000      -0.415773       -11.3138
  72   2.0000      -0.409619       -11.1463
  73   2.0000      -0.405094       -11.0232
  74   2.0000      -0.394717       -10.7408
  75   2.0000      -0.391573       -10.6552
  76   2.0000      -0.387020       -10.5314
  77   2.0000      -0.376751       -10.2519
  78   2.0000      -0.374000       -10.1771
  79   2.0000      -0.368376       -10.0240
  80   2.0000      -0.366543        -9.9741
  81   2.0000      -0.365473        -9.9450
  82   2.0000      -0.360139        -9.7999
  83   2.0000      -0.355977        -9.6866
  84   2.0000      -0.348760        -9.4902
  85   2.0000      -0.335704        -9.1350
  86   2.0000      -0.322652        -8.7798
  87   2.0000      -0.315252        -8.5784
  88   2.0000      -0.312451        -8.5022
  89   2.0000      -0.304772        -8.2933
  90   2.0000      -0.301971        -8.2170
  91   2.0000      -0.293781        -7.9942
  92   2.0000      -0.285808        -7.7772
  93   2.0000      -0.282025        -7.6743
  94   2.0000      -0.269708        -7.3391
  95   2.0000      -0.246737        -6.7141
  96   2.0000      -0.229865        -6.2550
  97   2.0000      -0.226031        -6.1506
  98   2.0000      -0.220868        -6.0101
  99   2.0000      -0.213572        -5.8116
 100   2.0000      -0.208917        -5.6849
 101   0.0000      -0.047057        -1.2805
 102   0.0000      -0.025085        -0.6826
 103   0.0000      -0.001103        -0.0300
 104   0.0000       0.001041         0.0283
 105   0.0000       0.010241         0.2787

MULLIKEN ATOMIC CHARGES
-----------------------
   0 C :   -0.502380
   1 C :   -0.104537
   2 O :   -0.285415
   3 P :    0.658386
   4 S :   -0.462764
   5 O :   -0.270811
   6 C :   -0.109086
   7 C :   -0.493516
   8 S :   -0.139508
   9 C :   -0.230375
  10 S :   -0.130904
  11 P :    0.669521
  12 S :   -0.475506
  13 O :   -0.301506
  14 C :   -0.151854
  15 C :   -0.448217
  16 O :   -0.250523
  17 C :   -0.166824
  18 C :   -0.453433
  19 H :    0.172944
  20 H :    0.154261
  21 H :    0.171738
  22 H :    0.152833
  23 H :    0.159736
  24 H :    0.177081
  25 H :    0.165792
  26 H :    0.148861
  27 H :    0.163921
  28 H :    0.147180
  29 H :    0.212728
  30 H :    0.212011
  31 H :    0.171680
  32 H :    0.148679
  33 H :    0.148785
  34 H :    0.155988
  35 H :    0.176735
  36 H :    0.181230
  37 H :    0.151925
  38 H :    0.147550
  39 H :    0.156486
  40 H :    0.171109
Sum of atomic charges:   -0.0000000

LOEWDIN ATOMIC CHARGES
----------------------
   0 C :   -0.407501
   1 C :    0.032946
   2 O :   -0.649165
   3 P :    0.390519
   4 S :   -0.107158
   5 O :   -0.673047
   6 C :    0.005323
   7 C :   -0.392051
   8 S :    0.152061
   9 C :   -0.423567
  10 S :    0.169744
  11 P :    0.379778
  12 S :   -0.125433
  13 O :   -0.662592
  14 C :    0.019823
  15 C :   -0.406270
  16 O :   -0.684871
  17 C :    0.013119
  18 C :   -0.399482
  19 H :    0.165369
  20 H :    0.161149
  21 H :    0.164768
  22 H :    0.183446
  23 H :    0.175856
  24 H :    0.184050
  25 H :    0.181140
  26 H :    0.155811
  27 H :    0.162058
  28 H :    0.159817
  29 H :    0.189119
  30 H :    0.192475
  31 H :    0.179567
  32 H :    0.179618
  33 H :    0.159666
  34 H :    0.160645
  35 H :    0.165647
  36 H :    0.181892
  37 H :    0.179266
  38 H :    0.159633
  39 H :    0.160789
  40 H :    0.166042

  Mayer bond orders larger than 0.100000
B(  0-C ,  1-C ) :   0.9030 B(  0-C , 19-H ) :   0.9672 B(  0-C , 20-H ) :   0.9559
B(  0-C , 21-H ) :   0.9660 B(  1-C ,  2-O ) :   0.8026 B(  1-C , 22-H ) :   0.9545
B(  1-C , 23-H ) :   0.9753 B(  2-O ,  3-P ) :   1.1555 B(  3-P ,  4-S ) :   1.8273
B(  3-P ,  5-O ) :   1.0302 B(  3-P ,  8-S ) :   1.0067 B(  5-O ,  6-C ) :   0.7260
B(  6-C ,  7-C ) :   0.9364 B(  6-C , 24-H ) :   0.9480 B(  6-C , 25-H ) :   0.9502
B(  7-C , 26-H ) :   0.9799 B(  7-C , 27-H ) :   0.9739 B(  7-C , 28-H ) :   0.9666
B(  8-S ,  9-C ) :   0.8952 B(  9-C , 10-S ) :   0.8863 B(  9-C , 29-H ) :   0.9145
B(  9-C , 30-H ) :   0.9077 B( 10-S , 11-P ) :   1.0903 B( 11-P , 12-S ) :   1.7530
B( 11-P , 13-O ) :   1.0665 B( 11-P , 16-O ) :   1.1337 B( 13-O , 14-C ) :   0.8122
B( 14-C , 15-C ) :   0.9239 B( 14-C , 31-H ) :   0.9669 B( 14-C , 32-H ) :   0.9579
B( 15-C , 33-H ) :   0.9587 B( 15-C , 34-H ) :   0.9681 B( 15-C , 35-H ) :   0.9625
B( 16-O , 17-C ) :   0.7857 B( 17-C , 18-C ) :   0.9238 B( 17-C , 36-H ) :   0.9611
B( 17-C , 37-H ) :   0.9598 B( 18-C , 38-H ) :   0.9614 B( 18-C , 39-H ) :   0.9729
B( 18-C , 40-H ) :   0.9597

Dispersion correction           -0.022270358
FINAL SINGLE POINT ENERGY     -2932.461623055726

DIPOLE MOMENT
-------------

Method             : SCF
Type of density    : Electron Density
Multiplicity       :   1
Irrep              :   0
Energy             : -2932.4858438897649648 Eh
Relativity type    :
Basis              : AO
                                X                 Y                 Z
Electronic contribution:      8.515748447      15.266501008      -9.248766946
Nuclear contribution   :     -9.414378535     -16.827060020      10.011838567
                        -----------------------------------------
Total Dipole Moment    :     -0.898630087      -1.560559012       0.763071621
                        -----------------------------------------
Magnitude (a.u.)       :      1.955801310
Magnitude (Debye)      :      4.971251857

Rotational constants in cm-1:             0.011660             0.005566             0.005176
Rotational constants in MHz :           349.558196           166.866569           155.160299

                             ****ORCA TERMINATED NORMALLY****
TOTAL RUN TIME: 0 days 0 hours 1 minutes 23 seconds 953 msec
