                         Program Version 6.0.0  -   RELEASE  -
|  1> ! r2scan-3c def2/J RI DEFGRID2 scfconv6 printgap
|  2> %output
|  3>     printlevel normal
|  4> end
|  5> %cpcm
|  6>     smd true
|  7>     smdsolvent "water"
|  8> end
|  9> * xyz 0 1
| 10> C 2.393247907 -2.7024754812 -1.7881270555
| 11> C 3.5440194278 -2.2159638692 -0.9342645436
| 12> O 3.5513931964 -0.7750378568 -0.7835073727
| 13> P 2.4235907955 0.0936392832 -0.1063758894
| 14> S 3.099491391 1.8092342948 0.5418850376
| 15> O 1.8348039875 -0.884341453 1.006043688
| 16> C 1.3693535638 -0.468281069 2.3018037952
| 17> C 2.1537158105 -1.2087100608 3.3668926549
| 18> S 0.9329185178 0.2438914694 -1.6295110261
| 19> C 0.1810831632 1.7955328587 -1.0899738435
| 20> S -0.6509409198 1.6624839556 0.5169443963
| 21> P -2.0585111493 0.1910094474 -0.0591964056
| 22> S -2.7884466268 0.3001855533 -1.878263657
| 23> O -3.1364415016 0.2118253064 1.1073707189
| 24> C -4.3124471352 1.0378563596 1.0590049586
| 25> C -3.9797928158 2.5116393891 1.1720227695
| 26> O -1.2379824429 -1.1165927271 0.3046070823
| 27> C -1.5267624625 -2.3950938515 -0.2976310332
| 28> C -2.8818339947 -2.9234365161 0.1229759438
| 29> H 2.3975229565 -2.2022673656 -2.7535987512
| 30> H 2.4868668481 -3.7734857103 -1.9381680647
| 31> H 1.446324602 -2.4934848109 -1.2938188346
| 32> H 4.50839807 -2.4198574421 -1.4018007696
| 33> H 3.5089414323 -2.6636819108 0.0608250582
| 34> H 1.5014198047 0.6143664193 2.4011623863
| 35> H 0.3042400682 -0.7080477311 2.3442260619
| 36> H 2.0495461554 -2.2818353658 3.2343289747
| 37> H 3.2064853148 -0.9427941632 3.3046313053
| 38> H 1.7742276909 -0.9287552248 4.3441623464
| 39> H -0.5428997326 2.0689496887 -1.8565854998
| 40> H 0.9509875929 2.5580838591 -0.974504764
| 41> H -4.8392120252 0.8345290299 0.1211004656
| 42> H -4.909735966 0.6934849417 1.904232774
| 43> H -4.8989650613 3.0831525802 1.2517291652
| 44> H -3.3625015079 2.6944867206 2.0480628292
| 45> H -3.4359637188 2.8402891924 0.2872243169
| 46> H -1.4724869768 -2.2842455879 -1.3855821485
| 47> H -0.7169397667 -3.0375592815 0.0519957322
| 48> H -3.0169589075 -3.9243974879 -0.274637045
| 49> H -2.9568937324 -2.9491684173 1.2069515522
| 50> H -3.6671923358 -2.2782913333 -0.2693440108
| 51> *
| 52>
| 53>                          ****END OF INPUT****

CARTESIAN COORDINATES (ANGSTROEM)
---------------------------------
  C      2.393248   -2.702475   -1.788127
  C      3.544019   -2.215964   -0.934265
  O      3.551393   -0.775038   -0.783507
  P      2.423591    0.093639   -0.106376
  S      3.099491    1.809234    0.541885
  O      1.834804   -0.884341    1.006044
  C      1.369354   -0.468281    2.301804
  C      2.153716   -1.208710    3.366893
  S      0.932919    0.243891   -1.629511
  C      0.181083    1.795533   -1.089974
  S     -0.650941    1.662484    0.516944
  P     -2.058511    0.191009   -0.059196
  S     -2.788447    0.300186   -1.878264
  O     -3.136442    0.211825    1.107371
  C     -4.312447    1.037856    1.059005
  C     -3.979793    2.511639    1.172023
  O     -1.237982   -1.116593    0.304607
  C     -1.526762   -2.395094   -0.297631
  C     -2.881834   -2.923437    0.122976
  H      2.397523   -2.202267   -2.753599
  H      2.486867   -3.773486   -1.938168
  H      1.446325   -2.493485   -1.293819
  H      4.508398   -2.419857   -1.401801
  H      3.508941   -2.663682    0.060825
  H      1.501420    0.614366    2.401162
  H      0.304240   -0.708048    2.344226
  H      2.049546   -2.281835    3.234329
  H      3.206485   -0.942794    3.304631
  H      1.774228   -0.928755    4.344162
  H     -0.542900    2.068950   -1.856585
  H      0.950988    2.558084   -0.974505
  H     -4.839212    0.834529    0.121100
  H     -4.909736    0.693485    1.904233
  H     -4.898965    3.083153    1.251729
  H     -3.362502    2.694487    2.048063
  H     -3.435964    2.840289    0.287224
  H     -1.472487   -2.284246   -1.385582
  H     -0.716940   -3.037559    0.051996
  H     -3.016959   -3.924397   -0.274637
  H     -2.956894   -2.949168    1.206952
  H     -3.667192   -2.278291   -0.269344

 Total Charge           Charge          ....    0
 Multiplicity           Mult            ....    1
 Number of Electrons    NEL             ....  202
 Basis Dimension        Dim             ....  539

ORBITAL ENERGIES
----------------

  NO   OCC          E(Eh)            E(eV)
   0   2.0000     -88.577564     -2410.3181
   1   2.0000     -88.575231     -2410.2546
   2   2.0000     -88.529076     -2408.9986
   3   2.0000     -88.528568     -2408.9848
   4   2.0000     -76.920904     -2093.1242
   5   2.0000     -76.918650     -2093.0629
   6   2.0000     -18.995693      -516.8991
   7   2.0000     -18.995120      -516.8835
   8   2.0000     -18.992966      -516.8249
   9   2.0000     -18.990748      -516.7645
  10   2.0000     -10.102701      -274.9085
  11   2.0000     -10.093421      -274.6559
  12   2.0000     -10.089803      -274.5575
  13   2.0000     -10.088843      -274.5314
  14   2.0000     -10.086376      -274.4643
  15   2.0000     -10.021769      -272.7062
  16   2.0000     -10.018598      -272.6199
  17   2.0000     -10.018354      -272.6133
  18   2.0000     -10.017288      -272.5843
  19   2.0000      -7.872018      -214.2085
  20   2.0000      -7.869494      -214.1398
  21   2.0000      -7.824065      -212.9036
  22   2.0000      -7.823863      -212.8981
  23   2.0000      -6.598963      -179.5669
  24   2.0000      -6.597273      -179.5209
  25   2.0000      -5.818858      -158.3392
  26   2.0000      -5.816519      -158.2755
  27   2.0000      -5.815947      -158.2600
  28   2.0000      -5.813275      -158.1873
  29   2.0000      -5.809093      -158.0735
  30   2.0000      -5.806562      -158.0046
  31   2.0000      -5.771621      -157.0538
  32   2.0000      -5.771456      -157.0493
  33   2.0000      -5.764347      -156.8559
  34   2.0000      -5.764122      -156.8497
  35   2.0000      -5.764056      -156.8479
  36   2.0000      -5.763906      -156.8439
  37   2.0000      -4.744887      -129.1149
  38   2.0000      -4.743520      -129.0777
  39   2.0000      -4.742772      -129.0574
  40   2.0000      -4.742593      -129.0525
  41   2.0000      -4.742154      -129.0406
  42   2.0000      -4.741233      -129.0155
  43   2.0000      -1.052510       -28.6403
  44   2.0000      -1.051629       -28.6163
  45   2.0000      -1.012432       -27.5497
  46   2.0000      -1.010184       -27.4885
  47   2.0000      -0.803015       -21.8511
  48   2.0000      -0.756160       -20.5761
  49   2.0000      -0.743948       -20.2438
  50   2.0000      -0.727400       -19.7936
  51   2.0000      -0.723103       -19.6766
  52   2.0000      -0.709025       -19.2935
  53   2.0000      -0.689657       -18.7665
  54   2.0000      -0.674377       -18.3507
  55   2.0000      -0.632410       -17.2088
  56   2.0000      -0.621411       -16.9094
  57   2.0000      -0.601794       -16.3757
  58   2.0000      -0.598952       -16.2983
  59   2.0000      -0.589321       -16.0362
  60   2.0000      -0.523805       -14.2535
  61   2.0000      -0.512717       -13.9517
  62   2.0000      -0.491216       -13.3667
  63   2.0000      -0.489486       -13.3196
  64   2.0000      -0.473659       -12.8889
  65   2.0000      -0.461108       -12.5474
  66   2.0000      -0.454994       -12.3810
  67   2.0000      -0.453585       -12.3427
  68   2.0000      -0.438701       -11.9377
  69   2.0000      -0.431992       -11.7551
  70   2.0000      -0.422020       -11.4837
  71   2.0000      -0.408175       -11.1070
  72   2.0000      -0.407461       -11.0876
  73   2.0000      -0.400842       -10.9075
  74   2.0000      -0.392126       -10.6703
  75   2.0000      -0.389191       -10.5904
  76   2.0000      -0.384097       -10.4518
  77   2.0000      -0.370552       -10.0832
  78   2.0000      -0.364269        -9.9123
  79   2.0000      -0.359675        -9.7873
  80   2.0000      -0.358114        -9.7448
  81   2.0000      -0.354076        -9.6349
  82   2.0000      -0.350964        -9.5502
  83   2.0000      -0.346745        -9.4354
  84   2.0000      -0.344352        -9.3703
  85   2.0000      -0.332315        -9.0428
  86   2.0000      -0.318676        -8.6716
  87   2.0000      -0.307991        -8.3809
  88   2.0000      -0.304619        -8.2891
  89   2.0000      -0.303828        -8.2676
  90   2.0000      -0.297650        -8.0995
  91   2.0000      -0.290974        -7.9178
  92   2.0000      -0.284459        -7.7405
  93   2.0000      -0.279533        -7.6065
  94   2.0000      -0.272446        -7.4136
  95   2.0000      -0.249901        -6.8002
  96   2.0000      -0.236857        -6.4452
  97   2.0000      -0.234495        -6.3809
  98   2.0000      -0.227900        -6.2015
  99   2.0000      -0.222499        -6.0545
 100   2.0000      -0.217192        -5.9101
 101   0.0000      -0.051671        -1.4060
 102   0.0000      -0.031415        -0.8549
 103   0.0000      -0.005801        -0.1579
 104   0.0000      -0.001913        -0.0520
 105   0.0000       0.010165         0.2766

MULLIKEN ATOMIC CHARGES
-----------------------
   0 C :   -0.531503
   1 C :   -0.104025
   2 O :   -0.319584
   3 P :    0.667881
   4 S :   -0.517438
   5 O :   -0.291364
   6 C :   -0.088310
   7 C :   -0.528393
   8 S :   -0.154040
   9 C :   -0.242562
  10 S :   -0.139661
  11 P :    0.714294
  12 S :   -0.522577
  13 O :   -0.327934
  14 C :   -0.152502
  15 C :   -0.485634
  16 O :   -0.280229
  17 C :   -0.153248
  18 C :   -0.495060
  19 H :    0.178460
  20 H :    0.180813
  21 H :    0.177225
  22 H :    0.175750
  23 H :    0.178389
  24 H :    0.174053
  25 H :    0.176268
  26 H :    0.167450
  27 H :    0.166472
  28 H :    0.169168
  29 H :    0.236354
  30 H :    0.228713
  31 H :    0.178158
  32 H :    0.175601
  33 H :    0.173017
  34 H :    0.169165
  35 H :    0.172726
  36 H :    0.180952
  37 H :    0.180280
  38 H :    0.172366
  39 H :    0.170719
  40 H :    0.169790
Sum of atomic charges:   -0.0000000

LOEWDIN ATOMIC CHARGES
----------------------
   0 C :   -0.406897
   1 C :    0.039814
   2 O :   -0.670933
   3 P :    0.389926
   4 S :   -0.149350
   5 O :   -0.677813
   6 C :    0.010151
   7 C :   -0.394555
   8 S :    0.146107
   9 C :   -0.419395
  10 S :    0.166179
  11 P :    0.386157
  12 S :   -0.153457
  13 O :   -0.672584
  14 C :    0.025469
  15 C :   -0.409880
  16 O :   -0.695330
  17 C :    0.019492
  18 C :   -0.403135
  19 H :    0.165206
  20 H :    0.172300
  21 H :    0.165299
  22 H :    0.193171
  23 H :    0.184010
  24 H :    0.182830
  25 H :    0.185647
  26 H :    0.162582
  27 H :    0.162041
  28 H :    0.167915
  29 H :    0.196409
  30 H :    0.196913
  31 H :    0.181601
  32 H :    0.191035
  33 H :    0.168395
  34 H :    0.163566
  35 H :    0.161538
  36 H :    0.182326
  37 H :    0.191090
  38 H :    0.168779
  39 H :    0.164333
  40 H :    0.163043

  Mayer bond orders larger than 0.100000
B(  0-C ,  1-C ) :   0.8913 B(  0-C , 19-H ) :   0.9660 B(  0-C , 20-H ) :   0.9482
B(  0-C , 21-H ) :   0.9614 B(  1-C ,  2-O ) :   0.7891 B(  1-C , 22-H ) :   0.9457
B(  1-C , 23-H ) :   0.9665 B(  2-O ,  3-P ) :   1.1634 B(  3-P ,  4-S ) :   1.8063
B(  3-P ,  5-O ) :   1.0374 B(  3-P ,  8-S ) :   1.0229 B(  5-O ,  6-C ) :   0.7156
B(  6-C ,  7-C ) :   0.9380 B(  6-C , 24-H ) :   0.9473 B(  6-C , 25-H ) :   0.9416
B(  7-C , 26-H ) :   0.9740 B(  7-C , 27-H ) :   0.9718 B(  7-C , 28-H ) :   0.9611
B(  8-S ,  9-C ) :   0.8830 B(  9-C , 10-S ) :   0.8797 B(  9-C , 29-H ) :   0.9075
B(  9-C , 30-H ) :   0.9045 B( 10-S , 11-P ) :   1.0956 B( 11-P , 12-S ) :   1.7083
B( 11-P , 13-O ) :   1.0757 B( 11-P , 16-O ) :   1.1452 B( 13-O , 14-C ) :   0.8005
B( 14-C , 15-C ) :   0.9099 B( 14-C , 31-H ) :   0.9659 B( 14-C , 32-H ) :   0.9482
B( 15-C , 33-H ) :   0.9535 B( 15-C , 34-H ) :   0.9656 B( 15-C , 35-H ) :   0.9638
B( 16-O , 17-C ) :   0.7760 B( 17-C , 18-C ) :   0.9101 B( 17-C , 36-H ) :   0.9582
B( 17-C , 37-H ) :   0.9493 B( 18-C , 38-H ) :   0.9556 B( 18-C , 39-H ) :   0.9716
B( 18-C , 40-H ) :   0.9597

Dispersion correction           -0.022270358
FINAL SINGLE POINT ENERGY     -2932.471412765837

DIPOLE MOMENT
-------------

Method             : SCF
Type of density    : Electron Density
Multiplicity       :   1
Irrep              :   0
Energy             : -2932.4956335998758732 Eh
Relativity type    :
Basis              : AO
                                X                 Y                 Z
Electronic contribution:      8.133254966      14.685535251      -8.979373227
Nuclear contribution   :     -9.414378535     -16.827060020      10.011838567
                        -----------------------------------------
Total Dipole Moment    :     -1.281123569      -2.141524769       1.032465341
                        -----------------------------------------
Magnitude (a.u.)       :      2.700627818
Magnitude (Debye)      :      6.864450387

Rotational constants in cm-1:             0.011660             0.005566             0.005176
Rotational constants in MHz :           349.558196           166.866569           155.160299

                             ****ORCA TERMINATED NORMALLY****
TOTAL RUN TIME: 0 days 0 hours 1 minutes 54 seconds 872 msec
