                         Program Version 6.0.0  -   RELEASE  -
|  1> ! pbe def2-sv(p) def2/J RI DEFGRID1 loosescf d4 GCP(DFT/SV(P)) printgap
|  2> %output
|  3>     printlevel normal
|  4> end
|  5> * xyz 0 1
|  6> C 0.7856596944 -2.848808268 1.4670747683
|  7> C 1.6748987307 -1.7332367911 1.9788159931
|  8> O 1.3381537587 -0.482508572 1.3350801196
|  9> P 2.1882470942 0.1241225462 0.1494248832
| 10> S 3.0992249914 -1.1352765691 -1.0507891847
| 11> O 3.1714574622 1.0799078999 0.9557823082
| 12> C 4.252521366 1.7831826 0.3103791657
| 13> C 5.2575580626 2.1730205746 1.3754298114
| 14> S 0.8257462221 1.4721550151 -0.7265833635
| 15> C 0.1916599491 0.3647926316 -2.0139870289
| 16> S -0.6339908 -1.1029567255 -1.3419983968
| 17> P -2.1689667966 -0.1008600811 -0.3025789203
| 18> S -2.8805705079 1.5398542491 -1.1137350749
| 19> O -1.5630146266 0.0065923538 1.1525851676
| 20> C -2.05294053 0.9477509562 2.1356571058
| 21> C -1.1263628937 2.1433939165 2.2313006764
| 22> O -3.2578126538 -1.2392394725 -0.0811326731
| 23> C -4.195400527 -1.614003817 -1.1107271397
| 24> C -5.3871098934 -2.2699058941 -0.4427123189
| 25> H -0.259726993 -2.5645654818 1.5619415397
| 26> H 0.9969181969 -3.0482215385 0.4183161006
| 27> H 0.9704117099 -3.7485166154 2.0451318221
| 28> H 2.7292020883 -1.9603417567 1.7977241572
| 29> H 1.514896134 -1.5493278113 3.0422826923
| 30> H 4.698539569 1.1222751902 -0.4405978754
| 31> H 3.835871211 2.6625025443 -0.1876546837
| 32> H 5.6570048851 1.284699838 1.8565695052
| 33> H 6.0688240392 2.72560378 0.9131701382
| 34> H 4.7787895217 2.7952247641 2.1259204045
| 35> H 1.0158104743 -0.0010972801 -2.6253671716
| 36> H -0.5149869899 0.9504085354 -2.600888037
| 37> H -3.0655836748 1.2591667899 1.8644995111
| 38> H -2.0782475152 0.384805263 3.069959472
| 39> H -1.1538220826 2.7164255755 1.3065406459
| 40> H -1.4428050407 2.7776466211 3.0530985921
| 41> H -0.1053933166 1.8100564334 2.402180459
| 42> H -4.4891028312 -0.7128305461 -1.6597128836
| 43> H -3.6906040208 -2.3021852714 -1.7935181779
| 44> H -6.0935489818 -2.5829657756 -1.2043733165
| 45> H -5.0623529524 -3.1361520821 0.1262565743
| 46> H -5.8726169844 -1.5682337975 0.2297389854
| 47> *
| 48>
| 49>                          ****END OF INPUT****

CARTESIAN COORDINATES (ANGSTROEM)
---------------------------------
  C      0.785660   -2.848808    1.467075
  C      1.674899   -1.733237    1.978816
  O      1.338154   -0.482509    1.335080
  P      2.188247    0.124123    0.149425
  S      3.099225   -1.135277   -1.050789
  O      3.171457    1.079908    0.955782
  C      4.252521    1.783183    0.310379
  C      5.257558    2.173021    1.375430
  S      0.825746    1.472155   -0.726583
  C      0.191660    0.364793   -2.013987
  S     -0.633991   -1.102957   -1.341998
  P     -2.168967   -0.100860   -0.302579
  S     -2.880571    1.539854   -1.113735
  O     -1.563015    0.006592    1.152585
  C     -2.052941    0.947751    2.135657
  C     -1.126363    2.143394    2.231301
  O     -3.257813   -1.239239   -0.081133
  C     -4.195401   -1.614004   -1.110727
  C     -5.387110   -2.269906   -0.442712
  H     -0.259727   -2.564565    1.561942
  H      0.996918   -3.048222    0.418316
  H      0.970412   -3.748517    2.045132
  H      2.729202   -1.960342    1.797724
  H      1.514896   -1.549328    3.042283
  H      4.698540    1.122275   -0.440598
  H      3.835871    2.662503   -0.187655
  H      5.657005    1.284700    1.856570
  H      6.068824    2.725604    0.913170
  H      4.778790    2.795225    2.125920
  H      1.015810   -0.001097   -2.625367
  H     -0.514987    0.950409   -2.600888
  H     -3.065584    1.259167    1.864500
  H     -2.078248    0.384805    3.069959
  H     -1.153822    2.716426    1.306541
  H     -1.442805    2.777647    3.053099
  H     -0.105393    1.810056    2.402180
  H     -4.489103   -0.712831   -1.659713
  H     -3.690604   -2.302185   -1.793518
  H     -6.093549   -2.582966   -1.204373
  H     -5.062353   -3.136152    0.126257
  H     -5.872617   -1.568234    0.229739

 Total Charge           Charge          ....    0
 Multiplicity           Mult            ....    1
 Number of Electrons    NEL             ....  202
 Basis Dimension        Dim             ....  334

ORBITAL ENERGIES
----------------

  NO   OCC          E(Eh)            E(eV)
   0   2.0000     -88.043012     -2395.7722
   1   2.0000     -88.042932     -2395.7700
   2   2.0000     -87.987517     -2394.2620
   3   2.0000     -87.987423     -2394.2595
   4   2.0000     -76.425542     -2079.6447
   5   2.0000     -76.425457     -2079.6424
   6   2.0000     -18.792380      -511.3667
   7   2.0000     -18.792330      -511.3653
   8   2.0000     -18.787654      -511.2381
   9   2.0000     -18.787599      -511.2366
  10   2.0000      -9.955230      -270.8956
  11   2.0000      -9.951500      -270.7941
  12   2.0000      -9.951476      -270.7934
  13   2.0000      -9.950747      -270.7736
  14   2.0000      -9.950616      -270.7700
  15   2.0000      -9.888002      -269.0662
  16   2.0000      -9.887942      -269.0646
  17   2.0000      -9.875477      -268.7254
  18   2.0000      -9.875313      -268.7209
  19   2.0000      -7.688034      -209.2020
  20   2.0000      -7.687981      -209.2006
  21   2.0000      -7.632501      -207.6909
  22   2.0000      -7.632400      -207.6882
  23   2.0000      -6.423188      -174.7838
  24   2.0000      -6.423111      -174.7817
  25   2.0000      -5.715910      -155.5378
  26   2.0000      -5.715836      -155.5358
  27   2.0000      -5.712581      -155.4472
  28   2.0000      -5.712551      -155.4464
  29   2.0000      -5.704920      -155.2388
  30   2.0000      -5.704860      -155.2371
  31   2.0000      -5.661306      -154.0520
  32   2.0000      -5.661190      -154.0488
  33   2.0000      -5.653197      -153.8313
  34   2.0000      -5.653112      -153.8290
  35   2.0000      -5.652713      -153.8181
  36   2.0000      -5.652614      -153.8155
  37   2.0000      -4.645603      -126.4133
  38   2.0000      -4.645523      -126.4111
  39   2.0000      -4.644950      -126.3955
  40   2.0000      -4.644888      -126.3938
  41   2.0000      -4.643761      -126.3632
  42   2.0000      -4.643681      -126.3610
  43   2.0000      -0.985737       -26.8233
  44   2.0000      -0.984595       -26.7922
  45   2.0000      -0.943660       -25.6783
  46   2.0000      -0.942422       -25.6446
  47   2.0000      -0.766436       -20.8558
  48   2.0000      -0.722662       -19.6646
  49   2.0000      -0.709310       -19.3013
  50   2.0000      -0.685914       -18.6647
  51   2.0000      -0.684373       -18.6227
  52   2.0000      -0.671412       -18.2701
  53   2.0000      -0.648022       -17.6336
  54   2.0000      -0.638893       -17.3852
  55   2.0000      -0.597843       -16.2681
  56   2.0000      -0.587581       -15.9889
  57   2.0000      -0.570004       -15.5106
  58   2.0000      -0.565768       -15.3953
  59   2.0000      -0.556762       -15.1503
  60   2.0000      -0.508101       -13.8261
  61   2.0000      -0.504748       -13.7349
  62   2.0000      -0.475552       -12.9404
  63   2.0000      -0.473625       -12.8880
  64   2.0000      -0.458609       -12.4794
  65   2.0000      -0.442337       -12.0366
  66   2.0000      -0.437255       -11.8983
  67   2.0000      -0.433266       -11.7898
  68   2.0000      -0.430324       -11.7097
  69   2.0000      -0.416185       -11.3250
  70   2.0000      -0.404759       -11.0141
  71   2.0000      -0.388187       -10.5631
  72   2.0000      -0.382634       -10.4120
  73   2.0000      -0.381095       -10.3701
  74   2.0000      -0.380072       -10.3423
  75   2.0000      -0.377090       -10.2611
  76   2.0000      -0.372128       -10.1261
  77   2.0000      -0.354128        -9.6363
  78   2.0000      -0.353161        -9.6100
  79   2.0000      -0.350788        -9.5454
  80   2.0000      -0.345478        -9.4009
  81   2.0000      -0.344404        -9.3717
  82   2.0000      -0.339194        -9.2299
  83   2.0000      -0.337202        -9.1757
  84   2.0000      -0.334385        -9.0991
  85   2.0000      -0.315833        -8.5943
  86   2.0000      -0.301475        -8.2036
  87   2.0000      -0.299886        -8.1603
  88   2.0000      -0.299119        -8.1394
  89   2.0000      -0.292338        -7.9549
  90   2.0000      -0.280994        -7.6462
  91   2.0000      -0.280052        -7.6206
  92   2.0000      -0.266955        -7.2642
  93   2.0000      -0.263136        -7.1603
  94   2.0000      -0.259709        -7.0670
  95   2.0000      -0.232881        -6.3370
  96   2.0000      -0.218803        -5.9539
  97   2.0000      -0.213947        -5.8218
  98   2.0000      -0.206477        -5.6185
  99   2.0000      -0.200120        -5.4455
 100   2.0000      -0.199768        -5.4360
 101   0.0000      -0.045795        -1.2462
 102   0.0000      -0.025298        -0.6884
 103   0.0000       0.002625         0.0714
 104   0.0000       0.004179         0.1137
 105   0.0000       0.006402         0.1742

MULLIKEN ATOMIC CHARGES
-----------------------
   0 C :   -0.294480
   1 C :   -0.001869
   2 O :   -0.356429
   3 P :    0.620918
   4 S :   -0.340208
   5 O :   -0.379617
   6 C :   -0.011326
   7 C :   -0.280166
   8 S :   -0.079313
   9 C :   -0.358547
  10 S :   -0.079303
  11 P :    0.620356
  12 S :   -0.339930
  13 O :   -0.356210
  14 C :   -0.001306
  15 C :   -0.295318
  16 O :   -0.379441
  17 C :   -0.010764
  18 C :   -0.280666
  19 H :    0.119581
  20 H :    0.128367
  21 H :    0.103243
  22 H :    0.102821
  23 H :    0.102513
  24 H :    0.105873
  25 H :    0.101775
  26 H :    0.117596
  27 H :    0.112152
  28 H :    0.116459
  29 H :    0.191367
  30 H :    0.191464
  31 H :    0.102557
  32 H :    0.102598
  33 H :    0.128785
  34 H :    0.103288
  35 H :    0.119725
  36 H :    0.105669
  37 H :    0.101755
  38 H :    0.112159
  39 H :    0.116466
  40 H :    0.117404
Sum of atomic charges:   -0.0000000

LOEWDIN ATOMIC CHARGES
----------------------
   0 C :   -0.363406
   1 C :   -0.110022
   2 O :   -0.232599
   3 P :    0.567003
   4 S :   -0.328950
   5 O :   -0.252323
   6 C :   -0.121285
   7 C :   -0.350419
   8 S :    0.099634
   9 C :   -0.479050
  10 S :    0.099363
  11 P :    0.566818
  12 S :   -0.328796
  13 O :   -0.232578
  14 C :   -0.109866
  15 C :   -0.363480
  16 O :   -0.252354
  17 C :   -0.121252
  18 C :   -0.350503
  19 H :    0.123389
  20 H :    0.123139
  21 H :    0.125727
  22 H :    0.108364
  23 H :    0.116937
  24 H :    0.107436
  25 H :    0.110098
  26 H :    0.127645
  27 H :    0.130890
  28 H :    0.126729
  29 H :    0.131438
  30 H :    0.131562
  31 H :    0.108348
  32 H :    0.116956
  33 H :    0.123403
  34 H :    0.125768
  35 H :    0.123481
  36 H :    0.107165
  37 H :    0.110453
  38 H :    0.130870
  39 H :    0.126686
  40 H :    0.127579

  Mayer bond orders larger than 0.100000
B(  0-C ,  1-C ) :   1.1726 B(  0-C , 19-H ) :   0.9420 B(  0-C , 20-H ) :   0.9375
B(  0-C , 21-H ) :   0.9388 B(  1-C ,  2-O ) :   0.8928 B(  1-C , 22-H ) :   0.9138
B(  1-C , 23-H ) :   0.9336 B(  2-O ,  3-P ) :   1.1358 B(  3-P ,  4-S ) :   1.5924
B(  3-P ,  5-O ) :   1.1066 B(  3-P ,  8-S ) :   0.9653 B(  4-S ,  8-S ) :   0.1085
B(  5-O ,  6-C ) :   0.9064 B(  6-C ,  7-C ) :   1.1610 B(  6-C , 24-H ) :   0.9083
B(  6-C , 25-H ) :   0.9292 B(  7-C , 26-H ) :   0.9512 B(  7-C , 27-H ) :   0.9421
B(  7-C , 28-H ) :   0.9508 B(  8-S ,  9-C ) :   1.0057 B(  9-C , 10-S ) :   1.0047
B(  9-C , 29-H ) :   0.8849 B(  9-C , 30-H ) :   0.8855 B( 10-S , 11-P ) :   0.9656
B( 10-S , 12-S ) :   0.1088 B( 11-P , 12-S ) :   1.5919 B( 11-P , 13-O ) :   1.1362
B( 11-P , 16-O ) :   1.1068 B( 13-O , 14-C ) :   0.8926 B( 14-C , 15-C ) :   1.1729
B( 14-C , 31-H ) :   0.9139 B( 14-C , 32-H ) :   0.9336 B( 15-C , 33-H ) :   0.9374
B( 15-C , 34-H ) :   0.9389 B( 15-C , 35-H ) :   0.9419 B( 16-O , 17-C ) :   0.9065
B( 17-C , 18-C ) :   1.1612 B( 17-C , 36-H ) :   0.9073 B( 17-C , 37-H ) :   0.9297
B( 18-C , 38-H ) :   0.9420 B( 18-C , 39-H ) :   0.9508 B( 18-C , 40-H ) :   0.9512

Dispersion correction           -0.065635949
FINAL SINGLE POINT ENERGY     -2929.528717518216

DIPOLE MOMENT
-------------

Method             : SCF
Type of density    : Electron Density
Multiplicity       :   1
Irrep              :   0
Energy             : -2929.6467031814390793 Eh
Relativity type    :
Basis              : AO
                                X                 Y                 Z
Electronic contribution:      1.405768541       2.414630590     -13.787660668
Nuclear contribution   :     -1.499631981      -2.572167356      14.664348809
                        -----------------------------------------
Total Dipole Moment    :     -0.093863440      -0.157536766       0.876688141
                        -----------------------------------------
Magnitude (a.u.)       :      0.895661920
Magnitude (Debye)      :      2.276591677

Rotational constants in cm-1:             0.013477             0.004902             0.004655
Rotational constants in MHz :           404.023114           146.952008           139.567866

                             ****ORCA TERMINATED NORMALLY****
TOTAL RUN TIME: 0 days 0 hours 0 minutes 21 seconds 48 msec
