                         Program Version 6.0.0  -   RELEASE  -
|  1> ! pbe def2-sv(p) def2/J RI DEFGRID1 loosescf d4 GCP(DFT/SV(P)) printgap
|  2> %output
|  3>     printlevel normal
|  4> end
|  5> * xyz 0 1
|  6> C 3.149336346 0.9057956314 3.1571352322
|  7> C 2.6017310859 1.7306655348 2.0121341143
|  8> O 1.7538854623 0.9537910736 1.1306681238
|  9> P 2.2498740342 -0.3122994212 0.3211950475
| 10> S 2.3791991555 -2.0328615742 1.2636778577
| 11> O 3.615647454 0.2132443867 -0.2952657891
| 12> C 4.5341041761 -0.6648947596 -0.9754912374
| 13> C 5.9309607396 -0.0969574084 -0.8221794769
| 14> S 0.8967536006 -0.3108016617 -1.3122215091
| 15> C -0.2731003164 -1.5224735102 -0.6448464606
| 16> S -1.358781922 -0.8217532843 0.6109474566
| 17> P -2.5528992569 0.3394793284 -0.7337609212
| 18> S -2.7870892377 -0.4738147542 -2.5008647548
| 19> O -1.9004229171 1.7634456108 -0.9139274912
| 20> C -1.9519197616 2.8656413333 0.024125253
| 21> C -1.3485396114 2.5230893624 1.3699996237
| 22> O -3.8476379369 0.684533119 0.1181961749
| 23> C -4.6380081496 -0.2681805174 0.8539742187
| 24> C -5.1402550802 -1.4063498939 -0.0087175716
| 25> H 2.3376072355 0.4346005869 3.7063490905
| 26> H 3.8059460998 0.1239612584 2.7778911538
| 27> H 3.7126403397 1.5481124681 3.826725438
| 28> H 3.4083059534 2.1614110171 1.4157441379
| 29> H 1.940241311 2.5207388001 2.371550981
| 30> H 4.4574919088 -1.663570571 -0.5318878475
| 31> H 4.2351939628 -0.7142498604 -2.0253504605
| 32> H 6.211358241 -0.0651754933 0.2270562706
| 33> H 6.630861393 -0.7289312423 -1.3587852135
| 34> H 5.9701076153 0.9089965783 -1.2299396736
| 35> H 0.2784357393 -2.3364448762 -0.1722709819
| 36> H -0.8722759298 -1.8728089857 -1.4863615115
| 37> H -1.3820999323 3.6458791449 -0.4832955204
| 38> H -2.9943597044 3.1724966926 0.1278407172
| 39> H -1.3051394184 3.4223916372 1.9766505347
| 40> H -1.9538673322 1.7782998032 1.8830853629
| 41> H -0.3445018622 2.125945071 1.2415110593
| 42> H -4.0314489062 -0.6495531028 1.6801742588
| 43> H -5.4628043642 0.3316401861 1.2430335038
| 44> H -4.3032613943 -2.0018022324 -0.3702441426
| 45> H -5.7980020379 -2.0397405763 0.577656648
| 46> H -5.6819966491 -1.0208650853 -0.8690753735
| 47> *
| 48>
| 49>                          ****END OF INPUT****

CARTESIAN COORDINATES (ANGSTROEM)
---------------------------------
  C      3.149336    0.905796    3.157135
  C      2.601731    1.730666    2.012134
  O      1.753885    0.953791    1.130668
  P      2.249874   -0.312299    0.321195
  S      2.379199   -2.032862    1.263678
  O      3.615647    0.213244   -0.295266
  C      4.534104   -0.664895   -0.975491
  C      5.930961   -0.096957   -0.822179
  S      0.896754   -0.310802   -1.312222
  C     -0.273100   -1.522474   -0.644846
  S     -1.358782   -0.821753    0.610947
  P     -2.552899    0.339479   -0.733761
  S     -2.787089   -0.473815   -2.500865
  O     -1.900423    1.763446   -0.913927
  C     -1.951920    2.865641    0.024125
  C     -1.348540    2.523089    1.370000
  O     -3.847638    0.684533    0.118196
  C     -4.638008   -0.268181    0.853974
  C     -5.140255   -1.406350   -0.008718
  H      2.337607    0.434601    3.706349
  H      3.805946    0.123961    2.777891
  H      3.712640    1.548112    3.826725
  H      3.408306    2.161411    1.415744
  H      1.940241    2.520739    2.371551
  H      4.457492   -1.663571   -0.531888
  H      4.235194   -0.714250   -2.025350
  H      6.211358   -0.065175    0.227056
  H      6.630861   -0.728931   -1.358785
  H      5.970108    0.908997   -1.229940
  H      0.278436   -2.336445   -0.172271
  H     -0.872276   -1.872809   -1.486362
  H     -1.382100    3.645879   -0.483296
  H     -2.994360    3.172497    0.127841
  H     -1.305139    3.422392    1.976651
  H     -1.953867    1.778300    1.883085
  H     -0.344502    2.125945    1.241511
  H     -4.031449   -0.649553    1.680174
  H     -5.462804    0.331640    1.243034
  H     -4.303261   -2.001802   -0.370244
  H     -5.798002   -2.039741    0.577657
  H     -5.681997   -1.020865   -0.869075

 Total Charge           Charge          ....    0
 Multiplicity           Mult            ....    1
 Number of Electrons    NEL             ....  202
 Basis Dimension        Dim             ....  334

ORBITAL ENERGIES
----------------

  NO   OCC          E(Eh)            E(eV)
   0   2.0000     -88.038308     -2395.6441
   1   2.0000     -88.037918     -2395.6335
   2   2.0000     -87.988765     -2394.2960
   3   2.0000     -87.977544     -2393.9907
   4   2.0000     -76.428593     -2079.7278
   5   2.0000     -76.423841     -2079.5984
   6   2.0000     -18.800025      -511.5747
   7   2.0000     -18.796450      -511.4774
   8   2.0000     -18.795151      -511.4421
   9   2.0000     -18.784554      -511.1537
  10   2.0000      -9.960286      -271.0332
  11   2.0000      -9.959125      -271.0016
  12   2.0000      -9.956177      -270.9213
  13   2.0000      -9.952304      -270.8160
  14   2.0000      -9.945490      -270.6305
  15   2.0000      -9.892544      -269.1898
  16   2.0000      -9.887285      -269.0467
  17   2.0000      -9.883191      -268.9353
  18   2.0000      -9.881962      -268.9019
  19   2.0000      -7.683168      -209.0696
  20   2.0000      -7.683050      -209.0664
  21   2.0000      -7.633760      -207.7252
  22   2.0000      -7.622911      -207.4300
  23   2.0000      -6.426310      -174.8688
  24   2.0000      -6.420783      -174.7184
  25   2.0000      -5.711014      -155.4046
  26   2.0000      -5.710672      -155.3953
  27   2.0000      -5.707811      -155.3174
  28   2.0000      -5.707664      -155.3134
  29   2.0000      -5.700250      -155.1117
  30   2.0000      -5.700043      -155.1061
  31   2.0000      -5.662508      -154.0847
  32   2.0000      -5.654505      -153.8669
  33   2.0000      -5.653974      -153.8525
  34   2.0000      -5.651963      -153.7977
  35   2.0000      -5.643452      -153.5661
  36   2.0000      -5.642954      -153.5526
  37   2.0000      -4.649280      -126.5133
  38   2.0000      -4.647835      -126.4740
  39   2.0000      -4.646586      -126.4400
  40   2.0000      -4.643896      -126.3668
  41   2.0000      -4.642585      -126.3312
  42   2.0000      -4.640797      -126.2825
  43   2.0000      -0.993147       -27.0249
  44   2.0000      -0.986854       -26.8537
  45   2.0000      -0.949374       -25.8338
  46   2.0000      -0.941398       -25.6167
  47   2.0000      -0.761077       -20.7100
  48   2.0000      -0.722921       -19.6717
  49   2.0000      -0.710464       -19.3327
  50   2.0000      -0.694875       -18.9085
  51   2.0000      -0.690048       -18.7771
  52   2.0000      -0.674880       -18.3644
  53   2.0000      -0.649669       -17.6784
  54   2.0000      -0.634642       -17.2695
  55   2.0000      -0.597321       -16.2539
  56   2.0000      -0.588889       -16.0245
  57   2.0000      -0.580269       -15.7899
  58   2.0000      -0.577325       -15.7098
  59   2.0000      -0.558054       -15.1854
  60   2.0000      -0.509259       -13.8576
  61   2.0000      -0.495607       -13.4861
  62   2.0000      -0.478754       -13.0276
  63   2.0000      -0.468656       -12.7528
  64   2.0000      -0.460283       -12.5249
  65   2.0000      -0.447692       -12.1823
  66   2.0000      -0.443088       -12.0570
  67   2.0000      -0.433676       -11.8009
  68   2.0000      -0.431191       -11.7333
  69   2.0000      -0.416027       -11.3207
  70   2.0000      -0.410455       -11.1690
  71   2.0000      -0.408642       -11.1197
  72   2.0000      -0.401088       -10.9142
  73   2.0000      -0.385392       -10.4871
  74   2.0000      -0.377642       -10.2762
  75   2.0000      -0.373536       -10.1644
  76   2.0000      -0.360062        -9.7978
  77   2.0000      -0.356325        -9.6961
  78   2.0000      -0.353355        -9.6153
  79   2.0000      -0.351527        -9.5655
  80   2.0000      -0.348174        -9.4743
  81   2.0000      -0.344645        -9.3783
  82   2.0000      -0.342096        -9.3089
  83   2.0000      -0.339691        -9.2435
  84   2.0000      -0.333237        -9.0678
  85   2.0000      -0.329089        -8.9550
  86   2.0000      -0.312724        -8.5096
  87   2.0000      -0.304887        -8.2964
  88   2.0000      -0.296829        -8.0771
  89   2.0000      -0.295096        -8.0300
  90   2.0000      -0.287109        -7.8126
  91   2.0000      -0.278927        -7.5900
  92   2.0000      -0.275103        -7.4859
  93   2.0000      -0.263811        -7.1787
  94   2.0000      -0.254332        -6.9207
  95   2.0000      -0.233258        -6.3473
  96   2.0000      -0.215711        -5.8698
  97   2.0000      -0.211526        -5.7559
  98   2.0000      -0.199484        -5.4282
  99   2.0000      -0.195693        -5.3251
 100   2.0000      -0.191861        -5.2208
 101   0.0000      -0.043352        -1.1797
 102   0.0000      -0.023435        -0.6377
 103   0.0000      -0.002575        -0.0701
 104   0.0000      -0.001109        -0.0302
 105   0.0000       0.014496         0.3945

MULLIKEN ATOMIC CHARGES
-----------------------
   0 C :   -0.314812
   1 C :   -0.000995
   2 O :   -0.363488
   3 P :    0.629582
   4 S :   -0.335196
   5 O :   -0.389131
   6 C :   -0.009597
   7 C :   -0.286069
   8 S :   -0.066183
   9 C :   -0.378788
  10 S :   -0.104638
  11 P :    0.612265
  12 S :   -0.315791
  13 O :   -0.353916
  14 C :    0.013105
  15 C :   -0.362309
  16 O :   -0.386116
  17 C :   -0.010664
  18 C :   -0.306623
  19 H :    0.126498
  20 H :    0.128589
  21 H :    0.110612
  22 H :    0.111988
  23 H :    0.104868
  24 H :    0.109327
  25 H :    0.107422
  26 H :    0.117278
  27 H :    0.115181
  28 H :    0.117258
  29 H :    0.195900
  30 H :    0.196188
  31 H :    0.107285
  32 H :    0.107207
  33 H :    0.107019
  34 H :    0.115756
  35 H :    0.166280
  36 H :    0.113637
  37 H :    0.107491
  38 H :    0.126487
  39 H :    0.110708
  40 H :    0.126385
Sum of atomic charges:   -0.0000000

LOEWDIN ATOMIC CHARGES
----------------------
   0 C :   -0.367007
   1 C :   -0.109114
   2 O :   -0.239762
   3 P :    0.571789
   4 S :   -0.314550
   5 O :   -0.249230
   6 C :   -0.120143
   7 C :   -0.351220
   8 S :    0.089819
   9 C :   -0.493184
  10 S :    0.071532
  11 P :    0.571430
  12 S :   -0.308757
  13 O :   -0.234496
  14 C :   -0.105873
  15 C :   -0.378606
  16 O :   -0.245860
  17 C :   -0.114718
  18 C :   -0.368329
  19 H :    0.131249
  20 H :    0.121163
  21 H :    0.129570
  22 H :    0.113935
  23 H :    0.117497
  24 H :    0.108311
  25 H :    0.114574
  26 H :    0.126457
  27 H :    0.132604
  28 H :    0.126656
  29 H :    0.125984
  30 H :    0.127191
  31 H :    0.121859
  32 H :    0.113202
  33 H :    0.127610
  34 H :    0.116106
  35 H :    0.131512
  36 H :    0.107946
  37 H :    0.120229
  38 H :    0.122075
  39 H :    0.129982
  40 H :    0.130565

  Mayer bond orders larger than 0.100000
B(  0-C ,  1-C ) :   1.1682 B(  0-C , 19-H ) :   0.9446 B(  0-C , 20-H ) :   0.9342
B(  0-C , 21-H ) :   0.9355 B(  1-C ,  2-O ) :   0.9003 B(  1-C , 22-H ) :   0.9302
B(  1-C , 23-H ) :   0.9308 B(  2-O ,  3-P ) :   1.1185 B(  3-P ,  4-S ) :   1.6136
B(  3-P ,  5-O ) :   1.0866 B(  3-P ,  8-S ) :   0.9685 B(  4-S ,  8-S ) :   0.1208
B(  5-O ,  6-C ) :   0.9003 B(  6-C ,  7-C ) :   1.1605 B(  6-C , 24-H ) :   0.9043
B(  6-C , 25-H ) :   0.9309 B(  7-C , 26-H ) :   0.9513 B(  7-C , 27-H ) :   0.9416
B(  7-C , 28-H ) :   0.9506 B(  8-S ,  9-C ) :   1.0098 B(  9-C , 10-S ) :   1.0098
B(  9-C , 29-H ) :   0.8639 B(  9-C , 30-H ) :   0.8633 B( 10-S , 11-P ) :   0.9305
B( 10-S , 12-S ) :   0.1138 B( 11-P , 12-S ) :   1.6402 B( 11-P , 13-O ) :   1.1398
B( 11-P , 16-O ) :   1.0785 B( 13-O , 14-C ) :   0.9024 B( 14-C , 15-C ) :   1.1682
B( 14-C , 31-H ) :   0.9345 B( 14-C , 32-H ) :   0.9303 B( 15-C , 33-H ) :   0.9345
B( 15-C , 34-H ) :   0.9403 B( 15-C , 35-H ) :   0.9135 B( 16-O , 17-C ) :   0.9095
B( 17-C , 18-C ) :   1.1687 B( 17-C , 36-H ) :   0.9248 B( 17-C , 37-H ) :   0.9334
B( 18-C , 38-H ) :   0.9318 B( 18-C , 39-H ) :   0.9350 B( 18-C , 40-H ) :   0.9435

Dispersion correction           -0.064081278
FINAL SINGLE POINT ENERGY     -2929.516122382154

DIPOLE MOMENT
-------------

Method             : SCF
Type of density    : Electron Density
Multiplicity       :   1
Irrep              :   0
Energy             : -2929.6373601498107746 Eh
Relativity type    :
Basis              : AO
                                X                 Y                 Z
Electronic contribution:     -7.966625548      -7.547147462     -12.806316940
Nuclear contribution   :      8.601061594       8.654448264      14.055145182
                        -----------------------------------------
Total Dipole Moment    :      0.634436046       1.107300802       1.248828242
                        -----------------------------------------
Magnitude (a.u.)       :      1.785552055
Magnitude (Debye)      :      4.538512642

Rotational constants in cm-1:             0.013901             0.004390             0.004129
Rotational constants in MHz :           416.742494           131.623164           123.796952

                             ****ORCA TERMINATED NORMALLY****
TOTAL RUN TIME: 0 days 0 hours 0 minutes 20 seconds 804 msec
