                         Program Version 6.0.1  -  RELEASE   -
|  1> ! pbe def2-sv(p) def2/J RI DEFGRID1 loosescf d4 GCP(DFT/SV(P)) printgap
|  2> %output
|  3>     printlevel normal
|  4> end
|  5> * xyz 0 1
|  6> C 4.0994497811 -2.7753257674 0.5617596733
|  7> C 2.5865184395 -2.796911725 0.4180415778
|  8> O 2.1676049539 -2.0510468393 -0.7406742724
|  9> C 2.0460156953 -0.7464174711 -0.6438461126
| 10> O 2.2354976358 -0.0954837117 0.3637873633
| 11> C 1.6372833694 -0.1116538307 -1.9604190799
| 12> C 0.410630584 0.7824205573 -1.7602338401
| 13> H 0.3008181244 1.4592073523 -2.6108368343
| 14> C 0.5234842147 1.5965256142 -0.4862405369
| 15> O -0.2614030579 1.4642878453 0.4371424611
| 16> O 1.4943203133 2.4578594914 -0.5358277903
| 17> C 1.7636403625 3.2608415624 0.6347072442
| 18> C 0.8508240077 4.4740636889 0.6902666855
| 19> S -1.1403539916 -0.1733745264 -1.7104342964
| 20> P -1.64873011 -0.5145863393 0.3358539287
| 21> S -0.4633828096 -1.1682109772 1.7523771981
| 22> O -2.7671027043 0.5642017034 0.7403641271
| 23> C -2.6521593538 1.564113685 1.7494869895
| 24> O -2.6155888045 -1.761134958 0.0414612182
| 25> C -3.7607174406 -1.7235493341 -0.8252722116
| 26> H 4.3849538259 -3.4045566858 1.3979988968
| 27> H 4.5664764519 -3.1474982214 -0.3460099014
| 28> H 4.4417961037 -1.7607036735 0.7518796337
| 29> H 2.097798549 -2.3723133397 1.3007373782
| 30> H 2.2141535287 -3.8050945487 0.2366588293
| 31> H 1.4267495094 -0.885452159 -2.6967117263
| 32> H 2.4707928972 0.5085794157 -2.2967595151
| 33> H 1.6437383532 2.6270424111 1.5175397339
| 34> H 2.8077767293 3.5501133407 0.5186316678
| 35> H 1.1271315156 5.0866233623 1.5418627318
| 36> H 0.9496410995 5.0590757238 -0.2198230418
| 37> H -0.1849794035 4.1632660131 0.8046413255
| 38> H -3.6145807473 1.5932204917 2.2566947256
| 39> H -2.4328614629 2.5226408873 1.282205613
| 40> H -1.8596371248 1.3053641395 2.4525949761
| 41> H -4.3037894971 -2.6419423303 -0.6159471503
| 42> H -3.4375673254 -1.6980865795 -1.8656214036
| 43> H -4.3754915769 -0.8539326687 -0.6003101971
| 44> *
| 45>
| 46>                          ****END OF INPUT****

CARTESIAN COORDINATES (ANGSTROEM)
---------------------------------
  C      4.099450   -2.775326    0.561760
  C      2.586518   -2.796912    0.418042
  O      2.167605   -2.051047   -0.740674
  C      2.046016   -0.746417   -0.643846
  O      2.235498   -0.095484    0.363787
  C      1.637283   -0.111654   -1.960419
  C      0.410631    0.782421   -1.760234
  H      0.300818    1.459207   -2.610837
  C      0.523484    1.596526   -0.486241
  O     -0.261403    1.464288    0.437142
  O      1.494320    2.457859   -0.535828
  C      1.763640    3.260842    0.634707
  C      0.850824    4.474064    0.690267
  S     -1.140354   -0.173375   -1.710434
  P     -1.648730   -0.514586    0.335854
  S     -0.463383   -1.168211    1.752377
  O     -2.767103    0.564202    0.740364
  C     -2.652159    1.564114    1.749487
  O     -2.615589   -1.761135    0.041461
  C     -3.760717   -1.723549   -0.825272
  H      4.384954   -3.404557    1.397999
  H      4.566476   -3.147498   -0.346010
  H      4.441796   -1.760704    0.751880
  H      2.097799   -2.372313    1.300737
  H      2.214154   -3.805095    0.236659
  H      1.426750   -0.885452   -2.696712
  H      2.470793    0.508579   -2.296760
  H      1.643738    2.627042    1.517540
  H      2.807777    3.550113    0.518632
  H      1.127132    5.086623    1.541863
  H      0.949641    5.059076   -0.219823
  H     -0.184979    4.163266    0.804641
  H     -3.614581    1.593220    2.256695
  H     -2.432861    2.522641    1.282206
  H     -1.859637    1.305364    2.452595
  H     -4.303789   -2.641942   -0.615947
  H     -3.437567   -1.698087   -1.865621
  H     -4.375492   -0.853933   -0.600310

 Total Charge           Charge          ....    0
 Multiplicity           Mult            ....    1
 Number of Electrons    NEL             ....  174
 Basis Dimension        Dim             ....  316

ORBITAL ENERGIES
----------------

  NO   OCC          E(Eh)            E(eV)
   0   2.0000     -88.030353     -2395.4277
   1   2.0000     -87.956250     -2393.4112
   2   2.0000     -76.412840     -2079.2991
   3   2.0000     -18.817963      -512.0628
   4   2.0000     -18.801018      -511.6017
   5   2.0000     -18.771174      -510.7896
   6   2.0000     -18.762261      -510.5471
   7   2.0000     -18.762096      -510.5426
   8   2.0000     -18.738492      -509.9003
   9   2.0000     -10.031209      -272.9631
  10   2.0000     -10.010829      -272.4085
  11   2.0000      -9.955698      -270.9083
  12   2.0000      -9.955415      -270.9006
  13   2.0000      -9.937366      -270.4095
  14   2.0000      -9.930250      -270.2158
  15   2.0000      -9.928893      -270.1789
  16   2.0000      -9.915866      -269.8244
  17   2.0000      -9.895067      -269.2584
  18   2.0000      -9.881713      -268.8951
  19   2.0000      -7.675481      -208.8605
  20   2.0000      -7.601601      -206.8501
  21   2.0000      -6.407512      -174.3573
  22   2.0000      -5.703748      -155.2069
  23   2.0000      -5.699675      -155.0960
  24   2.0000      -5.692330      -154.8962
  25   2.0000      -5.631097      -153.2299
  26   2.0000      -5.622398      -152.9932
  27   2.0000      -5.620904      -152.9526
  28   2.0000      -4.630586      -126.0047
  29   2.0000      -4.629408      -125.9726
  30   2.0000      -4.628034      -125.9352
  31   2.0000      -1.031368       -28.0650
  32   2.0000      -1.008157       -27.4333
  33   2.0000      -0.961019       -26.1507
  34   2.0000      -0.938151       -25.5284
  35   2.0000      -0.916182       -24.9306
  36   2.0000      -0.915512       -24.9124
  37   2.0000      -0.767013       -20.8715
  38   2.0000      -0.713607       -19.4182
  39   2.0000      -0.703561       -19.1449
  40   2.0000      -0.683200       -18.5908
  41   2.0000      -0.652475       -17.7548
  42   2.0000      -0.626842       -17.0572
  43   2.0000      -0.621332       -16.9073
  44   2.0000      -0.596942       -16.2436
  45   2.0000      -0.595464       -16.2034
  46   2.0000      -0.566088       -15.4040
  47   2.0000      -0.513112       -13.9625
  48   2.0000      -0.500125       -13.6091
  49   2.0000      -0.496067       -13.4987
  50   2.0000      -0.483868       -13.1667
  51   2.0000      -0.464452       -12.6384
  52   2.0000      -0.456639       -12.4258
  53   2.0000      -0.446972       -12.1627
  54   2.0000      -0.435043       -11.8381
  55   2.0000      -0.429774       -11.6947
  56   2.0000      -0.422518       -11.4973
  57   2.0000      -0.418095       -11.3769
  58   2.0000      -0.411521       -11.1981
  59   2.0000      -0.402910       -10.9637
  60   2.0000      -0.395108       -10.7514
  61   2.0000      -0.393526       -10.7084
  62   2.0000      -0.387055       -10.5323
  63   2.0000      -0.382938       -10.4203
  64   2.0000      -0.379911       -10.3379
  65   2.0000      -0.363971        -9.9042
  66   2.0000      -0.360428        -9.8077
  67   2.0000      -0.354067        -9.6346
  68   2.0000      -0.349706        -9.5160
  69   2.0000      -0.340535        -9.2664
  70   2.0000      -0.332722        -9.0538
  71   2.0000      -0.326225        -8.8770
  72   2.0000      -0.318640        -8.6706
  73   2.0000      -0.307439        -8.3658
  74   2.0000      -0.297225        -8.0879
  75   2.0000      -0.288755        -7.8574
  76   2.0000      -0.284628        -7.7451
  77   2.0000      -0.281616        -7.6632
  78   2.0000      -0.275985        -7.5099
  79   2.0000      -0.256370        -6.9762
  80   2.0000      -0.254867        -6.9353
  81   2.0000      -0.245329        -6.6757
  82   2.0000      -0.239890        -6.5277
  83   2.0000      -0.224820        -6.1177
  84   2.0000      -0.210452        -5.7267
  85   2.0000      -0.178253        -4.8505
  86   2.0000      -0.166359        -4.5269
  87   0.0000      -0.042627        -1.1599
  88   0.0000      -0.031983        -0.8703
  89   0.0000      -0.026332        -0.7165
  90   0.0000      -0.000135        -0.0037
  91   0.0000       0.035807         0.9744

MULLIKEN ATOMIC CHARGES
-----------------------
   0 C :   -0.307082
   1 C :   -0.021295
   2 O :   -0.215666
   3 C :    0.104592
   4 O :   -0.201873
   5 C :   -0.031223
   6 C :   -0.283468
   7 H :    0.146418
   8 C :    0.227480
   9 O :   -0.207276
  10 O :   -0.217944
  11 C :   -0.005549
  12 C :   -0.319788
  13 S :   -0.131930
  14 P :    0.648974
  15 S :   -0.325790
  16 O :   -0.403640
  17 C :   -0.088866
  18 O :   -0.381942
  19 C :   -0.115217
  20 H :    0.114144
  21 H :    0.108648
  22 H :    0.122987
  23 H :    0.135241
  24 H :    0.104884
  25 H :    0.117283
  26 H :    0.122760
  27 H :    0.129785
  28 H :    0.107139
  29 H :    0.118560
  30 H :    0.114428
  31 H :    0.135324
  32 H :    0.112793
  33 H :    0.109854
  34 H :    0.118722
  35 H :    0.123430
  36 H :    0.118832
  37 H :    0.116269
Sum of atomic charges:   -0.0000000

LOEWDIN ATOMIC CHARGES
----------------------
   0 C :   -0.357558
   1 C :   -0.111903
   2 O :   -0.041480
   3 C :    0.029980
   4 O :   -0.156770
   5 C :   -0.246766
   6 C :   -0.257508
   7 H :    0.147350
   8 C :    0.030442
   9 O :   -0.146552
  10 O :   -0.033197
  11 C :   -0.101978
  12 C :   -0.357633
  13 S :    0.084509
  14 P :    0.579896
  15 S :   -0.321516
  16 O :   -0.261972
  17 C :   -0.210840
  18 O :   -0.264141
  19 C :   -0.218284
  20 H :    0.131513
  21 H :    0.121868
  22 H :    0.128065
  23 H :    0.122321
  24 H :    0.120328
  25 H :    0.136995
  26 H :    0.146904
  27 H :    0.130995
  28 H :    0.121496
  29 H :    0.133972
  30 H :    0.125374
  31 H :    0.129053
  32 H :    0.114170
  33 H :    0.105935
  34 H :    0.110996
  35 H :    0.121632
  36 H :    0.104092
  37 H :    0.110215

  Mayer bond orders larger than 0.100000
B(  0-C ,  1-C ) :   1.1645 B(  0-C , 20-H ) :   0.9450 B(  0-C , 21-H ) :   0.9477
B(  0-C , 22-H ) :   0.9463 B(  1-C ,  2-O ) :   0.9056 B(  1-C , 23-H ) :   0.9063
B(  1-C , 24-H ) :   0.9389 B(  2-O ,  3-C ) :   1.2709 B(  3-C ,  4-O ) :   1.9569
B(  3-C ,  5-C ) :   0.9976 B(  4-O ,  8-C ) :   0.1093 B(  5-C ,  6-C ) :   1.0240
B(  5-C , 25-H ) :   0.9036 B(  5-C , 26-H ) :   0.8764 B(  6-C ,  7-H ) :   0.8777
B(  6-C ,  8-C ) :   0.9135 B(  6-C , 13-S ) :   1.0479 B(  8-C ,  9-O ) :   1.8705
B(  8-C , 10-O ) :   1.2761 B(  9-O , 14-P ) :   0.1553 B( 10-O , 11-C ) :   0.8961
B( 11-C , 12-C ) :   1.1712 B( 11-C , 27-H ) :   0.9168 B( 11-C , 28-H ) :   0.9379
B( 12-C , 29-H ) :   0.9431 B( 12-C , 30-H ) :   0.9463 B( 12-C , 31-H ) :   0.9417
B( 13-S , 14-P ) :   0.9193 B( 13-S , 15-S ) :   0.1105 B( 14-P , 15-S ) :   1.5993
B( 14-P , 16-O ) :   1.0626 B( 14-P , 18-O ) :   1.0711 B( 16-O , 17-C ) :   0.9351
B( 17-C , 32-H ) :   0.9531 B( 17-C , 33-H ) :   0.9530 B( 17-C , 34-H ) :   0.9342
B( 18-O , 19-C ) :   0.9393 B( 19-C , 35-H ) :   0.9608 B( 19-C , 36-H ) :   0.9418
B( 19-C , 37-H ) :   0.9426

Dispersion correction           -0.053760568
FINAL SINGLE POINT ENERGY     -1979.001416753108

DIPOLE MOMENT
-------------

Method             : SCF
Type of density    : Electron Density
Multiplicity       :   1
Irrep              :   0
Energy             : -1979.1320605015630463 Eh
Relativity type    :
Basis              : AO
                                X                 Y                 Z
Electronic contribution:     -8.687185190      -6.115135436      -3.282456328
Nuclear contribution   :      9.237836266       7.361054152       2.338956330
                        -----------------------------------------
Total Dipole Moment    :      0.550651076       1.245918716      -0.943499997
                        -----------------------------------------
Magnitude (a.u.)       :      1.657022118
Magnitude (Debye)      :      4.211815505

Rotational constants in cm-1:             0.010922             0.009288             0.006675
Rotational constants in MHz :           327.442382           278.452887           200.097567

                             ****ORCA TERMINATED NORMALLY****
TOTAL RUN TIME: 0 days 0 hours 0 minutes 40 seconds 853 msec
