                         Program Version 6.0.0  -   RELEASE  -
|  1> ! pbe def2-sv(p) def2/J RI DEFGRID1 loosescf d4 GCP(DFT/SV(P)) printgap
|  2> %output
|  3>     printlevel normal
|  4> end
|  5> * xyz 0 1
|  6> C 1.5148509444 2.5351098406 1.6502252714
|  7> C 2.904838157 1.9892718442 1.9091575691
|  8> O 3.38246804 1.1804419768 0.8191076557
|  9> P 2.8444520793 -0.2804567634 0.5381505692
| 10> S 2.5065338924 -1.3981799317 2.1193148923
| 11> O 4.0632049325 -0.7162203362 -0.3753801122
| 12> C 4.3697854783 -2.0950650682 -0.6431428319
| 13> C 3.295567793 -2.782637754 -1.4631002896
| 14> S 1.2187266046 -0.0544079051 -0.82794878
| 15> C -0.0792378156 -0.9552447489 0.073381597
| 16> S -1.321609774 0.1252031957 0.8216234176
| 17> P -2.745801749 0.1576922245 -0.7765961982
| 18> S -2.217103531 -0.6807800112 -2.4602062763
| 19> O -3.213707755 1.6784864364 -0.8713289457
| 20> C -2.5502811993 2.6527705296 -1.6938406284
| 21> C -1.1683647121 2.9968405577 -1.1762966769
| 22> O -4.0335031729 -0.5203338457 -0.1705006732
| 23> C -4.612961601 -0.1289025677 1.1020916433
| 24> C -4.4812773728 -1.2666032875 2.0945785709
| 25> H 1.2635461723 3.2532325142 2.4241410017
| 26> H 1.4806271763 3.0236745249 0.6797100651
| 27> H 0.781186125 1.7298151401 1.669778123
| 28> H 2.9229051472 1.3894375009 2.8251234524
| 29> H 3.6423391119 2.7903851793 1.9792658124
| 30> H 5.3168199682 -2.0500885849 -1.1828041727
| 31> H 4.5122905655 -2.6111849682 0.3119207646
| 32> H 3.641981993 -3.7701632444 -1.7510867454
| 33> H 2.3844786271 -2.8891151629 -0.8750396993
| 34> H 3.0718726374 -2.2051593197 -2.3569290379
| 35> H 0.3860244078 -1.5164624368 0.8868511282
| 36> H -0.5726145978 -1.6103557489 -0.6433036288
| 37> H -2.4945474296 2.263398127 -2.7151886407
| 38> H -3.2177568444 3.515377535 -1.6619111115
| 39> H -1.2157969099 3.2627414926 -0.1231244622
| 40> H -0.498938555 2.1462770408 -1.301068546
| 41> H -0.7742320317 3.8346979449 -1.7425023372
| 42> H -4.1145420469 0.7738007039 1.4619510857
| 43> H -5.6589816269 0.0913714064 0.8841716218
| 44> H -3.4346795154 -1.4540712695 2.3219564636
| 45> H -5.0006832895 -1.0017273973 3.0099300926
| 46> H -4.9192715423 -2.17120813 1.6820327898
| 47> *
| 48>
| 49>                          ****END OF INPUT****

CARTESIAN COORDINATES (ANGSTROEM)
---------------------------------
  C      1.514851    2.535110    1.650225
  C      2.904838    1.989272    1.909158
  O      3.382468    1.180442    0.819108
  P      2.844452   -0.280457    0.538151
  S      2.506534   -1.398180    2.119315
  O      4.063205   -0.716220   -0.375380
  C      4.369785   -2.095065   -0.643143
  C      3.295568   -2.782638   -1.463100
  S      1.218727   -0.054408   -0.827949
  C     -0.079238   -0.955245    0.073382
  S     -1.321610    0.125203    0.821623
  P     -2.745802    0.157692   -0.776596
  S     -2.217104   -0.680780   -2.460206
  O     -3.213708    1.678486   -0.871329
  C     -2.550281    2.652771   -1.693841
  C     -1.168365    2.996841   -1.176297
  O     -4.033503   -0.520334   -0.170501
  C     -4.612962   -0.128903    1.102092
  C     -4.481277   -1.266603    2.094579
  H      1.263546    3.253233    2.424141
  H      1.480627    3.023675    0.679710
  H      0.781186    1.729815    1.669778
  H      2.922905    1.389438    2.825123
  H      3.642339    2.790385    1.979266
  H      5.316820   -2.050089   -1.182804
  H      4.512291   -2.611185    0.311921
  H      3.641982   -3.770163   -1.751087
  H      2.384479   -2.889115   -0.875040
  H      3.071873   -2.205159   -2.356929
  H      0.386024   -1.516462    0.886851
  H     -0.572615   -1.610356   -0.643304
  H     -2.494547    2.263398   -2.715189
  H     -3.217757    3.515378   -1.661911
  H     -1.215797    3.262741   -0.123124
  H     -0.498939    2.146277   -1.301069
  H     -0.774232    3.834698   -1.742502
  H     -4.114542    0.773801    1.461951
  H     -5.658982    0.091371    0.884172
  H     -3.434680   -1.454071    2.321956
  H     -5.000683   -1.001727    3.009930
  H     -4.919272   -2.171208    1.682033

 Total Charge           Charge          ....    0
 Multiplicity           Mult            ....    1
 Number of Electrons    NEL             ....  202
 Basis Dimension        Dim             ....  334

ORBITAL ENERGIES
----------------

  NO   OCC          E(Eh)            E(eV)
   0   2.0000     -88.046847     -2395.8765
   1   2.0000     -88.044774     -2395.8201
   2   2.0000     -87.996583     -2394.5088
   3   2.0000     -87.992170     -2394.3887
   4   2.0000     -76.429451     -2079.7511
   5   2.0000     -76.428924     -2079.7367
   6   2.0000     -18.794203      -511.4163
   7   2.0000     -18.792360      -511.3661
   8   2.0000     -18.790200      -511.3073
   9   2.0000     -18.789834      -511.2974
  10   2.0000      -9.960398      -271.0362
  11   2.0000      -9.954196      -270.8675
  12   2.0000      -9.953717      -270.8544
  13   2.0000      -9.953436      -270.8468
  14   2.0000      -9.952332      -270.8167
  15   2.0000      -9.887754      -269.0595
  16   2.0000      -9.884125      -268.9607
  17   2.0000      -9.884107      -268.9602
  18   2.0000      -9.883621      -268.9470
  19   2.0000      -7.691055      -209.2842
  20   2.0000      -7.689010      -209.2286
  21   2.0000      -7.641353      -207.9318
  22   2.0000      -7.637370      -207.8234
  23   2.0000      -6.426950      -174.8862
  24   2.0000      -6.426636      -174.8777
  25   2.0000      -5.718810      -155.6167
  26   2.0000      -5.716788      -155.5617
  27   2.0000      -5.715599      -155.5294
  28   2.0000      -5.713544      -155.4734
  29   2.0000      -5.708216      -155.3284
  30   2.0000      -5.706167      -155.2727
  31   2.0000      -5.670056      -154.2901
  32   2.0000      -5.666367      -154.1897
  33   2.0000      -5.661930      -154.0689
  34   2.0000      -5.661817      -154.0659
  35   2.0000      -5.657826      -153.9573
  36   2.0000      -5.657591      -153.9509
  37   2.0000      -4.649309      -126.5141
  38   2.0000      -4.649073      -126.5077
  39   2.0000      -4.648902      -126.5031
  40   2.0000      -4.648271      -126.4859
  41   2.0000      -4.647579      -126.4670
  42   2.0000      -4.647114      -126.4544
  43   2.0000      -0.989723       -26.9317
  44   2.0000      -0.989625       -26.9291
  45   2.0000      -0.946013       -25.7423
  46   2.0000      -0.945432       -25.7265
  47   2.0000      -0.761960       -20.7340
  48   2.0000      -0.723046       -19.6751
  49   2.0000      -0.713664       -19.4198
  50   2.0000      -0.690261       -18.7830
  51   2.0000      -0.683796       -18.6070
  52   2.0000      -0.681516       -18.5450
  53   2.0000      -0.654531       -17.8107
  54   2.0000      -0.641796       -17.4642
  55   2.0000      -0.606801       -16.5119
  56   2.0000      -0.593663       -16.1544
  57   2.0000      -0.577607       -15.7175
  58   2.0000      -0.570145       -15.5144
  59   2.0000      -0.559160       -15.2155
  60   2.0000      -0.505898       -13.7662
  61   2.0000      -0.495902       -13.4942
  62   2.0000      -0.474707       -12.9174
  63   2.0000      -0.467518       -12.7218
  64   2.0000      -0.461462       -12.5570
  65   2.0000      -0.449176       -12.2227
  66   2.0000      -0.443499       -12.0682
  67   2.0000      -0.439549       -11.9607
  68   2.0000      -0.432430       -11.7670
  69   2.0000      -0.422118       -11.4864
  70   2.0000      -0.411654       -11.2017
  71   2.0000      -0.398548       -10.8451
  72   2.0000      -0.396133       -10.7793
  73   2.0000      -0.389490       -10.5985
  74   2.0000      -0.383267       -10.4292
  75   2.0000      -0.371608       -10.1120
  76   2.0000      -0.370008       -10.0684
  77   2.0000      -0.358292        -9.7496
  78   2.0000      -0.354643        -9.6503
  79   2.0000      -0.352567        -9.5938
  80   2.0000      -0.348072        -9.4715
  81   2.0000      -0.347413        -9.4536
  82   2.0000      -0.342516        -9.3203
  83   2.0000      -0.340817        -9.2741
  84   2.0000      -0.338293        -9.2054
  85   2.0000      -0.317290        -8.6339
  86   2.0000      -0.311973        -8.4892
  87   2.0000      -0.302610        -8.2344
  88   2.0000      -0.301112        -8.1937
  89   2.0000      -0.297693        -8.1006
  90   2.0000      -0.289802        -7.8859
  91   2.0000      -0.274210        -7.4616
  92   2.0000      -0.268971        -7.3191
  93   2.0000      -0.266597        -7.2545
  94   2.0000      -0.259508        -7.0616
  95   2.0000      -0.229190        -6.2366
  96   2.0000      -0.222354        -6.0505
  97   2.0000      -0.217352        -5.9145
  98   2.0000      -0.213109        -5.7990
  99   2.0000      -0.209207        -5.6928
 100   2.0000      -0.205640        -5.5958
 101   0.0000      -0.046778        -1.2729
 102   0.0000      -0.040558        -1.1036
 103   0.0000      -0.018569        -0.5053
 104   0.0000       0.003719         0.1012
 105   0.0000       0.009612         0.2616

MULLIKEN ATOMIC CHARGES
-----------------------
   0 C :   -0.334853
   1 C :    0.003562
   2 O :   -0.355255
   3 P :    0.593323
   4 S :   -0.330525
   5 O :   -0.358299
   6 C :    0.001840
   7 C :   -0.318278
   8 S :   -0.079440
   9 C :   -0.353003
  10 S :   -0.113557
  11 P :    0.594105
  12 S :   -0.301861
  13 O :   -0.379268
  14 C :    0.007880
  15 C :   -0.346189
  16 O :   -0.356581
  17 C :   -0.016063
  18 C :   -0.283557
  19 H :    0.109924
  20 H :    0.126702
  21 H :    0.134159
  22 H :    0.110634
  23 H :    0.107046
  24 H :    0.108633
  25 H :    0.111705
  26 H :    0.113829
  27 H :    0.122708
  28 H :    0.125264
  29 H :    0.193241
  30 H :    0.193347
  31 H :    0.111737
  32 H :    0.103889
  33 H :    0.120764
  34 H :    0.147100
  35 H :    0.112182
  36 H :    0.107233
  37 H :    0.114578
  38 H :    0.120052
  39 H :    0.109672
  40 H :    0.121622
Sum of atomic charges:   -0.0000000

LOEWDIN ATOMIC CHARGES
----------------------
   0 C :   -0.370379
   1 C :   -0.115384
   2 O :   -0.235273
   3 P :    0.571524
   4 S :   -0.310358
   5 O :   -0.236642
   6 C :   -0.115351
   7 C :   -0.369224
   8 S :    0.095970
   9 C :   -0.489248
  10 S :    0.081175
  11 P :    0.567841
  12 S :   -0.296657
  13 O :   -0.250242
  14 C :   -0.115189
  15 C :   -0.374099
  16 O :   -0.240183
  17 C :   -0.112210
  18 C :   -0.358292
  19 H :    0.129882
  20 H :    0.127336
  21 H :    0.111800
  22 H :    0.110053
  23 H :    0.119887
  24 H :    0.120803
  25 H :    0.111337
  26 H :    0.131112
  27 H :    0.119693
  28 H :    0.127263
  29 H :    0.122821
  30 H :    0.127402
  31 H :    0.112547
  32 H :    0.118337
  33 H :    0.123978
  34 H :    0.114730
  35 H :    0.130784
  36 H :    0.106997
  37 H :    0.123065
  38 H :    0.122531
  39 H :    0.129672
  40 H :    0.130193

  Mayer bond orders larger than 0.100000
B(  0-C ,  1-C ) :   1.1603 B(  0-C , 19-H ) :   0.9376 B(  0-C , 20-H ) :   0.9411
B(  0-C , 21-H ) :   0.9305 B(  1-C ,  2-O ) :   0.9160 B(  1-C , 22-H ) :   0.9162
B(  1-C , 23-H ) :   0.9338 B(  2-O ,  3-P ) :   1.1322 B(  3-P ,  4-S ) :   1.5789
B(  3-P ,  5-O ) :   1.1288 B(  3-P ,  8-S ) :   0.9504 B(  4-S ,  8-S ) :   0.1225
B(  4-S , 29-H ) :   0.1144 B(  5-O ,  6-C ) :   0.9149 B(  6-C ,  7-C ) :   1.1626
B(  6-C , 24-H ) :   0.9345 B(  6-C , 25-H ) :   0.9199 B(  7-C , 26-H ) :   0.9374
B(  7-C , 27-H ) :   0.9399 B(  7-C , 28-H ) :   0.9420 B(  8-S ,  9-C ) :   1.0141
B(  9-C , 10-S ) :   1.0138 B(  9-C , 29-H ) :   0.8485 B(  9-C , 30-H ) :   0.8695
B( 10-S , 11-P ) :   0.9335 B( 10-S , 12-S ) :   0.1120 B( 11-P , 12-S ) :   1.6412
B( 11-P , 13-O ) :   1.0925 B( 11-P , 16-O ) :   1.1438 B( 13-O , 14-C ) :   0.9109
B( 14-C , 15-C ) :   1.1624 B( 14-C , 31-H ) :   0.9181 B( 14-C , 32-H ) :   0.9338
B( 15-C , 33-H ) :   0.9416 B( 15-C , 34-H ) :   0.9244 B( 15-C , 35-H ) :   0.9367
B( 16-O , 17-C ) :   0.8864 B( 17-C , 18-C ) :   1.1636 B( 17-C , 36-H ) :   0.9184
B( 17-C , 37-H ) :   0.9336 B( 18-C , 38-H ) :   0.9405 B( 18-C , 39-H ) :   0.9399
B( 18-C , 40-H ) :   0.9460

Dispersion correction           -0.063707071
FINAL SINGLE POINT ENERGY     -2929.521062095463

DIPOLE MOMENT
-------------

Method             : SCF
Type of density    : Electron Density
Multiplicity       :   1
Irrep              :   0
Energy             : -2929.6415701053088014 Eh
Relativity type    :
Basis              : AO
                                X                 Y                 Z
Electronic contribution:      2.212399177      -5.672361682      -5.081072955
Nuclear contribution   :     -2.434132666       6.566419796       5.640512888
                        -----------------------------------------
Total Dipole Moment    :     -0.221733489       0.894058114       0.559439933
                        -----------------------------------------
Magnitude (a.u.)       :      1.077719208
Magnitude (Debye)      :      2.739344527

Rotational constants in cm-1:             0.011828             0.004332             0.004231
Rotational constants in MHz :           354.609238           129.874410           126.838618

                             ****ORCA TERMINATED NORMALLY****
TOTAL RUN TIME: 0 days 0 hours 0 minutes 20 seconds 692 msec
