                         Program Version 6.0.0  -   RELEASE  -
|  1> ! wb97x-v def2-tzvp def2/J RIJCOSX DEFGRID2 scfconv7 GCP(DFT/TZ) printgap
|  2> %output
|  3>     printlevel normal
|  4> end
|  5> * xyz 0 1
|  6> C -1.8699262380556891 -1.4092693422916809 -0.006783069037818652
|  7> C -0.5482532561647917 -0.697484510554381 -0.0022926220163042798
|  8> C 0.6536749790700856 -1.4042132798505242 -0.00011453931770539537
|  9> C 1.8898265959844123 -0.75888939871616 -0.0011365497219019798
| 10> C 1.9244171259284928 0.6337508919281046 -0.002883274836018873
| 11> C 0.741085614488925 1.3629739292596021 -0.0024072506959429865
| 12> C -0.5021888503084985 0.7141821029828158 -0.00470412756964786
| 13> N -1.6788080939812613 1.4558570875211865 -0.07251979633145433
| 14> H -1.7249352871130443 -2.4916687174681957 -0.02982711472244916
| 15> H -2.463426064528914 -1.1696046382921663 0.8851781268836777
| 16> H -2.476123963002856 -1.1282081588125024 -0.8767124099261507
| 17> H 0.614303238362551 -2.4906254144560136 0.0026541344221956303
| 18> H 2.808970818809966 -1.3356294474428303 0.0003854357226201425
| 19> H 2.8750146304995425 1.1587905172086261 5.5296549517027856e-05
| 20> H 0.7685569849331542 2.4497083104908146 -0.0007432398062495558
| 21> H -1.5819820359041628 2.411074835503564 0.2418054027605004
| 22> H -2.4901472584174917 1.0091173471329595 0.3305542715176745
| 23> *
| 24>
| 25>                          ****END OF INPUT****

CARTESIAN COORDINATES (ANGSTROEM)
---------------------------------
  C     -1.869926   -1.409269   -0.006783
  C     -0.548253   -0.697485   -0.002293
  C      0.653675   -1.404213   -0.000115
  C      1.889827   -0.758889   -0.001137
  C      1.924417    0.633751   -0.002883
  C      0.741086    1.362974   -0.002407
  C     -0.502189    0.714182   -0.004704
  N     -1.678808    1.455857   -0.072520
  H     -1.724935   -2.491669   -0.029827
  H     -2.463426   -1.169605    0.885178
  H     -2.476124   -1.128208   -0.876712
  H      0.614303   -2.490625    0.002654
  H      2.808971   -1.335629    0.000385
  H      2.875015    1.158791    0.000055
  H      0.768557    2.449708   -0.000743
  H     -1.581982    2.411075    0.241805
  H     -2.490147    1.009117    0.330554

 Total Charge           Charge          ....    0
 Multiplicity           Mult            ....    1
 Number of Electrons    NEL             ....   58
 Basis Dimension        Dim             ....  302

ORBITAL ENERGIES
----------------

  NO   OCC          E(Eh)            E(eV)
   0   2.0000     -16.530419      -449.8156
   1   2.0000     -12.085509      -328.8634
   2   2.0000     -12.049276      -327.8775
   3   2.0000     -12.045249      -327.7679
   4   2.0000     -12.043881      -327.7307
   5   2.0000     -12.042827      -327.7020
   6   2.0000     -12.039111      -327.6009
   7   2.0000     -12.033899      -327.4590
   8   2.0000      -1.489515       -40.5318
   9   2.0000      -1.366076       -37.1728
  10   2.0000      -1.288371       -35.0584
  11   2.0000      -1.254699       -34.1421
  12   2.0000      -1.190374       -32.3917
  13   2.0000      -1.107640       -30.1404
  14   2.0000      -1.086996       -29.5787
  15   2.0000      -1.003420       -27.3044
  16   2.0000      -0.999826       -27.2067
  17   2.0000      -0.930513       -25.3205
  18   2.0000      -0.929039       -25.2804
  19   2.0000      -0.886044       -24.1105
  20   2.0000      -0.865056       -23.5394
  21   2.0000      -0.844980       -22.9931
  22   2.0000      -0.832831       -22.6625
  23   2.0000      -0.814560       -22.1653
  24   2.0000      -0.807280       -21.9672
  25   2.0000      -0.797262       -21.6946
  26   2.0000      -0.738067       -20.0838
  27   2.0000      -0.629620       -17.1328
  28   2.0000      -0.608967       -16.5708
  29   0.0000      -0.231663        -6.3039
  30   0.0000      -0.229127        -6.2349
  31   0.0000      -0.077955        -2.1213
  32   0.0000      -0.064235        -1.7479
  33   0.0000      -0.039358        -1.0710

MULLIKEN ATOMIC CHARGES
-----------------------
   0 C :   -0.426242
   1 C :    0.035773
   2 C :   -0.146512
   3 C :   -0.160109
   4 C :   -0.101871
   5 C :   -0.249575
   6 C :    0.234524
   7 N :   -0.437232
   8 H :    0.118610
   9 H :    0.116655
  10 H :    0.141987
  11 H :    0.104622
  12 H :    0.109581
  13 H :    0.111282
  14 H :    0.099159
  15 H :    0.221486
  16 H :    0.227864
Sum of atomic charges:    0.0000000

LOEWDIN ATOMIC CHARGES
----------------------
   0 C :   -0.260617
   1 C :   -0.161311
   2 C :   -0.119661
   3 C :   -0.166466
   4 C :   -0.146588
   5 C :   -0.139763
   6 C :   -0.210793
   7 N :   -0.048799
   8 H :    0.126525
   9 H :    0.120418
  10 H :    0.127128
  11 H :    0.142439
  12 H :    0.138072
  13 H :    0.140581
  14 H :    0.138362
  15 H :    0.160672
  16 H :    0.159800

  Mayer bond orders larger than 0.100000
B(  0-C ,  1-C ) :   0.9054 B(  0-C ,  8-H ) :   0.9864 B(  0-C ,  9-H ) :   0.9793
B(  0-C , 10-H ) :   0.9817 B(  1-C ,  2-C ) :   1.4447 B(  1-C ,  6-C ) :   1.3416
B(  2-C ,  3-C ) :   1.4340 B(  2-C , 11-H ) :   0.9692 B(  3-C ,  4-C ) :   1.4305
B(  3-C , 12-H ) :   0.9799 B(  4-C ,  5-C ) :   1.4726 B(  4-C , 13-H ) :   0.9739
B(  5-C ,  6-C ) :   1.3960 B(  5-C , 14-H ) :   0.9690 B(  6-C ,  7-N ) :   1.0652
B(  7-N , 15-H ) :   0.9327 B(  7-N , 16-H ) :   0.9234

FINAL SINGLE POINT ENERGY      -326.935823168456

DIPOLE MOMENT
-------------

Method             : SCF
Type of density    : Electron Density
Multiplicity       :   1
Irrep              :   0
Energy             :  -326.9455712886556285 Eh
Relativity type    :
Basis              : AO
                                X                 Y                 Z
Electronic contribution:      2.981525887       1.695614020      -0.197167104
Nuclear contribution   :     -3.473788244      -1.486265825       0.574099168
                        -----------------------------------------
Total Dipole Moment    :     -0.492262357       0.209348195       0.376932064
                        -----------------------------------------
Magnitude (a.u.)       :      0.654390308
Magnitude (Debye)      :      1.663327977

Rotational constants in cm-1:             0.107846             0.073181             0.044007
Rotational constants in MHz :          3233.143596          2193.918588          1319.308457

                             ****ORCA TERMINATED NORMALLY****
TOTAL RUN TIME: 0 days 0 hours 2 minutes 47 seconds 851 msec
