                         Program Version 6.0.0  -   RELEASE  -
|  1> ! wb97x-v def2-tzvp def2/J RIJCOSX DEFGRID2 scfconv7 GCP(DFT/TZ) printgap
|  2> %output
|  3>     printlevel normal
|  4> end
|  5> %cpcm
|  6>     smd true
|  7>     smdsolvent "water"
|  8> end
|  9> * xyz 0 1
| 10> C -1.8699262380556891 -1.4092693422916809 -0.006783069037818652
| 11> C -0.5482532561647917 -0.697484510554381 -0.0022926220163042798
| 12> C 0.6536749790700856 -1.4042132798505242 -0.00011453931770539537
| 13> C 1.8898265959844123 -0.75888939871616 -0.0011365497219019798
| 14> C 1.9244171259284928 0.6337508919281046 -0.002883274836018873
| 15> C 0.741085614488925 1.3629739292596021 -0.0024072506959429865
| 16> C -0.5021888503084985 0.7141821029828158 -0.00470412756964786
| 17> N -1.6788080939812613 1.4558570875211865 -0.07251979633145433
| 18> H -1.7249352871130443 -2.4916687174681957 -0.02982711472244916
| 19> H -2.463426064528914 -1.1696046382921663 0.8851781268836777
| 20> H -2.476123963002856 -1.1282081588125024 -0.8767124099261507
| 21> H 0.614303238362551 -2.4906254144560136 0.0026541344221956303
| 22> H 2.808970818809966 -1.3356294474428303 0.0003854357226201425
| 23> H 2.8750146304995425 1.1587905172086261 5.5296549517027856e-05
| 24> H 0.7685569849331542 2.4497083104908146 -0.0007432398062495558
| 25> H -1.5819820359041628 2.411074835503564 0.2418054027605004
| 26> H -2.4901472584174917 1.0091173471329595 0.3305542715176745
| 27> *
| 28>
| 29>                          ****END OF INPUT****

CARTESIAN COORDINATES (ANGSTROEM)
---------------------------------
  C     -1.869926   -1.409269   -0.006783
  C     -0.548253   -0.697485   -0.002293
  C      0.653675   -1.404213   -0.000115
  C      1.889827   -0.758889   -0.001137
  C      1.924417    0.633751   -0.002883
  C      0.741086    1.362974   -0.002407
  C     -0.502189    0.714182   -0.004704
  N     -1.678808    1.455857   -0.072520
  H     -1.724935   -2.491669   -0.029827
  H     -2.463426   -1.169605    0.885178
  H     -2.476124   -1.128208   -0.876712
  H      0.614303   -2.490625    0.002654
  H      2.808971   -1.335629    0.000385
  H      2.875015    1.158791    0.000055
  H      0.768557    2.449708   -0.000743
  H     -1.581982    2.411075    0.241805
  H     -2.490147    1.009117    0.330554

 Total Charge           Charge          ....    0
 Multiplicity           Mult            ....    1
 Number of Electrons    NEL             ....   58
 Basis Dimension        Dim             ....  302

ORBITAL ENERGIES
----------------

  NO   OCC          E(Eh)            E(eV)
   0   2.0000     -16.520505      -449.5458
   1   2.0000     -12.085432      -328.8613
   2   2.0000     -12.049578      -327.8857
   3   2.0000     -12.044782      -327.7552
   4   2.0000     -12.043364      -327.7166
   5   2.0000     -12.038500      -327.5842
   6   2.0000     -12.035381      -327.4994
   7   2.0000     -12.034262      -327.4689
   8   2.0000      -1.481981       -40.3268
   9   2.0000      -1.367436       -37.2098
  10   2.0000      -1.287590       -35.0371
  11   2.0000      -1.255200       -34.1557
  12   2.0000      -1.185390       -32.2561
  13   2.0000      -1.106140       -30.0996
  14   2.0000      -1.084576       -29.5128
  15   2.0000      -0.999217       -27.1901
  16   2.0000      -0.993017       -27.0214
  17   2.0000      -0.928772       -25.2732
  18   2.0000      -0.925872       -25.1943
  19   2.0000      -0.884036       -24.0558
  20   2.0000      -0.862780       -23.4774
  21   2.0000      -0.838605       -22.8196
  22   2.0000      -0.828392       -22.5417
  23   2.0000      -0.808140       -21.9906
  24   2.0000      -0.802049       -21.8249
  25   2.0000      -0.793606       -21.5951
  26   2.0000      -0.740008       -20.1367
  27   2.0000      -0.632605       -17.2141
  28   2.0000      -0.610484       -16.6121
  29   0.0000      -0.234327        -6.3764
  30   0.0000      -0.232121        -6.3163
  31   0.0000      -0.070214        -1.9106
  32   0.0000      -0.065256        -1.7757
  33   0.0000      -0.022798        -0.6204

MULLIKEN ATOMIC CHARGES
-----------------------
   0 C :   -0.435696
   1 C :   -0.016012
   2 C :   -0.189009
   3 C :   -0.223903
   4 C :   -0.138980
   5 C :   -0.313291
   6 C :    0.212715
   7 N :   -0.490771
   8 H :    0.142766
   9 H :    0.145677
  10 H :    0.145716
  11 H :    0.153004
  12 H :    0.154000
  13 H :    0.156562
  14 H :    0.151891
  15 H :    0.271183
  16 H :    0.274148
Sum of atomic charges:    0.0000000

LOEWDIN ATOMIC CHARGES
----------------------
   0 C :   -0.260065
   1 C :   -0.169332
   2 C :   -0.132932
   3 C :   -0.187397
   4 C :   -0.163996
   5 C :   -0.149143
   6 C :   -0.221635
   7 N :   -0.054402
   8 H :    0.131022
   9 H :    0.130449
  10 H :    0.129956
  11 H :    0.152198
  12 H :    0.145717
  13 H :    0.149202
  14 H :    0.150840
  15 H :    0.175669
  16 H :    0.173850

  Mayer bond orders larger than 0.100000
B(  0-C ,  1-C ) :   0.9407 B(  0-C ,  8-H ) :   0.9826 B(  0-C ,  9-H ) :   0.9685
B(  0-C , 10-H ) :   0.9747 B(  1-C ,  2-C ) :   1.4224 B(  1-C ,  6-C ) :   1.3154
B(  2-C ,  3-C ) :   1.4046 B(  2-C , 11-H ) :   0.9729 B(  3-C ,  4-C ) :   1.4031
B(  3-C , 12-H ) :   0.9857 B(  4-C ,  5-C ) :   1.4341 B(  4-C , 13-H ) :   0.9758
B(  5-C ,  6-C ) :   1.3800 B(  5-C , 14-H ) :   0.9799 B(  6-C ,  7-N ) :   1.1215
B(  7-N , 15-H ) :   0.9101 B(  7-N , 16-H ) :   0.9071

FINAL SINGLE POINT ENERGY      -326.943855843164

DIPOLE MOMENT
-------------

Method             : SCF
Type of density    : Electron Density
Multiplicity       :   1
Irrep              :   0
Energy             :  -326.9536039633635482 Eh
Relativity type    :
Basis              : AO
                                X                 Y                 Z
Electronic contribution:      2.725894730       1.788530681      -0.038785188
Nuclear contribution   :     -3.473788244      -1.486265825       0.574099168
                        -----------------------------------------
Total Dipole Moment    :     -0.747893513       0.302264856       0.535313980
                        -----------------------------------------
Magnitude (a.u.)       :      0.968126958
Magnitude (Debye)      :      2.460783167

Rotational constants in cm-1:             0.107846             0.073181             0.044007
Rotational constants in MHz :          3233.143596          2193.918588          1319.308457

                             ****ORCA TERMINATED NORMALLY****
TOTAL RUN TIME: 0 days 0 hours 3 minutes 8 seconds 881 msec
