                         Program Version 6.0.0  -   RELEASE  -
|  1> ! pbe def2-sv(p) def2/J RI DEFGRID1 loosescf d4 GCP(DFT/SV(P)) printgap
|  2> %output
|  3>     printlevel normal
|  4> end
|  5> * xyz 0 1
|  6> C 5.8430674753 -0.5851347469 -1.0508523678
|  7> C 4.5608675096 0.2219427856 -1.0539440556
|  8> O 3.5546857135 -0.5415317169 -0.355756203
|  9> P 2.2429600726 0.1524233469 0.2117684811
| 10> S 2.5369169336 1.7242327197 1.3340100412
| 11> O 1.5543572087 -1.0306184775 0.9875268689
| 12> C 1.3372712622 -2.3548691499 0.4257269742
| 13> C 1.1262471895 -3.3087317687 1.5819772473
| 14> S 1.1152684365 0.4888833822 -1.5695643415
| 15> C -0.0344155802 1.7066062142 -0.8663993055
| 16> S -0.8616997889 1.1514592204 0.6453754902
| 17> P -2.3868630873 -0.0431621814 -0.2745423307
| 18> S -1.8076675119 -1.3972740703 -1.5596311146
| 19> O -3.3982502788 0.9495345413 -0.9568617777
| 20> C -4.1380054093 1.9879016377 -0.2627969911
| 21> C -3.5301124549 3.3499586728 -0.5334087504
| 22> O -3.1989585004 -0.5326506769 1.000567721
| 23> C -2.6459235702 -1.3981403206 2.011910846
| 24> C -2.8047141731 -2.858857257 1.6376661281
| 25> H 6.1665225128 -0.7666749472 -0.0297359428
| 26> H 5.6845400205 -1.5387585261 -1.5459828387
| 27> H 6.612569069 -0.0303703042 -1.5773798615
| 28> H 4.2030037185 0.4039739677 -2.0708039514
| 29> H 4.6882128749 1.1804268458 -0.5399585561
| 30> H 0.459117676 -2.3050388513 -0.2256972323
| 31> H 2.2091744326 -2.6308618176 -0.1686838167
| 32> H 0.2874862587 -2.9812251943 2.189541356
| 33> H 0.9190409773 -4.2983880593 1.1879794349
| 34> H 2.0161900844 -3.3446084673 2.2039157863
| 35> H -0.7693364943 1.9191877692 -1.640375301
| 36> H 0.52507939 2.5987813598 -0.5880413298
| 37> H -5.1472790299 1.9172835375 -0.671115602
| 38> H -4.155656693 1.7624580217 0.8043384275
| 39> H -4.1772825344 4.1130600493 -0.1126172639
| 40> H -2.5472953513 3.4327924381 -0.0754006153
| 41> H -3.4393584266 3.5131006591 -1.6040247536
| 42> H -1.5952443579 -1.1363641236 2.1693485013
| 43> H -3.2155772498 -1.155891021 2.9114497144
| 44> H -2.4437821045 -3.4795108593 2.4516798586
| 45> H -3.8521121483 -3.0822103804 1.4545215519
| 46> H -2.2399117633 -3.0849307023 0.7361777634
| 47> *
| 48>
| 49>                          ****END OF INPUT****

CARTESIAN COORDINATES (ANGSTROEM)
---------------------------------
  C      5.843067   -0.585135   -1.050852
  C      4.560868    0.221943   -1.053944
  O      3.554686   -0.541532   -0.355756
  P      2.242960    0.152423    0.211768
  S      2.536917    1.724233    1.334010
  O      1.554357   -1.030618    0.987527
  C      1.337271   -2.354869    0.425727
  C      1.126247   -3.308732    1.581977
  S      1.115268    0.488883   -1.569564
  C     -0.034416    1.706606   -0.866399
  S     -0.861700    1.151459    0.645375
  P     -2.386863   -0.043162   -0.274542
  S     -1.807668   -1.397274   -1.559631
  O     -3.398250    0.949535   -0.956862
  C     -4.138005    1.987902   -0.262797
  C     -3.530112    3.349959   -0.533409
  O     -3.198959   -0.532651    1.000568
  C     -2.645924   -1.398140    2.011911
  C     -2.804714   -2.858857    1.637666
  H      6.166523   -0.766675   -0.029736
  H      5.684540   -1.538759   -1.545983
  H      6.612569   -0.030370   -1.577380
  H      4.203004    0.403974   -2.070804
  H      4.688213    1.180427   -0.539959
  H      0.459118   -2.305039   -0.225697
  H      2.209174   -2.630862   -0.168684
  H      0.287486   -2.981225    2.189541
  H      0.919041   -4.298388    1.187979
  H      2.016190   -3.344608    2.203916
  H     -0.769336    1.919188   -1.640375
  H      0.525079    2.598781   -0.588041
  H     -5.147279    1.917284   -0.671116
  H     -4.155657    1.762458    0.804338
  H     -4.177283    4.113060   -0.112617
  H     -2.547295    3.432792   -0.075401
  H     -3.439358    3.513101   -1.604025
  H     -1.595244   -1.136364    2.169349
  H     -3.215577   -1.155891    2.911450
  H     -2.443782   -3.479511    2.451680
  H     -3.852112   -3.082210    1.454522
  H     -2.239912   -3.084931    0.736178

 Total Charge           Charge          ....    0
 Multiplicity           Mult            ....    1
 Number of Electrons    NEL             ....  202
 Basis Dimension        Dim             ....  334

ORBITAL ENERGIES
----------------

  NO   OCC          E(Eh)            E(eV)
   0   2.0000     -88.043209     -2395.7775
   1   2.0000     -88.034414     -2395.5382
   2   2.0000     -87.984752     -2394.1868
   3   2.0000     -87.981306     -2394.0930
   4   2.0000     -76.427695     -2079.7033
   5   2.0000     -76.422065     -2079.5501
   6   2.0000     -18.797394      -511.5031
   7   2.0000     -18.795557      -511.4531
   8   2.0000     -18.791760      -511.3498
   9   2.0000     -18.787086      -511.2226
  10   2.0000      -9.960641      -271.0428
  11   2.0000      -9.959862      -271.0216
  12   2.0000      -9.957048      -270.9451
  13   2.0000      -9.952035      -270.8087
  14   2.0000      -9.945433      -270.6290
  15   2.0000      -9.891030      -269.1486
  16   2.0000      -9.887900      -269.0634
  17   2.0000      -9.886432      -269.0235
  18   2.0000      -9.885027      -268.9853
  19   2.0000      -7.687322      -209.1827
  20   2.0000      -7.679548      -208.9711
  21   2.0000      -7.629792      -207.6172
  22   2.0000      -7.626656      -207.5319
  23   2.0000      -6.425092      -174.8356
  24   2.0000      -6.419395      -174.6806
  25   2.0000      -5.714981      -155.5125
  26   2.0000      -5.711972      -155.4307
  27   2.0000      -5.707327      -155.3043
  28   2.0000      -5.704518      -155.2278
  29   2.0000      -5.704195      -155.2190
  30   2.0000      -5.696495      -155.0095
  31   2.0000      -5.658811      -153.9841
  32   2.0000      -5.655659      -153.8983
  33   2.0000      -5.650366      -153.7543
  34   2.0000      -5.649858      -153.7405
  35   2.0000      -5.647249      -153.6695
  36   2.0000      -5.646732      -153.6554
  37   2.0000      -4.648169      -126.4831
  38   2.0000      -4.646946      -126.4498
  39   2.0000      -4.645032      -126.3978
  40   2.0000      -4.642297      -126.3233
  41   2.0000      -4.641157      -126.2923
  42   2.0000      -4.639603      -126.2500
  43   2.0000      -0.992343       -27.0030
  44   2.0000      -0.985012       -26.8035
  45   2.0000      -0.949189       -25.8287
  46   2.0000      -0.940917       -25.6036
  47   2.0000      -0.761378       -20.7182
  48   2.0000      -0.722410       -19.6578
  49   2.0000      -0.713122       -19.4050
  50   2.0000      -0.694100       -18.8874
  51   2.0000      -0.689912       -18.7735
  52   2.0000      -0.671878       -18.2827
  53   2.0000      -0.648816       -17.6552
  54   2.0000      -0.637263       -17.3408
  55   2.0000      -0.588822       -16.0227
  56   2.0000      -0.582494       -15.8505
  57   2.0000      -0.581063       -15.8115
  58   2.0000      -0.567747       -15.4492
  59   2.0000      -0.565948       -15.4002
  60   2.0000      -0.513215       -13.9653
  61   2.0000      -0.504760       -13.7352
  62   2.0000      -0.482254       -13.1228
  63   2.0000      -0.479717       -13.0538
  64   2.0000      -0.459117       -12.4932
  65   2.0000      -0.447537       -12.1781
  66   2.0000      -0.440293       -11.9810
  67   2.0000      -0.438749       -11.9390
  68   2.0000      -0.430166       -11.7054
  69   2.0000      -0.411046       -11.1851
  70   2.0000      -0.405414       -11.0319
  71   2.0000      -0.397648       -10.8206
  72   2.0000      -0.396381       -10.7861
  73   2.0000      -0.387089       -10.5332
  74   2.0000      -0.375809       -10.2263
  75   2.0000      -0.370448       -10.0804
  76   2.0000      -0.363617        -9.8945
  77   2.0000      -0.360418        -9.8075
  78   2.0000      -0.357167        -9.7190
  79   2.0000      -0.351989        -9.5781
  80   2.0000      -0.351164        -9.5557
  81   2.0000      -0.348654        -9.4874
  82   2.0000      -0.338765        -9.2183
  83   2.0000      -0.336867        -9.1666
  84   2.0000      -0.332356        -9.0439
  85   2.0000      -0.323223        -8.7953
  86   2.0000      -0.316539        -8.6135
  87   2.0000      -0.304054        -8.2737
  88   2.0000      -0.301521        -8.2048
  89   2.0000      -0.298085        -8.1113
  90   2.0000      -0.294631        -8.0173
  91   2.0000      -0.278073        -7.5668
  92   2.0000      -0.268443        -7.3047
  93   2.0000      -0.262532        -7.1438
  94   2.0000      -0.256155        -6.9703
  95   2.0000      -0.240539        -6.5454
  96   2.0000      -0.214864        -5.8467
  97   2.0000      -0.206290        -5.6134
  98   2.0000      -0.201653        -5.4873
  99   2.0000      -0.198819        -5.4101
 100   2.0000      -0.184978        -5.0335
 101   0.0000      -0.042449        -1.1551
 102   0.0000      -0.026720        -0.7271
 103   0.0000      -0.005382        -0.1465
 104   0.0000       0.006312         0.1718
 105   0.0000       0.015899         0.4326

MULLIKEN ATOMIC CHARGES
-----------------------
   0 C :   -0.281097
   1 C :   -0.008545
   2 O :   -0.386458
   3 P :    0.605381
   4 S :   -0.323512
   5 O :   -0.360793
   6 C :   -0.033948
   7 C :   -0.293705
   8 S :   -0.085105
   9 C :   -0.348997
  10 S :   -0.092872
  11 P :    0.592860
  12 S :   -0.298153
  13 O :   -0.361498
  14 C :   -0.006495
  15 C :   -0.303203
  16 O :   -0.380423
  17 C :   -0.037560
  18 C :   -0.297346
  19 H :    0.120849
  20 H :    0.115101
  21 H :    0.112464
  22 H :    0.103860
  23 H :    0.105241
  24 H :    0.129026
  25 H :    0.104832
  26 H :    0.122226
  27 H :    0.111920
  28 H :    0.117228
  29 H :    0.183618
  30 H :    0.193337
  31 H :    0.112512
  32 H :    0.108869
  33 H :    0.113611
  34 H :    0.126401
  35 H :    0.120796
  36 H :    0.129773
  37 H :    0.108867
  38 H :    0.111695
  39 H :    0.116820
  40 H :    0.132425
Sum of atomic charges:    0.0000000

LOEWDIN ATOMIC CHARGES
----------------------
   0 C :   -0.350486
   1 C :   -0.119812
   2 O :   -0.250774
   3 P :    0.564267
   4 S :   -0.322531
   5 O :   -0.236425
   6 C :   -0.122571
   7 C :   -0.349748
   8 S :    0.066763
   9 C :   -0.476967
  10 S :    0.080795
  11 P :    0.557694
  12 S :   -0.296176
  13 O :   -0.238391
  14 C :   -0.110416
  15 C :   -0.362537
  16 O :   -0.247274
  17 C :   -0.115809
  18 C :   -0.365257
  19 H :    0.129209
  20 H :    0.125904
  21 H :    0.131187
  22 H :    0.109479
  23 H :    0.109109
  24 H :    0.105772
  25 H :    0.110528
  26 H :    0.123806
  27 H :    0.131157
  28 H :    0.127504
  29 H :    0.131656
  30 H :    0.133327
  31 H :    0.122962
  32 H :    0.112292
  33 H :    0.132050
  34 H :    0.121193
  35 H :    0.127794
  36 H :    0.110077
  37 H :    0.120162
  38 H :    0.128331
  39 H :    0.128549
  40 H :    0.123608

  Mayer bond orders larger than 0.100000
B(  0-C ,  1-C ) :   1.1600 B(  0-C , 19-H ) :   0.9507 B(  0-C , 20-H ) :   0.9514
B(  0-C , 21-H ) :   0.9419 B(  1-C ,  2-O ) :   0.9025 B(  1-C , 22-H ) :   0.9286
B(  1-C , 23-H ) :   0.9094 B(  2-O ,  3-P ) :   1.0868 B(  3-P ,  4-S ) :   1.6322
B(  3-P ,  5-O ) :   1.1433 B(  3-P ,  8-S ) :   0.9570 B(  4-S ,  8-S ) :   0.1113
B(  5-O ,  6-C ) :   0.8799 B(  6-C ,  7-C ) :   1.1669 B(  6-C , 24-H ) :   0.9007
B(  6-C , 25-H ) :   0.9205 B(  7-C , 26-H ) :   0.9441 B(  7-C , 27-H ) :   0.9403
B(  7-C , 28-H ) :   0.9483 B(  8-S ,  9-C ) :   1.0067 B(  9-C , 10-S ) :   0.9935
B(  9-C , 29-H ) :   0.8955 B(  9-C , 30-H ) :   0.8899 B( 10-S , 11-P ) :   0.9430
B( 10-S , 12-S ) :   0.1152 B( 11-P , 12-S ) :   1.6611 B( 11-P , 13-O ) :   1.1274
B( 11-P , 16-O ) :   1.0828 B( 13-O , 14-C ) :   0.8926 B( 14-C , 15-C ) :   1.1674
B( 14-C , 31-H ) :   0.9349 B( 14-C , 32-H ) :   0.9179 B( 15-C , 33-H ) :   0.9394
B( 15-C , 34-H ) :   0.9345 B( 15-C , 35-H ) :   0.9451 B( 16-O , 17-C ) :   0.9053
B( 17-C , 18-C ) :   1.1695 B( 17-C , 36-H ) :   0.9133 B( 17-C , 37-H ) :   0.9343
B( 18-C , 38-H ) :   0.9343 B( 18-C , 39-H ) :   0.9445 B( 18-C , 40-H ) :   0.9294

Dispersion correction           -0.064577917
FINAL SINGLE POINT ENERGY     -2929.519705245966

DIPOLE MOMENT
-------------

Method             : SCF
Type of density    : Electron Density
Multiplicity       :   1
Irrep              :   0
Energy             : -2929.6386865155986925 Eh
Relativity type    :
Basis              : AO
                                X                 Y                 Z
Electronic contribution:     -0.652154978       8.499719399      -4.853973424
Nuclear contribution   :      0.254559130      -8.609383185       5.033348995
                        -----------------------------------------
Total Dipole Moment    :     -0.397595847      -0.109663786       0.179375571
                        -----------------------------------------
Magnitude (a.u.)       :      0.449760157
Magnitude (Debye)      :      1.143199469

Rotational constants in cm-1:             0.011934             0.005178             0.004437
Rotational constants in MHz :           357.777001           155.228891           133.026840

                             ****ORCA TERMINATED NORMALLY****
TOTAL RUN TIME: 0 days 0 hours 0 minutes 20 seconds 952 msec
