                         Program Version 6.0.0  -   RELEASE  -
|  1> ! r2scan-3c def2/J RI DEFGRID2 scfconv6 printgap
|  2> %output
|  3>     printlevel normal
|  4> end
|  5> %cpcm
|  6>     smd true
|  7>     smdsolvent "water"
|  8> end
|  9> * xyz 0 1
| 10> C 1.9502661412 -0.0001342089 0.7075624529
| 11> N 1.1001751925 -1.22643e-05 -0.4658701376
| 12> C 0.2718669363 1.1866807541 -0.5983027246
| 13> C -0.937062167 1.1961973398 0.3465206937
| 14> N -1.727023586 -3.9528e-06 0.0994587493
| 15> C -0.936964456 -1.1960959224 0.3465948256
| 16> C 0.2718427405 -1.1866279985 -0.5983951487
| 17> H 1.4099606974 -0.0008613427 1.6648325642
| 18> H 2.5847459044 0.8843574473 0.6733057453
| 19> H 2.5854159049 -0.8841246993 0.6726053534
| 20> H 0.889481717 2.0696561428 -0.4267664553
| 21> H -0.0970623292 1.2068465638 -1.6271342131
| 22> H -0.5883718111 1.2574853646 1.3940635365
| 23> H -1.5555158205 2.0716052199 0.1412069162
| 24> H -2.5539134044 3.80425e-05 0.6878028562
| 25> H -0.5881726655 -1.2572350082 1.3941158303
| 26> H -1.5553378042 -2.0715967395 0.1414834144
| 27> H 0.8894507604 -2.0696759969 -0.4271625143
| 28> H -0.0972684961 -1.2065075352 -1.6271669787
| 29> *
| 30>
| 31>                          ****END OF INPUT****

CARTESIAN COORDINATES (ANGSTROEM)
---------------------------------
  C      1.950266   -0.000134    0.707562
  N      1.100175   -0.000012   -0.465870
  C      0.271867    1.186681   -0.598303
  C     -0.937062    1.196197    0.346521
  N     -1.727024   -0.000004    0.099459
  C     -0.936964   -1.196096    0.346595
  C      0.271843   -1.186628   -0.598395
  H      1.409961   -0.000861    1.664833
  H      2.584746    0.884357    0.673306
  H      2.585416   -0.884125    0.672605
  H      0.889482    2.069656   -0.426766
  H     -0.097062    1.206847   -1.627134
  H     -0.588372    1.257485    1.394064
  H     -1.555516    2.071605    0.141207
  H     -2.553913    0.000038    0.687803
  H     -0.588173   -1.257235    1.394116
  H     -1.555338   -2.071597    0.141483
  H      0.889451   -2.069676   -0.427163
  H     -0.097268   -1.206508   -1.627167

 Total Charge           Charge          ....    0
 Multiplicity           Mult            ....    1
 Number of Electrons    NEL             ....   56
 Basis Dimension        Dim             ....  203

ORBITAL ENERGIES
----------------

  NO   OCC          E(Eh)            E(eV)
   0   2.0000     -14.142695      -384.8423
   1   2.0000     -14.136522      -384.6743
   2   2.0000     -10.039824      -273.1975
   3   2.0000     -10.039819      -273.1974
   4   2.0000     -10.039153      -273.1792
   5   2.0000     -10.039149      -273.1791
   6   2.0000     -10.033705      -273.0310
   7   2.0000      -0.899162       -24.4674
   8   2.0000      -0.847294       -23.0560
   9   2.0000      -0.715014       -19.4565
  10   2.0000      -0.672432       -18.2978
  11   2.0000      -0.596323       -16.2268
  12   2.0000      -0.595020       -16.1913
  13   2.0000      -0.509439       -13.8625
  14   2.0000      -0.473436       -12.8829
  15   2.0000      -0.428715       -11.6659
  16   2.0000      -0.414887       -11.2897
  17   2.0000      -0.409045       -11.1307
  18   2.0000      -0.401580       -10.9275
  19   2.0000      -0.382468       -10.4075
  20   2.0000      -0.345897        -9.4123
  21   2.0000      -0.333695        -9.0803
  22   2.0000      -0.329709        -8.9718
  23   2.0000      -0.308286        -8.3889
  24   2.0000      -0.305629        -8.3166
  25   2.0000      -0.292809        -7.9677
  26   2.0000      -0.199990        -5.4420
  27   2.0000      -0.165856        -4.5132
  28   0.0000       0.077721         2.1149
  29   0.0000       0.101061         2.7500
  30   0.0000       0.113992         3.1019
  31   0.0000       0.123673         3.3653
  32   0.0000       0.127436         3.4677

MULLIKEN ATOMIC CHARGES
-----------------------
   0 C :   -0.394945
   1 N :   -0.213879
   2 C :   -0.247598
   3 C :   -0.275396
   4 N :   -0.365263
   5 C :   -0.275518
   6 C :   -0.247535
   7 H :    0.149297
   8 H :    0.161887
   9 H :    0.161877
  10 H :    0.159445
  11 H :    0.165520
  12 H :    0.153146
  13 H :    0.158538
  14 H :    0.273749
  15 H :    0.153173
  16 H :    0.158537
  17 H :    0.159442
  18 H :    0.165523
Sum of atomic charges:   -0.0000000

LOEWDIN ATOMIC CHARGES
----------------------
   0 C :   -0.150584
   1 N :   -0.997914
   2 C :   -0.037546
   3 C :   -0.052330
   4 N :   -0.853820
   5 C :   -0.052326
   6 C :   -0.037535
   7 H :    0.153087
   8 H :    0.178270
   9 H :    0.178250
  10 H :    0.184200
  11 H :    0.182423
  12 H :    0.160331
  13 H :    0.180555
  14 H :    0.257417
  15 H :    0.160335
  16 H :    0.180550
  17 H :    0.184202
  18 H :    0.182436

  Mayer bond orders larger than 0.100000
B(  0-C ,  1-N ) :   0.9227 B(  0-C ,  7-H ) :   0.9396 B(  0-C ,  8-H ) :   0.9685
B(  0-C ,  9-H ) :   0.9685 B(  1-N ,  2-C ) :   0.9729 B(  1-N ,  6-C ) :   0.9729
B(  2-C ,  3-C ) :   0.8522 B(  2-C , 10-H ) :   0.9711 B(  2-C , 11-H ) :   0.9727
B(  3-C ,  4-N ) :   0.9479 B(  3-C , 12-H ) :   0.9878 B(  3-C , 13-H ) :   0.9583
B(  4-N ,  5-C ) :   0.9478 B(  4-N , 14-H ) :   0.8936 B(  5-C ,  6-C ) :   0.8522
B(  5-C , 15-H ) :   0.9878 B(  5-C , 16-H ) :   0.9583 B(  6-C , 17-H ) :   0.9710
B(  6-C , 18-H ) :   0.9727

Dispersion correction           -0.005623232
FINAL SINGLE POINT ENERGY      -307.145126895400

DIPOLE MOMENT
-------------

Method             : SCF
Type of density    : Electron Density
Multiplicity       :   1
Irrep              :   0
Energy             :  -307.1589348727576976 Eh
Relativity type    :
Basis              : AO
                                X                 Y                 Z
Electronic contribution:     -1.433269352       0.000091877      -1.575598356
Nuclear contribution   :      1.238148971      -0.000011854       2.494626723
                        -----------------------------------------
Total Dipole Moment    :     -0.195120381       0.000080022       0.919028367
                        -----------------------------------------
Magnitude (a.u.)       :      0.939513229
Magnitude (Debye)      :      2.388052847

Rotational constants in cm-1:             0.132087             0.088238             0.067488
Rotational constants in MHz :          3959.869129          2645.323578          2023.246965

                             ****ORCA TERMINATED NORMALLY****
TOTAL RUN TIME: 0 days 0 hours 0 minutes 36 seconds 632 msec
