                         Program Version 6.0.0  -   RELEASE  -
|  1> ! pbe def2-sv(p) def2/J RI DEFGRID1 loosescf d4 GCP(DFT/SV(P)) printgap
|  2> %output
|  3>     printlevel normal
|  4> end
|  5> * xyz 0 1
|  6> C 2.2148451982 -3.0007542463 -1.1653344464
|  7> C 3.2742985069 -1.9903147384 -1.5524442853
|  8> O 3.5132667473 -1.0067091583 -0.5196088375
|  9> P 2.4463739627 -0.0102550509 0.0941816027
| 10> S 3.3161509989 1.5066999793 0.9653876062
| 11> O 1.4798481943 -0.8566907906 1.0486072842
| 12> C 1.6541282486 -0.8635882221 2.477786667
| 13> C 2.8435893157 -1.7126089613 2.8770184588
| 14> S 1.1507716765 0.4278994587 -1.5216953864
| 15> C 0.4029117149 1.8932405841 -0.7681664824
| 16> S -0.692927959 1.4976080804 0.6126731479
| 17> P -2.1069300467 0.3697517031 -0.5373153495
| 18> S -2.3861339417 1.0061258247 -2.3637744334
| 19> O -3.3838124121 0.3816215412 0.4054985316
| 20> C -4.1616898687 1.5829904815 0.5892251408
| 21> C -5.4523148961 1.1961047386 1.2821920193
| 22> O -1.6470806193 -1.1332193313 -0.4751636586
| 23> C -1.5936400549 -1.8891906113 0.7616139992
| 24> C -2.8133474814 -2.7774660102 0.8879767202
| 25> H 1.2464314665 -2.5119220373 -1.0730400032
| 26> H 2.1509969827 -3.7597803526 -1.9389708356
| 27> H 2.4705575793 -3.4726605282 -0.2202625216
| 28> H 2.9932225846 -1.4639930759 -2.4685593592
| 29> H 4.2514543135 -2.4589155425 -1.6805467067
| 30> H 1.7829230728 0.1680560194 2.8203043838
| 31> H 0.7178378383 -1.2670753209 2.8648841157
| 32> H 2.715349137 -2.7347558701 2.531243871
| 33> H 3.7501254656 -1.3004636237 2.4336858735
| 34> H 2.9449881366 -1.7080225648 3.9575573627
| 35> H -0.1709449398 2.3824185618 -1.5551150462
| 36> H 1.1857061227 2.5434163277 -0.3762921039
| 37> H -3.5758284439 2.2809149023 1.1936840253
| 38> H -4.3482979324 2.0290546325 -0.3928710616
| 39> H -5.236054521 0.7325764287 2.240294694
| 40> H -6.0501428493 2.0872633549 1.442055899
| 41> H -6.0114593765 0.4962948539 0.6676004769
| 42> H -0.6755864468 -2.4753554416 0.6895301579
| 43> H -1.5209805883 -1.1901213028 1.5988755565
| 44> H -2.722326503 -3.3822044647 1.7847991172
| 45> H -3.7130387518 -2.1712808598 0.951827273
| 46> H -2.8900309074 -3.4279821457 0.0212221732
| 47> *
| 48>
| 49>                          ****END OF INPUT****

CARTESIAN COORDINATES (ANGSTROEM)
---------------------------------
  C      2.214845   -3.000754   -1.165334
  C      3.274299   -1.990315   -1.552444
  O      3.513267   -1.006709   -0.519609
  P      2.446374   -0.010255    0.094182
  S      3.316151    1.506700    0.965388
  O      1.479848   -0.856691    1.048607
  C      1.654128   -0.863588    2.477787
  C      2.843589   -1.712609    2.877018
  S      1.150772    0.427899   -1.521695
  C      0.402912    1.893241   -0.768166
  S     -0.692928    1.497608    0.612673
  P     -2.106930    0.369752   -0.537315
  S     -2.386134    1.006126   -2.363774
  O     -3.383812    0.381622    0.405499
  C     -4.161690    1.582990    0.589225
  C     -5.452315    1.196105    1.282192
  O     -1.647081   -1.133219   -0.475164
  C     -1.593640   -1.889191    0.761614
  C     -2.813347   -2.777466    0.887977
  H      1.246431   -2.511922   -1.073040
  H      2.150997   -3.759780   -1.938971
  H      2.470558   -3.472661   -0.220263
  H      2.993223   -1.463993   -2.468559
  H      4.251454   -2.458916   -1.680547
  H      1.782923    0.168056    2.820304
  H      0.717838   -1.267075    2.864884
  H      2.715349   -2.734756    2.531244
  H      3.750125   -1.300464    2.433686
  H      2.944988   -1.708023    3.957557
  H     -0.170945    2.382419   -1.555115
  H      1.185706    2.543416   -0.376292
  H     -3.575828    2.280915    1.193684
  H     -4.348298    2.029055   -0.392871
  H     -5.236055    0.732576    2.240295
  H     -6.050143    2.087263    1.442056
  H     -6.011459    0.496295    0.667600
  H     -0.675586   -2.475355    0.689530
  H     -1.520981   -1.190121    1.598876
  H     -2.722327   -3.382204    1.784799
  H     -3.713039   -2.171281    0.951827
  H     -2.890031   -3.427982    0.021222

 Total Charge           Charge          ....    0
 Multiplicity           Mult            ....    1
 Number of Electrons    NEL             ....  202
 Basis Dimension        Dim             ....  334

ORBITAL ENERGIES
----------------

  NO   OCC          E(Eh)            E(eV)
   0   2.0000     -88.042285     -2395.7524
   1   2.0000     -88.040556     -2395.7053
   2   2.0000     -87.986599     -2394.2371
   3   2.0000     -87.984413     -2394.1776
   4   2.0000     -76.427783     -2079.7057
   5   2.0000     -76.425787     -2079.6514
   6   2.0000     -18.799657      -511.5647
   7   2.0000     -18.795630      -511.4551
   8   2.0000     -18.794344      -511.4201
   9   2.0000     -18.791215      -511.3349
  10   2.0000      -9.962431      -271.0915
  11   2.0000      -9.958290      -270.9789
  12   2.0000      -9.957899      -270.9682
  13   2.0000      -9.952481      -270.8208
  14   2.0000      -9.951442      -270.7925
  15   2.0000      -9.893594      -269.2184
  16   2.0000      -9.892774      -269.1961
  17   2.0000      -9.889494      -269.1068
  18   2.0000      -9.886344      -269.0211
  19   2.0000      -7.687218      -209.1798
  20   2.0000      -7.685454      -209.1318
  21   2.0000      -7.631912      -207.6749
  22   2.0000      -7.629698      -207.6146
  23   2.0000      -6.425314      -174.8417
  24   2.0000      -6.423580      -174.7945
  25   2.0000      -5.715045      -155.5143
  26   2.0000      -5.713188      -155.4638
  27   2.0000      -5.711867      -155.4278
  28   2.0000      -5.710064      -155.3787
  29   2.0000      -5.704102      -155.2165
  30   2.0000      -5.702524      -155.1736
  31   2.0000      -5.660910      -154.0412
  32   2.0000      -5.658761      -153.9827
  33   2.0000      -5.652402      -153.8097
  34   2.0000      -5.652083      -153.8010
  35   2.0000      -5.650482      -153.7574
  36   2.0000      -5.649472      -153.7299
  37   2.0000      -4.648275      -126.4860
  38   2.0000      -4.647066      -126.4531
  39   2.0000      -4.646428      -126.4357
  40   2.0000      -4.645410      -126.4080
  41   2.0000      -4.645105      -126.3997
  42   2.0000      -4.644006      -126.3698
  43   2.0000      -0.993641       -27.0384
  44   2.0000      -0.985221       -26.8092
  45   2.0000      -0.949636       -25.8409
  46   2.0000      -0.947112       -25.7722
  47   2.0000      -0.765012       -20.8170
  48   2.0000      -0.723948       -19.6996
  49   2.0000      -0.714006       -19.4291
  50   2.0000      -0.696952       -18.9650
  51   2.0000      -0.694505       -18.8984
  52   2.0000      -0.674708       -18.3597
  53   2.0000      -0.650358       -17.6971
  54   2.0000      -0.639095       -17.3907
  55   2.0000      -0.598640       -16.2898
  56   2.0000      -0.591391       -16.0926
  57   2.0000      -0.578642       -15.7457
  58   2.0000      -0.574160       -15.6237
  59   2.0000      -0.565790       -15.3959
  60   2.0000      -0.513719       -13.9790
  61   2.0000      -0.496206       -13.5025
  62   2.0000      -0.485467       -13.2102
  63   2.0000      -0.478884       -13.0311
  64   2.0000      -0.460658       -12.5351
  65   2.0000      -0.448197       -12.1961
  66   2.0000      -0.447232       -12.1698
  67   2.0000      -0.438721       -11.9382
  68   2.0000      -0.432816       -11.7775
  69   2.0000      -0.415578       -11.3085
  70   2.0000      -0.411508       -11.1977
  71   2.0000      -0.396783       -10.7970
  72   2.0000      -0.390623       -10.6294
  73   2.0000      -0.389566       -10.6006
  74   2.0000      -0.384474       -10.4621
  75   2.0000      -0.376554       -10.2465
  76   2.0000      -0.368925       -10.0390
  77   2.0000      -0.361912        -9.8481
  78   2.0000      -0.356862        -9.7107
  79   2.0000      -0.355657        -9.6779
  80   2.0000      -0.354353        -9.6424
  81   2.0000      -0.349057        -9.4983
  82   2.0000      -0.347680        -9.4609
  83   2.0000      -0.345656        -9.4058
  84   2.0000      -0.337750        -9.1906
  85   2.0000      -0.324307        -8.8248
  86   2.0000      -0.313607        -8.5337
  87   2.0000      -0.308935        -8.4065
  88   2.0000      -0.305369        -8.3095
  89   2.0000      -0.299285        -8.1440
  90   2.0000      -0.281117        -7.6496
  91   2.0000      -0.279927        -7.6172
  92   2.0000      -0.274929        -7.4812
  93   2.0000      -0.267814        -7.2876
  94   2.0000      -0.258158        -7.0248
  95   2.0000      -0.232119        -6.3163
  96   2.0000      -0.217345        -5.9142
  97   2.0000      -0.212888        -5.7930
  98   2.0000      -0.203542        -5.5387
  99   2.0000      -0.199949        -5.4409
 100   2.0000      -0.197513        -5.3746
 101   0.0000      -0.045386        -1.2350
 102   0.0000      -0.023365        -0.6358
 103   0.0000      -0.001236        -0.0336
 104   0.0000       0.004058         0.1104
 105   0.0000       0.007829         0.2130

MULLIKEN ATOMIC CHARGES
-----------------------
   0 C :   -0.339491
   1 C :   -0.017962
   2 O :   -0.372379
   3 P :    0.617967
   4 S :   -0.318817
   5 O :   -0.380653
   6 C :   -0.011961
   7 C :   -0.309953
   8 S :   -0.084239
   9 C :   -0.358246
  10 S :   -0.099927
  11 P :    0.599701
  12 S :   -0.312713
  13 O :   -0.385689
  14 C :   -0.011953
  15 C :   -0.282912
  16 O :   -0.348002
  17 C :   -0.034820
  18 C :   -0.281881
  19 H :    0.152991
  20 H :    0.117097
  21 H :    0.120944
  22 H :    0.124807
  23 H :    0.115525
  24 H :    0.116010
  25 H :    0.097656
  26 H :    0.112480
  27 H :    0.129670
  28 H :    0.112081
  29 H :    0.195318
  30 H :    0.192635
  31 H :    0.106065
  32 H :    0.108503
  33 H :    0.115028
  34 H :    0.115355
  35 H :    0.122980
  36 H :    0.124240
  37 H :    0.106929
  38 H :    0.107203
  39 H :    0.120685
  40 H :    0.119727
Sum of atomic charges:   -0.0000000

LOEWDIN ATOMIC CHARGES
----------------------
   0 C :   -0.370802
   1 C :   -0.114115
   2 O :   -0.243244
   3 P :    0.573335
   4 S :   -0.311572
   5 O :   -0.250209
   6 C :   -0.124118
   7 C :   -0.364236
   8 S :    0.092483
   9 C :   -0.482963
  10 S :    0.061661
  11 P :    0.568255
  12 S :   -0.309445
  13 O :   -0.249655
  14 C :   -0.119931
  15 C :   -0.350656
  16 O :   -0.229686
  17 C :   -0.114223
  18 C :   -0.357738
  19 H :    0.125996
  20 H :    0.133584
  21 H :    0.125426
  22 H :    0.113456
  23 H :    0.124828
  24 H :    0.109559
  25 H :    0.110734
  26 H :    0.120633
  27 H :    0.126199
  28 H :    0.130774
  29 H :    0.130579
  30 H :    0.129809
  31 H :    0.109101
  32 H :    0.111677
  33 H :    0.125630
  34 H :    0.132629
  35 H :    0.129322
  36 H :    0.118748
  37 H :    0.104666
  38 H :    0.128455
  39 H :    0.125961
  40 H :    0.129092

  Mayer bond orders larger than 0.100000
B(  0-C ,  1-C ) :   1.1650 B(  0-C , 19-H ) :   0.9278 B(  0-C , 20-H ) :   0.9339
B(  0-C , 21-H ) :   0.9427 B(  1-C ,  2-O ) :   0.9060 B(  1-C , 22-H ) :   0.9207
B(  1-C , 23-H ) :   0.9346 B(  2-O ,  3-P ) :   1.1239 B(  3-P ,  4-S ) :   1.6241
B(  3-P ,  5-O ) :   1.0665 B(  3-P ,  8-S ) :   0.9603 B(  5-O ,  6-C ) :   0.9045
B(  6-C ,  7-C ) :   1.1636 B(  6-C , 24-H ) :   0.9085 B(  6-C , 25-H ) :   0.9271
B(  7-C , 26-H ) :   0.9447 B(  7-C , 27-H ) :   0.9348 B(  7-C , 28-H ) :   0.9397
B(  8-S ,  9-C ) :   1.0122 B(  9-C , 10-S ) :   1.0072 B(  9-C , 29-H ) :   0.8789
B(  9-C , 30-H ) :   0.8733 B( 10-S , 11-P ) :   0.9447 B( 10-S , 12-S ) :   0.1115
B( 11-P , 12-S ) :   1.6519 B( 11-P , 13-O ) :   1.0745 B( 11-P , 16-O ) :   1.1415
B( 13-O , 14-C ) :   0.9028 B( 14-C , 15-C ) :   1.1588 B( 14-C , 31-H ) :   0.9260
B( 14-C , 32-H ) :   0.9128 B( 15-C , 33-H ) :   0.9509 B( 15-C , 34-H ) :   0.9416
B( 15-C , 35-H ) :   0.9506 B( 16-O , 17-C ) :   0.8939 B( 17-C , 18-C ) :   1.1583
B( 17-C , 36-H ) :   0.9227 B( 17-C , 37-H ) :   0.9119 B( 18-C , 38-H ) :   0.9405
B( 18-C , 39-H ) :   0.9419 B( 18-C , 40-H ) :   0.9464

Dispersion correction           -0.065929669
FINAL SINGLE POINT ENERGY     -2929.520234904463

DIPOLE MOMENT
-------------

Method             : SCF
Type of density    : Electron Density
Multiplicity       :   1
Irrep              :   0
Energy             : -2929.6407985130863381 Eh
Relativity type    :
Basis              : AO
                                X                 Y                 Z
Electronic contribution:      9.589868509      18.430754603     -13.897299332
Nuclear contribution   :    -10.387250701     -19.819014803      15.003608846
                        -----------------------------------------
Total Dipole Moment    :     -0.797382193      -1.388260200       1.106309514
                        -----------------------------------------
Magnitude (a.u.)       :      1.946022992
Magnitude (Debye)      :      4.946397349

Rotational constants in cm-1:             0.012121             0.005065             0.004890
Rotational constants in MHz :           363.367058           151.859238           146.598530

                             ****ORCA TERMINATED NORMALLY****
TOTAL RUN TIME: 0 days 0 hours 0 minutes 21 seconds 976 msec
