                         Program Version 6.0.0  -   RELEASE  -
|  1> ! pbe def2-sv(p) def2/J RI DEFGRID1 loosescf d4 GCP(DFT/SV(P)) printgap
|  2> %output
|  3>     printlevel normal
|  4> end
|  5> * xyz 0 1
|  6> C 2.7758285322 0.3521628822 -3.4834052161
|  7> C 3.0007504293 -0.2767200899 -2.1254272394
|  8> O 2.427056329 0.6092797002 -1.1298555471
|  9> P 2.1601496964 0.1693796524 0.3530960448
| 10> S 1.327234035 1.6158853406 1.3723606863
| 11> O 3.6378739961 -0.2560545761 0.7851556197
| 12> C 3.9839208967 -1.0641341031 1.9237735988
| 13> C 3.5441157172 -0.4496633247 3.2366644617
| 14> S 1.1256081078 -1.6965021712 0.3360085903
| 15> C -0.2397050822 -1.3092988801 1.4762106942
| 16> S -1.8856345593 -1.475422261 0.7412676642
| 17> P -1.9314921147 0.2673220243 -0.4801096765
| 18> S -0.6407007047 0.4225352063 -1.938763238
| 19> O -1.8180129113 1.4758330694 0.5224540125
| 20> C -2.6435635229 1.6712249975 1.696513776
| 21> C -3.8411882913 2.5415491347 1.3776248866
| 22> O -3.4530513998 0.3076100964 -0.9423758934
| 23> C -3.9170132969 -0.3617257231 -2.128542816
| 24> C -3.8097591781 -1.8683438213 -2.0155306097
| 25> H 3.1914988988 -0.2937578624 -4.2495957842
| 26> H 1.7090537853 0.4781594538 -3.6546292951
| 27> H 3.2534206921 1.3266096553 -3.527902769
| 28> H 4.0626872405 -0.3914471717 -1.8986328318
| 29> H 2.5016035126 -1.2476884742 -2.0530613059
| 30> H 3.5393044099 -2.0544953446 1.7883846929
| 31> H 5.0712768404 -1.1357280505 1.863059215
| 32> H 3.9380806904 0.5591728267 3.3325401343
| 33> H 2.4578034217 -0.3961387941 3.2848808428
| 34> H 3.9080003162 -1.0586019801 4.0578362906
| 35> H -0.0962189293 -0.28754299 1.8428765432
| 36> H -0.210785127 -2.0349512755 2.2848971389
| 37> H -2.9571269177 0.6950881511 2.0774896276
| 38> H -1.973394367 2.1546294735 2.4110531023
| 39> H -3.5119514108 3.4847897492 0.9499821702
| 40> H -4.4925535345 2.0408257135 0.6662370646
| 41> H -4.3899038419 2.735482547 2.2939427871
| 42> H -4.9538659291 -0.0358522249 -2.2218836422
| 43> H -3.333386507 0.0031117243 -2.9794828977
| 44> H -2.7619752662 -2.1651463402 -1.9925755137
| 45> H -4.2934920448 -2.216323502 -1.1061644696
| 46> H -4.2850202645 -2.3268461723 -2.8767083278
| 47> *
| 48>
| 49>                          ****END OF INPUT****

CARTESIAN COORDINATES (ANGSTROEM)
---------------------------------
  C      2.775829    0.352163   -3.483405
  C      3.000750   -0.276720   -2.125427
  O      2.427056    0.609280   -1.129856
  P      2.160150    0.169380    0.353096
  S      1.327234    1.615885    1.372361
  O      3.637874   -0.256055    0.785156
  C      3.983921   -1.064134    1.923774
  C      3.544116   -0.449663    3.236664
  S      1.125608   -1.696502    0.336009
  C     -0.239705   -1.309299    1.476211
  S     -1.885635   -1.475422    0.741268
  P     -1.931492    0.267322   -0.480110
  S     -0.640701    0.422535   -1.938763
  O     -1.818013    1.475833    0.522454
  C     -2.643564    1.671225    1.696514
  C     -3.841188    2.541549    1.377625
  O     -3.453051    0.307610   -0.942376
  C     -3.917013   -0.361726   -2.128543
  C     -3.809759   -1.868344   -2.015531
  H      3.191499   -0.293758   -4.249596
  H      1.709054    0.478159   -3.654629
  H      3.253421    1.326610   -3.527903
  H      4.062687   -0.391447   -1.898633
  H      2.501604   -1.247688   -2.053061
  H      3.539304   -2.054495    1.788385
  H      5.071277   -1.135728    1.863059
  H      3.938081    0.559173    3.332540
  H      2.457803   -0.396139    3.284881
  H      3.908000   -1.058602    4.057836
  H     -0.096219   -0.287543    1.842877
  H     -0.210785   -2.034951    2.284897
  H     -2.957127    0.695088    2.077490
  H     -1.973394    2.154629    2.411053
  H     -3.511951    3.484790    0.949982
  H     -4.492554    2.040826    0.666237
  H     -4.389904    2.735483    2.293943
  H     -4.953866   -0.035852   -2.221884
  H     -3.333387    0.003112   -2.979483
  H     -2.761975   -2.165146   -1.992576
  H     -4.293492   -2.216324   -1.106164
  H     -4.285020   -2.326846   -2.876708

 Total Charge           Charge          ....    0
 Multiplicity           Mult            ....    1
 Number of Electrons    NEL             ....  202
 Basis Dimension        Dim             ....  334

ORBITAL ENERGIES
----------------

  NO   OCC          E(Eh)            E(eV)
   0   2.0000     -88.042084     -2395.7469
   1   2.0000     -88.040492     -2395.7036
   2   2.0000     -87.979403     -2394.0413
   3   2.0000     -87.977085     -2393.9782
   4   2.0000     -76.420895     -2079.5183
   5   2.0000     -76.419882     -2079.4907
   6   2.0000     -18.790022      -511.3025
   7   2.0000     -18.784686      -511.1573
   8   2.0000     -18.783802      -511.1332
   9   2.0000     -18.782401      -511.0951
  10   2.0000      -9.955773      -270.9104
  11   2.0000      -9.951685      -270.7991
  12   2.0000      -9.951541      -270.7952
  13   2.0000      -9.949992      -270.7530
  14   2.0000      -9.949577      -270.7418
  15   2.0000      -9.884166      -268.9618
  16   2.0000      -9.881718      -268.8952
  17   2.0000      -9.881578      -268.8914
  18   2.0000      -9.879637      -268.8386
  19   2.0000      -7.687043      -209.1751
  20   2.0000      -7.685145      -209.1234
  21   2.0000      -7.624668      -207.4778
  22   2.0000      -7.622073      -207.4071
  23   2.0000      -6.418361      -174.6525
  24   2.0000      -6.417109      -174.6184
  25   2.0000      -5.714742      -155.5060
  26   2.0000      -5.712924      -155.4566
  27   2.0000      -5.711440      -155.4162
  28   2.0000      -5.709635      -155.3671
  29   2.0000      -5.704304      -155.2220
  30   2.0000      -5.702309      -155.1677
  31   2.0000      -5.653673      -153.8443
  32   2.0000      -5.651047      -153.7728
  33   2.0000      -5.645476      -153.6212
  34   2.0000      -5.644470      -153.5938
  35   2.0000      -5.642581      -153.5424
  36   2.0000      -5.642273      -153.5341
  37   2.0000      -4.641376      -126.2983
  38   2.0000      -4.640194      -126.2661
  39   2.0000      -4.639680      -126.2521
  40   2.0000      -4.639102      -126.2364
  41   2.0000      -4.638369      -126.2164
  42   2.0000      -4.637417      -126.1905
  43   2.0000      -0.983339       -26.7580
  44   2.0000      -0.980591       -26.6832
  45   2.0000      -0.941687       -25.6246
  46   2.0000      -0.935466       -25.4553
  47   2.0000      -0.759378       -20.6637
  48   2.0000      -0.716840       -19.5062
  49   2.0000      -0.708549       -19.2806
  50   2.0000      -0.687907       -18.7189
  51   2.0000      -0.684708       -18.6318
  52   2.0000      -0.674800       -18.3622
  53   2.0000      -0.646982       -17.6053
  54   2.0000      -0.633573       -17.2404
  55   2.0000      -0.592083       -16.1114
  56   2.0000      -0.582786       -15.8584
  57   2.0000      -0.572987       -15.5918
  58   2.0000      -0.565008       -15.3747
  59   2.0000      -0.562246       -15.2995
  60   2.0000      -0.502784       -13.6814
  61   2.0000      -0.496341       -13.5061
  62   2.0000      -0.471976       -12.8431
  63   2.0000      -0.469215       -12.7680
  64   2.0000      -0.452027       -12.3003
  65   2.0000      -0.447504       -12.1772
  66   2.0000      -0.439429       -11.9575
  67   2.0000      -0.427849       -11.6424
  68   2.0000      -0.426171       -11.5967
  69   2.0000      -0.419690       -11.4204
  70   2.0000      -0.408994       -11.1293
  71   2.0000      -0.404830       -11.0160
  72   2.0000      -0.388349       -10.5675
  73   2.0000      -0.381852       -10.3907
  74   2.0000      -0.378685       -10.3045
  75   2.0000      -0.363430        -9.8894
  76   2.0000      -0.356551        -9.7023
  77   2.0000      -0.352599        -9.5947
  78   2.0000      -0.350599        -9.5403
  79   2.0000      -0.347340        -9.4516
  80   2.0000      -0.346048        -9.4164
  81   2.0000      -0.343963        -9.3597
  82   2.0000      -0.340186        -9.2569
  83   2.0000      -0.334381        -9.0990
  84   2.0000      -0.327747        -8.9185
  85   2.0000      -0.315068        -8.5734
  86   2.0000      -0.313595        -8.5334
  87   2.0000      -0.292784        -7.9671
  88   2.0000      -0.291609        -7.9351
  89   2.0000      -0.287130        -7.8132
  90   2.0000      -0.286534        -7.7970
  91   2.0000      -0.268299        -7.3008
  92   2.0000      -0.266147        -7.2422
  93   2.0000      -0.259593        -7.0639
  94   2.0000      -0.254574        -6.9273
  95   2.0000      -0.240234        -6.5371
  96   2.0000      -0.219806        -5.9812
  97   2.0000      -0.200097        -5.4449
  98   2.0000      -0.196835        -5.3562
  99   2.0000      -0.188747        -5.1361
 100   2.0000      -0.186797        -5.0830
 101   0.0000      -0.037365        -1.0167
 102   0.0000      -0.028464        -0.7745
 103   0.0000      -0.011215        -0.3052
 104   0.0000       0.002912         0.0792
 105   0.0000       0.023652         0.6436

MULLIKEN ATOMIC CHARGES
-----------------------
   0 C :   -0.285330
   1 C :   -0.016514
   2 O :   -0.345358
   3 P :    0.608352
   4 S :   -0.291266
   5 O :   -0.384498
   6 C :   -0.002988
   7 C :   -0.306023
   8 S :   -0.111470
   9 C :   -0.349767
  10 S :   -0.108126
  11 P :    0.608060
  12 S :   -0.310095
  13 O :   -0.342016
  14 C :   -0.017600
  15 C :   -0.287013
  16 O :   -0.382141
  17 C :    0.001817
  18 C :   -0.327426
  19 H :    0.106096
  20 H :    0.137742
  21 H :    0.119963
  22 H :    0.105304
  23 H :    0.108005
  24 H :    0.102254
  25 H :    0.104121
  26 H :    0.125086
  27 H :    0.117484
  28 H :    0.107228
  29 H :    0.195427
  30 H :    0.179429
  31 H :    0.097545
  32 H :    0.111508
  33 H :    0.122232
  34 H :    0.120358
  35 H :    0.106990
  36 H :    0.103869
  37 H :    0.112450
  38 H :    0.132713
  39 H :    0.118656
  40 H :    0.114943
Sum of atomic charges:   -0.0000000

LOEWDIN ATOMIC CHARGES
----------------------
   0 C :   -0.350505
   1 C :   -0.114716
   2 O :   -0.223994
   3 P :    0.568733
   4 S :   -0.286121
   5 O :   -0.252158
   6 C :   -0.119754
   7 C :   -0.367577
   8 S :    0.067834
   9 C :   -0.486263
  10 S :    0.074075
  11 P :    0.565413
  12 S :   -0.303298
  13 O :   -0.224239
  14 C :   -0.117240
  15 C :   -0.359491
  16 O :   -0.248774
  17 C :   -0.118389
  18 C :   -0.373689
  19 H :    0.128330
  20 H :    0.129061
  21 H :    0.129571
  22 H :    0.112475
  23 H :    0.106754
  24 H :    0.101811
  25 H :    0.118673
  26 H :    0.130450
  27 H :    0.117379
  28 H :    0.127687
  29 H :    0.119286
  30 H :    0.135319
  31 H :    0.100647
  32 H :    0.120290
  33 H :    0.129847
  34 H :    0.125294
  35 H :    0.128508
  36 H :    0.117886
  37 H :    0.112511
  38 H :    0.123210
  39 H :    0.122946
  40 H :    0.132220

  Mayer bond orders larger than 0.100000
B(  0-C ,  1-C ) :   1.1673 B(  0-C , 19-H ) :   0.9403 B(  0-C , 20-H ) :   0.9440
B(  0-C , 21-H ) :   0.9492 B(  1-C ,  2-O ) :   0.8890 B(  1-C , 22-H ) :   0.9281
B(  1-C , 23-H ) :   0.9164 B(  2-O ,  3-P ) :   1.1514 B(  3-P ,  4-S ) :   1.6385
B(  3-P ,  5-O ) :   1.0674 B(  3-P ,  8-S ) :   0.9388 B(  4-S ,  8-S ) :   0.1172
B(  4-S , 29-H ) :   0.1277 B(  5-O ,  6-C ) :   0.9254 B(  6-C ,  7-C ) :   1.1643
B(  6-C , 24-H ) :   0.9178 B(  6-C , 25-H ) :   0.9336 B(  7-C , 26-H ) :   0.9445
B(  7-C , 27-H ) :   0.9359 B(  7-C , 28-H ) :   0.9363 B(  8-S ,  9-C ) :   1.0036
B(  9-C , 10-S ) :   0.9939 B(  9-C , 29-H ) :   0.8410 B(  9-C , 30-H ) :   0.9108
B( 10-S , 11-P ) :   0.9458 B( 10-S , 12-S ) :   0.1109 B( 11-P , 12-S ) :   1.6627
B( 11-P , 13-O ) :   1.1445 B( 11-P , 16-O ) :   1.0749 B( 13-O , 14-C ) :   0.8972
B( 14-C , 15-C ) :   1.1678 B( 14-C , 31-H ) :   0.9074 B( 14-C , 32-H ) :   0.9307
B( 15-C , 33-H ) :   0.9474 B( 15-C , 34-H ) :   0.9414 B( 15-C , 35-H ) :   0.9396
B( 16-O , 17-C ) :   0.9071 B( 17-C , 18-C ) :   1.1651 B( 17-C , 36-H ) :   0.9334
B( 17-C , 37-H ) :   0.9161 B( 18-C , 38-H ) :   0.9325 B( 18-C , 39-H ) :   0.9426
B( 18-C , 40-H ) :   0.9373

Dispersion correction           -0.066738830
FINAL SINGLE POINT ENERGY     -2929.513418742149

DIPOLE MOMENT
-------------

Method             : SCF
Type of density    : Electron Density
Multiplicity       :   1
Irrep              :   0
Energy             : -2929.6315932780935327 Eh
Relativity type    :
Basis              : AO
                                X                 Y                 Z
Electronic contribution:      3.266992809       1.187213561       0.082863182
Nuclear contribution   :     -3.593118913      -2.358429851       0.361830099
                        -----------------------------------------
Total Dipole Moment    :     -0.326126105      -1.171216290       0.444693281
                        -----------------------------------------
Magnitude (a.u.)       :      1.294549322
Magnitude (Debye)      :      3.290482879

Rotational constants in cm-1:             0.011548             0.005520             0.004876
Rotational constants in MHz :           346.206369           165.474816           146.183979

                             ****ORCA TERMINATED NORMALLY****
TOTAL RUN TIME: 0 days 0 hours 0 minutes 20 seconds 761 msec
