                         Program Version 6.0.1  -  RELEASE   -
|  1> ! pbe def2-sv(p) def2/J RI DEFGRID1 loosescf d4 GCP(DFT/SV(P)) printgap
|  2> %output
|  3>     printlevel normal
|  4> end
|  5> * xyz 0 1
|  6> C 5.4751311411 -1.8890664388 -1.131265206
|  7> C 4.6810462832 -0.6107704336 -0.9144057306
|  8> O 3.2752306873 -0.8313131673 -1.1396373193
|  9> C 2.5404701519 -1.2674776654 -0.1358380544
| 10> O 2.9575438974 -1.496612246 0.9761420665
| 11> C 1.0897503398 -1.4491758526 -0.5511032004
| 12> C 0.5273101273 -0.1456871793 -1.1233737088
| 13> H 1.1189577238 0.163374298 -1.9884418348
| 14> C 0.5407563323 0.9484288806 -0.0776456976
| 15> O -0.4846039885 1.4484894424 0.348462674
| 16> O 1.7427501602 1.2548651417 0.312004942
| 17> C 1.9016773437 2.254547053 1.3465847893
| 18> C 1.947835367 3.6482307086 0.7444756151
| 19> S -1.1856312978 -0.330952917 -1.7207669939
| 20> P -2.3002925805 -0.1674230386 0.06755014
| 21> S -1.6954171267 -0.7816166962 1.8436182894
| 22> O -3.1942420101 1.1587149037 0.0728346045
| 23> C -3.0382157398 2.2827690596 0.9373247776
| 24> O -3.3946139081 -1.1735996689 -0.5457265733
| 25> C -4.5606188269 -1.5487278451 0.1904265253
| 26> H 5.1867012241 -2.6371893071 -0.3963460017
| 27> H 5.2897021476 -2.2810332366 -2.1273795256
| 28> H 6.5335578359 -1.6776422524 -1.0208417605
| 29> H 4.9557042814 0.1552518583 -1.6393637469
| 30> H 4.8156184981 -0.2403432741 0.1053833686
| 31> H 0.5179666393 -1.771433556 0.322003051
| 32> H 1.035836957 -2.2190376279 -1.3215991191
| 33> H 1.075516354 2.1535869145 2.0552329354
| 34> H 2.8431425939 1.9912412548 1.8287738948
| 35> H 2.1274509883 4.3691151381 1.535006184
| 36> H 2.7463128948 3.7137954446 0.0110796094
| 37> H 1.0015698684 3.8823099855 0.262643405
| 38> H -2.4211316642 3.0340059549 0.4492574847
| 39> H -2.5724803051 1.9750246701 1.8746064915
| 40> H -4.0418332358 2.662582165 1.1165660123
| 41> H -4.9731337472 -2.4095516292 -0.3297603483
| 42> H -5.2765871715 -0.7275174171 0.2021738451
| 43> H -4.2879439813 -1.8173495446 1.2135365475
| 44> *
| 45>
| 46>                          ****END OF INPUT****

CARTESIAN COORDINATES (ANGSTROEM)
---------------------------------
  C      5.475131   -1.889066   -1.131265
  C      4.681046   -0.610770   -0.914406
  O      3.275231   -0.831313   -1.139637
  C      2.540470   -1.267478   -0.135838
  O      2.957544   -1.496612    0.976142
  C      1.089750   -1.449176   -0.551103
  C      0.527310   -0.145687   -1.123374
  H      1.118958    0.163374   -1.988442
  C      0.540756    0.948429   -0.077646
  O     -0.484604    1.448489    0.348463
  O      1.742750    1.254865    0.312005
  C      1.901677    2.254547    1.346585
  C      1.947835    3.648231    0.744476
  S     -1.185631   -0.330953   -1.720767
  P     -2.300293   -0.167423    0.067550
  S     -1.695417   -0.781617    1.843618
  O     -3.194242    1.158715    0.072835
  C     -3.038216    2.282769    0.937325
  O     -3.394614   -1.173600   -0.545727
  C     -4.560619   -1.548728    0.190427
  H      5.186701   -2.637189   -0.396346
  H      5.289702   -2.281033   -2.127380
  H      6.533558   -1.677642   -1.020842
  H      4.955704    0.155252   -1.639364
  H      4.815618   -0.240343    0.105383
  H      0.517967   -1.771434    0.322003
  H      1.035837   -2.219038   -1.321599
  H      1.075516    2.153587    2.055233
  H      2.843143    1.991241    1.828774
  H      2.127451    4.369115    1.535006
  H      2.746313    3.713795    0.011080
  H      1.001570    3.882310    0.262643
  H     -2.421132    3.034006    0.449257
  H     -2.572480    1.975025    1.874606
  H     -4.041833    2.662582    1.116566
  H     -4.973134   -2.409552   -0.329760
  H     -5.276587   -0.727517    0.202174
  H     -4.287944   -1.817350    1.213537

 Total Charge           Charge          ....    0
 Multiplicity           Mult            ....    1
 Number of Electrons    NEL             ....  174
 Basis Dimension        Dim             ....  316

ORBITAL ENERGIES
----------------

  NO   OCC          E(Eh)            E(eV)
   0   2.0000     -88.032838     -2395.4953
   1   2.0000     -87.968613     -2393.7477
   2   2.0000     -76.416532     -2079.3995
   3   2.0000     -18.832478      -512.4578
   4   2.0000     -18.804710      -511.7022
   5   2.0000     -18.779036      -511.0036
   6   2.0000     -18.768871      -510.7269
   7   2.0000     -18.767490      -510.6894
   8   2.0000     -18.738717      -509.9064
   9   2.0000     -10.036789      -273.1149
  10   2.0000     -10.010470      -272.3987
  11   2.0000      -9.964158      -271.1385
  12   2.0000      -9.953759      -270.8555
  13   2.0000      -9.952850      -270.8308
  14   2.0000      -9.932079      -270.2656
  15   2.0000      -9.927733      -270.1474
  16   2.0000      -9.907189      -269.5883
  17   2.0000      -9.901653      -269.4377
  18   2.0000      -9.890706      -269.1398
  19   2.0000      -7.678181      -208.9339
  20   2.0000      -7.613594      -207.1764
  21   2.0000      -6.412079      -174.4815
  22   2.0000      -5.706478      -155.2812
  23   2.0000      -5.702837      -155.1821
  24   2.0000      -5.694475      -154.9545
  25   2.0000      -5.642796      -153.5483
  26   2.0000      -5.634510      -153.3228
  27   2.0000      -5.633188      -153.2868
  28   2.0000      -4.634766      -126.1184
  29   2.0000      -4.634057      -126.0991
  30   2.0000      -4.632713      -126.0625
  31   2.0000      -1.042608       -28.3708
  32   2.0000      -1.012551       -27.5529
  33   2.0000      -0.967634       -26.3307
  34   2.0000      -0.947122       -25.7725
  35   2.0000      -0.922148       -25.0929
  36   2.0000      -0.915878       -24.9223
  37   2.0000      -0.770040       -20.9538
  38   2.0000      -0.721022       -19.6200
  39   2.0000      -0.712751       -19.3949
  40   2.0000      -0.687112       -18.6973
  41   2.0000      -0.651196       -17.7199
  42   2.0000      -0.631319       -17.1791
  43   2.0000      -0.618468       -16.8294
  44   2.0000      -0.614185       -16.7128
  45   2.0000      -0.596869       -16.2416
  46   2.0000      -0.570171       -15.5151
  47   2.0000      -0.517649       -14.0859
  48   2.0000      -0.508724       -13.8431
  49   2.0000      -0.501013       -13.6332
  50   2.0000      -0.488427       -13.2908
  51   2.0000      -0.468282       -12.7426
  52   2.0000      -0.465179       -12.6582
  53   2.0000      -0.453001       -12.3268
  54   2.0000      -0.444793       -12.1034
  55   2.0000      -0.433797       -11.8042
  56   2.0000      -0.422509       -11.4971
  57   2.0000      -0.418662       -11.3924
  58   2.0000      -0.412960       -11.2372
  59   2.0000      -0.404414       -11.0047
  60   2.0000      -0.398819       -10.8524
  61   2.0000      -0.396486       -10.7889
  62   2.0000      -0.389661       -10.6032
  63   2.0000      -0.387127       -10.5343
  64   2.0000      -0.374727       -10.1968
  65   2.0000      -0.371347       -10.1049
  66   2.0000      -0.365792        -9.9537
  67   2.0000      -0.358124        -9.7450
  68   2.0000      -0.352904        -9.6030
  69   2.0000      -0.345881        -9.4119
  70   2.0000      -0.342341        -9.3156
  71   2.0000      -0.331397        -9.0178
  72   2.0000      -0.328412        -8.9365
  73   2.0000      -0.313594        -8.5333
  74   2.0000      -0.306742        -8.3469
  75   2.0000      -0.297260        -8.0889
  76   2.0000      -0.291915        -7.9434
  77   2.0000      -0.288634        -7.8541
  78   2.0000      -0.274704        -7.4751
  79   2.0000      -0.262806        -7.1513
  80   2.0000      -0.260325        -7.0838
  81   2.0000      -0.256802        -6.9879
  82   2.0000      -0.245465        -6.6794
  83   2.0000      -0.225909        -6.1473
  84   2.0000      -0.208453        -5.6723
  85   2.0000      -0.188616        -5.1325
  86   2.0000      -0.181499        -4.9388
  87   0.0000      -0.051790        -1.4093
  88   0.0000      -0.039980        -1.0879
  89   0.0000      -0.021493        -0.5849
  90   0.0000       0.012672         0.3448
  91   0.0000       0.026482         0.7206

MULLIKEN ATOMIC CHARGES
-----------------------
   0 C :   -0.304330
   1 C :   -0.010597
   2 O :   -0.243089
   3 C :    0.101686
   4 O :   -0.192570
   5 C :   -0.040192
   6 C :   -0.337939
   7 H :    0.156189
   8 C :    0.236279
   9 O :   -0.202024
  10 O :   -0.213891
  11 C :   -0.012020
  12 C :   -0.310422
  13 S :   -0.057046
  14 P :    0.646106
  15 S :   -0.350058
  16 O :   -0.391068
  17 C :   -0.084976
  18 O :   -0.394679
  19 C :   -0.094883
  20 H :    0.129945
  21 H :    0.114581
  22 H :    0.113284
  23 H :    0.099799
  24 H :    0.105581
  25 H :    0.124793
  26 H :    0.123069
  27 H :    0.126155
  28 H :    0.118193
  29 H :    0.122286
  30 H :    0.117822
  31 H :    0.128790
  32 H :    0.110406
  33 H :    0.113778
  34 H :    0.114274
  35 H :    0.119073
  36 H :    0.105817
  37 H :    0.111877
Sum of atomic charges:    0.0000000

LOEWDIN ATOMIC CHARGES
----------------------
   0 C :   -0.355787
   1 C :   -0.110406
   2 O :   -0.065151
   3 C :    0.020977
   4 O :   -0.159808
   5 C :   -0.247058
   6 C :   -0.269680
   7 H :    0.149624
   8 C :    0.035884
   9 O :   -0.150048
  10 O :   -0.022718
  11 C :   -0.103110
  12 C :   -0.355043
  13 S :    0.123613
  14 P :    0.588303
  15 S :   -0.346023
  16 O :   -0.252931
  17 C :   -0.212377
  18 O :   -0.271840
  19 C :   -0.216239
  20 H :    0.132124
  21 H :    0.125201
  22 H :    0.130854
  23 H :    0.116267
  24 H :    0.118517
  25 H :    0.137917
  26 H :    0.145060
  27 H :    0.128479
  28 H :    0.125490
  29 H :    0.135653
  30 H :    0.126958
  31 H :    0.130252
  32 H :    0.109804
  33 H :    0.107881
  34 H :    0.114841
  35 H :    0.119227
  36 H :    0.108199
  37 H :    0.107095

  Mayer bond orders larger than 0.100000
B(  0-C ,  1-C ) :   1.1756 B(  0-C , 20-H ) :   0.9458 B(  0-C , 21-H ) :   0.9487
B(  0-C , 22-H ) :   0.9441 B(  1-C ,  2-O ) :   0.9167 B(  1-C , 23-H ) :   0.9371
B(  1-C , 24-H ) :   0.9131 B(  2-O ,  3-C ) :   1.1920 B(  3-C ,  4-O ) :   2.0686
B(  3-C ,  5-C ) :   1.0155 B(  5-C ,  6-C ) :   1.0195 B(  5-C , 25-H ) :   0.8785
B(  5-C , 26-H ) :   0.8874 B(  6-C ,  7-H ) :   0.8670 B(  6-C ,  8-C ) :   0.9075
B(  6-C , 13-S ) :   1.0433 B(  8-C ,  9-O ) :   1.8942 B(  8-C , 10-O ) :   1.2821
B(  9-O , 14-P ) :   0.1383 B( 10-O , 11-C ) :   0.8883 B( 11-C , 12-C ) :   1.1726
B( 11-C , 27-H ) :   0.9154 B( 11-C , 28-H ) :   0.9337 B( 12-C , 29-H ) :   0.9434
B( 12-C , 30-H ) :   0.9475 B( 12-C , 31-H ) :   0.9455 B( 13-S , 14-P ) :   0.9315
B( 13-S , 15-S ) :   0.1092 B( 14-P , 15-S ) :   1.5552 B( 14-P , 16-O ) :   1.0891
B( 14-P , 18-O ) :   1.0700 B( 16-O , 17-C ) :   0.9339 B( 17-C , 32-H ) :   0.9538
B( 17-C , 33-H ) :   0.9340 B( 17-C , 34-H ) :   0.9543 B( 18-O , 19-C ) :   0.9425
B( 19-C , 35-H ) :   0.9610 B( 19-C , 36-H ) :   0.9512 B( 19-C , 37-H ) :   0.9321

Dispersion correction           -0.051596288
FINAL SINGLE POINT ENERGY     -1979.010570292985

DIPOLE MOMENT
-------------

Method             : SCF
Type of density    : Electron Density
Multiplicity       :   1
Irrep              :   0
Energy             : -1979.1426015218976318 Eh
Relativity type    :
Basis              : AO
                                X                 Y                 Z
Electronic contribution:    -15.714173164      -6.578511868      -2.559565539
Nuclear contribution   :     16.857856499       7.991966187       1.955885995
                        -----------------------------------------
Total Dipole Moment    :      1.143683335       1.413454319      -0.603679544
                        -----------------------------------------
Magnitude (a.u.)       :      1.915801053
Magnitude (Debye)      :      4.869579286

Rotational constants in cm-1:             0.016268             0.006079             0.005222
Rotational constants in MHz :           487.692463           182.255976           156.564272

                             ****ORCA TERMINATED NORMALLY****
TOTAL RUN TIME: 0 days 0 hours 0 minutes 42 seconds 804 msec
