                         Program Version 6.0.0  -   RELEASE  -
|  1> ! pbe def2-sv(p) def2/J RI DEFGRID1 loosescf d4 GCP(DFT/SV(P)) printgap
|  2> %output
|  3>     printlevel normal
|  4> end
|  5> * xyz 0 1
|  6> C 3.3790886646 -2.8429301022 -0.9965962115
|  7> C 3.8530997523 -1.65262359 -1.8008873277
|  8> O 3.9334778678 -0.4389263554 -1.0128550931
|  9> P 2.7837808571 0.2039821426 -0.1572137763
| 10> S 3.1243486098 2.0916881612 0.2325049981
| 11> O 2.7673359205 -0.730093919 1.132479297
| 12> C 2.0836899834 -0.400958861 2.3547464726
| 13> C 0.9218200764 -1.3494482774 2.5782512086
| 14> S 1.0005814468 -0.1899298674 -1.2762474149
| 15> C 0.1440854504 1.3682651821 -0.9609553604
| 16> S -0.7164404182 1.3950354973 0.6317287261
| 17> P -2.3133365467 0.143016496 0.0273077556
| 18> S -3.0221376061 0.4506140673 -1.7816116827
| 19> O -3.3290712015 0.2078909126 1.2443952217
| 20> C -3.8308616289 1.4095149597 1.8563491012
| 21> C -4.4184145447 2.3809518583 0.8535235638
| 22> O -1.6897921834 -1.2996103333 0.234204849
| 23> C -2.1380166833 -2.4482208552 -0.5104792216
| 24> C -3.4993048834 -2.9061859793 -0.0321823926
| 25> H 3.4303733299 -3.7329219576 -1.6162121227
| 26> H 4.0043409748 -2.9768366345 -0.1178662752
| 27> H 2.3492858836 -2.691771718 -0.6788046881
| 28> H 3.1880761793 -1.4634885949 -2.6474671274
| 29> H 4.8764838152 -1.784524468 -2.1552053267
| 30> H 2.8330950332 -0.5072457665 3.1420765987
| 31> H 1.7519955823 0.6423362731 2.3182117502
| 32> H 0.1792258279 -1.2442700974 1.7909846518
| 33> H 1.2779255958 -2.3755782248 2.5902403704
| 34> H 0.4555974673 -1.1191238047 3.5306988169
| 35> H -0.5841970939 1.4980272806 -1.7625137763
| 36> H 0.8712234732 2.181256492 -0.9399969397
| 37> H -4.5899304908 1.0457602585 2.551240395
| 38> H -3.0119182294 1.8754000936 2.4116831816
| 39> H -5.1838153809 1.8933156749 0.2542207147
| 40> H -4.8572002513 3.2223248924 1.3802077745
| 41> H -3.6403820525 2.7494293804 0.1857664032
| 42> H -2.1645594032 -2.1880740514 -1.5736164618
| 43> H -1.3673967108 -3.1990705413 -0.3331811989
| 44> H -3.4738716611 -3.1103028595 1.0347126484
| 45> H -4.2336484593 -2.1236765635 -0.2216529414
| 46> H -3.7901893869 -3.8037677621 -0.568587999
| 47> *
| 48>
| 49>                          ****END OF INPUT****

CARTESIAN COORDINATES (ANGSTROEM)
---------------------------------
  C      3.379089   -2.842930   -0.996596
  C      3.853100   -1.652624   -1.800887
  O      3.933478   -0.438926   -1.012855
  P      2.783781    0.203982   -0.157214
  S      3.124349    2.091688    0.232505
  O      2.767336   -0.730094    1.132479
  C      2.083690   -0.400959    2.354746
  C      0.921820   -1.349448    2.578251
  S      1.000581   -0.189930   -1.276247
  C      0.144085    1.368265   -0.960955
  S     -0.716440    1.395035    0.631729
  P     -2.313337    0.143016    0.027308
  S     -3.022138    0.450614   -1.781612
  O     -3.329071    0.207891    1.244395
  C     -3.830862    1.409515    1.856349
  C     -4.418415    2.380952    0.853524
  O     -1.689792   -1.299610    0.234205
  C     -2.138017   -2.448221   -0.510479
  C     -3.499305   -2.906186   -0.032182
  H      3.430373   -3.732922   -1.616212
  H      4.004341   -2.976837   -0.117866
  H      2.349286   -2.691772   -0.678805
  H      3.188076   -1.463489   -2.647467
  H      4.876484   -1.784524   -2.155205
  H      2.833095   -0.507246    3.142077
  H      1.751996    0.642336    2.318212
  H      0.179226   -1.244270    1.790985
  H      1.277926   -2.375578    2.590240
  H      0.455597   -1.119124    3.530699
  H     -0.584197    1.498027   -1.762514
  H      0.871223    2.181256   -0.939997
  H     -4.589930    1.045760    2.551240
  H     -3.011918    1.875400    2.411683
  H     -5.183815    1.893316    0.254221
  H     -4.857200    3.222325    1.380208
  H     -3.640382    2.749429    0.185766
  H     -2.164559   -2.188074   -1.573616
  H     -1.367397   -3.199071   -0.333181
  H     -3.473872   -3.110303    1.034713
  H     -4.233648   -2.123677   -0.221653
  H     -3.790189   -3.803768   -0.568588

 Total Charge           Charge          ....    0
 Multiplicity           Mult            ....    1
 Number of Electrons    NEL             ....  202
 Basis Dimension        Dim             ....  334

ORBITAL ENERGIES
----------------

  NO   OCC          E(Eh)            E(eV)
   0   2.0000     -88.048947     -2395.9336
   1   2.0000     -88.043482     -2395.7849
   2   2.0000     -87.992575     -2394.3997
   3   2.0000     -87.984323     -2394.1751
   4   2.0000     -76.432701     -2079.8395
   5   2.0000     -76.426410     -2079.6683
   6   2.0000     -18.799477      -511.5598
   7   2.0000     -18.794394      -511.4215
   8   2.0000     -18.794307      -511.4191
   9   2.0000     -18.787454      -511.2326
  10   2.0000      -9.963777      -271.1281
  11   2.0000      -9.961331      -271.0616
  12   2.0000      -9.953626      -270.8519
  13   2.0000      -9.953345      -270.8443
  14   2.0000      -9.946685      -270.6631
  15   2.0000      -9.892043      -269.1762
  16   2.0000      -9.887619      -269.0558
  17   2.0000      -9.885935      -269.0100
  18   2.0000      -9.876831      -268.7622
  19   2.0000      -7.693812      -209.3593
  20   2.0000      -7.688283      -209.2088
  21   2.0000      -7.637398      -207.8242
  22   2.0000      -7.629581      -207.6115
  23   2.0000      -6.430023      -174.9698
  24   2.0000      -6.423863      -174.8022
  25   2.0000      -5.721499      -155.6899
  26   2.0000      -5.718392      -155.6054
  27   2.0000      -5.716071      -155.5422
  28   2.0000      -5.712791      -155.4530
  29   2.0000      -5.710932      -155.4024
  30   2.0000      -5.705409      -155.2521
  31   2.0000      -5.666239      -154.1862
  32   2.0000      -5.658587      -153.9780
  33   2.0000      -5.658158      -153.9663
  34   2.0000      -5.657537      -153.9494
  35   2.0000      -5.650207      -153.7499
  36   2.0000      -5.649587      -153.7331
  37   2.0000      -4.652537      -126.6020
  38   2.0000      -4.651959      -126.5862
  39   2.0000      -4.650395      -126.5437
  40   2.0000      -4.646531      -126.4385
  41   2.0000      -4.645612      -126.4135
  42   2.0000      -4.644258      -126.3767
  43   2.0000      -0.992805       -27.0156
  44   2.0000      -0.986542       -26.8452
  45   2.0000      -0.951623       -25.8950
  46   2.0000      -0.943757       -25.6809
  47   2.0000      -0.766979       -20.8706
  48   2.0000      -0.724431       -19.7128
  49   2.0000      -0.714044       -19.4301
  50   2.0000      -0.692674       -18.8486
  51   2.0000      -0.689321       -18.7574
  52   2.0000      -0.677880       -18.4460
  53   2.0000      -0.653105       -17.7719
  54   2.0000      -0.639641       -17.4055
  55   2.0000      -0.603244       -16.4151
  56   2.0000      -0.597767       -16.2661
  57   2.0000      -0.578899       -15.7526
  58   2.0000      -0.571894       -15.5620
  59   2.0000      -0.562418       -15.3042
  60   2.0000      -0.503245       -13.6940
  61   2.0000      -0.494752       -13.4629
  62   2.0000      -0.477712       -12.9992
  63   2.0000      -0.475539       -12.9401
  64   2.0000      -0.465050       -12.6546
  65   2.0000      -0.450153       -12.2493
  66   2.0000      -0.441705       -12.0194
  67   2.0000      -0.440687       -11.9917
  68   2.0000      -0.430552       -11.7159
  69   2.0000      -0.422388       -11.4938
  70   2.0000      -0.408709       -11.1215
  71   2.0000      -0.403030       -10.9670
  72   2.0000      -0.395420       -10.7599
  73   2.0000      -0.388922       -10.5831
  74   2.0000      -0.383844       -10.4449
  75   2.0000      -0.380161       -10.3447
  76   2.0000      -0.367004        -9.9867
  77   2.0000      -0.357646        -9.7321
  78   2.0000      -0.355567        -9.6755
  79   2.0000      -0.351681        -9.5697
  80   2.0000      -0.351341        -9.5605
  81   2.0000      -0.348339        -9.4788
  82   2.0000      -0.345805        -9.4098
  83   2.0000      -0.344116        -9.3639
  84   2.0000      -0.329731        -8.9724
  85   2.0000      -0.323565        -8.8047
  86   2.0000      -0.315182        -8.5765
  87   2.0000      -0.302162        -8.2222
  88   2.0000      -0.294450        -8.0124
  89   2.0000      -0.292286        -7.9535
  90   2.0000      -0.287280        -7.8173
  91   2.0000      -0.280104        -7.6220
  92   2.0000      -0.277081        -7.5397
  93   2.0000      -0.268943        -7.3183
  94   2.0000      -0.255920        -6.9639
  95   2.0000      -0.237447        -6.4613
  96   2.0000      -0.220638        -6.0039
  97   2.0000      -0.213308        -5.8044
  98   2.0000      -0.206141        -5.6094
  99   2.0000      -0.203428        -5.5355
 100   2.0000      -0.199146        -5.4190
 101   0.0000      -0.048517        -1.3202
 102   0.0000      -0.030207        -0.8220
 103   0.0000      -0.011724        -0.3190
 104   0.0000      -0.002020        -0.0550
 105   0.0000       0.010739         0.2922

MULLIKEN ATOMIC CHARGES
-----------------------
   0 C :   -0.317309
   1 C :   -0.008925
   2 O :   -0.359293
   3 P :    0.601610
   4 S :   -0.310883
   5 O :   -0.373473
   6 C :   -0.003632
   7 C :   -0.319948
   8 S :   -0.116405
   9 C :   -0.356110
  10 S :   -0.088603
  11 P :    0.613515
  12 S :   -0.327173
  13 O :   -0.372980
  14 C :   -0.012440
  15 C :   -0.312007
  16 O :   -0.354065
  17 C :   -0.003782
  18 C :   -0.304456
  19 H :    0.115444
  20 H :    0.126968
  21 H :    0.128604
  22 H :    0.117638
  23 H :    0.115467
  24 H :    0.103720
  25 H :    0.103853
  26 H :    0.148726
  27 H :    0.105140
  28 H :    0.102909
  29 H :    0.194021
  30 H :    0.198220
  31 H :    0.111354
  32 H :    0.116129
  33 H :    0.127066
  34 H :    0.114341
  35 H :    0.127483
  36 H :    0.113135
  37 H :    0.104348
  38 H :    0.115881
  39 H :    0.123643
  40 H :    0.112271
Sum of atomic charges:   -0.0000000

LOEWDIN ATOMIC CHARGES
----------------------
   0 C :   -0.367699
   1 C :   -0.112186
   2 O :   -0.233510
   3 P :    0.571060
   4 S :   -0.305717
   5 O :   -0.245847
   6 C :   -0.117889
   7 C :   -0.368853
   8 S :    0.067397
   9 C :   -0.487757
  10 S :    0.092069
  11 P :    0.575195
  12 S :   -0.314253
  13 O :   -0.242597
  14 C :   -0.113164
  15 C :   -0.369510
  16 O :   -0.231930
  17 C :   -0.119949
  18 C :   -0.363204
  19 H :    0.132268
  20 H :    0.131191
  21 H :    0.119157
  22 H :    0.111756
  23 H :    0.125148
  24 H :    0.116825
  25 H :    0.101240
  26 H :    0.120424
  27 H :    0.121323
  28 H :    0.127501
  29 H :    0.128639
  30 H :    0.128977
  31 H :    0.122631
  32 H :    0.110841
  33 H :    0.130064
  34 H :    0.131505
  35 H :    0.122148
  36 H :    0.109104
  37 H :    0.117499
  38 H :    0.126113
  39 H :    0.123487
  40 H :    0.130505

  Mayer bond orders larger than 0.100000
B(  0-C ,  1-C ) :   1.1687 B(  0-C , 19-H ) :   0.9345 B(  0-C , 20-H ) :   0.9421
B(  0-C , 21-H ) :   0.9365 B(  1-C ,  2-O ) :   0.9010 B(  1-C , 22-H ) :   0.9220
B(  1-C , 23-H ) :   0.9340 B(  2-O ,  3-P ) :   1.1546 B(  3-P ,  4-S ) :   1.6386
B(  3-P ,  5-O ) :   1.0925 B(  3-P ,  8-S ) :   0.9267 B(  4-S ,  8-S ) :   0.1111
B(  4-S , 30-H ) :   0.1007 B(  5-O ,  6-C ) :   0.9028 B(  6-C ,  7-C ) :   1.1638
B(  6-C , 24-H ) :   0.9352 B(  6-C , 25-H ) :   0.9019 B(  7-C , 26-H ) :   0.9207
B(  7-C , 27-H ) :   0.9461 B(  7-C , 28-H ) :   0.9405 B(  8-S ,  9-C ) :   1.0207
B(  9-C , 10-S ) :   1.0027 B(  9-C , 29-H ) :   0.8661 B(  9-C , 30-H ) :   0.8588
B( 10-S , 11-P ) :   0.9519 B( 10-S , 12-S ) :   0.1074 B( 11-P , 12-S ) :   1.5954
B( 11-P , 13-O ) :   1.1150 B( 11-P , 16-O ) :   1.1120 B( 13-O , 14-C ) :   0.9116
B( 14-C , 15-C ) :   1.1643 B( 14-C , 31-H ) :   0.9339 B( 14-C , 32-H ) :   0.9282
B( 15-C , 33-H ) :   0.9428 B( 15-C , 34-H ) :   0.9348 B( 15-C , 35-H ) :   0.9329
B( 16-O , 17-C ) :   0.8993 B( 17-C , 18-C ) :   1.1642 B( 17-C , 36-H ) :   0.9113
B( 17-C , 37-H ) :   0.9327 B( 18-C , 38-H ) :   0.9469 B( 18-C , 39-H ) :   0.9360
B( 18-C , 40-H ) :   0.9397

Dispersion correction           -0.065491727
FINAL SINGLE POINT ENERGY     -2929.518583037099

DIPOLE MOMENT
-------------

Method             : SCF
Type of density    : Electron Density
Multiplicity       :   1
Irrep              :   0
Energy             : -2929.6389336489255584 Eh
Relativity type    :
Basis              : AO
                                X                 Y                 Z
Electronic contribution:     10.642563317      15.213653234      -7.601083289
Nuclear contribution   :    -11.363982649     -16.600570284       8.248006566
                        -----------------------------------------
Total Dipole Moment    :     -0.721419333      -1.386917050       0.646923277
                        -----------------------------------------
Magnitude (a.u.)       :      1.691890801
Magnitude (Debye)      :      4.300444654

Rotational constants in cm-1:             0.012400             0.004925             0.004520
Rotational constants in MHz :           371.746640           147.635200           135.500702

                             ****ORCA TERMINATED NORMALLY****
TOTAL RUN TIME: 0 days 0 hours 0 minutes 21 seconds 646 msec
