                         Program Version 6.0.0  -   RELEASE  -
|  1> ! pbe def2-sv(p) def2/J RI DEFGRID1 loosescf d4 GCP(DFT/SV(P)) printgap
|  2> %output
|  3>     printlevel normal
|  4> end
|  5> * xyz 0 1
|  6> C 1.8331978504 -3.8885895216 -0.9163855441
|  7> C 1.3592818122 -2.5497546041 -0.3889377246
|  8> O 2.4756332246 -1.6420981267 -0.41984811
|  9> P 2.2942082584 -0.0655884287 -0.3176672524
| 10> S 0.9851792495 0.6760129917 -1.5776175418
| 11> O 3.7403303368 0.4660783359 -0.6127508762
| 12> C 4.8708212146 0.4522618808 0.2972949806
| 13> C 5.1502999297 -0.9194235846 0.8698474029
| 14> S 1.9453205412 0.327313907 1.7524629811
| 15> C 0.2583140564 0.9501232434 1.6798020983
| 16> S -0.9501793045 -0.3460456894 1.2444778256
| 17> P -2.2121000778 0.7487778796 -0.0849312399
| 18> S -1.8862765096 2.6730443031 -0.1810797236
| 19> O -3.6614770667 0.3449339002 0.4420456923
| 20> C -4.1703467757 0.8449383174 1.6947977765
| 21> C -5.6602827139 0.5721858667 1.7327360496
| 22> O -2.1944854258 0.0254727148 -1.4770135683
| 23> C -2.4658071246 -1.3938307301 -1.6280636665
| 24> C -1.8827246012 -1.8328741452 -2.9546852335
| 25> H 2.187981092 -3.7822740768 -1.9375792136
| 26> H 2.6436471558 -4.2640548845 -0.2990395176
| 27> H 1.0079965595 -4.5924948166 -0.8936966039
| 28> H 1.0048904401 -2.6268541011 0.6435447434
| 29> H 0.5573051167 -2.1361755058 -1.0092224799
| 30> H 5.6918979781 0.8056291714 -0.328244814
| 31> H 4.6719460061 1.174209154 1.0930533141
| 32> H 5.2665196501 -1.6448660049 0.0692312473
| 33> H 6.0642159335 -0.8776454298 1.4543855533
| 34> H 4.3318177586 -1.2300175037 1.5163456458
| 35> H 0.1772811288 1.7512514101 0.9409123519
| 36> H 0.0334341288 1.3137583605 2.6794736772
| 37> H -3.6486758923 0.3272294511 2.5047986631
| 38> H -3.9548970082 1.9169879625 1.7538417661
| 39> H -5.8448493631 -0.4949439095 1.6521964109
| 40> H -6.0649516466 0.9385208263 2.6703301206
| 41> H -6.15231428 1.0788044315 0.9072633382
| 42> H -2.0082216056 -1.9259652114 -0.7878599207
| 43> H -3.5482405019 -1.529627475 -1.5951776892
| 44> H -2.3786223352 -1.3139655029 -3.7696910793
| 45> H -0.8232031204 -1.5902388069 -2.9938875124
| 46> H -2.0161419694 -2.9034592675 -3.069860569
| 47> *
| 48>
| 49>                          ****END OF INPUT****

CARTESIAN COORDINATES (ANGSTROEM)
---------------------------------
  C      1.833198   -3.888590   -0.916386
  C      1.359282   -2.549755   -0.388938
  O      2.475633   -1.642098   -0.419848
  P      2.294208   -0.065588   -0.317667
  S      0.985179    0.676013   -1.577618
  O      3.740330    0.466078   -0.612751
  C      4.870821    0.452262    0.297295
  C      5.150300   -0.919424    0.869847
  S      1.945321    0.327314    1.752463
  C      0.258314    0.950123    1.679802
  S     -0.950179   -0.346046    1.244478
  P     -2.212100    0.748778   -0.084931
  S     -1.886277    2.673044   -0.181080
  O     -3.661477    0.344934    0.442046
  C     -4.170347    0.844938    1.694798
  C     -5.660283    0.572186    1.732736
  O     -2.194485    0.025473   -1.477014
  C     -2.465807   -1.393831   -1.628064
  C     -1.882725   -1.832874   -2.954685
  H      2.187981   -3.782274   -1.937579
  H      2.643647   -4.264055   -0.299040
  H      1.007997   -4.592495   -0.893697
  H      1.004890   -2.626854    0.643545
  H      0.557305   -2.136176   -1.009222
  H      5.691898    0.805629   -0.328245
  H      4.671946    1.174209    1.093053
  H      5.266520   -1.644866    0.069231
  H      6.064216   -0.877645    1.454386
  H      4.331818   -1.230018    1.516346
  H      0.177281    1.751251    0.940912
  H      0.033434    1.313758    2.679474
  H     -3.648676    0.327229    2.504799
  H     -3.954897    1.916988    1.753842
  H     -5.844849   -0.494944    1.652196
  H     -6.064952    0.938521    2.670330
  H     -6.152314    1.078804    0.907263
  H     -2.008222   -1.925965   -0.787860
  H     -3.548241   -1.529627   -1.595178
  H     -2.378622   -1.313966   -3.769691
  H     -0.823203   -1.590239   -2.993888
  H     -2.016142   -2.903459   -3.069861

 Total Charge           Charge          ....    0
 Multiplicity           Mult            ....    1
 Number of Electrons    NEL             ....  202
 Basis Dimension        Dim             ....  334

ORBITAL ENERGIES
----------------

  NO   OCC          E(Eh)            E(eV)
   0   2.0000     -88.045995     -2395.8533
   1   2.0000     -88.039705     -2395.6822
   2   2.0000     -87.980580     -2394.0733
   3   2.0000     -87.978487     -2394.0163
   4   2.0000     -76.423455     -2079.5879
   5   2.0000     -76.421563     -2079.5365
   6   2.0000     -18.792463      -511.3689
   7   2.0000     -18.789062      -511.2764
   8   2.0000     -18.788222      -511.2535
   9   2.0000     -18.786601      -511.2094
  10   2.0000      -9.960586      -271.0413
  11   2.0000      -9.956939      -270.9421
  12   2.0000      -9.953196      -270.8402
  13   2.0000      -9.951524      -270.7947
  14   2.0000      -9.949318      -270.7347
  15   2.0000      -9.892352      -269.1846
  16   2.0000      -9.889337      -269.1026
  17   2.0000      -9.887002      -269.0390
  18   2.0000      -9.885514      -268.9985
  19   2.0000      -7.690947      -209.2813
  20   2.0000      -7.684273      -209.0997
  21   2.0000      -7.625845      -207.5098
  22   2.0000      -7.623229      -207.4386
  23   2.0000      -6.420969      -174.7234
  24   2.0000      -6.418919      -174.6677
  25   2.0000      -5.718848      -155.6178
  26   2.0000      -5.715176      -155.5178
  27   2.0000      -5.712112      -155.4345
  28   2.0000      -5.708798      -155.3443
  29   2.0000      -5.708234      -155.3289
  30   2.0000      -5.701359      -155.1419
  31   2.0000      -5.654894      -153.8775
  32   2.0000      -5.652384      -153.8092
  33   2.0000      -5.646282      -153.6431
  34   2.0000      -5.646007      -153.6356
  35   2.0000      -5.643742      -153.5740
  36   2.0000      -5.643284      -153.5616
  37   2.0000      -4.643653      -126.3602
  38   2.0000      -4.642869      -126.3389
  39   2.0000      -4.641656      -126.3059
  40   2.0000      -4.641159      -126.2924
  41   2.0000      -4.640680      -126.2793
  42   2.0000      -4.639249      -126.2404
  43   2.0000      -0.986591       -26.8465
  44   2.0000      -0.985272       -26.8106
  45   2.0000      -0.944856       -25.7108
  46   2.0000      -0.940185       -25.5837
  47   2.0000      -0.760532       -20.6951
  48   2.0000      -0.721693       -19.6383
  49   2.0000      -0.714536       -19.4435
  50   2.0000      -0.695044       -18.9131
  51   2.0000      -0.689666       -18.7668
  52   2.0000      -0.674969       -18.3668
  53   2.0000      -0.646480       -17.5916
  54   2.0000      -0.632190       -17.2028
  55   2.0000      -0.595163       -16.1952
  56   2.0000      -0.582329       -15.8460
  57   2.0000      -0.570514       -15.5245
  58   2.0000      -0.568630       -15.4732
  59   2.0000      -0.565714       -15.3939
  60   2.0000      -0.511317       -13.9136
  61   2.0000      -0.500684       -13.6243
  62   2.0000      -0.481589       -13.1047
  63   2.0000      -0.478961       -13.0332
  64   2.0000      -0.453913       -12.3516
  65   2.0000      -0.451865       -12.2959
  66   2.0000      -0.437845       -11.9144
  67   2.0000      -0.435610       -11.8535
  68   2.0000      -0.433397       -11.7933
  69   2.0000      -0.418854       -11.3976
  70   2.0000      -0.410005       -11.1568
  71   2.0000      -0.400816       -10.9067
  72   2.0000      -0.396837       -10.7985
  73   2.0000      -0.382840       -10.4176
  74   2.0000      -0.376453       -10.2438
  75   2.0000      -0.365438        -9.9441
  76   2.0000      -0.362420        -9.8620
  77   2.0000      -0.357575        -9.7301
  78   2.0000      -0.355850        -9.6832
  79   2.0000      -0.354037        -9.6338
  80   2.0000      -0.350015        -9.5244
  81   2.0000      -0.347716        -9.4618
  82   2.0000      -0.344531        -9.3752
  83   2.0000      -0.337761        -9.1910
  84   2.0000      -0.334999        -9.1158
  85   2.0000      -0.314842        -8.5673
  86   2.0000      -0.313447        -8.5293
  87   2.0000      -0.300285        -8.1712
  88   2.0000      -0.297786        -8.1032
  89   2.0000      -0.293102        -7.9757
  90   2.0000      -0.290588        -7.9073
  91   2.0000      -0.277286        -7.5453
  92   2.0000      -0.270725        -7.3668
  93   2.0000      -0.260686        -7.0936
  94   2.0000      -0.253787        -6.9059
  95   2.0000      -0.237816        -6.4713
  96   2.0000      -0.221185        -6.0187
  97   2.0000      -0.208505        -5.6737
  98   2.0000      -0.197735        -5.3806
  99   2.0000      -0.190804        -5.1920
 100   2.0000      -0.186334        -5.0704
 101   0.0000      -0.043574        -1.1857
 102   0.0000      -0.032273        -0.8782
 103   0.0000      -0.009715        -0.2644
 104   0.0000       0.005897         0.1605
 105   0.0000       0.015181         0.4131

MULLIKEN ATOMIC CHARGES
-----------------------
   0 C :   -0.272118
   1 C :   -0.044006
   2 O :   -0.375185
   3 P :    0.589533
   4 S :   -0.290629
   5 O :   -0.353452
   6 C :   -0.008833
   7 C :   -0.316504
   8 S :   -0.139882
   9 C :   -0.318436
  10 S :   -0.143206
  11 P :    0.614770
  12 S :   -0.292765
  13 O :   -0.389249
  14 C :   -0.006255
  15 C :   -0.279413
  16 O :   -0.351075
  17 C :   -0.017496
  18 C :   -0.297717
  19 H :    0.119400
  20 H :    0.114501
  21 H :    0.107584
  22 H :    0.103420
  23 H :    0.127068
  24 H :    0.115674
  25 H :    0.116939
  26 H :    0.127175
  27 H :    0.116680
  28 H :    0.125832
  29 H :    0.209337
  30 H :    0.177056
  31 H :    0.095896
  32 H :    0.101774
  33 H :    0.112125
  34 H :    0.110829
  35 H :    0.121275
  36 H :    0.104567
  37 H :    0.110625
  38 H :    0.121956
  39 H :    0.147080
  40 H :    0.105127
Sum of atomic charges:    0.0000000

LOEWDIN ATOMIC CHARGES
----------------------
   0 C :   -0.350217
   1 C :   -0.125807
   2 O :   -0.246835
   3 P :    0.561692
   4 S :   -0.291006
   5 O :   -0.231534
   6 C :   -0.112524
   7 C :   -0.367964
   8 S :    0.060305
   9 C :   -0.477668
  10 S :    0.049086
  11 P :    0.569825
  12 S :   -0.291390
  13 O :   -0.256364
  14 C :   -0.123037
  15 C :   -0.350489
  16 O :   -0.226838
  17 C :   -0.111348
  18 C :   -0.355173
  19 H :    0.128572
  20 H :    0.125797
  21 H :    0.128807
  22 H :    0.104202
  23 H :    0.106807
  24 H :    0.125332
  25 H :    0.112551
  26 H :    0.130901
  27 H :    0.132987
  28 H :    0.118234
  29 H :    0.125873
  30 H :    0.134725
  31 H :    0.104351
  32 H :    0.107503
  33 H :    0.124751
  34 H :    0.130201
  35 H :    0.129176
  36 H :    0.101212
  37 H :    0.116154
  38 H :    0.131622
  39 H :    0.129913
  40 H :    0.127613

  Mayer bond orders larger than 0.100000
B(  0-C ,  1-C ) :   1.1573 B(  0-C , 19-H ) :   0.9495 B(  0-C , 20-H ) :   0.9507
B(  0-C , 21-H ) :   0.9423 B(  1-C ,  2-O ) :   0.9087 B(  1-C , 22-H ) :   0.9226
B(  1-C , 23-H ) :   0.9002 B(  2-O ,  3-P ) :   1.0786 B(  3-P ,  4-S ) :   1.6607
B(  3-P ,  5-O ) :   1.1570 B(  3-P ,  8-S ) :   0.9226 B(  4-S ,  8-S ) :   0.1099
B(  5-O ,  6-C ) :   0.8989 B(  6-C ,  7-C ) :   1.1683 B(  6-C , 24-H ) :   0.9341
B(  6-C , 25-H ) :   0.9236 B(  7-C , 26-H ) :   0.9418 B(  7-C , 27-H ) :   0.9342
B(  7-C , 28-H ) :   0.9372 B(  8-S ,  9-C ) :   1.0094 B(  9-C , 10-S ) :   0.9850
B(  9-C , 29-H ) :   0.8475 B(  9-C , 30-H ) :   0.9094 B( 10-S , 11-P ) :   0.9352
B( 10-S , 12-S ) :   0.1170 B( 11-P , 12-S ) :   1.6554 B( 11-P , 13-O ) :   1.0695
B( 11-P , 16-O ) :   1.1454 B( 13-O , 14-C ) :   0.9112 B( 14-C , 15-C ) :   1.1599
B( 14-C , 31-H ) :   0.9233 B( 14-C , 32-H ) :   0.9109 B( 15-C , 33-H ) :   0.9513
B( 15-C , 34-H ) :   0.9423 B( 15-C , 35-H ) :   0.9512 B( 16-O , 17-C ) :   0.8913
B( 17-C , 18-C ) :   1.1629 B( 17-C , 36-H ) :   0.9113 B( 17-C , 37-H ) :   0.9298
B( 18-C , 38-H ) :   0.9465 B( 18-C , 39-H ) :   0.9337 B( 18-C , 40-H ) :   0.9408

Dispersion correction           -0.064469316
FINAL SINGLE POINT ENERGY     -2929.514750619763

DIPOLE MOMENT
-------------

Method             : SCF
Type of density    : Electron Density
Multiplicity       :   1
Irrep              :   0
Energy             : -2929.6344244518568303 Eh
Relativity type    :
Basis              : AO
                                X                 Y                 Z
Electronic contribution:      2.882188331      19.204593389      -0.279359307
Nuclear contribution   :     -2.698747217     -20.989088168       1.420113645
                        -----------------------------------------
Total Dipole Moment    :      0.183441114      -1.784494779       1.140754338
                        -----------------------------------------
Magnitude (a.u.)       :      2.125886337
Magnitude (Debye)      :      5.403573639

Rotational constants in cm-1:             0.012800             0.004856             0.004386
Rotational constants in MHz :           383.735631           145.576034           131.483316

                             ****ORCA TERMINATED NORMALLY****
TOTAL RUN TIME: 0 days 0 hours 0 minutes 21 seconds 194 msec
