                         Program Version 6.0.1  -  RELEASE   -
|  1> ! pbe def2-sv(p) def2/J RI DEFGRID1 loosescf d4 GCP(DFT/SV(P)) printgap
|  2> %output
|  3>     printlevel normal
|  4> end
|  5> * xyz 0 1
|  6> C 5.2994896358 -1.0785683029 -2.2313109923
|  7> C 4.3428476104 -0.1677790603 -1.4783097157
|  8> O 2.9879425224 -0.6456822991 -1.5788198446
|  9> C 2.5710895156 -1.5414144786 -0.7091673026
| 10> O 3.2447354472 -2.0133180887 0.1790670252
| 11> C 1.1128677864 -1.8995763492 -0.945810823
| 12> C 0.2437288244 -0.678718478 -0.6355297474
| 13> H 0.4864531435 0.144242224 -1.3119432595
| 14> C 0.4747507071 -0.2396568756 0.7997092234
| 15> O -0.2971739082 -0.4947303853 1.701562668
| 16> O 1.6165212725 0.3834377212 0.9176263758
| 17> C 2.0166360941 0.8936518523 2.2077617347
| 18> C 2.2141577012 2.3955343028 2.1063330305
| 19> S -1.5168817924 -1.1115434287 -0.8236864659
| 20> P -2.3478597406 0.5876692024 0.1385045854
| 21> S -1.2402381289 2.1994924724 0.1620225639
| 22> O -3.7191371644 0.7591957437 -0.6739403209
| 23> C -3.7261624934 1.1720958573 -2.0453061166
| 24> O -2.9302241088 0.2132539325 1.5548716607
| 25> C -3.6801861034 -0.9934590027 1.7974988555
| 26> H 4.987966064 -1.1734083516 -3.2677147095
| 27> H 6.2985690891 -0.6571854346 -2.1948809998
| 28> H 5.3154331301 -2.0648156843 -1.7731312966
| 29> H 4.3123688742 0.8292895054 -1.9176276532
| 30> H 4.6128214266 -0.1102254467 -0.4203094764
| 31> H 0.8422659545 -2.7316396738 -0.2949496159
| 32> H 0.9693669867 -2.1816602705 -1.9887192857
| 33> H 1.2425564927 0.6369319941 2.9358890654
| 34> H 2.9470083391 0.3777637436 2.4569318767
| 35> H 2.9790279602 2.6244900028 1.3706369683
| 36> H 1.284366918 2.8725009008 1.8028119341
| 37> H 2.5151624136 2.7820436979 3.074131034
| 38> H -3.3642606221 0.3616565828 -2.6775845931
| 39> H -3.0991447917 2.0558415211 -2.1729368399
| 40> H -4.7626951359 1.4057174476 -2.2739650319
| 41> H -4.4778886663 -1.0949618882 1.0638865856
| 42> H -4.084743449 -0.8765493317 2.7993326259
| 43> H -3.0079750621 -1.8500490543 1.7544980633
| 44> *
| 45>
| 46>                          ****END OF INPUT****

CARTESIAN COORDINATES (ANGSTROEM)
---------------------------------
  C      5.299490   -1.078568   -2.231311
  C      4.342848   -0.167779   -1.478310
  O      2.987943   -0.645682   -1.578820
  C      2.571090   -1.541414   -0.709167
  O      3.244735   -2.013318    0.179067
  C      1.112868   -1.899576   -0.945811
  C      0.243729   -0.678718   -0.635530
  H      0.486453    0.144242   -1.311943
  C      0.474751   -0.239657    0.799709
  O     -0.297174   -0.494730    1.701563
  O      1.616521    0.383438    0.917626
  C      2.016636    0.893652    2.207762
  C      2.214158    2.395534    2.106333
  S     -1.516882   -1.111543   -0.823686
  P     -2.347860    0.587669    0.138505
  S     -1.240238    2.199492    0.162023
  O     -3.719137    0.759196   -0.673940
  C     -3.726162    1.172096   -2.045306
  O     -2.930224    0.213254    1.554872
  C     -3.680186   -0.993459    1.797499
  H      4.987966   -1.173408   -3.267715
  H      6.298569   -0.657185   -2.194881
  H      5.315433   -2.064816   -1.773131
  H      4.312369    0.829290   -1.917628
  H      4.612821   -0.110225   -0.420309
  H      0.842266   -2.731640   -0.294950
  H      0.969367   -2.181660   -1.988719
  H      1.242556    0.636932    2.935889
  H      2.947008    0.377764    2.456932
  H      2.979028    2.624490    1.370637
  H      1.284367    2.872501    1.802812
  H      2.515162    2.782044    3.074131
  H     -3.364261    0.361657   -2.677585
  H     -3.099145    2.055842   -2.172937
  H     -4.762695    1.405717   -2.273965
  H     -4.477889   -1.094962    1.063887
  H     -4.084743   -0.876549    2.799333
  H     -3.007975   -1.850049    1.754498

 Total Charge           Charge          ....    0
 Multiplicity           Mult            ....    1
 Number of Electrons    NEL             ....  174
 Basis Dimension        Dim             ....  316

ORBITAL ENERGIES
----------------

  NO   OCC          E(Eh)            E(eV)
   0   2.0000     -88.039548     -2395.6779
   1   2.0000     -87.981057     -2394.0863
   2   2.0000     -76.423701     -2079.5946
   3   2.0000     -18.808682      -511.8103
   4   2.0000     -18.806556      -511.7524
   5   2.0000     -18.788875      -511.2713
   6   2.0000     -18.786822      -511.2154
   7   2.0000     -18.742296      -510.0038
   8   2.0000     -18.738310      -509.8953
   9   2.0000     -10.016277      -272.5568
  10   2.0000     -10.015300      -272.5302
  11   2.0000      -9.952233      -270.8140
  12   2.0000      -9.947658      -270.6895
  13   2.0000      -9.944146      -270.5940
  14   2.0000      -9.943739      -270.5829
  15   2.0000      -9.942435      -270.5474
  16   2.0000      -9.917920      -269.8803
  17   2.0000      -9.890719      -269.1401
  18   2.0000      -9.881674      -268.8940
  19   2.0000      -7.684573      -209.1079
  20   2.0000      -7.626279      -207.5216
  21   2.0000      -6.420503      -174.7108
  22   2.0000      -5.712345      -155.4408
  23   2.0000      -5.709220      -155.3558
  24   2.0000      -5.701539      -155.1468
  25   2.0000      -5.655308      -153.8887
  26   2.0000      -5.646760      -153.6562
  27   2.0000      -5.646371      -153.6456
  28   2.0000      -4.643153      -126.3466
  29   2.0000      -4.642522      -126.3295
  30   2.0000      -4.640833      -126.2835
  31   2.0000      -1.018880       -27.7251
  32   2.0000      -1.012728       -27.5577
  33   2.0000      -0.982322       -26.7303
  34   2.0000      -0.938062       -25.5260
  35   2.0000      -0.920372       -25.0446
  36   2.0000      -0.918946       -25.0058
  37   2.0000      -0.768559       -20.9135
  38   2.0000      -0.715319       -19.4648
  39   2.0000      -0.706316       -19.2198
  40   2.0000      -0.692052       -18.8317
  41   2.0000      -0.660986       -17.9863
  42   2.0000      -0.633187       -17.2299
  43   2.0000      -0.619381       -16.8542
  44   2.0000      -0.616580       -16.7780
  45   2.0000      -0.597151       -16.2493
  46   2.0000      -0.560802       -15.2602
  47   2.0000      -0.514529       -14.0010
  48   2.0000      -0.505048       -13.7431
  49   2.0000      -0.500223       -13.6118
  50   2.0000      -0.478302       -13.0153
  51   2.0000      -0.470676       -12.8077
  52   2.0000      -0.465670       -12.6715
  53   2.0000      -0.449014       -12.2183
  54   2.0000      -0.439659       -11.9637
  55   2.0000      -0.428236       -11.6529
  56   2.0000      -0.425455       -11.5772
  57   2.0000      -0.418822       -11.3967
  58   2.0000      -0.411908       -11.2086
  59   2.0000      -0.410799       -11.1784
  60   2.0000      -0.402271       -10.9463
  61   2.0000      -0.397672       -10.8212
  62   2.0000      -0.392871       -10.6906
  63   2.0000      -0.384973       -10.4757
  64   2.0000      -0.375443       -10.2163
  65   2.0000      -0.366237        -9.9658
  66   2.0000      -0.359618        -9.7857
  67   2.0000      -0.354105        -9.6357
  68   2.0000      -0.346765        -9.4360
  69   2.0000      -0.341315        -9.2877
  70   2.0000      -0.338457        -9.2099
  71   2.0000      -0.330904        -9.0044
  72   2.0000      -0.320181        -8.7126
  73   2.0000      -0.316617        -8.6156
  74   2.0000      -0.301665        -8.2087
  75   2.0000      -0.298173        -8.1137
  76   2.0000      -0.296348        -8.0641
  77   2.0000      -0.290352        -7.9009
  78   2.0000      -0.270942        -7.3727
  79   2.0000      -0.265439        -7.2230
  80   2.0000      -0.258864        -7.0440
  81   2.0000      -0.255250        -6.9457
  82   2.0000      -0.232899        -6.3375
  83   2.0000      -0.224956        -6.1214
  84   2.0000      -0.220543        -6.0013
  85   2.0000      -0.200269        -5.4496
  86   2.0000      -0.198483        -5.4010
  87   0.0000      -0.043268        -1.1774
  88   0.0000      -0.033578        -0.9137
  89   0.0000      -0.020875        -0.5680
  90   0.0000       0.014085         0.3833
  91   0.0000       0.021760         0.5921

MULLIKEN ATOMIC CHARGES
-----------------------
   0 C :   -0.305239
   1 C :   -0.011399
   2 O :   -0.233091
   3 C :    0.102593
   4 O :   -0.199175
   5 C :   -0.038731
   6 C :   -0.291457
   7 H :    0.152553
   8 C :    0.164606
   9 O :   -0.182292
  10 O :   -0.225496
  11 C :   -0.017540
  12 C :   -0.295632
  13 S :   -0.098424
  14 P :    0.615529
  15 S :   -0.322593
  16 O :   -0.387074
  17 C :   -0.099995
  18 O :   -0.347600
  19 C :   -0.102661
  20 H :    0.114500
  21 H :    0.114409
  22 H :    0.128090
  23 H :    0.106023
  24 H :    0.108645
  25 H :    0.111808
  26 H :    0.123145
  27 H :    0.121588
  28 H :    0.111142
  29 H :    0.107569
  30 H :    0.133363
  31 H :    0.110812
  32 H :    0.113193
  33 H :    0.116680
  34 H :    0.124742
  35 H :    0.117094
  36 H :    0.131175
  37 H :    0.129140
Sum of atomic charges:    0.0000000

LOEWDIN ATOMIC CHARGES
----------------------
   0 C :   -0.356037
   1 C :   -0.108876
   2 O :   -0.056811
   3 C :    0.024909
   4 O :   -0.163205
   5 C :   -0.237954
   6 C :   -0.265920
   7 H :    0.140083
   8 C :   -0.002408
   9 O :   -0.166262
  10 O :   -0.035284
  11 C :   -0.106090
  12 C :   -0.353771
  13 S :    0.092846
  14 P :    0.584706
  15 S :   -0.308157
  16 O :   -0.261974
  17 C :   -0.217443
  18 O :   -0.226952
  19 C :   -0.207058
  20 H :    0.125142
  21 H :    0.131448
  22 H :    0.131076
  23 H :    0.119456
  24 H :    0.119636
  25 H :    0.140257
  26 H :    0.142135
  27 H :    0.125320
  28 H :    0.119699
  29 H :    0.122117
  30 H :    0.129604
  31 H :    0.129821
  32 H :    0.107063
  33 H :    0.111115
  34 H :    0.122143
  35 H :    0.111619
  36 H :    0.127064
  37 H :    0.116943

  Mayer bond orders larger than 0.100000
B(  0-C ,  1-C ) :   1.1735 B(  0-C , 20-H ) :   0.9484 B(  0-C , 21-H ) :   0.9442
B(  0-C , 22-H ) :   0.9459 B(  1-C ,  2-O ) :   0.9141 B(  1-C , 23-H ) :   0.9366
B(  1-C , 24-H ) :   0.9139 B(  2-O ,  3-C ) :   1.2120 B(  3-C ,  4-O ) :   2.0540
B(  3-C ,  5-C ) :   1.0208 B(  5-C ,  6-C ) :   1.0546 B(  5-C , 25-H ) :   0.8961
B(  5-C , 26-H ) :   0.8918 B(  6-C ,  7-H ) :   0.8667 B(  6-C ,  8-C ) :   0.8742
B(  6-C , 13-S ) :   1.0176 B(  8-C ,  9-O ) :   2.0383 B(  8-C , 10-O ) :   1.2367
B( 10-O , 11-C ) :   0.8889 B( 11-C , 12-C ) :   1.1756 B( 11-C , 27-H ) :   0.9055
B( 11-C , 28-H ) :   0.9321 B( 12-C , 29-H ) :   0.9503 B( 12-C , 30-H ) :   0.9386
B( 12-C , 31-H ) :   0.9435 B( 13-S , 14-P ) :   0.9511 B( 13-S , 15-S ) :   0.1118
B( 14-P , 15-S ) :   1.6094 B( 14-P , 16-O ) :   1.0717 B( 14-P , 18-O ) :   1.1503
B( 16-O , 17-C ) :   0.9340 B( 17-C , 32-H ) :   0.9460 B( 17-C , 33-H ) :   0.9356
B( 17-C , 34-H ) :   0.9587 B( 18-O , 19-C ) :   0.9164 B( 19-C , 35-H ) :   0.9450
B( 19-C , 36-H ) :   0.9597 B( 19-C , 37-H ) :   0.9428

Dispersion correction           -0.051956241
FINAL SINGLE POINT ENERGY     -1979.016307880280

DIPOLE MOMENT
-------------

Method             : SCF
Type of density    : Electron Density
Multiplicity       :   1
Irrep              :   0
Energy             : -1979.1466277485178580 Eh
Relativity type    :
Basis              : AO
                                X                 Y                 Z
Electronic contribution:    -16.923725338      -0.933961987       2.034329157
Nuclear contribution   :     17.198618224       0.683307642      -2.921448512
                        -----------------------------------------
Total Dipole Moment    :      0.274892886      -0.250654345      -0.887119355
                        -----------------------------------------
Magnitude (a.u.)       :      0.961963850
Magnitude (Debye)      :      2.445117790

Rotational constants in cm-1:             0.016361             0.005941             0.005456
Rotational constants in MHz :           490.504328           178.117846           163.572279

                             ****ORCA TERMINATED NORMALLY****
TOTAL RUN TIME: 0 days 0 hours 0 minutes 43 seconds 766 msec
