                         Program Version 6.0.0  -   RELEASE  -
|  1> ! r2scan-3c def2/J RI DEFGRID2 scfconv6 printgap
|  2> %output
|  3>     printlevel normal
|  4> end
|  5> * xyz 0 1
|  6> C 5.4735654843 -1.1090525948 -1.281502474
|  7> C 4.1781219811 -0.4664926434 -1.7326870706
|  8> O 3.626701438 0.3738074326 -0.6869115957
|  9> P 2.5525095389 -0.1086186026 0.3635167
| 10> S 2.2337938776 1.2579620911 1.7225632456
| 11> O 3.1359302654 -1.4882073622 0.894434761
| 12> C 2.6943028094 -2.0784191457 2.1304660769
| 13> C 1.2262927553 -2.4497312465 2.0925847357
| 14> S 0.916566595 -0.7369859956 -0.8675761305
| 15> C 0.4335414892 0.9115152798 -1.4344478052
| 16> S -0.6314515762 1.7968263145 -0.2551089997
| 17> P -2.2335441329 0.4238572383 -0.3195752008
| 18> S -2.6040029815 -0.3921656133 -2.0668833595
| 19> O -3.4382258806 1.2450211753 0.3085737083
| 20> C -4.1766400312 2.2139860738 -0.4626103641
| 21> C -5.5072247214 2.4427292071 0.2256152442
| 22> O -1.8614825878 -0.5605052427 0.8593994398
| 23> C -2.3946974402 -1.9024693765 0.9224633909
| 24> C -3.8871146653 -1.8984579216 1.1746173405
| 25> H 5.2896373841 -1.7934347503 -0.4581134561
| 26> H 5.9052145522 -1.6565771627 -2.1135860377
| 27> H 6.172811425 -0.344825517 -0.9533410553
| 28> H 3.4363967227 -1.2202315708 -2.010404785
| 29> H 4.3451500434 0.2163287391 -2.567831653
| 30> H 3.3302861306 -2.9575418097 2.2428220624
| 31> H 2.8892328269 -1.3680560349 2.9395694564
| 32> H 0.9677312761 -2.9855148278 3.0004386958
| 33> H 0.6204165623 -1.5453496791 2.0305591666
| 34> H 1.0155317617 -3.0748511041 1.2277554458
| 35> H -0.1115218168 0.7704198139 -2.3675108697
| 36> H 1.3172620285 1.5303313409 -1.5776073898
| 37> H -3.5870826274 3.1337261807 -0.5086928294
| 38> H -4.3107556475 1.8231993425 -1.477235404
| 39> H -6.065236346 3.1958814674 -0.3208503791
| 40> H -6.0801526594 1.5201869806 0.2514032686
| 41> H -5.3423503711 2.7837642222 1.2435338713
| 42> H -2.1583338272 -2.4104815416 -0.0179232168
| 43> H -1.8448348604 -2.3639308755 1.7433307718
| 44> H -4.4031098396 -1.4555828193 0.3233687856
| 45> H -4.2333437977 -2.9187663105 1.3060079472
| 46> H -4.1154939425 -1.3181690298 2.0647744915
| 47> *
| 48>
| 49>                          ****END OF INPUT****

CARTESIAN COORDINATES (ANGSTROEM)
---------------------------------
  C      5.473565   -1.109053   -1.281502
  C      4.178122   -0.466493   -1.732687
  O      3.626701    0.373807   -0.686912
  P      2.552510   -0.108619    0.363517
  S      2.233794    1.257962    1.722563
  O      3.135930   -1.488207    0.894435
  C      2.694303   -2.078419    2.130466
  C      1.226293   -2.449731    2.092585
  S      0.916567   -0.736986   -0.867576
  C      0.433541    0.911515   -1.434448
  S     -0.631452    1.796826   -0.255109
  P     -2.233544    0.423857   -0.319575
  S     -2.604003   -0.392166   -2.066883
  O     -3.438226    1.245021    0.308574
  C     -4.176640    2.213986   -0.462610
  C     -5.507225    2.442729    0.225615
  O     -1.861483   -0.560505    0.859399
  C     -2.394697   -1.902469    0.922463
  C     -3.887115   -1.898458    1.174617
  H      5.289637   -1.793435   -0.458113
  H      5.905215   -1.656577   -2.113586
  H      6.172811   -0.344826   -0.953341
  H      3.436397   -1.220232   -2.010405
  H      4.345150    0.216329   -2.567832
  H      3.330286   -2.957542    2.242822
  H      2.889233   -1.368056    2.939569
  H      0.967731   -2.985515    3.000439
  H      0.620417   -1.545350    2.030559
  H      1.015532   -3.074851    1.227755
  H     -0.111522    0.770420   -2.367511
  H      1.317262    1.530331   -1.577607
  H     -3.587083    3.133726   -0.508693
  H     -4.310756    1.823199   -1.477235
  H     -6.065236    3.195881   -0.320850
  H     -6.080153    1.520187    0.251403
  H     -5.342350    2.783764    1.243534
  H     -2.158334   -2.410482   -0.017923
  H     -1.844835   -2.363931    1.743331
  H     -4.403110   -1.455583    0.323369
  H     -4.233344   -2.918766    1.306008
  H     -4.115494   -1.318169    2.064774

 Total Charge           Charge          ....    0
 Multiplicity           Mult            ....    1
 Number of Electrons    NEL             ....  202
 Basis Dimension        Dim             ....  539

ORBITAL ENERGIES
----------------

  NO   OCC          E(Eh)            E(eV)
   0   2.0000     -88.571764     -2410.1602
   1   2.0000     -88.570186     -2410.1173
   2   2.0000     -88.519042     -2408.7256
   3   2.0000     -88.515657     -2408.6335
   4   2.0000     -76.912247     -2092.8886
   5   2.0000     -76.910876     -2092.8513
   6   2.0000     -18.996014      -516.9078
   7   2.0000     -18.991441      -516.7834
   8   2.0000     -18.990960      -516.7703
   9   2.0000     -18.988318      -516.6984
  10   2.0000     -10.105531      -274.9855
  11   2.0000     -10.102320      -274.8981
  12   2.0000     -10.102193      -274.8946
  13   2.0000     -10.097449      -274.7656
  14   2.0000     -10.096881      -274.7501
  15   2.0000     -10.032413      -272.9958
  16   2.0000     -10.031670      -272.9756
  17   2.0000     -10.031428      -272.9690
  18   2.0000     -10.027917      -272.8735
  19   2.0000      -7.865979      -214.0442
  20   2.0000      -7.864237      -213.9968
  21   2.0000      -7.813939      -212.6281
  22   2.0000      -7.810298      -212.5290
  23   2.0000      -6.590624      -179.3400
  24   2.0000      -6.589621      -179.3127
  25   2.0000      -5.812785      -158.1739
  26   2.0000      -5.811141      -158.1292
  27   2.0000      -5.809879      -158.0949
  28   2.0000      -5.808145      -158.0477
  29   2.0000      -5.803124      -157.9110
  30   2.0000      -5.801310      -157.8617
  31   2.0000      -5.761450      -156.7770
  32   2.0000      -5.758093      -156.6857
  33   2.0000      -5.754242      -156.5809
  34   2.0000      -5.754027      -156.5750
  35   2.0000      -5.750606      -156.4819
  36   2.0000      -5.750161      -156.4698
  37   2.0000      -4.736643      -128.8906
  38   2.0000      -4.735602      -128.8623
  39   2.0000      -4.735001      -128.8459
  40   2.0000      -4.734511      -128.8326
  41   2.0000      -4.733825      -128.8139
  42   2.0000      -4.733464      -128.8041
  43   2.0000      -1.052356       -28.6361
  44   2.0000      -1.048498       -28.5311
  45   2.0000      -1.012911       -27.5627
  46   2.0000      -1.009714       -27.4757
  47   2.0000      -0.798783       -21.7360
  48   2.0000      -0.758354       -20.6358
  49   2.0000      -0.750317       -20.4172
  50   2.0000      -0.736976       -20.0541
  51   2.0000      -0.732161       -19.9231
  52   2.0000      -0.707559       -19.2536
  53   2.0000      -0.684082       -18.6148
  54   2.0000      -0.667855       -18.1733
  55   2.0000      -0.629410       -17.1271
  56   2.0000      -0.624784       -17.0012
  57   2.0000      -0.610335       -16.6080
  58   2.0000      -0.599074       -16.3016
  59   2.0000      -0.589673       -16.0458
  60   2.0000      -0.529014       -14.3952
  61   2.0000      -0.524072       -14.2607
  62   2.0000      -0.496389       -13.5074
  63   2.0000      -0.494752       -13.4629
  64   2.0000      -0.475302       -12.9336
  65   2.0000      -0.468500       -12.7485
  66   2.0000      -0.457866       -12.4592
  67   2.0000      -0.450939       -12.2707
  68   2.0000      -0.447547       -12.1784
  69   2.0000      -0.437146       -11.8953
  70   2.0000      -0.426007       -11.5922
  71   2.0000      -0.415165       -11.2972
  72   2.0000      -0.410091       -11.1591
  73   2.0000      -0.395128       -10.7520
  74   2.0000      -0.394569       -10.7368
  75   2.0000      -0.386146       -10.5076
  76   2.0000      -0.383466       -10.4346
  77   2.0000      -0.376227       -10.2377
  78   2.0000      -0.371590       -10.1115
  79   2.0000      -0.370230       -10.0745
  80   2.0000      -0.363957        -9.9038
  81   2.0000      -0.363087        -9.8801
  82   2.0000      -0.360294        -9.8041
  83   2.0000      -0.356420        -9.6987
  84   2.0000      -0.344921        -9.3858
  85   2.0000      -0.332341        -9.0434
  86   2.0000      -0.325905        -8.8683
  87   2.0000      -0.314811        -8.5664
  88   2.0000      -0.312988        -8.5168
  89   2.0000      -0.308455        -8.3935
  90   2.0000      -0.299937        -8.1617
  91   2.0000      -0.289021        -7.8647
  92   2.0000      -0.285939        -7.7808
  93   2.0000      -0.276985        -7.5371
  94   2.0000      -0.273202        -7.4342
  95   2.0000      -0.247970        -6.7476
  96   2.0000      -0.227081        -6.1792
  97   2.0000      -0.222876        -6.0648
  98   2.0000      -0.218222        -5.9381
  99   2.0000      -0.212757        -5.7894
 100   2.0000      -0.201206        -5.4751
 101   0.0000      -0.042258        -1.1499
 102   0.0000      -0.024680        -0.6716
 103   0.0000      -0.000451        -0.0123
 104   0.0000       0.009561         0.2602
 105   0.0000       0.015615         0.4249

MULLIKEN ATOMIC CHARGES
-----------------------
   0 C :   -0.460572
   1 C :   -0.109034
   2 O :   -0.285748
   3 P :    0.629806
   4 S :   -0.396886
   5 O :   -0.291241
   6 C :   -0.157567
   7 C :   -0.487547
   8 S :   -0.163058
   9 C :   -0.241258
  10 S :   -0.095080
  11 P :    0.708243
  12 S :   -0.500301
  13 O :   -0.284489
  14 C :   -0.157895
  15 C :   -0.440747
  16 O :   -0.292396
  17 C :   -0.131930
  18 C :   -0.458593
  19 H :    0.165882
  20 H :    0.146285
  21 H :    0.157950
  22 H :    0.166463
  23 H :    0.150543
  24 H :    0.148032
  25 H :    0.176482
  26 H :    0.148681
  27 H :    0.202130
  28 H :    0.161514
  29 H :    0.218498
  30 H :    0.191577
  31 H :    0.153370
  32 H :    0.170076
  33 H :    0.146857
  34 H :    0.153933
  35 H :    0.155329
  36 H :    0.176944
  37 H :    0.150223
  38 H :    0.170933
  39 H :    0.146526
  40 H :    0.158065
Sum of atomic charges:   -0.0000000

LOEWDIN ATOMIC CHARGES
----------------------
   0 C :   -0.393322
   1 C :    0.021119
   2 O :   -0.663273
   3 P :    0.376468
   4 S :   -0.079324
   5 O :   -0.673897
   6 C :    0.022860
   7 C :   -0.415631
   8 S :    0.143635
   9 C :   -0.416850
  10 S :    0.171079
  11 P :    0.369042
  12 S :   -0.141120
  13 O :   -0.664347
  14 C :    0.019514
  15 C :   -0.385928
  16 O :   -0.665971
  17 C :    0.017127
  18 C :   -0.400232
  19 H :    0.166156
  20 H :    0.158724
  21 H :    0.161813
  22 H :    0.177319
  23 H :    0.179068
  24 H :    0.179258
  25 H :    0.181824
  26 H :    0.159961
  27 H :    0.174122
  28 H :    0.160453
  29 H :    0.191624
  30 H :    0.186874
  31 H :    0.172575
  32 H :    0.180375
  33 H :    0.159958
  34 H :    0.159644
  35 H :    0.160592
  36 H :    0.180991
  37 H :    0.180612
  38 H :    0.166154
  39 H :    0.159219
  40 H :    0.161733

  Mayer bond orders larger than 0.100000
B(  0-C ,  1-C ) :   0.9437 B(  0-C , 19-H ) :   0.9679 B(  0-C , 20-H ) :   0.9651
B(  0-C , 21-H ) :   0.9707 B(  1-C ,  2-O ) :   0.7587 B(  1-C , 22-H ) :   0.9651
B(  1-C , 23-H ) :   0.9603 B(  2-O ,  3-P ) :   1.1288 B(  3-P ,  4-S ) :   1.9017
B(  3-P ,  5-O ) :   1.0289 B(  3-P ,  8-S ) :   0.9830 B(  5-O ,  6-C ) :   0.8203
B(  6-C ,  7-C ) :   0.9122 B(  6-C , 24-H ) :   0.9616 B(  6-C , 25-H ) :   0.9691
B(  7-C , 26-H ) :   0.9531 B(  7-C , 27-H ) :   0.9544 B(  7-C , 28-H ) :   0.9629
B(  8-S ,  9-C ) :   0.8859 B(  9-C , 10-S ) :   0.9371 B(  9-C , 29-H ) :   0.9116
B(  9-C , 30-H ) :   0.9171 B( 10-S , 11-P ) :   1.0732 B( 11-P , 12-S ) :   1.7090
B( 11-P , 13-O ) :   1.0821 B( 11-P , 16-O ) :   1.1908 B( 13-O , 14-C ) :   0.7789
B( 14-C , 15-C ) :   0.9565 B( 14-C , 31-H ) :   0.9463 B( 14-C , 32-H ) :   0.9518
B( 15-C , 33-H ) :   0.9645 B( 15-C , 34-H ) :   0.9715 B( 15-C , 35-H ) :   0.9714
B( 16-O , 17-C ) :   0.7852 B( 17-C , 18-C ) :   0.9292 B( 17-C , 36-H ) :   0.9648
B( 17-C , 37-H ) :   0.9561 B( 18-C , 38-H ) :   0.9592 B( 18-C , 39-H ) :   0.9616
B( 18-C , 40-H ) :   0.9719

Dispersion correction           -0.021082448
FINAL SINGLE POINT ENERGY     -2932.460785708427

DIPOLE MOMENT
-------------

Method             : SCF
Type of density    : Electron Density
Multiplicity       :   1
Irrep              :   0
Energy             : -2932.4858543355780967 Eh
Relativity type    :
Basis              : AO
                                X                 Y                 Z
Electronic contribution:      6.720133924      11.008107158      -3.842361916
Nuclear contribution   :     -6.792931243     -12.014140549       3.776700400
                        -----------------------------------------
Total Dipole Moment    :     -0.072797320      -1.006033391      -0.065661516
                        -----------------------------------------
Magnitude (a.u.)       :      1.010798728
Magnitude (Debye)      :      2.569246186

Rotational constants in cm-1:             0.013933             0.004402             0.004166
Rotational constants in MHz :           417.686105           131.982047           124.892512

                             ****ORCA TERMINATED NORMALLY****
TOTAL RUN TIME: 0 days 0 hours 1 minutes 19 seconds 830 msec
